default_name
 43861
  38.5479173  30.0252014  24.0266509  39.0431906  30.4687328  24.7869701
  38.2602563  30.7353319  23.3685732  39.0844840  29.2304435  23.7095457
  37.2593830  29.4445203  24.5785693  36.4143055  29.9064471  24.0681116
  37.1810123  27.9287617  24.3810480  37.0893384  27.7513772  23.3094931
  38.1224699  27.5117304  24.7385989  36.0049421  27.2500016  25.1174341
  36.2777975  27.2299036  26.1725393  35.1422852  27.9015511  24.9781197
  35.5647638  25.5225548  24.5645238  34.6363224  25.8722163  23.0632679
  35.2728182  26.4065519  22.3579611  34.3038486  24.9360712  22.6147212
  33.7691050  26.4861326  23.3064593  37.1376704  29.7372343  26.0976718
  36.0371652  29.9515671  26.6097008  38.2578809  29.6291394  26.7983622
  39.1028971  29.2737835  26.3743703  38.2435318  29.8397038  28.2508424
  37.3943429  29.2645447  28.6198537  39.5924607  29.2547370  28.9189431
  40.4507790  29.8264549  28.5660574  39.5250343  29.3339603  30.0039674
  39.7132998  28.2084221  28.6383681  37.9360433  31.3062850  28.6141596
  37.5611594  31.5918657  29.7501872  37.9564954  32.2097145  27.6198468
  38.1705320  31.8996120  26.6827640  37.6405440  33.6305906  27.8288771
  37.8011256  33.9016628  28.8723485  38.5650233  34.5123971  26.9375453
  38.5926404  34.1056302  25.9266659  38.1790631  35.5313541  26.9081953
  39.8383544  34.5188086  27.4647643  40.4090570  35.0619795  26.9162538
  36.2216027  33.9840693  27.4385037  35.8035634  35.1427596  27.5356786
  35.4928850  33.0030977  26.8914149  35.8306877  32.0515537  26.9149247
  34.1879761  33.2613218  26.2806506  34.0247535  34.3357681  26.1968486
  34.1219978  32.6384639  24.8634210  34.8655176  33.1790103  24.2776847
  34.4415650  31.6040300  24.9896088  32.7546673  32.6716558  24.1226027
  32.8469864  32.0401319  23.2389989  32.0106268  32.2465618  24.7962480
  32.3226794  34.0605017  23.7064853  33.1093109  35.0090986  23.8851601
  31.1882610  34.1699369  23.2012619  33.1112433  32.5901331  27.1637328
  33.0203938  31.3279930  27.2302908  32.3465414  33.3911430  27.8861234
  32.5459621  34.3781303  27.9647785  31.1814155  32.8403101  28.6455929
  31.5324822  32.1281348  29.3923577  30.4155918  33.9730504  29.3652077
  30.1103497  34.6689330  28.5837515  29.5304742  33.5497611  29.8400688
  31.2564562  34.7215634  30.4201263  32.1155843  35.1843777  29.9345311
  30.3859082  35.8280034  31.1051130  29.5267765  35.3658730  31.5913507
  30.9846915  36.3533874  31.8491096  30.0393222  36.5361437  30.3524405
  31.7968665  33.7608974  31.4705327  32.4265787  33.0124658  30.9894796
  32.3857292  34.3148508  32.2016124  30.9657139  33.2666693  31.9735467
  30.2004110  32.0771287  27.7503665  29.9029693  32.5145663  26.6357159
  29.7086063  30.9422332  28.2703754  30.1438229  30.5387250  29.0876067
  28.5676531  30.2242397  27.6552980  28.6841338  30.1950403  26.5719335
  28.4325170  28.7654889  28.1804363  27.6400023  28.2644113  27.6246109
  29.7685828  27.9831883  27.9989702  30.5615245  28.4834432  28.5549270
  29.6486967  26.9665612  28.3733976  30.0310823  27.9517715  26.9415169
  28.0624091  28.7634357  29.5646050  27.9831476  27.8578806  29.8732925
  27.2680509  30.9719445  27.9140788  27.2141064  31.8423691  28.8063825
  26.2225856  30.6987571  27.1068334  26.1383253  29.9388777  25.8392296
  25.9744820  28.8820120  26.0496828  27.0621931  30.0570925  25.2730206
  24.9419756  30.5919514  25.1458896  24.4796181  29.9055441  24.4365451
  25.2416098  31.5024892  24.6270047  24.0025009  30.9102985  26.3071459
  23.4354715  30.0369913  26.6294984  23.3142119  31.7172268  26.0557010
  24.9533671  31.3619120  27.4323160  25.1103980  32.4367298  27.3417274
  24.4411596  31.0347354  28.8536256  23.9429694  31.9463123  29.5156552
  24.6564550  29.8139134  29.3611396  25.0621635  29.0863489  28.7900442
  24.2688256  29.4823469  30.7438999  23.2278921  29.7682981  30.8948590
  24.4152257  27.9959564  31.0508127  25.3728981  27.6659393  30.6482566
  24.4173948  27.8787073  32.1344861  23.2858697  27.1468906  30.4462970
  22.3557070  27.3824821  30.9633993  23.2098584  27.4561976  29.4038716
  23.5383099  25.6413499  30.5133957  24.3857701  25.1932530  31.3207255
  22.8439171  24.8904700  29.7648779  25.0900791  30.2650987  31.7728933
  24.5654693  30.7247001  32.8019026  26.3884478  30.3975047  31.5122649
  26.8326064  29.9700958  30.7121748  27.2162188  31.1548306  32.4375614
  27.0490442  30.7969854  33.4534839  28.7075189  30.9950497  32.0995685
  28.8116437  31.1663719  31.0281647  29.2429899  31.7721558  32.6449829
  29.2935131  29.6242439  32.4568418  29.4200380  29.5616842  33.5376649
  28.5863379  28.8620595  32.1296150  30.6478578  29.3948223  31.7689354
  31.0205542  30.1707212  30.8506744  31.3531621  28.4593374  32.1400202
  26.7946155  32.6330876  32.3650351  26.6936956  33.2814323  33.3974916
  26.5240846  33.1788265  31.1735235  26.5225176  32.6421554  30.3179062
  26.1926843  34.6034489  31.1001351  27.0133611  35.1560460  31.5575466
  25.9677630  35.1463250  29.6716160  25.1649771  34.5580976  29.2270684
  25.6466243  36.1833920  29.7688882  27.1591399  35.0807178  28.8093527
  27.9485889  35.6973380  29.2390626  27.5002289  34.0474548  28.7451039
  26.8156551  35.5962491  27.3991901  25.9238485  35.1085514  27.0055774
  26.6693075  36.6763777  27.3971701  27.9465620  35.2753679  26.5310486
  27.9215267  34.3872238  26.0507646  28.9956021  36.0732952  26.3375441
  29.0636070  37.2958784  26.9332998  28.3105158  37.6056899  27.5307699
  29.8668316  37.8873865  26.7750344  29.9825551  35.6414142  25.5405526
  29.9155675  34.7319174  25.1064694  30.7888997  36.2273741  25.3775865
  24.9195634  34.8927732  31.8307072  24.8075825  35.9308110  32.4760319
  23.9457648  33.9783265  31.7347623  24.0408644  33.1762961  31.1282950
  22.6851921  34.1656192  32.4390079  22.2728262  35.1478364  32.2081335
  21.6758951  33.0983446  32.0098940  21.4359136  33.2113991  30.9526680
  22.0841639  32.1029499  32.1848395  20.5022273  33.2681157  32.7800906
  19.8543460  32.6068192  32.5260501  22.8495155  34.1644317  33.9599518
  22.2935385  35.0190224  34.6647627  23.5903333  33.1885218  34.4477354
  23.9032584  32.4643285  33.8170839  23.9341421  33.0764889  35.8367577
  23.0321113  33.0140849  36.4454822  24.7438871  31.8363365  36.0530657
  24.0907019  30.9914522  35.8348483  25.5584548  31.8616158  35.3292285
  25.3074186  31.6880919  37.4338021  26.1696379  31.0248072  37.3650121
  25.6356852  32.6782575  37.7498911  24.3253199  31.1354747  38.4453645
  23.1482293  30.8167014  38.0893205  24.7664188  31.0208678  39.6139033
  24.7112077  34.2852995  36.3816393  24.5212739  34.6102550  37.5480659
  25.5815282  34.8905086  35.5609243  25.6894971  34.5293803  34.6238926
  26.4591291  35.9893442  35.9898569  26.5327983  35.9903562  37.0773636
  27.8857521  35.8366572  35.3960231  27.6588986  35.7712873  34.3318973
  28.5359734  36.6926686  35.5764579  28.6011090  34.5399440  35.8518843
  27.8935109  33.7136253  35.7840378  29.8219371  34.2372597  34.9839587
  30.5302445  35.0629811  35.0516617  30.2983139  33.3210712  35.3329065
  29.5092676  34.1115258  33.9473637  28.9126814  34.5394611  37.3513983
  27.9843748  34.6269021  37.9159339  29.4135700  33.6089820  37.6186443
  29.5621608  35.3821555  37.5883408  25.9618289  37.4077407  35.6951894
  26.6384072  38.3762944  36.0913568  24.7904085  37.5239610  35.0639865
  24.2447515  36.6939587  34.8810823  24.2485527  38.8158648  34.6455718
  24.8350516  39.2371606  33.8290988  22.8142783  38.5997438  34.1567348
  22.7655620  37.6232577  33.6748624  22.1566077  38.6086210  35.0259244
  22.3757829  39.6580761  33.1872275  22.2079030  40.6043359  33.7015324
  23.1234450  39.7972051  32.4063647  21.0706930  39.1820856  32.5613021
  21.2711983  38.8188559  31.5533533  20.6616987  38.3714765  33.1644074
  20.0577952  40.3333079  32.4977862  19.1567929  39.9665708  32.0060552
  19.8181922  40.6319360  33.5183306  20.5906277  41.5099440  31.7470578
  20.8123084  41.2335443  30.8012457  19.8944946  42.2415145  31.7296420
  21.4252798  41.8501884  32.2027867  24.2159178  39.8001920  35.8163681
  24.6899114  40.9361986  35.7195122  23.6622304  39.3268693  36.9521488
  23.1557909  38.4531100  36.9649179  23.5725754  40.2011190  38.1293983
  23.2713825  41.1959504  37.8012329  22.5527318  39.6965326  39.1782885
  22.7816218  38.6627364  39.4370819  22.6384191  40.3207082  40.0677616
  21.1204997  39.7651276  38.6727602  20.8084846  40.4932798  37.7264209
  20.2178968  38.9783177  39.3056774  19.2520448  38.9847634  39.0104008
  20.5147253  38.3886744  40.0700820  24.9021849  40.5763411  38.7360746
  25.0761264  41.7343273  39.1212152  25.8395012  39.6270245  38.8334659
  25.6140644  38.6640711  38.6285307  27.1828451  39.9368408  39.3019848
  27.1239096  40.4107100  40.2818183  28.0387994  38.6688689  39.4212167
  28.1489430  38.2041156  38.4414351  29.0229108  38.9232377  39.8148171
  27.3956073  37.7623829  40.3051692  27.9241839  36.9651187  40.3862641
  27.9082054  40.9409870  38.4236780  28.6682695  41.7493395  38.9033423
  27.6816515  40.8579259  37.1153007  27.1221290  40.1103163  36.7304452
  28.3275871  41.7778737  36.1959045  29.3889199  41.8883416  36.4183203
  28.1549204  41.2713870  34.7414010  27.1379556  40.8973715  34.6230990
  28.4173148  42.4306564  33.6903452  29.4343062  42.8048876  33.8077337
  28.2880456  42.0420596  32.6802052  27.7101101  43.2425510  33.8600152
  29.1156471  40.0842263  34.5097465  30.1277000  40.4887382  34.4949239
  29.0060203  39.4120459  35.3607782  28.8547745  39.3087763  33.2075207
  28.9646823  39.9802383  32.3559581  29.5714800  38.4921592  33.1205215
  27.8430011  38.9035478  33.2218116  27.7900775  43.2099955  36.4010008
  28.5742156  44.1839131  36.4335570  26.4785816  43.3150340  36.5997683
  25.8903905  42.5000491  36.5001180  25.8331331  44.6157585  36.8605595
  26.1496386  45.3333161  36.1035691  24.2868836  44.4594479  36.7818936
  23.9537801  43.7507367  37.5400958  23.8141378  45.4260222  36.9560940
  24.0081058  44.0919389  35.7943110  26.3107862  45.1749524  38.2046126
  26.5914380  46.3800704  38.3481369  26.4942755  44.2861558  39.1853681
  26.4242461  43.2912697  39.0260042  26.7886467  44.7478881  40.5267740
  26.1435329  45.5857321  40.7912448  26.5365086  43.5909108  41.5316719
  25.4880389  43.3045633  41.4491141  27.1661380  42.7523074  41.2343319
  26.8501458  43.9764293  42.9908670  27.8942788  44.2850664  43.0421512
  26.2091932  44.8219869  43.2404895  26.6028315  42.8293105  43.9950299
  26.4275904  41.6461454  43.5684003  26.5992233  43.1209169  45.2227150
  28.2570538  45.2152854  40.6372155  28.5159852  46.2758318  41.2201191
  29.2004496  44.3894446  40.1300385  28.9096628  43.6012991  39.5693523
  30.6513912  44.5644229  40.4009203  30.8037072  45.3316311  41.1600583
  31.2387354  43.2507562  40.9103196  30.9052733  42.4098797  40.3021839
  32.3274081  43.3017262  40.8931804  30.8484132  42.9422362  42.3151392
  31.3496581  43.7133410  43.3788439  32.0321795  44.5373099  43.1706623
  30.9799085  43.4304983  44.6903070  31.3704710  44.0374590  45.5071058
  30.1162215  42.3787120  44.9592295  29.8312139  42.1610074  45.9885377
  29.6130261  41.6010509  43.9172321  28.9448071  40.7645117  44.1216478
  29.9758096  41.9049865  42.5899084  29.5676881  41.3198889  41.7657740
  31.4716087  45.0202779  39.2195476  32.5597536  45.5784840  39.3911069
  30.9419044  44.8354830  38.0264184  29.9889351  44.5201465  37.9145625
  31.7805974  44.9954692  36.8059908  32.7512514  45.4233774  37.0566391
  32.0022906  43.6044737  36.1805153  31.0705440  43.1412272  35.8559383
  32.6721873  43.7087799  35.3270174  32.6599445  42.6327213  37.1292506
  33.9761668  42.7521172  37.5092118  34.2811505  41.7736416  38.3647562
  35.2641983  41.7384176  38.8343042  33.2320151  40.9701815  38.4807083
  33.1874834  40.1140202  39.0146602  32.1883934  41.4999143  37.7408043
  31.2179360  41.0036553  37.7344213  31.2166285  45.9572659  35.8011663
  31.6413722  45.9442660  34.6022281  30.3546683  46.8602321  36.2609627
  30.0578902  46.8560954  37.2263667  29.7967860  47.9188597  35.3472467
  30.2504677  47.7710376  34.3672361  28.2533637  47.7712753  35.2082660
  27.7938730  48.0025212  36.1692519  27.6844982  48.7426334  34.1077201
  28.1432130  48.5116733  33.1462952  26.6043555  48.6162850  34.0340522
  27.9114959  49.7734500  34.3797305  27.9843596  46.4412870  34.7724462
  27.0366277  46.3211094  34.6777787  30.1340527  49.2545468  35.9592049
  30.1241898  49.3801208  37.1623931  30.3914756  50.2694675  35.1339204
  30.1817263  50.2145512  34.1474678  30.9758414  51.5140080  35.6538986
  30.9085167  51.5333520  36.7416451  32.4636480  51.6056108  35.2498149
  32.6082824  51.5946239  34.1695097  32.7961824  52.5631273  35.6506677
  33.2680701  50.4909744  35.8766073  33.7333863  50.6142221  37.1753639
  33.5413857  51.5464977  37.7064924  34.4253148  49.5930718  37.7994161
  34.8250026  49.7163411  38.8059727  34.6558558  48.3970093  37.0915402
  35.3289945  47.3892885  37.7397501  35.5770652  47.6210429  38.6377203
  34.1773282  48.2268018  35.8136221  34.3438740  47.2929329  35.2767311
  33.4658640  49.2744715  35.1993715  33.0651418  49.1450843  34.1939955
  30.2911231  52.7283453  35.1051047  29.9357818  52.7594511  33.9181759
  30.1453740  53.7228673  35.9696099  30.2410480  53.5796768  36.9648196
  29.8430542  55.0718226  35.4885087  29.1498680  55.0173415  34.6490899
  29.2061830  55.9007063  36.5910497  28.3904686  55.3110725  37.0094288
  29.9664593  56.0619080  37.3553102  28.6673060  57.2507195  36.1158245
  28.2584139  57.1548410  35.1099839  27.8773219  57.5587221  36.8007783
  29.7374810  58.3170797  36.1023121  30.5807247  58.3853314  37.0077251
  29.7302801  59.1463587  35.0611909  30.4223478  59.8793065  34.9984912
  29.0327830  59.0388608  34.3386651  31.1799185  55.6430367  35.0818954
  32.1225847  55.6862901  35.9072442  31.2976607  56.0303022  33.8150769
  30.5294878  55.9274242  33.1674459  32.5682289  56.5575025  33.3081811
  33.3117339  56.5202849  34.1043685  33.0879006  55.7524159  32.1161974
  32.2799112  55.8676225  31.3937158  33.9870189  56.2367528  31.7352721
  33.3672094  54.2547543  32.3387761  32.5268663  53.8260396  32.8847872
  33.5454670  53.5199563  31.0325429  34.3859795  53.9478357  30.4861393
  33.7407488  52.4662178  31.2315426  32.6385923  53.6143940  30.4352489
  34.5742237  54.0539132  33.2440618  34.3860257  54.5215623  34.2104909
  34.7498077  52.9874343  33.3851090  35.4524341  54.5087127  32.7858009
  32.4289678  58.0183309  32.9188692  31.5357681  58.4076657  32.1728331
  33.3369272  58.8038954  33.4621547  33.7895298  58.5173777  34.3184010
  33.6100751  60.1175599  32.9552565  32.6879906  60.6166801  32.6573666
  34.2769697  60.9414050  34.0693066  35.1823171  60.4236137  34.3860674
  34.5418784  61.9124744  33.6510392  33.3473505  61.1414966  35.2845952
  32.0972702  61.1160858  35.1231405  33.8661027  61.3180039  36.4157779
  34.4262907  60.1123781  31.6317885  35.0590256  59.0920706  31.2528674
  34.3848691  61.2522031  30.8878610  33.4474769  62.3875306  31.0590604
  33.7715174  62.9954422  31.9037742  32.4472982  62.0002193  31.2533063
  33.5326045  63.1213693  29.7560162  33.3805723  64.1883738  29.9187637
  32.7743182  62.7476374  29.0679554  34.9243231  62.8346011  29.2339940
  35.6927497  63.4652913  29.6810391  34.9640952  62.9283338  28.1487604
  35.1483294  61.3672519  29.6430473  34.6792794  60.6861876  28.9329475
  36.6536352  61.0443773  29.7467944  37.2339418  60.5984310  28.7834844
  37.3119051  61.2449920  30.8720884  36.9306845  61.6172647  31.7300997
  38.7465059  60.8789674  30.8418807  39.1053379  61.1670128  29.8537671
  39.2270618  61.5001711  31.5977056  39.1131322  59.4020764  31.0984333
  40.2868267  59.0964211  31.2649296  38.1383575  58.4959284  31.1264326
  37.1698441  58.7437977  30.9827592  38.4500734  57.1276435  31.5881669
  39.4985497  56.9063541  31.3885979  38.1980281  56.9825821  33.0834342
  38.4171221  55.9573069  33.3816081  38.8558674  57.6652891  33.6212620
  36.8630811  57.2826373  33.3889329  36.7215948  57.1864389  34.3335637
  37.7993454  56.0255371  30.7649007  36.9930414  56.2853874  29.8728101
  38.2089021  54.7759783  31.0163488  38.8528757  54.5799728  31.7693290
  37.7475952  53.6688436  30.2001069  36.7335700  53.8774056  29.8589999
  38.6483258  53.4440909  28.9637642  38.2390744  52.6372290  28.3558279
  38.6908238  54.3585060  28.3720387  40.3955516  52.9822150  29.3159753
  40.7752222  52.8945490  28.0443373  37.7551259  52.4152932  31.0873626
  38.3878298  52.4160422  32.1518363  37.0383128  51.4001294  30.6454934
  36.5046543  51.4832068  29.7920263  36.9219368  50.1501463  31.4259062
  37.8342730  50.0021584  32.0036963  35.7227509  50.1935648  32.3991590
  35.7426276  49.2896329  33.0079374  35.8347287  51.0665633  33.0421479
  34.4699242  50.2719749  31.6993310  33.7499750  50.2970761  32.3338725
  36.8256829  48.9548920  30.5147316  36.4722503  49.0724247  29.3077343
  37.1288975  47.7808548  31.0771216  37.4011149  47.7416044  32.0489531
  36.9818231  46.5053132  30.3364645  36.2289844  46.6205160  29.5566816
  38.3063639  46.0955746  29.6819870  39.0947539  46.3124335  30.4027593
  38.2552298  45.0199908  29.5128572  38.5936823  46.7590152  28.4473896
  39.4350313  46.4480594  28.1052811  36.6639646  45.4393282  31.3686064
  37.0658829  45.5770487  32.5352069  35.9602591  44.4071462  30.9083098
  35.6015373  44.4673945  29.9660847  35.6434941  43.2336295  31.6876399
  36.0774068  43.3165116  32.6841085  34.1108892  43.0950742  31.8264586
  33.9176912  43.8430283  32.5954440  33.6228018  43.3939927  30.8988173
  33.5571584  41.7409436  32.2810908  33.9018612  40.9636777  31.5990801
  34.0589492  41.4187976  33.7417735  33.7142209  42.1954374  34.4244827
  33.6614738  40.4545930  34.0586702  35.1483219  41.3834840  33.7527527
  32.0193338  41.6571449  32.1418852  31.7400506  41.8017414  31.0982415
  31.6764720  40.6782242  32.4769395  31.5559704  42.4323182  32.7522128
  36.2544041  41.9832983  31.0135346  36.1005102  41.7999400  29.7904800
  36.9103506  41.1264815  31.8097054  37.0844422  41.3558209  32.7777936
  37.4263822  39.8373256  31.2887461  37.0970312  39.6908677  30.2600687
  38.9608042  39.8375336  31.3170823  39.2576608  40.0507359  32.3439806
  39.4301765  38.9101509  30.9888280  39.5335224  40.9303751  30.4701843
  39.5777389  40.8383216  29.0998996  40.0309390  41.9834350  28.6050755
  40.1134863  42.1275149  27.5277984  40.3159034  42.7895272  29.6111296
  40.7053422  43.7187125  29.5400538  39.9946783  42.1566445  30.7895349
  40.1371636  42.6701535  31.7403806  36.9233457  38.6322360  32.0833104
  36.7614878  38.7535682  33.2715147  36.6319656  37.5199754  31.3747655
  36.7214072  37.5292070  30.3687763  36.1912043  36.2732948  32.0256357
  36.0195372  36.4015996  33.0943581  34.8957466  35.7671609  31.3783423
  35.0545010  35.6251295  30.3093596  34.6090220  34.8183272  31.8317780
  34.1019485  36.4978918  31.5333140  37.2675964  35.2447201  31.8516268
  38.0008250  35.2210173  30.8398368  37.3597852  34.3361362  32.8181104
  36.8245241  34.3796884  33.6735039  38.2771529  33.2498765  32.6457432
  38.4382106  33.0496281  31.5864697  39.6445839  33.6319624  33.2947445
  40.0729553  34.4379441  32.6989336  39.4361948  33.9958163  34.3008680
  40.6667786  32.4348168  33.3706546  41.4630367  32.7067477  34.0635669
  40.1473491  31.5519620  33.7432972  41.2795367  32.1052000  32.0418923
  41.8018194  32.9941655  31.3253164  41.2304754  30.8079118  31.6636736
  41.6275718  30.5278500  30.7782464  40.7969568  30.1248418  32.2683043
  37.6959263  32.0034910  33.3079446  37.4871878  32.0075559  34.5121674
  37.4978934  30.9323350  32.5212032  37.6739685  31.0144871  31.5300685
  37.0137926  29.6306868  33.0442406  36.2627089  29.7961354  33.8166390
  36.3731317  28.7974361  31.8986574  35.7490589  29.4671411  31.3069417
  37.1795345  28.4088596  31.2767066  35.4902652  27.5886582  32.4380089
  36.1628503  26.8392891  32.8553530  34.8396218  27.9705580  33.2247221
  34.6315592  26.9471155  31.3266364  35.2819101  26.5446669  30.5499912
  34.0302538  26.1422464  31.7493859  33.7392292  27.9303715  30.7253271
  32.8805668  28.1334855  31.2167973  33.9585326  28.5275581  29.5584007
  35.0554190  28.2350373  28.8528116  35.7161509  27.5593839  29.2092183
  35.2185136  28.6909916  27.9664677  33.1082185  29.4484882  29.1424347
  32.3080211  29.6862696  29.7109803  33.2620610  29.9107365  28.2576988
  38.2055996  28.8957910  33.6375081  39.3141817  28.8920983  33.0500568
  38.0025587  28.2870496  34.8133236  37.0979038  28.3456687  35.2585907
  39.0527998  27.5389791  35.4830863  39.8659167  27.3496827  34.7822961
  39.6046713  28.3123502  36.7244082  38.8021440  28.4375103  37.4513093
  40.7547434  27.5379814  37.3646551  41.5579007  27.4128197  36.6384502
  41.1285169  28.0890421  38.2276303  40.3998360  26.5585962  37.6855047
  40.0831770  29.7123709  36.2432942  40.7637263  29.5723360  35.4034469
  39.2117480  30.2781261  35.9137005  40.8256203  30.5098207  37.3984499
  41.6974855  29.9448648  37.7282618  41.1442252  31.4821119  37.0226312
  40.1455072  30.6506529  38.2385168  38.4600244  26.2077003  35.9335573
  37.4107432  26.1654000  36.6021384  39.1588100  25.1257096  35.5689360
  40.0036157  25.2415637  35.0276592  38.6775004  23.7533517  35.8312717
  37.5935206  23.7533320  35.9456706  39.0491432  22.8283577  34.6526536
  40.1046453  23.0412709  34.4832944  38.9097876  21.7534633  34.7679014
  38.3237198  23.2238723  33.3967794  36.9712288  23.0303082  33.2574272
  36.5573395  23.5599200  32.1141783  35.5124046  23.4979062  31.8102632
  37.6017721  24.1085690  31.5196888  37.5957805  24.5823305  30.6277168
  38.7121461  23.9330255  32.3123571  39.6730579  24.3442752  32.0031267
  39.2481062  23.3267919  37.1811923  40.1219207  22.4760875  37.2634127
  38.7602229  23.9975965  38.2160682  38.0803482  24.7201849  38.0270292
  39.1897363  23.7931240  39.6025152  39.3223903  22.7302511  39.8045135
  40.4935916  24.5057849  39.8873253  40.3739757  25.5725943  39.6983553
  40.7727388  24.3509950  40.9295427  41.2747499  24.1079284  39.2395590
  38.0768257  24.2810580  40.5165099  37.2171261  25.0417260  40.0784760
  38.0505045  23.8054403  41.7928202  39.0091638  22.8642247  42.4246260
  39.8447831  23.4105138  42.8621290  39.3855696  22.1546495  41.6877945
  38.1443742  22.2088050  43.4598575  38.7464751  21.7808331  44.2613646
  37.5236028  21.4299891  43.0169242  37.2696122  23.3920539  43.9746423
  37.9032871  23.9577662  44.6576684  36.3302606  23.1468482  44.4702153
  36.9943904  24.2209552  42.7095777  36.0229541  24.0631887  42.2410487
  37.1627941  25.6993812  43.0434965  38.3098631  26.1668381  43.1587130
  36.0375177  26.4031259  43.2390632  34.6406483  26.0003811  42.9700771
  34.4495469  25.0285545  43.4251965  34.4834069  25.9340667  41.8935194
  33.8510697  27.0787821  43.5872568  33.6739258  26.8553985  44.6393114
  32.8958688  27.1822235  43.0724825  34.7001259  28.3378979  43.4195342
  34.5068599  29.0022780  44.2617611  34.5057451  28.8680329  42.4871863
  36.1524741  27.8618425  43.4558115  36.7360435  28.2858875  42.6386635
  36.8314930  28.1837380  44.7861798  37.4884068  29.2212783  44.8901860
  36.7111265  27.2951513  45.7959455  36.0660256  26.5183912  45.7716975
  37.4265813  27.5592524  47.0351533  37.2255343  28.5815471  47.3554546
  36.9842959  26.5817626  48.1750705  37.5535619  26.8368383  49.0689227
  35.9232714  26.7486471  48.3607493  37.2194148  25.0842813  47.8202877
  38.1122425  25.0589924  47.1955317  37.4145762  24.5560728  48.7535653
  36.0473720  24.3977758  47.0738637  35.2369588  25.0787209  46.3988339
  35.9362791  23.1367953  47.1877383  38.9284812  27.5640965  46.7952380
  39.6612444  28.3642032  47.4136888  39.4253199  26.6854321  45.9277093
  38.8573667  25.9575636  45.5181534  40.8520784  26.7128994  45.6096533
  41.4374128  26.7492515  46.5284359  41.2432045  25.4566835  44.8305031
  40.9633790  24.6533852  45.5120518  40.5757206  25.4504050  43.9688037
  42.6707736  25.2494944  44.3648980  42.8286411  25.8770282  43.4877549
  43.7132844  25.6055245  45.4462152  43.5563337  24.9780357  46.3235539
  44.7162606  25.4367999  45.0542055  43.6044453  26.6534968  45.7255151
  42.8171353  23.7825518  43.9705485  42.1176482  23.5501110  43.1675612
  43.8356754  23.5973725  43.6293948  42.6027703  23.1509053  44.8326212
  41.2671188  27.9829581  44.8219222  42.2809360  28.6373306  45.1356695
  40.4997878  28.3227296  43.7963748  39.7400898  27.7400910  43.4746754
  40.7914966  29.5763564  43.0509206  41.7806810  29.5552670  42.5935709
  39.7398802  29.8185325  41.9430815  38.7433276  29.7449276  42.3784716
  39.9256447  31.2193335  41.3158032  40.9218726  31.2935405  40.8797708
  39.1770407  31.3720595  40.5383925  39.8091779  31.9814127  42.0863695
  39.8172043  28.7217299  40.8426639  39.6320731  27.7447292  41.2890920
  39.0657772  28.9196180  40.0782704  40.8080232  28.7312204  40.3884739
  40.8317172  30.7722177  44.0201719  41.7579676  31.6142277  43.9712510
  39.8186047  30.8587113  44.8740337  39.0326595  30.2341405  44.7631249
  39.7120861  31.9543881  45.8711536  39.7725777  32.9160685  45.3616335
  38.3604157  31.8840549  46.6430832  37.4983018  32.0033317  45.9868577
  38.2979595  30.9227326  47.1530428  38.2423530  32.9463378  47.7083617
  38.1916746  32.7444030  49.0589716  38.2068353  31.7053055  49.3878276
  38.1305362  33.9363859  49.7314059  38.0964603  34.0481630  50.7346228
  38.1299672  34.9602626  48.8133202  38.0738918  36.3316406  49.0286312
  38.0241908  36.6961366  50.0546776  38.0850627  37.1642054  47.9004601
  38.0466498  38.2461754  48.0268138  38.1463034  36.6208400  46.5748724
  38.1468401  37.2655270  45.6959652  38.2080417  35.2237396  46.3728012
  38.2295543  34.8411864  45.3523645  38.2069752  34.3788061  47.5170320
  40.9497932  32.0435063  46.8167450  41.4730805  33.1147554  47.1081244
  41.3968112  30.8779644  47.3117005  40.8913010  30.0249774  47.1194194
  42.5828395  30.8049575  48.1748434  42.4123807  31.3368532  49.1108615
  42.8683352  29.3197975  48.4955008  43.3895168  29.2505792  49.4503190
  41.9255440  28.7761795  48.5565275  43.6831069  28.7481852  47.4643518
  43.8573133  27.8264085  47.6682630  43.8150490  31.4571690  47.5310725
  44.6962057  31.9489946  48.2238405  43.8836407  31.4931791  46.1922135
  43.1603292  31.0666617  45.6309624  44.9967809  32.1229839  45.5140700
  45.9180683  32.1060352  46.0963427  45.2480791  31.4529859  44.1196322
  44.3158254  31.4673302  43.5550105  46.3426606  32.2005556  43.3251185
  47.2754006  32.1862317  43.8889372  46.4926828  31.7105945  42.3630727
  46.0330341  33.2328708  43.1621587  45.5703197  29.9606786  44.3148395
  46.6283067  29.8982115  44.5695198  44.9729206  29.6179548  45.1596792
  45.2812608  29.0629821  43.0777315  45.8786900  29.4048313  42.2325586
  45.5389553  28.0296298  43.3098429  44.2233036  29.1245765  42.8227166
  44.7450537  33.6241643  45.2952166  45.6183562  34.4783421  45.5830708
  43.5803879  33.9148762  44.7168160  42.9722848  33.1547269  44.4475892
  43.1485817  35.3140117  44.4045258  43.8260527  35.8598205  43.7478485
  41.7567957  35.2936420  43.7643707  41.1867216  34.4960933  44.2408483
  40.9851457  36.6511547  43.9177873  41.5544224  37.4491585  43.4411165
  40.0073562  36.5695419  43.4430585  40.8568302  36.8791737  44.9759197
  41.9053977  34.8762819  42.3158535  42.3533558  33.8837713  42.2672920
  40.9245953  34.8553072  41.8407889  42.5453305  35.5890113  41.7956577
  43.1345140  36.1997489  45.6700284  43.4108805  37.4110441  45.6002676
  42.8175800  35.6118497  46.8187339  42.5450067  34.6396105  46.8422747
  42.6859655  36.4121150  48.0670235  42.2399452  37.3805940  47.8407195
  41.7897104  35.6835496  49.0765523  41.4758532  36.3871979  49.8475724
  40.9116931  35.2964292  48.5595190  42.5596881  34.5139908  49.7297288
  42.8418539  33.7986557  48.9572142  43.4578240  34.9033608  50.2091502
  41.6712513  33.8061820  50.7914212  40.7633502  33.4250455  50.3239284
  42.2191963  32.9808650  51.2460721  41.2956168  34.7544630  51.8412302
  40.4110641  35.2260745  51.7177454  42.0198204  35.0387860  52.9152244
  43.2042671  34.4382291  53.1069885  43.5428996  33.7687370  52.4308167
  43.7518129  34.6583947  53.9266350  41.5541837  35.9158617  53.7975150
  40.6581117  36.3555710  53.6432073  42.0983551  36.1389958  54.6186041
  44.0006172  36.8661353  48.7113576  44.0072547  37.7511246  49.5775711
  45.1004310  36.2391779  48.2997253  44.9958337  35.5023199  47.6169377
  46.4292135  36.4959409  48.8413421  46.3822009  36.6170546  49.9235715
  47.3400515  35.3113115  48.5216665  47.2912826  35.1213455  47.4494567
  48.3601181  35.5796303  48.7965648  46.9264588  34.0645797  49.2739609
  45.8601691  33.8873417  49.1335544  47.4886572  33.2077576  48.9026242
  47.2160641  34.2575773  50.7482613  46.7615713  35.1819543  51.1047195
  46.8271550  33.4169518  51.3228897  48.6639072  34.3368084  50.9540134
  49.2521871  34.1111813  50.1646349  49.2431326  34.6878986  52.0958639
  48.4892464  35.0120495  53.1461914  47.4825627  34.9888422  53.0677733
  48.9281293  35.2793975  54.0156777  50.5738427  34.7084391  52.1892004
  51.1370550  34.4564196  51.3895891  51.0119404  34.9759124  53.0590436
  47.0010680  37.8284834  48.3086171  47.8907936  37.8597921  47.4522538
  46.5128991  38.9105120  48.8927507  45.7705235  38.8138136  49.5707088
  46.9463107  40.2628681  48.5239738  46.7829426  40.4399060  47.4609275
  46.1321350  41.2808427  49.3188742  45.0693492  41.1726334  49.1023649
  46.3026310  41.1285497  50.3846312  46.4880579  42.7164275  49.0259030
  46.0161917  43.3307851  47.8606129  45.3919641  42.7687342  47.1659630
  46.3478511  44.6798486  47.5825866  45.9741055  45.1487956  46.6723648
  47.1443188  45.4050171  48.4615905  47.4059214  46.4399917  48.2413827
  47.6083701  44.8026069  49.6283589  48.2284788  45.3601923  50.3302590
  47.2664487  43.4461170  49.9013314  47.6209104  42.9678679  50.8144221
  48.4562205  40.4686549  48.7202728  49.0901568  41.1631087  47.9411139
  49.0562558  39.7937097  49.7113710  48.5095170  39.2504483  50.3640907
  50.4990050  39.8919286  49.9288498  50.8217041  40.9215866  49.7746784
  50.8739038  39.4661559  51.3708798  51.9632236  39.4708793  51.4090780
  50.4824021  40.1816010  52.0940430  50.3634150  38.0801831  51.7053488
  49.2229644  37.7017954  51.2894916  51.0786335  37.3761525  52.4364414
  51.3715732  39.1121498  48.9665215  52.5872031  39.3087103  48.9771024
  50.7872249  38.2412574  48.1509201  49.7816509  38.1468402  48.1532657
  51.5601118  37.4144045  47.2213433  52.5832299  37.7824192  47.1445727
  51.5959316  35.9696986  47.7412076  50.5649984  35.6499451  47.8929764
  52.0566620  35.3542658  46.9685046  52.3616718  35.8171651  49.0255376
  52.2288044  36.7067801  49.6411935  52.0005077  34.9433625  49.5678764
  53.8509760  35.6378528  48.7009066  54.1348179  36.3487341  47.9249037
  54.4372777  35.8286477  49.5997653  54.1225303  34.1958401  48.2040861
  54.4246499  33.6100649  49.0722403  53.1806408  33.8088759  47.8152390
  55.1833573  34.0979230  47.1387372  56.0563208  34.4560450  47.4989912
  55.3014590  33.1317866  46.8690475  54.9034028  34.6403006  46.3340316
  50.9759166  37.3605642  45.8148444  50.7002914  36.2833718  45.3154286
  50.7668254  38.5257307  45.1770616  51.2709382  39.8473931  45.5816464
  52.2891741  39.7512565  45.9585464  50.6322619  40.2594342  46.3629362
  51.1994092  40.6451822  44.2973394  52.1813924  40.6340234  43.8243875
  50.9246585  41.6719721  44.5388261  50.1996234  40.0280002  43.4534591
  50.4649275  40.1656755  42.4052424  49.2000306  40.4252133  43.6299117
  50.2409739  38.5235168  43.8132796  49.2558438  38.0582270  43.8467803
  51.1258985  37.7740780  42.8083860  50.6180346  37.2421823  41.8294646
  52.4233374  37.7106668  43.0566326  52.8107728  38.2194144  43.8384056
  53.3484372  37.0839492  42.1083998  53.1394409  37.4392514  41.0993507
  54.8141567  37.4385046  42.4645148  55.4382581  37.1345473  41.6241538
  54.8695833  38.5204123  42.5849461  55.3118573  36.7568075  43.7423881
  54.7894782  35.8040564  43.8289104  56.3822000  36.5760463  43.6434236
  55.0701250  37.5600307  45.0096861  54.0525052  38.2356658  45.1769526
  56.0350627  37.4948511  45.9159067  55.9437197  38.0032360  46.7838368
  56.8572921  36.9370949  45.7343901  53.0801160  35.5647149  41.9332550
  53.5416490  34.9516355  40.9541238  52.2759382  34.9655152  42.8142446
  51.8908867  35.4438419  43.6161413  51.9352154  33.5399777  42.6179593
  52.8579466  32.9603562  42.5913999  51.0315671  32.9572918  43.6703312
  50.7716578  31.9398660  43.3781116  51.6999854  32.9364773  45.0214484
  51.9597891  33.9536706  45.3145687  51.0190630  32.5094418  45.7577123
  52.6050757  32.3312497  44.9703422  49.8306221  33.7446579  43.7249167
  49.2423676  33.3851212  44.3929663  51.2245139  33.3539180  41.2744061
  51.3187618  32.2768154  40.6866789  50.5628647  34.3930569  40.7610995
  50.3214105  35.1895280  41.3333171  50.0151456  34.3241175  39.3860253
  50.5498952  33.5637259  38.8168621  48.5397928  33.9651900  39.4087006
  48.2568595  33.5887004  38.4256931  48.4550319  33.1635802  40.1424153
  47.6343158  35.0856044  39.7906795  46.9808258  35.8190015  38.8137227
  47.1587800  35.5802587  37.7651839  46.1274883  36.8244557  39.1469614
  45.5978010  37.3790418  38.3723857  45.9220882  37.1382259  40.4999374
  45.0953849  38.1739415  40.8301978  44.7151919  38.6094772  40.0638026
  46.5480666  36.4278589  41.4991140  46.3908232  36.6735807  42.5493500
  47.3800734  35.3972089  41.1545983  47.8593751  34.8008845  41.9309791
  50.2282908  35.5243959  38.4243774  49.9857625  35.4255949  37.1986745
  50.6715882  36.6413331  38.9491581  50.7492735  36.7718835  39.9476675
  50.9926760  37.7559755  38.0847155  50.4694345  37.6685471  37.1325213
  50.5468570  39.0550465  38.7722517  51.2354040  39.2305408  39.5988133
  50.6490338  39.8549184  38.0388591  49.1168574  39.0291339  39.2994012
  48.4122999  38.8681285  38.4834497  48.9982669  38.2402254  40.0421405
  48.8403295  40.3959781  39.9539776  49.3651364  40.3910801  40.9093061
  49.2849853  41.1457511  39.2995916  47.4138530  40.7199535  40.1768920
  46.8214445  40.4124376  39.3151572  47.0493852  40.2096917  41.0684609
  47.2842055  42.2791439  40.3740462  47.6214775  42.7521405  39.5478370
  46.3153781  42.5196232  40.5278093  47.8327297  42.5642407  41.1727577
  52.4801792  37.7835342  37.7393452  53.3462236  38.2305924  38.5827999
  52.7890670  37.4645406  36.4757671  52.0722715  37.3913852  35.7679876
  54.1879523  37.1361385  36.0981203  54.6957723  36.6894840  36.9529406
  54.2392652  36.1339019  34.9103717  53.4214791  36.2352956  34.1968983
  55.1834152  36.3592611  34.4144946  54.2933394  34.6828677  35.2991799
  55.1027267  34.2006355  36.3089726  54.9771866  32.8865909  36.3890761
  55.5222565  32.3212839  37.1450031  54.1375506  32.4906121  35.4476085
  53.8418497  31.5406004  35.2740039  53.7221660  33.5924503  34.7289520
  53.0537844  33.4672047  33.8770830  55.0766765  38.3491125  35.7296755
  56.3035090  38.1623740  35.4277274  54.4670995  39.5458455  35.7576041
  53.4736162  39.5886226  35.9344105  55.1918604  40.8000014  35.5715492
  56.0041975  40.6650486  34.8574096  54.2367660  41.8657960  35.0300230
  53.3050276  41.9641413  35.5870607  54.7769420  42.8121613  35.0565284
  53.8512535  41.6238989  33.5737967  54.8529215  41.6507564  32.5692878
  55.8839632  41.8691070  32.8474529  54.5249349  41.3983958  31.2223606
  55.2864245  41.4596918  30.4448793  53.2176157  41.0690897  30.8893938
  52.9702001  40.8607846  29.8484834  52.2043464  41.0017861  31.8902262
  51.1797986  40.7416124  31.6243095  52.5360696  41.2747123  33.2314007
  51.7706905  41.2148422  34.0051645  55.7418581  41.2978486  36.9063378
  56.3349446  42.3495525  36.9487692  55.4664851  40.5802227  38.0013993
  54.8803068  39.7588742  37.9580305  55.9616269  41.0174551  39.3209672
  56.2845391  42.0584755  39.3311398  54.8776348  40.8016220  40.4109976
  54.5288272  39.7706196  40.3521103  55.4575883  41.0874961  41.8828668
  55.8061895  42.1185157  41.9426700  54.6718991  40.9267576  42.6210784
  56.2884553  40.4113202  42.0842254  53.6664532  41.6689217  40.0624071
  54.0046315  42.7048935  40.0847361  53.3726270  41.4049983  39.0464789
  52.4546618  41.5019886  41.0090459  52.7476137  41.7661952  42.0251531
  51.6455931  42.1556635  40.6831377  52.1156105  40.4662987  40.9868976
  57.2443025  40.2993010  39.7120451  57.2918363  39.0496400  39.8079351
  58.2667989  41.0770647  40.0221495  58.1937865  42.0800284  39.9281688
  59.5195389  40.5217861  40.4735055  59.7188584  39.5735424  39.9743012
  60.6384805  41.4890521  40.1407202  60.5958949  41.7040334  39.0729801
  60.4720490  42.4080229  40.7027640  62.0407569  40.9083731  40.4981045
  62.0949968  40.8693055  41.5860533  62.0712925  39.8954306  40.0967104
  63.2317802  41.7093840  39.9553706  64.1342405  41.1864206  40.2718728
  63.1600556  41.6837511  38.8680353  63.2918676  43.1366944  40.4193193
  62.4854461  43.6781318  39.9247182  63.1241800  43.1403858  41.4963367
  64.6158481  43.8103514  40.1117287  64.7712197  43.8074197  39.1137553
  64.5945686  44.7630679  40.4463605  65.3631844  43.3090474  40.5702937
  59.4864992  40.2542356  41.9903816  59.9065805  39.1910043  42.4549900
  58.9890694  41.2140940  42.7498910  58.7210080  42.1025176  42.3512107
  58.8602590  41.0336412  44.2200663  58.6236418  39.9952500  44.4521334
  60.1986472  41.4039749  44.9126613  60.1568054  41.0987074  45.9582044
  61.0155941  40.8817851  44.4146496  60.4195575  42.8202531  44.8365329
  61.2492147  43.0383149  45.2674828  57.7152939  41.8904735  44.7383938
  57.2365572  42.8256157  44.0755489  57.2371834  41.5735078  45.9381405
  57.6068595  40.8106618  46.4872351  56.1494515  42.3496455  46.4885109
  56.1562549  43.3583465  46.0755035  54.8182551  41.6831154  46.1300909
  54.6513036  41.6981956  45.0530584  54.7879774  40.6538427  46.4875555
  53.3904481  42.5141949  46.8711768  52.4737605  41.6956873  46.3626226
  56.3389881  42.3806669  47.9987832  56.6408771  41.3482443  48.5947971
  56.2511726  43.5434541  48.5929746  56.2432008  44.4313836  48.1117087
  56.3413509  43.5467639  50.0508927  56.2206299  42.5334205  50.4338558
  57.6891809  44.0701646  50.4871220  57.8806429  43.7628113  51.5152151
  58.4629010  43.6625379  49.8365087  57.7021747  45.4710970  50.4079470
  58.5603865  45.7993572  50.6860076  55.1720020  44.2703409  50.7102678
  54.5847858  45.2243022  50.1593114  54.8235973  43.7754906  51.8991292
  55.3002540  42.9527230  52.2396452  53.7931042  44.3559166  52.7197988
  53.4479596  45.2876099  52.2715555  52.6045258  43.3863633  52.8138720
  52.9547059  42.4101639  53.1492936  51.6408794  43.9031051  53.7591923
  51.2898712  44.8791500  53.4241840  50.7959850  43.2179687  53.8287778
  52.1090622  44.0024285  54.7384989  51.9060793  43.2339599  51.4497988
  52.6157112  42.8460875  50.7189912  51.0688483  42.5425190  51.5449483
  51.5386375  44.2052554  51.1186305  54.3866356  44.6168637  54.1205886
  55.4783606  44.1651156  54.4317496  53.6439620  45.3242910  54.9500121
  52.8665229  45.8387437  54.5613912  53.9343237  45.4749325  56.3999325
  54.8244404  46.0827782  56.5621515  52.7398151  46.1775791  57.0420187
  51.8347997  45.7039778  56.6615608  52.8053733  46.0222353  58.1188987
  52.6931494  47.6807118  56.7448395  53.3280222  47.9003080  55.8864603
  51.6597182  47.9311768  56.5052850  53.1493181  48.5027756  57.9336256
  52.4529130  49.4969000  58.2836235  54.1959358  48.1296435  58.5297338
  54.2625058  44.1790404  57.1720105  53.5620659  43.1638966  57.0188019
  51.1252490  42.0624978  59.8649807  51.4266702  41.2979206  60.4520634
  49.7010217  42.4218975  59.8662488  49.3135172  42.3293454  60.8808293
  49.4632903  43.8696605  59.3765232  49.9335645  43.9958452  58.4013213
  48.3958011  44.0738809  59.2936938  50.0425992  44.9444881  60.2808151
  50.3176175  44.6889305  61.6347727  50.1114986  43.7010531  62.0467354
  50.8583562  45.7026902  62.4627491  51.0750828  45.4900843  63.5096154
  51.1165642  46.9855172  61.9353363  51.5321328  47.7654243  62.5734175
  50.8374597  47.2567532  60.5866222  51.0332449  48.2428827  60.1655319
  50.2955144  46.2323859  59.7703514  50.0655558  46.4336208  58.7240611
  48.9033723  41.4545061  58.9917871  49.4072362  40.9966437  57.9574312
  47.6701728  41.1399818  59.4047176  47.3621341  41.3717211  60.3382637
  46.7588217  40.3825829  58.5394240  47.3017490  39.5934464  58.0192387
  45.6108817  39.7429485  59.3430401  46.0220280  39.0441955  60.0716018
  45.0522749  40.5216654  59.8623265  44.6886975  39.0044635  58.4026591
  44.2767745  39.7026986  57.6740384  45.2465261  38.2252277  57.8833153
  43.5507097  38.3703775  59.1993061  42.5108255  39.0615981  59.3679955
  43.7321553  37.2008355  59.6315667  46.2426824  41.3494009  57.4546364
  45.9634356  42.5194023  57.7314211  46.1382855  40.8792987  56.2178331
  46.4493691  39.9530655  55.9620628  45.7580946  41.7985769  55.1536130
  46.2404851  42.7617636  55.3199558  46.1847635  41.2648373  53.7636160
  45.8446475  40.2310875  53.7021197  45.6610619  41.8640091  53.0187470
  47.7537527  41.3251488  53.4862257  48.2074270  40.7074373  54.2612825
  47.8932895  40.8496853  52.5153673  48.5680225  42.9757275  53.4741971
  49.4079572  43.0889580  55.0931204  50.1331877  42.2803410  55.1841061
  49.9214938  44.0472982  55.1703524  48.6709139  43.0068714  55.8919509
  44.2711218  42.1704140  55.2976512  43.3859067  41.3015503  55.3591011
  44.0249741  43.4727870  55.4351943  44.8032609  44.1138693  55.3770360
  42.6925631  44.0214806  55.6596653  41.8913503  43.2987432  55.5053670
  42.6006342  44.5575922  57.0987898  42.7152281  43.7329362  57.8022882
  43.3910770  45.2893400  57.2656595  41.2429613  45.2195742  57.3088576
  41.1278220  46.0446780  56.6059726  40.4519725  44.4882749  57.1426041
  41.1518382  45.7509877  58.7353643  41.2664339  44.9263328  59.4388635
  41.9422801  46.4827364  58.9022322  39.8446290  46.4017463  58.9764419
  39.1748324  46.4321597  58.2210963  39.5116235  46.9483306  60.1423122
  40.3396172  46.9476556  61.1831419  41.2518157  46.5223956  61.0985973
  40.0523904  47.3724040  62.0533081  38.3094889  47.5072049  60.2492366
  37.6831260  47.5060091  59.4569185  38.0284770  47.9302424  61.1222603
  42.4832874  45.1712808  54.6431585  43.4556696  45.7429248  54.1617750
  41.2297899  45.4936267  54.3250908  40.4842126  44.8379180  54.5101852
  40.9177774  46.7055910  53.5402190  41.3088082  46.6340236  52.5252943
  39.3727077  46.9926100  53.4646357  38.9814355  46.9795014  54.4819034
  39.0496953  48.3382597  52.8115639  39.4402778  48.3519497  51.7940380
  37.9693492  48.4809877  52.7874469  39.5090486  49.1417274  53.3873553
  38.6543834  45.8700160  52.7161292  38.8132689  44.9257172  53.2368567
  37.5868090  46.0858833  52.6738698  39.0501137  45.7967914  51.7031452
  41.7325659  47.9015599  54.0230194  41.7679741  48.2350916  55.2446224
  42.4066138  48.5352197  53.0604044  42.3936749  48.1309780  52.1349204
  43.1582564  49.7730649  53.2659901  43.0239150  50.4324759  52.4085353
  42.8046451  50.2734945  54.1674492  44.6367372  49.4599089  53.4219959
  45.4468899  50.3787206  53.3596280  45.0219895  48.1898485  53.6389479
  44.3546157  47.4427071  53.7673664  46.4679123  47.8507302  53.6425761
  46.9738592  48.4663370  54.3863134  46.7120977  46.4000771  53.9712800
  46.0808496  45.7498531  53.3656120  47.7582574  46.1348535  53.8186156
  46.3334967  45.9916883  55.7202722  46.6523975  44.7033473  55.6343775
  47.0481110  48.0780535  52.2451726  46.3127840  48.0051914  51.2419706
  48.3485253  48.3128644  52.1864750  48.9064037  48.4168849  53.0219694
  48.9984802  48.5474663  50.8723968  48.3125067  48.3358270  50.0521845
  49.5177733  50.0209295  50.7243063  50.0736107  50.0943898  49.7895611
  48.3508336  51.0517288  50.7162104  47.7947809  50.9791778  51.6508982
  48.7553811  52.0584880  50.6119201  47.6842611  50.8401545  49.8801374
  50.4328580  50.3014375  51.7944438  50.7558079  51.2016825  51.7116034
  50.1292642  47.5438442  50.6009410  50.7175475  46.9364153  51.5511194
  50.4557515  47.3316870  49.3157934  49.9186306  47.7326438  48.5602578
  51.6032554  46.4810403  48.9787180  52.1442282  46.2155101  49.8869808
  51.1388166  45.1992511  48.2958776  52.0258429  44.5821254  48.1529113
  50.4600062  44.7036059  48.9898894  50.4342828  45.4011250  46.9485217
  49.6120514  46.1061053  47.0711559  51.1454312  45.7958207  46.2228597
  49.8746397  44.0307847  46.4381454  50.6968914  43.3776573  46.1458687
  49.2912418  43.5503313  47.2235822  49.0075280  44.2458429  45.2727252
  49.1058844  45.1208983  44.7780501  48.0919059  43.3690756  44.8435989
  47.9190192  42.1985428  45.4793459  48.4837530  41.9778565  46.2871041
  47.2250751  41.5443953  45.1467317  47.3429888  43.6531336  43.7440048
  47.4807354  44.5258605  43.2546443  46.6525860  42.9900259  43.4219321
  52.5495259  47.2405435  48.0552608  52.0725509  48.1019962  47.2836190
  53.8531634  46.9822083  48.1582620  54.2128219  46.3931929  48.8956940
  54.7978844  47.6059655  47.2555803  54.2791068  48.3684366  46.6745409
  55.9692833  48.2676545  47.9996106  56.3955995  47.4616033  48.5968001
  56.7159996  48.6295769  47.2928384  55.5428662  49.4091535  48.9172873
  54.6498221  50.2163447  48.5987053  56.1903275  49.5391652  49.9715926
  55.3076373  46.5903128  46.2653305  56.0674893  45.7087464  46.6033343
  54.9425648  46.7821820  44.9980621  54.4246668  47.6084281  44.7350063
  55.2961980  45.8164158  43.9462009  55.5836502  44.8344638  44.3220209
  54.0873935  45.6443414  42.9755711  53.7065383  46.6363983  42.7329364
  54.4772748  44.9083477  41.6707619  54.8578139  43.9159679  41.9125744
  53.6004775  44.8145136  41.0300418  55.2484600  45.4755769  41.1495844
  52.8820210  44.9186869  43.6620845  52.5480539  45.5009509  44.5208840
  52.0629059  44.8203890  42.9497028  53.1946548  43.9287552  43.9943438
  56.4925864  46.3890930  43.1883066  56.5365061  47.6246290  42.9276691
  57.4596336  45.5328743  42.8710633  57.4495536  44.6030581  43.2653215
  58.5605291  45.8960458  41.9797657  58.4765203  46.9337478  41.6569402
  59.9582158  45.6602415  42.5967465  60.0058175  44.6437161  42.9872727
  61.0831049  45.8587369  41.5112812  61.0364286  46.8752446  41.1205971
  62.0598492  45.6886118  41.9641926  60.9322646  45.1498566  40.6971343
  60.1826985  46.5711507  43.8307992  60.3426535  47.5799105  43.4501171
  59.2605313  46.5444127  44.4113097  61.3887895  46.1607566  44.7465099
  62.3114371  46.1877121  44.1667732  61.4647181  46.8568227  45.5818697
  61.2293157  45.1522127  45.1279640  58.3737427  45.0233531  40.7220383
  58.2043169  43.8157463  40.8179542  58.3389066  45.6503149  39.5491481
  58.3716458  46.6528537  39.4310659  58.0620429  44.8207752  38.3729247
  57.6005060  43.8769300  38.6631644  57.1643368  45.5058277  37.3216023
  57.0522335  44.8604275  36.4504016  55.7459565  45.7694423  37.9676006
  55.8572023  46.4151930  38.8386525  55.0978571  46.2538477  37.2372451
  55.3033472  44.8213233  38.2730005  57.7938653  46.7497219  36.8259744
  58.7545299  46.5139071  36.3681350  57.1440004  47.2164764  36.0857612
  57.9474925  47.4364436  37.6583883  59.3432641  44.2699089  37.7343970
  60.4413298  44.7337465  38.0223056  59.1675447  43.3017972  36.8571847
  58.2448888  42.9278947  36.6868838  60.2843458  42.7360909  36.1255559
  61.1155361  42.5152287  36.7952138  59.8876517  41.4360069  35.3371839
  60.7527280  41.0665846  34.7864839  59.4089088  40.3501298  36.3364241
  58.5435103  40.7186739  36.8872066  59.1337474  39.4483215  35.7894975
  60.2126256  40.1193751  37.0356314  58.8075093  41.7132396  34.2579159
  57.9152871  42.0966002  34.7529664  59.1923134  42.4658824  33.5697633
  58.4288635  40.3576763  33.4261698  58.0435263  39.6046808  34.1136382
  57.6696995  40.5893060  32.6790975  59.3205537  39.9739616  32.9304367
  60.8198294  43.7473090  35.1326812  60.1238839  44.7229175  34.8047300
  62.0283788  43.5041657  34.6521548  62.5684778  42.7126391  34.9713383
  62.6371469  44.4127999  33.6540911  62.6209384  45.4379453  34.0241092
  64.0912372  44.0093567  33.3941313  64.5269222  44.7163152  32.6880948
  64.6377793  44.0539334  34.3361529  64.1749367  42.6886663  32.8576947
  65.0954791  42.4630276  32.7050881  61.9103860  44.4422618  32.3163289
  61.2068340  43.4851466  31.9496163  62.1360686  45.5236163  31.5615576
  62.6272506  46.3290908  31.9221825  61.6679190  45.5599128  30.1773691
  62.4195944  46.0882797  29.5909293  61.5943390  44.5296496  29.8291695
  60.3296109  46.2398000  29.9895218  59.8712604  46.4147734  28.8385408
  59.6921751  46.6362749  31.0980002  60.1138583  46.5046251  32.0062683
  58.3660580  47.2498628  31.0314985  57.8859398  47.0182482  30.0807407
  57.4896767  46.6890391  32.1778255  58.0793145  46.8066133  33.0870025
  56.6392221  47.3702258  32.2063157  56.9844067  45.2453667  32.0801319
  57.8159797  44.5788219  31.8514283  56.3502994  44.8358220  33.4469538
  55.5183033  45.5016747  33.6761293  55.9878159  43.8096122  33.3869535
  57.1014894  44.9098766  34.2332933  55.9428977  45.1053430  31.0509704
  56.3483738  45.3942086  30.0813080  55.6086847  44.0686451  31.0102229
  55.0987296  45.7492641  31.2976379  58.4551379  48.7771165  31.1541721
  59.4897186  49.2948271  31.6242024  57.3737400  49.4913842  30.7843354
  56.2086594  48.9962711  30.0248933  55.7285824  48.1871241  30.5752635
  56.5339094  48.6297790  29.0512429  55.2926915  50.2798741  29.9105644
  54.5908566  50.3264359  30.7432461  54.7407224  50.2750395  28.9706665
  56.2713109  51.4213449  29.9526036  55.7340005  52.2918913  30.3288290
  56.7499807  51.6716610  29.0058636  57.3186404  50.9840497  30.9634883
  58.3034355  51.4071284  30.7652934  56.8954054  51.3239854  32.4037473
  56.0216619  52.1784237  32.6441645  57.5911011  50.6800861  33.3492906
  58.3448459  50.0626115  33.0834083  57.2674941  50.8082879  34.7721415
  57.2042915  51.8571416  35.0619873  55.9521281  50.1394033  35.0914374
  56.0029821  49.0862256  34.8151576  55.7501037  50.2250644  36.1591212
  55.1523297  50.6233359  34.5308744  58.3897753  50.1938669  35.5671960
  59.1031653  49.3210775  35.0772292  58.5493816  50.6886618  36.7955032
  58.0525663  51.5265150  37.0624787  59.4676285  50.0960820  37.7553058
  59.9494240  49.2308105  37.3000285  60.5713741  51.1024601  38.2038119
  60.1220168  51.9553078  38.7125634  61.2155355  50.5636495  38.8986784
  61.4281061  51.6203692  37.0427118  61.7362340  52.8202252  36.9735476
  61.8469677  50.7364269  36.1790209  62.4146179  51.0289858  35.3965362
  61.6015584  49.7638302  36.2970493  58.7751524  49.5634035  38.9935931
  59.1584398  48.5194421  39.4901527  57.7923773  50.3037924  39.4961607
  57.4147108  51.0744794  38.9637052  57.1872475  49.9955080  40.8059243
  57.3769562  48.9503839  41.0505163  57.7746943  50.8790588  41.9272759
  57.2589415  50.6356596  42.8561764  59.2891348  50.6590004  42.1081357
  59.8056437  50.9026572  41.1797233  59.6573027  51.3019053  42.9076511
  59.4771990  49.6165607  42.3651414  57.5574826  52.2604717  41.6006289
  57.9211431  52.8145168  42.2951686  55.7142683  50.3022273  40.7398201
  55.2675123  51.1257213  39.9145131  54.9539772  49.7331962  41.6563457
  55.3386784  49.0097723  42.2469065  53.5703682  50.0803816  41.8188557
  53.4155059  51.1128634  41.5056496  52.6583043  49.1606944  40.9639547
  52.8921067  49.3126028  39.9102187  52.8526814  48.1223811  41.2326985
  51.2506129  49.4685784  41.1990832  50.7027822  48.8907961  40.6627541
  53.1893692  49.9756628  43.3027900  53.6184326  49.0329691  43.9845965
  52.4245182  50.9540053  43.7959664  52.1519769  51.7334752  43.2143761
  51.8954104  50.8893099  45.1725885  52.3853857  50.0721857  45.7020518
  52.1453019  52.2066091  45.9535687  51.5720446  53.0123564  45.4950410
  51.6996742  52.0321720  47.4428399  52.2728627  51.2268498  47.9021988
  51.8772285  52.9598973  47.9868062  50.6379708  51.7880442  47.4787305
  53.5408552  52.4993280  45.8959870  53.7171977  53.3127207  46.3744176
  50.4226587  50.7287832  45.0694013  49.7513673  51.5287570  44.3991963
  49.8995027  49.7037031  45.7368641  50.4756509  49.1786516  46.3791052
  48.5193664  49.2978178  45.5627787  47.9665286  50.0459063  44.9945947
  48.4908320  47.9829256  44.7933851  49.0159269  47.2087848  45.3529211
  47.4608026  47.6706755  44.6212245  49.2016778  48.2064065  43.4236507
  48.5799307  48.9195245  42.8823615  50.1622274  48.6660249  43.6564481
  49.4271861  46.9647892  42.5560831  49.1974186  45.7994944  42.9949109
  49.8546925  47.2213524  41.4004359  47.8028689  49.1125355  46.9098214
  48.3970186  48.6093585  47.8804974  46.5531956  49.5322528  46.9310325
  46.1680141  49.9199655  46.0816720  45.6855118  49.4803757  48.1405079
  46.2819334  49.2620195  49.0263414  45.0013070  50.8390069  48.3331686
  45.7980218  51.5468973  48.5617203  44.5572704  51.0910287  47.3701439
  43.9144809  50.9099641  49.4376994  43.2099077  50.0942249  49.2756903
  44.4017682  50.7819137  50.4042686  43.1464572  52.2742596  49.4174674
  43.8536893  53.1025287  49.3739689  42.4824465  52.3184375  48.5541959
  42.3347084  52.4081211  50.6472519  42.7723213  52.9170052  51.4019912
  41.1008346  51.9388853  50.8282495  40.4692754  51.2474867  49.8831411
  40.9279917  51.0678244  49.0014377  39.5340214  50.9054623  50.0517201
  40.4779980  52.1533477  52.0075398  40.9504460  52.6651799  52.7389225
  39.5426692  51.8008994  52.1525878  44.6251225  48.3893623  47.9950629
  43.9187211  48.2978992  46.9893485  44.5362515  47.5185046  48.9921908
  45.2423612  47.4887705  49.7137338  43.4622742  46.5372781  49.0369252
  43.3522811  46.0314646  48.0776789  43.8286418  45.4794283  50.1177534
  44.7485043  44.9970628  49.7871846  44.0128678  46.0106679  51.0515335
  42.7421734  44.4130097  50.3405420  41.8232088  44.9189949  50.6364878
  42.4852347  43.5863493  49.0806484  43.4036939  43.0796641  48.7843351
  41.7113819  42.8458391  49.2828791  42.1571565  44.2432519  48.2750777
  43.2691310  43.5037196  51.4965161  43.4215984  44.1057346  52.3923013
  42.5397036  42.7210919  51.7051568  44.2142678  43.0490267  51.1997506
  42.0828833  47.1896401  49.3217930  41.9263098  47.8256040  50.3576253
  41.1385863  47.1264889  48.3794039  41.3089049  46.5404967  47.5746033
  39.8535452  47.8531223  48.4579349  39.9759282  48.7427864  49.0756884
  39.3739006  48.2879158  47.0562528  39.4643872  47.3926808  46.4410571
  38.3330562  48.6109590  47.0758981  40.2367893  49.3945602  46.4703004
  40.8113740  50.2038714  47.2652273  40.2962367  49.5283490  45.2101351
  38.7453318  46.9916908  49.0520973  37.8501766  47.4815960  49.7822206
  38.8142597  45.7004006  48.7763068  39.5254219  45.3293440  48.1625767
  37.7795371  44.7462657  49.3358976  37.5262692  44.9910852  50.3674101
  36.4732893  44.7330369  48.4658507  35.9985713  45.7102778  48.5538474
  36.7570521  44.4397703  47.0083143  37.2313853  43.4624193  46.9194682
  35.8220463  44.4415504  46.4480808  37.4223670  45.2038449  46.6062629
  35.4497938  43.7448141  49.0010906  35.8695516  42.7488174  48.8600423
  35.3443786  43.9464852  50.0670719  34.1422469  43.8153854  48.3621581
  34.2467990  43.6133513  47.2961605  33.4787418  43.0746569  48.8084557
  33.7216270  44.8110205  48.5031883  38.3763813  43.3751565  49.4147483
  39.1362979  43.0091220  48.5075132  38.0826166  42.6248017  50.5161002
  37.5851933  43.0266208  51.2978999  38.5169699  41.2414595  50.6134180
  38.6756988  40.8476184  49.6095288  39.8448310  41.0993379  51.4205198
  40.5193930  41.8392827  50.9897679  39.6116501  41.3760111  52.4487117
  40.5192999  39.7208553  51.4024475  39.8021948  38.9855298  51.7673550
  40.9892401  39.3219669  49.9759434  41.7067662  40.0566267  49.6105258
  41.4607964  38.3398235  50.0095572  40.1302525  39.2892638  49.3057410
  41.7504489  39.7140313  52.3460203  41.4306689  39.9409717  53.3630445
  42.2200905  38.7306366  52.3242741  42.4669446  40.4656840  52.0147333
  37.3736988  40.4740029  51.2787890  37.3727788  40.2633733  52.5223405
  36.3794582  40.1037362  50.4824812  36.4705422  40.2087966  49.4820985
  35.1423811  39.5536546  51.0070348  35.0151019  39.8710321  52.0420085
  33.9348374  40.0305837  50.1973429  34.0436503  41.1143582  50.1562125
  33.9714582  39.6236577  49.1868132  32.5925931  39.6772452  50.8406484
  32.4851388  38.5749412  51.4332280  31.6136232  40.4779966  50.6921555
  35.2587663  38.0405824  50.9318897  34.9589979  37.4507049  49.9015443
  35.6509822  37.4184379  52.0414197  35.9970969  37.9298760  52.8406287
  35.7488240  35.9528397  52.0568470  36.2689210  35.6192793  51.1588850
  36.5256423  35.4417359  53.2982745  36.1301902  35.9681679  54.1669438
  36.3422275  34.3728244  53.4073031  38.0050548  35.6879260  53.1941880
  38.5962966  35.4662032  52.1128725  38.6151241  36.0959749  54.2017799
  34.4265005  35.2036008  51.9030597  34.4339815  33.9912733  51.5416237
  33.2950389  35.8603858  52.1342849  33.2779140  36.8304251  52.4150514
  32.0369559  35.1561469  52.0247373  32.1786476  34.1137159  52.3099746
  30.9773755  35.7721194  52.9367271  31.3573493  35.6767367  53.9538905
  30.9196285  36.8270028  52.6684244  29.5844285  35.1484741  52.8529938
  28.9251932  35.6916879  53.5300672  29.2469442  35.2905394  51.8263386
  29.5530356  33.6357606  53.2032397  30.4564509  33.1413329  53.9482117
  28.6094154  32.9874692  52.7419749  31.5366096  35.1613768  50.6057460
  31.0707209  34.1291518  50.0852652  31.6518580  36.2939427  49.9504969
  32.0324235  37.1189722  50.3916266  31.1451873  36.4097142  48.5740447
  30.3802600  35.6563394  48.3858639  30.5348037  37.7740568  48.3822476
  31.3335998  38.5083824  48.4861218  30.1340370  37.8147341  47.3694142
  29.4006119  38.0928782  49.4025534  28.7429467  37.2262892  49.4703832
  29.8539567  38.2813501  50.3757229  28.5979188  39.3025794  48.9778419
  27.9775473  39.6187271  49.8164651  29.2897925  40.1031973  48.7162676
  27.7257714  39.0347679  47.8196692  27.2763174  38.1316505  47.7699751
  27.4876054  39.9215483  46.8448629  28.0949977  41.1003323  46.8693779
  28.7319311  41.3212549  47.6214478  27.9178055  41.7716458  46.1358652
  26.6546384  39.6443908  45.8252671  26.1920784  38.7474595  45.7846130
  26.4956912  40.3345226  45.1051611  32.2367646  36.1368292  47.4983687
  31.8960477  35.9671143  46.3219836  33.4901371  36.0518871  47.9332287
  33.6377688  36.2294952  48.9164680  34.6710203  35.7795222  47.0846457
  35.5622110  35.7743308  47.7122215  34.5714666  34.4190844  46.3566146
  33.6312221  34.3927638  45.8058454  35.4039346  34.3426132  45.6571511
  34.6200047  33.2590509  47.3265199  35.5729391  33.2709425  47.8555526
  33.8053208  33.3548021  48.0443109  34.4779543  31.9565038  46.5749791
  33.5280895  31.9487781  46.0403802  35.2964723  31.8589571  45.8618084
  34.5120176  30.8105235  47.4887241  35.1914370  30.8121507  48.2360433
  33.7161606  29.7494833  47.3549092  32.7827662  29.7044021  46.3931138
  32.6776812  30.4832647  45.7587399  32.1891054  28.8917928  46.3074829
  33.8229159  28.7462894  48.2092243  34.5039257  28.7913305  48.9537356
  33.2229758  27.9394437  48.1134613  34.7971411  36.9182061  46.1052818
  34.7311279  36.7252184  44.8631679  34.9656434  38.1064585  46.6865229
  35.0102192  38.1667734  47.6937341  35.1568440  39.3472173  45.8993134
  35.3066541  39.1671764  44.8347753  33.9819279  40.3098376  46.0713147
  33.8662688  40.5536275  47.1273870  34.2489196  41.6202736  45.2603183
  34.3642353  41.3773254  44.2040137  33.4088792  42.3034031  45.3858841
  35.1599810  42.0946486  45.6250606  32.6609902  39.6365611  45.6910946
  32.4978219  38.7686844  46.3300532  31.8414453  40.3430822  45.8225248
  32.7016760  39.3177652  44.6495502  36.3929993  40.0264583  46.4656796
  36.5388377  40.2113848  47.7017974  37.3142086  40.4238122  45.5678704
  37.2852171  40.0791525  44.6189402  38.4448013  41.2140859  45.9715305
  38.1661310  41.7533364  46.8768763  39.7568179  40.3769982  46.2646906
  39.4947299  39.5320321  46.9014342  40.3952930  39.8570328  44.9556529
  40.6580909  40.7015064  44.3185491  41.2937817  39.2864389  45.1906843
  39.6846596  39.2161470  44.4337658  40.7283609  41.1794407  46.9346459
  41.5148625  40.6554508  47.1033180  38.6807135  42.3370157  44.9463228
  38.0152240  42.3913385  43.9141940  39.5511267  43.2676170  45.2810930
  40.0944117  43.2163654  46.1309836  39.7501495  44.4367983  44.3878813
  40.0671875  44.1103247  43.3974263  38.8285620  45.0125304  44.3023929
  40.8202643  45.3113396  44.9806721  41.0628113  45.2844462  46.2089980
  41.5221490  46.0596713  44.1347510  41.3588508  45.9885111  43.1405834
  42.5557148  46.9687317  44.5996605  42.3208703  47.3033116  45.6101077
  43.9465314  46.2663635  44.6183497  44.6861271  46.8728045  45.1411563
  43.8436612  45.3053135  45.1222353  44.5145164  45.9776250  43.2488034
  45.4463850  46.8569316  42.6771796  45.7430339  47.7418935  43.2401553
  45.9982522  46.6147686  41.3993499  46.7245871  47.2953791  40.9551568
  45.5875679  45.4563250  40.6924412  45.9842201  45.2640068  39.6955557
  44.6608928  44.5453539  41.2788769  44.3502761  43.6435469  40.7512771
  44.1433814  44.8259818  42.5647773  43.4430020  44.1345071  43.0332124
  42.6310905  48.1951538  43.7198603  42.0942795  48.2004640  42.5809768
  43.3031875  49.2166377  44.2632259  43.6884809  49.1412312  45.1937969
  43.5154074  50.4595152  43.5240134  43.0827725  50.3950333  42.5256305
  42.8249534  51.6021253  44.2856283  43.0150004  51.4782769  45.3517628
  43.2439389  52.5508335  43.9502122  41.4154649  51.5940451  44.0492089
  41.0056327  52.3144757  44.5335819  45.0066629  50.7219405  43.4460258
  45.7254104  50.5491477  44.4400176  45.4798873  51.2252525  42.2946137
  44.8858121  51.3427428  41.4863006  46.8596263  51.5753375  42.1775254
  47.3933242  50.8968938  42.8430928  47.3490845  51.3566371  40.7095810
  46.7304048  51.9454230  40.0323314  48.7799384  51.7857199  40.5793925
  49.3993433  51.1970173  41.2560515  49.1144616  51.6304862  39.5536745
  48.8676144  52.8420103  40.8336809  47.3227908  49.8479981  40.4037671
  48.0391060  49.3458559  41.0540336  46.3214668  49.4669409  40.6043791
  47.7172552  49.5577051  38.8187814  48.7187025  49.9380969  38.6175223
  47.6915501  48.4848291  38.6280577  47.0010641  50.0591841  38.1678674
  46.9793235  53.0280411  42.6032268  46.4034923  53.9144561  41.9244037
  47.6446912  53.2645653  43.7207021  48.0843460  52.5066034  44.2229936
  47.6685266  54.6189949  44.3283560  46.9194902  55.2529377  43.8538456
  47.4020942  54.5553576  45.8376638  47.3663651  55.5632987  46.2510385
  46.0323792  53.8486797  46.0729429  46.0674955  52.8404505  45.6602187
  45.8291170  53.7960017  47.1425270  45.2415803  54.4148366  45.5808021
  48.4919072  53.8183009  46.5964926  48.4611488  52.7708893  46.2963532
  49.4512682  54.2496030  46.3106527  48.3087068  53.9253789  48.2085121
  47.3497049  53.4938274  48.4951800  49.1136013  53.3816555  48.7030916
  48.3398221  54.9725420  48.5094793  48.9408229  55.4077764  44.0651737
  49.0103098  56.5846086  44.4121169  49.9555930  54.7305058  43.5321201
  49.8644454  53.7359467  43.3816421  51.1883535  55.3654672  43.1585327
  50.9660914  56.1662245  42.4532055  51.6463887  55.7869089  44.0533455
  52.1630294  54.3962416  42.5143945  51.8080214  53.2661673  42.1329783
  53.3877217  54.8745921  42.3600169  53.5959286  55.8240607  42.6343500
  54.4737634  54.0575958  41.7933765  55.2795705  53.9804302  42.5233215
  54.0908205  53.0620294  41.5690960  55.0173832  54.6734297  40.5234348
  54.4487791  55.6365078  39.9978648  56.1098101  54.0909790  40.0208377
  56.5463797  53.3175843  40.5018438  56.7398657  54.5908255  38.7842086
  56.5178025  55.6501706  38.6554647  58.2465619  54.4161518  38.8563244
  58.4503463  53.3580895  39.0208707  58.6621543  54.7205757  37.8957469
  58.8998794  55.2510731  39.9903742  58.7633471  56.3060679  39.7527914
  58.3409934  55.0073634  40.8938957  60.3853339  54.9683811  40.2184446
  61.0807635  54.3846196  39.3608117  60.8831779  55.3739078  41.2924001
  56.1659213  53.8589236  37.5855375  56.6533479  52.7997416  37.2376527
  55.1063563  54.4148359  36.9996155  54.7723909  55.2936563  37.3687241
  54.4143108  53.8391048  35.8470837  55.1515323  53.5943834  35.0824170
  53.6295957  52.5569830  36.2046798  53.0876596  52.1239486  35.3639149
  54.3544200  51.8345460  36.5799324  52.6401089  52.7637012  37.2846541
  51.3901875  53.3179662  37.0694782  50.7665644  53.4219424  38.2405723
  49.7461029  53.8016646  38.2912505  51.5863327  53.0053814  39.1925418
  51.3964450  53.0128822  40.1845026  52.7467811  52.5568007  38.6176820
  53.5342119  52.1314083  39.2398518  53.4285576  54.8976903  35.3613881
  53.2519414  55.9510593  36.0071943  52.7550496  54.6257274  34.2525631
  52.9294789  53.7737905  33.7388731  51.8847527  55.6360059  33.6467457
  52.1225351  56.6210020  34.0484190  52.0904792  55.6656501  32.0926020
  51.7037956  54.7353710  31.6764820  51.5274979  56.5062309  31.6869224
  53.5167401  55.8097540  31.7343632  53.9356764  56.6575830  32.2763773
  54.0478681  54.9006233  32.0162966  53.6692578  56.0451578  30.2098983
  54.7328742  56.1621668  30.0022254  53.2963834  55.1551435  29.7030070
  52.9584808  57.2137823  29.6891808  53.1744327  58.0943093  30.1343059
  52.0674075  57.2028590  28.7081981  51.6844584  56.0651994  28.1301101
  52.0768378  55.1877148  28.4402055  51.0035353  56.0854770  27.3844345
  51.5380047  58.3664592  28.2709919  51.8237974  59.2381097  28.6936596
  50.8588468  58.3594037  27.5234670  50.3878992  55.6245608  33.9808945
  49.6369503  56.5112322  33.5249049  49.9202943  54.6637509  34.7838285
  50.5641553  53.9899339  35.1730752  48.4907857  54.4996122  35.0615560
  47.9275571  54.8261946  34.1873611  48.1045795  53.0435090  35.3798831
  48.6666794  52.8660397  36.2967515  47.0373331  52.9683845  35.5883090
  48.4985995  51.9863483  34.3209532  49.5575638  52.0965582  34.0873952
  48.2310779  50.5398982  34.8619590  47.1721660  50.4287732  35.0953164
  48.5140878  49.8097219  34.1037713  48.8206652  50.3738245  35.7635724
  47.8148275  52.2386839  32.9866958  48.1012880  53.2210006  32.6110714
  48.1187296  51.4740883  32.2717563  46.7335437  52.2021303  33.1193156
  47.9977658  55.3779901  36.1829416  48.5767849  55.4160768  37.2611936
  46.9150710  56.0743634  35.9346373  46.5215594  56.1350902  35.0064346
  46.3318695  56.8947218  36.9866326  46.8453093  56.6606611  37.9192066
  46.4527635  58.4862406  36.7148040  46.0093452  59.0141805  37.5590551
  47.8956526  58.9171302  36.5517843  48.3396371  58.3899190  35.7073758
  47.9364018  59.9912467  36.3709189  48.4507536  58.6807480  37.4595766
  45.7576297  58.7941448  35.5356629  45.8217983  59.7363319  35.3631341
  44.8993102  56.4861070  37.2413809  44.1126973  56.1954112  36.3104023
  44.5683842  56.4306826  38.5233033  45.2910739  56.5707485  39.2148236
  43.2394001  56.0240735  38.9813080  43.2511536  55.8311485  40.0540340
  42.2203747  57.1652238  38.6921552  42.2840892  57.3827890  37.6259914
  41.1968017  56.8892394  38.9455934  42.5917932  58.4210446  39.4678816
  42.9868263  59.4687739  38.8783003  42.5469167  58.3226859  40.7791683
  42.7822465  59.1214208  41.3507820  42.2773454  57.4489046  41.2080486
  42.7713021  54.6842215  38.4493926  41.5661800  54.4779543  38.2061653
  43.7297784  53.7644954  38.3329062  44.6983463  54.0152356  38.4711262
  43.4088952  52.3602915  38.0291720  42.7293604  52.3000856  37.1790503
  44.7158531  51.6047013  37.6734494  45.2187694  52.1523748  36.8764374
  45.3501635  51.5899503  38.5597523  44.4501782  50.1856556  37.2200597
  44.3255290  49.8731508  35.8458267  44.4353096  50.6697499  35.1099752
  44.0598813  48.5373132  35.4175249  43.9858899  48.2979131  34.3567164
  43.9436946  47.5203736  36.3753095  43.6781300  46.1936514  35.9732165
  43.5955782  46.0995638  35.0214117  44.0419399  47.8237314  37.7528838
  43.8995944  47.0339589  38.4905135  44.3210039  49.1330561  38.1721260
  44.4407761  49.3516925  39.2332353  42.7757490  51.6659294  39.2541766
  43.3012385  51.7309171  40.3691427  41.6530902  50.9915298  39.0173344
  41.2361154  51.0065733  38.0975491  40.9765489  50.2237690  40.0791750
  41.6950640  49.9471284  40.8507353  39.8516274  51.0748276  40.7305097
  40.3131105  51.9960023  41.0862761  39.1327004  51.3089116  39.9453673
  39.1450704  50.3963268  41.8701429  38.7811300  49.4312490  41.5176191
  39.8662970  50.2410281  42.6725247  37.9369037  51.2467691  42.4090550
  38.2556254  52.2811106  42.5381018  37.1199560  51.2060498  41.6886121
  37.4424922  50.6677209  43.8028327  38.3454132  50.5116707  44.3931569
  36.8457209  51.4598251  44.2550873  36.6308945  49.3786984  43.7662922
  37.1838511  48.6444795  43.3476499  36.3769098  49.1140052  44.7073179
  35.7939713  49.5232065  43.2196881  40.4082657  48.9852756  39.4424629
  39.7582109  49.0761008  38.3957965  40.6169436  47.8187471  40.0660692
  41.2307174  47.7366053  40.8639626  40.0349915  46.5977619  39.5105337
  39.2921516  46.8785754  38.7639201  41.0908468  45.6639532  38.8374900
  40.5741457  44.8346685  38.3543688  41.6420817  46.2333463  38.0891374
  41.9894738  45.1604299  39.8004536  42.6310098  44.5892929  39.3716950
  39.2403894  45.8436874  40.5729485  39.4877819  45.9995904  41.7964799
  38.3101095  45.0192569  40.1006364  38.1091282  44.9768633  39.1117438
  37.5514814  44.1603470  40.9957270  37.9991342  44.0882470  41.9869423
  36.1060743  44.7082424  41.1427303  35.7505298  44.9530465  40.1418516
  35.1157925  43.7092821  41.8158672  35.4704519  43.4643489  42.8170292
  34.1280051  44.1653057  41.8823427  35.0557371  42.7989298  41.2194162
  36.1250751  45.9988588  41.9307464  36.7377309  46.7344348  41.4095143
  35.1084331  46.3789863  42.0309553  36.5427795  45.8147059  42.9205502
  37.5579789  42.7633999  40.3515603  37.3310889  42.6206084  39.1595366
  37.7890158  41.7431970  41.1825139  37.8578473  41.9299953  42.1726997
  37.8742950  40.3664936  40.7350719  37.7091604  40.2918370  39.6602435
  39.2629342  39.8150681  41.0551970  39.4589653  39.9423184  42.1198469
  39.3471020  38.2620931  40.6796724  39.1516258  38.1340890  39.6150112
  40.3424858  37.8845812  40.9137555  38.6046149  37.7081057  41.2540515
  40.2110025  40.5595784  40.3084174  41.0936849  40.2305574  40.4933967
  36.8310597  39.5317805  41.5603035  36.8420491  39.5787605  42.8148743
  35.9648003  38.8035894  40.8792994  35.9692887  38.8565087  39.8706971
  34.9344745  38.0026308  41.5236471  35.1106162  38.0123274  42.5992768
  33.5308063  38.5229524  41.2563962  32.8151073  37.8771280  41.7651064
  33.3725485  39.9601732  41.7644827  34.0876549  40.6067177  41.2558545
  32.3599320  40.3085445  41.5611495  33.5573448  39.9888905  42.8383199
  33.2449500  38.5181344  39.8450274  32.3560819  38.8493945  39.6974449
  35.0586561  36.5568082  41.1159938  35.3745098  36.2699752  39.9607864
  34.8291875  35.6476423  42.0751906  34.5897726  35.9410824  43.0114987
  34.9996033  34.1831581  41.8118119  35.3274998  33.9982065  40.7888867
  36.0466039  33.5894399  42.7809504  35.6987403  33.7555780  43.8005033
  36.2564353  32.1046636  42.5544178  36.6047696  31.9377652  41.5351489
  37.0004128  31.7308408  43.2578769  35.3151500  31.5766974  42.7071768
  37.3838508  34.3239396  42.6118739  37.2477878  35.3827588  42.8320801
  38.1195889  33.9025255  43.2968550  37.7350861  34.2088370  41.5864539
  33.6487711  33.4636390  41.9253184  32.9267640  33.6563787  42.9324624
  33.2823950  32.6887272  40.9065794  33.9319436  32.5383264  40.1479190
  31.9623447  32.0742541  40.8188527  31.3853570  32.2632693  41.7240917
  31.2185532  32.6934629  39.6237775  31.7780942  32.4246571  38.7278106
  30.1811208  32.3783459  39.5118169  31.2072805  34.1812211  39.6886976
  30.2470848  34.8731269  40.4129487  29.4730856  34.4515376  40.9061905
  30.5167342  36.1721314  40.3476542  29.8754248  36.8943940  40.8527859
  31.6144129  36.3421725  39.6121330  32.0768935  35.1152387  39.2028640
  32.9851527  35.0471867  38.6040858  31.9955054  30.5761578  40.6609646
  32.7328806  30.0398637  39.8146192  31.1870059  29.8923952  41.4882005
  30.7194814  30.3993677  42.2261023  30.9465444  28.4202616  41.3766352
  31.8719818  27.8987784  41.1322581  30.4290624  27.8959963  42.7225112
  31.1260473  28.2281389  43.4919218  29.4534705  28.3500005  42.8962949
  30.3014476  26.4009613  42.7749891  29.5260312  26.0693249  42.0844476
  31.2501365  25.9369267  42.5052425  29.9289659  26.0015301  44.1754669
  30.6014634  26.4880680  44.8819560  28.9035569  26.3097536  44.3795112
  30.0272907  24.5592947  44.3550372  30.8979223  24.2040105  44.7236468
  29.0605713  23.6976050  44.0757768  27.8999017  24.1203574  43.5803661
  27.7537140  25.1060321  43.4155193  27.1706069  23.4535615  43.3715313
  29.2615231  22.3995891  44.2891473  30.1457075  22.0829729  44.6607282
  28.5289401  21.7369710  44.0785336  29.9320786  28.0269477  40.3167050
  28.8488638  28.6601315  40.1684447  30.2858849  26.9899467  39.5458678
  31.2392182  26.6576225  39.5744272  29.3533179  26.3416077  38.6259225
  28.3428298  26.7009656  38.8205375  29.7077301  26.6466596  37.1756449
  30.7730059  26.5405582  36.9706346  29.1456665  25.9657664  36.5364509
  29.3262662  28.0408238  36.7597307  28.0926389  28.2781733  36.1912178
  27.4108146  27.4437626  36.0269794  27.7130214  29.5733054  35.8264528
  26.7489487  29.7659341  35.3557526  28.6033516  30.6426165  36.0776235
  28.3005435  31.6608837  35.8336171  29.8584863  30.4032363  36.6321612
  30.5696569  31.2165618  36.7765155  30.1970220  29.1173026  37.0003435
  31.1532418  28.9233981  37.4862908  29.3625273  24.8290369  38.8622499
  30.4001932  24.2637596  39.1638856  28.2001722  24.2099626  38.7355227
  27.3619378  24.7407276  38.5464436  28.0840867  22.7541867  38.8800376
  29.0311796  22.2888024  38.6070327  27.7406208  22.3574242  40.3189857
  28.5799383  22.6750126  40.9376803  26.8517750  22.9251687  40.5941572
  27.4729789  20.8199508  40.5458121  26.5058426  20.5714822  40.1087634
  28.2579148  20.2705978  40.0260178  27.4769405  20.4320881  42.0400858
  27.2670795  21.3273677  42.8996291  27.6801347  19.2247105  42.3600849
  27.0049985  22.2778896  37.9495976  25.9315422  22.8913197  37.8752532
  27.2996181  21.2037821  37.2313822  28.2035090  20.7730903  37.3639918
  26.3946344  20.6261239  36.2350668  25.3710356  20.6342595  36.6096047
  26.4497586  21.4501881  34.9371374  26.2210528  22.4751481  35.2291131
  27.4831266  21.3923315  34.5952263  25.5197508  21.0245269  33.8126046
  25.7678096  20.0106305  33.4986273  24.4878013  21.0537890  34.1623561
  25.6836744  21.9786631  32.6291524  25.3524779  22.9664326  32.9496508
  26.7431748  22.0157482  32.3758086  24.8856064  21.5482009  31.4081942
  25.3000318  20.6189191  31.0173139  23.8463455  21.3892734  31.6959059
  24.9544710  22.6083603  30.3521972  25.9173530  22.7554747  30.0851479
  24.4223791  22.3149682  29.5454139  24.5701117  23.4694224  30.7140523
  26.8835484  19.1911587  36.0416060  28.0409986  18.9744716  35.6744416
  26.0016691  18.2177647  36.3215149  25.0339496  18.4913050  36.4152911
  26.3481305  16.7923051  36.5056437  25.4249764  16.2133451  36.4793562
  27.3032616  16.2417911  35.4364931  28.2106461  16.8433002  35.4907098
  27.5311174  15.2148613  35.7221446  26.7624737  16.2645231  34.0086049
  25.7439314  15.8770034  34.0309841  26.7494467  17.2995484  33.6670612
  27.6113913  15.4181823  33.0458836  28.8704270  15.3744156  33.2144289
  27.0077916  14.8028184  32.1204477  27.0059628  16.6658968  37.8539529
  26.5748716  17.2846996  38.8307300  28.0557286  15.8646688  37.9219182
  28.2820074  15.1991985  37.1966275  28.8617368  15.8723750  39.1191406
  28.3220324  16.3924124  39.9105819  29.1658288  14.4367872  39.5913723
  28.2307932  13.9154075  39.7962404  29.7141008  13.9061591  38.8129561
  30.0067941  14.4438485  40.8599202  30.3533206  15.5056588  41.3726767
  30.3349706  13.2529558  41.3661797  30.8920640  13.2012561  42.2070565
  30.0246571  12.4091313  40.9059986  30.1427320  16.6820646  38.8574346
  31.1665649  16.4588544  39.5216992  30.0775179  17.6394837  37.9175683
  29.2755856  17.7019685  37.3067495  31.2833732  18.4210153  37.5727954
  32.1122236  18.0921436  38.1996523  31.6809147  18.2432595  36.1011274
  32.7646737  18.3593896  36.0922146  31.4248807  17.2094548  35.8691911
  31.0640305  19.1640729  35.0591770  30.0744569  18.8040551  34.7776950
  30.9830213  20.1771238  35.4532169  31.9925372  19.1669013  33.8046041
  32.0385156  18.1732635  33.3588811  31.6338149  19.8808732  33.0632123
  33.3478960  19.5601363  34.2205305  33.8305228  18.9270597  34.8421291
  33.9704484  20.6809850  33.8423127  33.3665621  21.5065719  32.9811770
  32.4494794  21.2775508  32.6253559  33.8302490  22.3554398  32.6904585
  35.1960804  20.9659036  34.3240610  35.6414397  20.3305405  34.9706435
  35.6638985  21.8135503  34.0364153  31.2444710  19.8878061  38.0730809
  30.2872149  20.6015434  37.8591658  32.2847071  20.2822107  38.7943436
  33.0851639  19.6744616  38.8943895  32.3226272  21.5907164  39.4444429
  31.3901435  22.1496146  39.3656644  32.6864781  21.4102958  40.9225464
  33.5876300  20.8011089  40.9926672  32.9351861  22.7673594  41.5869488
  32.0342634  23.3769773  41.5176302  33.1920254  22.6174518  42.6355965
  33.7565528  23.2749956  41.0812202  31.5851536  20.5793838  41.6379362
  30.6974616  21.2067943  41.7183086  31.3633487  19.7155152  41.0113317
  32.0154420  20.0889173  43.0777955  32.2369746  20.9523065  43.7051569
  31.2036086  19.5147459  43.5242851  32.9028636  19.4610288  42.9981800
  33.4002481  22.4224607  38.7397511  34.5071921  21.9499293  38.5863431
  33.0915589  23.6423244  38.2948684  32.1462609  23.9931467  38.2362620
  34.1854177  24.4814543  37.7590634  35.1386453  24.1320724  38.1557858
  34.2374900  24.4130536  36.2229089  35.1508516  24.8676407  35.8392157
  34.2182961  23.3564060  35.9560244  33.0865605  25.0664462  35.4877250
  33.0812453  26.3230109  34.9057610  33.9869625  26.9170392  35.0278530
  31.8799899  26.5593880  34.2713610  31.6284951  27.4064286  33.7821043
  31.0762211  25.4679068  34.4310401  29.7640656  25.2479280  33.9844416
  29.2664748  26.0326135  33.4145551  29.1822699  24.0357723  34.3006922
  28.1648230  23.8243415  33.9717563  29.8754863  23.0620469  35.0414073
  29.4010437  22.1119502  35.2870085  31.1823804  23.2757625  35.4837526
  31.6829414  22.4719055  36.0235242  31.7993227  24.5030567  35.1957783
  34.0107709  25.9152919  38.2869982  33.0552242  26.2141780  39.0423124
  34.9611093  26.7714312  37.9271977  35.7010442  26.4664425  37.3110990
  34.9581409  28.1602679  38.3687471  34.0752332  28.3680703  38.9732231
  36.2109022  28.4328784  39.2185369  37.0893493  28.2024303  38.6157727
  36.2776893  29.8473928  39.6704700  35.3997419  30.0784634  40.2737231
  37.1774912  29.9965808  40.2672939  36.3048767  30.5058555  38.8022602
  36.2241521  27.5886868  40.3959264  37.0119001  27.7727778  40.9128054
  34.9975891  29.1039668  37.1385731  35.6322464  28.8022463  36.1208851
  34.3171224  30.2426545  37.2764261  33.6246278  30.3287462  38.0065897
  34.5093160  31.3793300  36.3581798  35.2741931  31.1161110  35.6275787
  33.2213952  31.7545308  35.6075125  32.4214799  31.8993659  36.3336374
  33.4208781  33.0769958  34.7760252  34.2203798  32.9327729  34.0493219
  32.4958216  33.3215726  34.2539591  33.6847017  33.8932771  35.4484713
  32.8327647  30.6083958  34.6363025  32.6677848  29.6918091  35.2026528
  31.9194810  30.8758350  34.1048058  33.6376548  30.4513086  33.9182661
  35.0108437  32.5272970  37.2173636  34.4546761  32.8415119  38.2987167
  36.1116182  33.1168898  36.7785505  36.6400111  32.7378051  36.0057666
  36.5740164  34.3337905  37.3885396  36.0972521  34.4803325  38.3577250
  38.0868554  34.2975900  37.5895911  38.5598941  34.0766031  36.6327743
  38.6251300  35.6813165  38.1365487  38.1528554  35.9027771  39.0936343
  39.7054888  35.6245245  38.2695907  38.3883789  36.4712290  37.4237453
  38.4678177  33.1752171  38.5905585  38.1369242  32.2125060  38.2009446
  39.5493265  33.1596870  38.7254555  37.9852436  33.3637563  39.5495559
  36.2215746  35.5086287  36.4417291  36.4415135  35.4081390  35.2027095
  35.7229045  36.5984033  37.0227441  35.5153611  36.5893933  38.0111489
  35.4994378  37.8620183  36.2655284  35.7111826  37.6933112  35.2096869
  34.0680289  38.3407016  36.4019143  33.9626491  38.4776769  37.4781263
  33.9530161  39.3018547  35.9008587  32.9974698  37.3790603  35.9059606
  33.1442641  36.4094811  36.3818476  31.5782551  37.9166720  36.2515444
  31.4305403  38.8860799  35.7755954  30.8256979  37.2162424  35.8893885
  31.4832391  38.0247190  37.3320064  33.1795529  37.1252988  34.3803686
  34.1634049  36.6928699  34.1983253  32.4102476  36.4362820  34.0317619
  33.0926386  38.0688693  33.8416483  36.4021490  38.9084777  36.8710174
  36.4601738  39.0228859  38.0910756  37.1244152  39.6623250  36.0246778
  37.1474325  39.4465403  35.0382669  37.9377368  40.7685935  36.5083089
  37.6278845  41.0202886  37.5225773  39.4424914  40.4191506  36.5241935
  39.5950363  39.5796875  37.2025230  39.7406516  40.1300815  35.5164041
  40.2771778  41.5903840  36.9785996  40.3002888  42.3434341  36.1908927
  39.7839142  42.0016230  37.8593224  41.7098998  41.1846067  37.3388906
  41.8669511  40.1262719  37.9279307  42.6654574  41.8955415  37.0112990
  37.6572276  41.9595280  35.6209174  37.6945304  41.8328160  34.3866364
  37.3026171  43.0972985  36.2278983  37.0793638  43.1418955  37.2119046
  37.1643654  44.3256125  35.4231300  37.5066833  44.1496463  34.4033488
  35.6865395  44.7478459  35.3793636  35.5947683  45.6189802  34.7306709
  35.1037184  43.9246934  34.9660361  35.2034050  45.0663397  36.6640806
  34.2809601  45.3253299  36.6039195  38.0478488  45.4260270  36.0016349
  38.4579662  45.3471983  37.1555772  38.3219727  46.4675402  35.2195119
  38.0243706  46.4861748  34.2545325  39.0386645  47.6232255  35.7440289
  38.9364839  47.6265604  36.8292235  40.5655776  47.6253580  35.3842930
  40.9768100  48.5430586  35.8047841  41.0453648  46.7653488  35.8515066
  40.8236694  47.5955567  33.8717199  40.8344076  48.7863391  33.1114305
  40.6931362  49.7378367  33.6240650  41.0179171  48.7602143  31.7545941
  40.9843464  49.6894240  31.1857846  41.1977485  47.5645452  31.1055773
  41.4024582  47.5899670  29.7425359  41.3969499  48.4784164  29.3789055
  41.2195760  46.3631743  31.8164869  41.3919712  45.4152036  31.3068480
  41.0181242  46.3863225  33.1897918  41.0094107  45.4544347  33.7551318
  38.4340428  48.8840085  35.1370858  37.7380511  48.8143109  34.0984335
  38.7430116  49.9981053  35.7993029  39.0722332  49.9279545  36.7515589
  38.5576711  51.3328924  35.2251580  38.3832641  51.2904964  34.1500375
  37.3624309  52.0938092  35.8970779  36.4414480  51.5370835  35.7240280
  37.6038370  52.2284447  37.4137303  38.5244701  52.7854992  37.5875864
  36.7675272  52.7583743  37.8696481  37.6904426  51.2367868  37.8578201
  37.1582994  53.4973551  35.2279955  36.9429338  53.3670054  34.1674632
  36.3247685  54.0110229  35.7070271  38.0651133  54.0909742  35.3437791
  39.8709960  52.0529624  35.3925908  40.5974980  51.8262578  36.3715030
  40.2323686  52.9081977  34.4260545  39.6560689  53.0704655  33.6126375
  41.5029975  53.6328387  34.5337701  41.7210650  54.0211210  35.5286483
  42.7020682  52.7152550  34.0767683  42.7375612  51.8406463  34.7263059
  42.5320939  52.2597144  32.6076280  42.4969803  53.1338218  31.9573939
  43.3741319  51.6290166  32.3225093  41.6052732  51.6949845  32.5067060
  44.0367080  53.3690499  34.3060258  44.1596681  53.5825916  35.3678086
  44.8312211  52.6996854  33.9761776  44.0880291  54.2994561  33.7405073
  41.4030299  54.8663522  33.6309595  40.6291035  54.8643037  32.6847884
  42.1744990  55.8886791  33.9521123  42.7153990  55.8605664  34.8046005
  42.3084958  57.0575119  33.0846011  41.3238052  57.4256272  32.7965478
  43.0486919  58.1708204  33.8248975  44.0422724  57.7913520  34.0634364
  43.1374077  59.0169029  33.1434476  42.3568865  58.6205488  35.1044285
  41.1413892  58.3840509  35.2597090  43.0825354  59.2285853  35.9489244
  43.1378910  56.7451512  31.8240490  44.0620276  55.9318168  31.8411837
  42.8638748  57.4227663  30.7050393  42.0644290  58.0346687  30.6240374
  43.7593217  57.2987240  29.5589876  44.0673613  56.2589225  29.4493347
  43.0555590  57.7509515  28.2440586  42.5700060  58.7027745  28.4593965
  43.8412746  57.9036728  27.5041754  42.0197959  56.7618876  27.6930118
  41.9403203  56.9803159  26.6280829  42.4553690  55.7719710  27.8288177
  40.3671044  56.7913179  28.4315413  39.7044099  58.3394410  27.6961917
  39.6993317  58.2530329  26.6096344  38.6873993  58.5048607  28.0517568
  40.3328435  59.1800552  27.9903689  44.9387616  58.2117685  29.8401640
  44.7115691  59.4171905  30.1200701  46.1866870  57.6839987  29.7745054
  46.6155313  56.2786156  29.6284843  46.1772940  55.8558569  28.7244249
  46.2851411  55.7048707  30.4943700  48.1184805  56.3854593  29.5485971
  48.4074047  56.2468039  28.5067734  48.5425948  55.5833064  30.1525665
  48.5408848  57.7026036  30.0529181  49.3076436  58.0694585  29.3705711
  48.9372428  57.6844797  31.0681381  47.3139548  58.6074701  29.9891885
  47.1287819  59.1771478  30.8998348  47.4752728  59.5755587  28.8029904
  46.9110072  59.3425506  27.7309025  48.2496545  60.6274278  29.0293077
  48.7451250  60.6767593  29.9080424  48.4052983  61.7546718  28.0657716
  47.4378444  62.2033968  27.8404319  49.3110715  62.8290856  28.6989586
  48.8859905  63.0354997  29.6812002  50.2887035  62.3619035  28.8176037
  49.4668625  64.1720395  27.9045148  49.3605115  63.9701256  26.8386719
  48.6647858  64.8344340  28.2300999  50.8341783  64.8497678  28.1672008
  51.2354378  65.0285465  29.3482161  51.5237440  65.1866520  27.1815755
  49.0021435  61.2084301  26.7963761  49.9744219  60.4603886  26.8501333
  48.4016807  61.5360501  25.6417847  47.5826306  62.1268276  25.6263493
  48.9199537  61.0446635  24.3775212  48.7026794  61.7996860  23.6219868
  49.9994833  60.9413178  24.4872246  48.3417540  59.7206997  23.9306656
  48.6041677  59.2899695  22.8211722  47.5372830  59.0674600  24.7733329
  47.3299772  59.4451546  25.6868265  46.9887932  57.7658793  24.4244024
  47.3273253  57.4708460  23.4312002  47.4581567  56.7157299  25.4327838
  47.2489770  57.1016181  26.4304979  46.9239390  55.7767820  25.2875656
  48.9061052  56.4563294  25.3216864  49.6601260  56.8710216  26.1849182
  49.3317003  55.7935040  24.2258555  50.3151534  55.5948998  24.1097686
  48.6648313  55.4990555  23.5267944  45.4749443  57.7544183  24.3488633
  44.7713986  58.4133869  25.1429350  44.9728892  56.9727806  23.4079445
  45.6039208  56.4815877  22.7909939  43.5650263  56.8106074  23.2078670
  43.0429350  57.7548082  23.3628016  43.3252890  56.3519569  21.7792909
  42.2516873  56.3288691  21.5923535  43.7970046  57.0602697  21.0982054
  43.8778094  55.0397032  21.5648509  43.7161568  54.7686965  20.6581957
  42.9401650  55.7954741  24.1738849  43.6860846  55.0581843  24.8889378
  41.5990566  55.7449053  24.1891218  41.0450866  56.4626707  23.7441168
  40.8915205  54.6391256  24.8851598  41.1566997  54.6916361  25.9411057
  39.3673401  54.6723622  24.7617522  39.1089397  54.7186197  23.7038351
  38.9673366  53.7547601  25.1931497  38.7798342  55.8557986  25.4717930
  39.1620929  55.8441982  26.4925009  39.1548181  56.7385917  24.9539488
  37.2644520  55.8927186  25.5004218  36.6110355  54.8100352  25.5213430
  36.7383891  57.0402181  25.5154098  41.3487488  53.2978573  24.3500414
  41.6408071  52.3928481  25.1333737  41.4283351  53.1721006  23.0251338
  41.1089180  53.8974607  22.3990950  41.8956251  51.9143931  22.4469184
  41.2687093  51.0902234  22.7872419  41.8243706  51.9848879  20.9072216
  42.1957353  52.9719837  20.6318503  42.4741963  51.2207741  20.4806579
  40.3786386  51.8024796  20.3572849  39.4620301  51.2786463  21.0691082
  40.1705988  52.1647505  19.1531511  43.3066987  51.5246530  22.9128842
  43.5597491  50.3236059  23.2545232  44.2260235  52.4905929  22.9270302
  43.9814356  53.4484150  22.7200206  45.6106016  52.1975499  23.3555571
  46.0553892  51.4854508  22.6604471  46.4674009  53.4413231  23.3865922
  45.8776965  54.1885445  23.9176365  47.3772736  53.2307121  23.9486195
  46.8407436  53.9804515  21.9838838  46.7410790  53.2376321  20.9650804
  47.2750653  55.1668263  21.9879546  45.5765465  51.7105554  24.8053718
  46.3016470  50.7513112  25.1822535  44.7497414  52.3913414  25.6069357
  44.1419156  53.1060246  25.2329371  44.7525601  52.1646113  27.0903472
  45.7883557  52.1830354  27.4292974  43.9879055  53.3118189  27.7803929
  42.9354677  53.2710441  27.4996575  44.1187675  53.1601528  29.3205077
  45.1709697  53.2012986  29.6020697  43.5795050  53.9693583  29.8129319
  43.6978024  52.2032048  29.6289544  44.6352963  54.5591989  27.3929629
  44.1819569  55.2970997  27.8071926  44.1604691  50.8336077  27.4224778
  44.7766845  50.0314854  28.2112366  43.0016730  50.5579574  26.8220658
  42.4405862  51.2708880  26.3782066  42.4361920  49.2111270  26.9560211
  42.3885467  48.9528257  28.0139009  41.0242075  49.1076878  26.3616096
  41.0682699  49.4496100  25.3275656  40.7250078  48.0598132  26.3848122
  39.9892548  49.9578004  27.1430969  39.9157018  49.5365795  28.1457254
  40.3836006  50.9721551  27.2037434  38.5884326  49.9884542  26.4940002
  37.9762161  50.7488414  26.9788725  38.6810255  50.2195938  25.4328214
  37.9318870  48.7058866  26.6337469  38.3696236  48.0375998  27.2517104
  36.8109489  48.3544354  26.0106635  36.2131128  49.1928692  25.1642708
  36.6138483  50.1040788  24.9933668  35.3621274  48.9131119  24.6977311
  36.2829641  47.1568103  26.2382447  36.7352740  46.5228220  26.8813424
  35.4316758  46.8857937  25.7671216  43.3586121  48.1207216  26.4183714
  43.4564270  47.0512539  27.0176143  44.0448371  48.3466671  25.3037639
  43.9635447  49.2015296  24.7720676  44.9350512  47.2962040  24.7993315
  44.3608042  46.3806651  24.6574576  45.5828488  47.6854336  23.4539544
  45.9560940  48.7049008  23.5512878  46.4192149  47.0076081  23.2832374
  44.6176137  47.6081436  22.2756762  44.0396688  46.6841643  22.2941887
  43.9385206  48.4606135  22.2605202  45.6463280  47.6383941  20.7812878
  47.3192160  47.9474671  21.4420855  47.5951133  47.1435698  22.1245287
  48.0337096  47.9866143  20.6198525  47.3293791  48.8970764  21.9770997
  46.0539444  46.9604786  25.7714968  46.4085874  45.7935780  25.9385880
  46.6763664  48.0043208  26.3241082  46.4236576  48.9350027  26.0239935
  47.7443159  47.8603598  27.3258907  48.5712066  47.2912852  26.9010318
  48.2793554  49.2620793  27.7732352  48.7083167  49.7405591  26.8928100
  47.5079129  49.9055369  28.1962469  49.3899385  49.1778256  28.8066941
  50.7053968  49.0422285  28.4077355  50.9284291  49.0366658  27.3408121
  51.7545902  48.9120636  29.3517436  52.7869257  48.8171197  29.0150394
  51.4665084  48.9058098  30.6968216  52.2731718  48.8269619  31.4256405
  50.1350274  49.0008592  31.1311094  49.9064728  48.9554820  32.1959117
  49.0943974  49.1547497  30.1928254  48.0639456  49.2558232  30.5334911
  47.2155699  47.0755993  28.5609813  47.7469534  45.9996132  28.8897584
  46.1586575  47.5830347  29.2142848  45.7419849  48.4599070  28.9357560
  45.6390738  46.9125141  30.4322782  46.4791000  46.7933755  31.1165742
  44.5477939  47.7853944  31.1290668  43.6961582  47.9060322  30.4595421
  44.2214515  47.2958354  32.0466358  44.9629300  48.7644880  31.3681001
  45.1015382  45.4967872  30.1207997  45.3362514  44.5315183  30.9276755
  44.4119919  45.3448830  28.9864470  44.2084310  46.1383953  28.3956843
  43.8862010  44.0043587  28.5797917  43.2252108  43.6200467  29.3566413
  43.0892118  44.1014232  27.2552164  43.7022005  44.6454791  26.5366432
  42.9406083  43.0798553  26.9053362  41.7364178  44.7924543  27.3952211
  41.2753705  45.1561375  28.5113022  41.1427232  44.9741415  26.3004442
  44.9945698  42.9564700  28.4014864  44.8599587  41.7741698  28.8489795
  46.1274919  43.3624617  27.8062728  46.2150444  44.2958203  27.4304062
  47.2448489  42.4493408  27.6483345  46.9562741  41.5922900  27.0398219
  48.4246485  43.1712342  26.9571437  48.6780067  44.0538943  27.5443583
  49.6637043  42.2592703  26.8392814  49.4112304  41.3765588  26.2517637
  50.4705394  42.8033359  26.3482531  49.9858798  41.9527690  27.8344500
  47.9730983  43.5589615  25.6582014  48.6813544  44.0126401  25.1954387
  47.6763119  41.9043511  29.0026845  47.8752588  40.6623608  29.1734157
  47.8039237  42.8031204  29.9850933  47.6662191  43.7902541  29.8216802
  48.2528675  42.3668639  31.3370931  49.1117280  41.7022042  31.2438980
  48.6552082  43.5844767  32.2549743  47.8328217  44.2998380  32.2611331
  48.9571907  43.1178807  33.7321137  49.7798313  42.4028036  33.7268123
  49.2312597  43.9817322  34.3377104  48.0693385  42.6463944  34.1534458
  49.8829757  44.2580569  31.6741053  49.6607784  44.6147002  30.6683539
  50.1674175  45.1013033  32.3034923  50.7046967  43.5431276  31.6322540
  47.1804620  41.5075364  32.0230507  47.4894248  40.4049255  32.5594360
  45.9511696  42.0252931  32.0780536  45.7525139  42.9325326  31.6811257
  44.8696512  41.3287432  32.8167789  45.2257291  41.1383256  33.8292259
  43.5565094  42.1852844  32.8995901  43.2422989  42.4626423  31.8933875
  42.4340995  41.3607489  33.5825339  42.7474152  41.0833998  34.5890187
  41.5249383  41.9594908  33.6376209  42.2401018  40.4591248  33.0015515
  43.8045514  43.4511006  33.7506779  44.5937164  44.0480380  33.2935277
  42.8885751  44.0396149  33.8030036  44.1065677  43.1597413  34.7566584
  44.5904059  39.9558753  32.2011996  44.4435518  38.9400472  32.9154945
  44.5918088  39.8727618  30.8780008  44.7424405  40.6574712  30.2602301
  44.2682486  38.5713003  30.2830934  43.3693602  38.1758572  30.7560877
  44.0169218  38.6814909  28.7525200  44.8654052  39.2190985  28.3292548
  43.9989568  37.6649175  28.3596387  42.7110153  39.4020610  28.3706339
  41.8884002  38.8336952  28.8046448  42.7443524  40.3938870  28.8214906
  42.4900627  39.5401889  26.8046075  42.1928243  38.5660395  26.4163021
  41.6871231  40.2580033  26.6368878  43.7435300  40.0080181  26.0898280
  43.8642407  41.0738307  26.2836651  44.5918187  39.4650896  26.5066421
  43.6780884  39.7712911  24.5954195  42.8923647  40.2746423  24.2089281
  44.5315938  40.0976680  24.1651792  43.5666651  38.7836976  24.4155780
  45.3555249  37.5226525  30.5561500  45.0352454  36.3485701  30.7674447
  46.6303631  37.9292574  30.5100497  46.8751597  38.8773735  30.2625626
  47.6943335  37.0041400  30.8054236  47.6193499  36.1221897  30.1693102
  49.0455054  37.6865074  30.5414192  48.9260734  38.0714422  29.5286702
  49.1985031  38.5176780  31.2297847  50.2722219  36.7410746  30.5929694
  50.3108274  36.2841920  31.5818419  50.1920037  35.6474751  29.5301302
  50.1538305  36.1036076  28.5408958  51.0708614  35.0065679  29.6004705
  49.2939787  35.0505576  29.6893189  51.5632281  37.5539983  30.4838718
  51.6196680  38.2601320  31.3122975  52.4206028  36.8819585  30.5209173
  51.5707443  38.1000508  29.5405431  47.5945842  36.5732705  32.2830097
  47.8204152  35.3890197  32.6291188  47.3082291  37.5288406  33.1580357
  47.1350296  38.4818550  32.8719153  47.2500638  37.2037962  34.6218444
  48.1970389  36.7716780  34.9452808  46.9910344  38.4681179  35.4297308
  46.1878904  39.0104763  34.9308256  46.6792474  38.2076757  36.4411945
  48.2363360  39.3941069  35.5167947  49.3245533  38.9932180  35.2163946
  48.0279082  40.6212308  35.9714746  48.8015208  41.2658962  36.0491275
  47.0963965  40.9061970  36.2382721  46.1240129  36.1903523  34.8600249
  46.2940495  35.2462926  35.6615989  44.9661429  36.4043564  34.2157174
  44.7834399  37.2391303  33.6773203  43.8574217  35.4340714  34.4091096
  43.7501078  35.2601833  35.4797850  42.4989420  35.8962711  33.8466168
  42.6840663  36.1269849  32.7975222  41.7697371  35.0892099  33.9174149
  41.9472809  37.1541526  34.5618630  42.7027629  37.9390372  34.5979722
  40.7506248  37.6386935  33.7542968  39.9944702  36.8544608  33.7181301
  40.3296806  38.5271349  34.2250181  41.0699564  37.8818049  32.7408746
  41.5792142  36.8376644  36.0303552  42.4665397  36.4937754  36.5618562
  41.1942468  37.7370846  36.5109221  40.8170920  36.0587697  36.0546819
  44.2320546  34.0643359  33.8466856  43.8683135  32.9992253  34.4384355
  44.9568842  34.0510651  32.7210640  45.1797317  34.9016611  32.2241488
  45.3924076  32.7627324  32.1371940  44.5296962  32.1048530  32.0322038
  46.0291609  32.9580386  30.7590646  46.5780859  33.8997252  30.7616801
  46.7208432  32.1353925  30.5776012  44.9963239  32.9870532  29.6799747
  44.8213393  31.9435122  29.4182432  44.0617992  33.4395267  30.0116876
  45.4843895  33.7304953  28.4305001  46.6835048  34.0520974  28.3051181
  44.5460579  34.0804412  27.5551867  44.8046692  34.5726819  26.7120255
  43.5792303  33.8523249  27.7376936  46.3607085  32.0723248  33.0888535
  46.2761843  30.8317017  33.2882423  47.2490168  32.8426767  33.7195256
  47.3522435  33.8227158  33.4982408  48.2063434  32.2324240  34.6769949
  48.5871084  31.3030993  34.2533525  49.4071899  33.1676253  34.9808833
  49.9719661  33.3187964  34.0609516  49.0223796  34.1251372  35.3318704
  50.3403784  32.5528936  36.0681498  49.7052673  32.2447228  36.8986710
  50.8118402  31.6748512  35.6267121  51.4340427  33.5203924  36.5861453
  52.1266893  33.6965430  35.7631564  50.9401908  34.4552676  36.8511324
  52.2279184  32.9747294  37.8324415  51.5276233  32.9179312  38.6657850
  52.5774003  31.9727910  37.5832809  53.4319152  33.8549305  38.2315300
  53.1082433  34.7832741  38.4628618  53.8939438  33.4499595  39.0331708
  54.0811518  33.9073418  37.4596208  47.4851660  31.7875800  35.9594558
  47.7767127  30.7133860  36.5096310  46.4898481  32.5424789  36.4056218
  46.3005324  33.4543695  36.0148349  45.6543970  32.0757391  37.5355800
  46.2765103  31.9561062  38.4225762  44.5403338  33.0798034  37.8505929
  45.0976554  33.9612211  38.1677597  43.9702746  33.3149969  36.9518067
  43.5741114  32.6507310  38.9744657  43.0499754  31.7485043  38.6592367
  44.3561040  32.3632434  40.3158682  44.8801532  33.2652058  40.6319933
  43.6509671  32.0628482  41.0908814  45.0777479  31.5629494  40.1519783
  42.4755211  33.6943262  39.1566370  41.9154703  33.7990684  38.2274053
  41.8015674  33.3779823  39.9527615  42.9237869  34.6523331  39.4200370
  45.0510950  30.6986269  37.2015700  45.0468442  29.7993478  38.0599295
  44.5020889  30.5594475  36.0065254  44.4306852  31.3302996  35.3578438
  43.9000675  29.2776153  35.6310173  43.1188479  29.0600689  36.3593501
  43.2694645  29.3556208  34.2516479  44.0408023  29.5639210  33.5101973
  42.7880370  28.4061584  34.0174492  42.5263110  30.1528494  34.2358790
  44.9258367  28.1178486  35.6902528  44.6160425  27.0275209  36.2352393
  46.1250299  28.3622123  35.1457394  46.2785785  29.2366138  34.6641336
  47.2091711  27.3465084  35.1244665  46.8695180  26.4322729  34.6377341
  48.4229281  27.9077036  34.3347211  48.6803157  28.8789946  34.7571494
  49.6712033  26.9598181  34.4050653  49.4147034  25.9884119  33.9823630
  50.4925565  27.3970807  33.8373687  49.9747955  26.8344999  35.4444054
  47.9974563  28.0489326  32.9686929  48.7216646  28.3951604  32.4421486
  47.5798097  26.9013486  36.5288403  47.6154057  25.6810971  36.8251936
  47.8180948  27.8863998  37.4003444  47.7515308  28.8448580  37.0888539
  48.2391419  27.6360325  38.7564600  49.0811189  26.9513078  38.8580772
  48.5857354  28.9606955  39.4885577  47.7880321  29.6759111  39.2879699
  48.7348357  28.7644836  41.0406736  49.5327208  28.0496984  41.2420750
  48.9772590  29.7196275  41.5065399  47.7980858  28.3878401  41.4514547
  49.8068799  29.6116504  38.8532714  49.5998866  29.8282619  37.8052565
  50.0383335  30.5393374  39.3766507  50.6578182  28.9339973  38.9224888
  47.1592706  26.8634636  39.5054033  47.4684098  25.8054107  40.1358341
  45.9048201  27.3325881  39.4409576  45.7074283  28.2003213  38.9632810
  44.8082566  26.6683368  40.1617820  45.1478856  26.5827251  41.1939747
  43.5207869  27.4996393  40.1371456  43.1633832  27.5865616  39.1110817
  42.7603074  27.0107539  40.7460481  43.7217819  28.4936252  40.5367610
  44.5456407  25.2283505  39.6435144  44.3069911  24.2981251  40.4395879
  44.6091910  25.0609484  38.3268843  44.7183818  25.8649504  37.7254214
  44.3856048  23.7448658  37.7008413  43.4744935  23.3011808  38.1022374
  44.2388602  23.8743598  36.1822240  45.0085623  24.5440637  35.7986167
  44.3495324  22.8927414  35.7214887  42.8548718  24.4423210  35.8477483
  42.1156861  23.6771922  36.0849891  42.7220070  25.2942906  36.5145271
  42.6791132  24.8770814  34.4590794  43.6451267  24.7226162  33.6796390
  41.5730733  25.3536392  34.1051098  45.5009057  22.7545291  38.1263329
  45.2259965  21.5999830  38.4892616  46.7372303  23.2158332  38.1488963
  46.9711350  24.1219172  37.7688967  47.8187026  22.3735628  38.6417749
  47.7768003  21.4298002  38.0980327  49.1439662  23.0178580  38.3800671
  49.2045770  23.9598051  38.9251927  49.9428190  22.3546238  38.7118122
  49.2510625  23.2090525  37.3123244  47.6443060  22.0404261  40.1376117
  47.8538071  20.8877361  40.5536081  47.2768846  23.0322212  40.9542424
  47.2558291  23.9884429  40.6297487  46.9874486  22.7720225  42.3631886
  47.8476823  22.2785576  42.8155043  46.6973259  24.0491113  43.1368959
  45.9727766  24.6343197  42.5706286  46.2682551  23.7745651  44.1005466
  47.9319470  24.8618980  43.3552044  48.6157992  24.3035541  43.9945002
  48.4073901  25.0503761  42.3926391  47.5387983  26.4364405  44.1404406
  47.0732403  25.9649823  45.8197282  47.9103245  25.4592003  46.3009491
  46.8125617  26.8571596  46.3890849  46.2153352  25.2935207  45.7845220
  45.8443693  21.7908426  42.5509403  45.9163763  20.9531419  43.4568164
  44.8310860  21.8666740  41.6839019  44.8300176  22.6134765  41.0039135
  43.6720258  20.9800909  41.7403635  43.2865135  21.0500846  42.7575067
  42.5759513  21.4301136  40.7693903  42.9439648  21.3569453  39.7460074
  41.7009154  20.7908848  40.8868594  42.3019649  22.4631749  40.9834349
  44.0464192  19.5008283  41.4909407  43.4714640  18.6114904  42.1248639
  44.9778384  19.2536259  40.5739210  45.3282157  20.0148035  40.0100560
  45.4775822  17.8746819  40.2913853  44.6104666  17.2188272  40.2135117
  46.2353885  17.8472402  38.9553933  45.5816985  18.2028092  38.1589265
  47.1115866  18.4923005  39.0207685  46.6770997  16.4197489  38.6507882
  47.3312373  16.0636323  39.4466436  45.8013501  15.7741405  38.5847989
  47.4293848  16.3925066  37.3245341  46.7756963  16.7480772  36.5280669
  48.3055834  17.0375657  37.3899111  47.8745367  15.0199590  36.9953626
  47.6529634  14.2740185  37.6392394  48.5530186  14.7239256  35.8904068
  48.8817124  15.6512455  34.9954552  48.6138917  16.6131012  35.1477894
  49.3976302  15.3893339  34.1676081  48.9036633  13.4561332  35.6938068
  48.6524800  12.7543914  36.3753972  49.4195156  13.2009409  34.8638236
  46.3771025  17.3262492  41.4251802  46.4708037  16.1033518  41.6347419
  47.0424514  18.2341014  42.1470488  46.9022350  19.2067932  41.9140054
  48.0831937  17.8950951  43.1337282  48.6088051  16.9887972  42.8329692
  49.1069952  19.0545293  43.2234423  49.9987826  18.7732307  42.6633659
  48.6566912  19.9371535  42.7692387  49.5199794  19.3996896  44.6640798
  49.9424342  18.5328044  45.4281688  49.3996563  20.6886258  45.0294861
  49.6566613  20.9713957  45.9644136  49.0528532  21.3678121  44.3672667
  47.5474500  17.4620755  44.5060754  46.4523522  17.8633950  44.9262689
  48.1610514  16.6413817  45.1845991  47.2362151  44.0214199  37.5181209
  46.9860817  44.8701965  36.4584352  47.8194477  45.7245602  35.8051041
  49.1217467  45.8313242  36.1242575  50.1129167  46.7107964  35.4392966
  47.2990760  46.5863427  34.6782614  51.5400855  46.8349029  36.0037698
  51.8317495  45.9280073  37.0870858  52.5758329  46.4265384  34.9540233
  52.6648350  47.4491302  33.8555509  52.5707783  48.8006800  34.1270603
  53.1635132  49.6749535  33.3002954  51.7844452  49.2839802  35.3099763
  48.3804820  43.8393761  38.0310911  51.8735482  48.2716505  36.4864248
  46.2416952  43.3933656  37.9724158  52.5708778  44.9228676  34.5963926
  53.2835537  48.3546377  37.1091700  50.8901002  48.8233406  37.5134000
  45.9517113  44.8531990  36.0840520  49.4869695  45.2188024  36.9612279
  49.8257848  47.2684438  34.5352768  46.2047450  46.4900866  34.6186747
  47.5651350  47.6363461  34.8672336  47.7485274  46.2591321  33.7290135
  50.9883590  45.5295163  37.4205397  52.8075771  47.1157564  32.8175029
  52.1871567  50.2538125  35.6374681  50.7305132  49.3863030  35.0130852
  51.5484736  44.5276946  34.6879290  52.9244078  44.7907173  33.5632005
  53.2362307  44.3805874  35.2840544  53.2422780  48.0180175  38.1557956
  53.9728563  47.7103617  36.5438477  53.6405816  49.3948551  37.0714113
  49.9056853  48.3559835  37.3663463  51.2539553  48.5989525  38.5269953
  50.8012211  49.9126017  37.3879222  39.1869402  61.4968435  35.3617803
  56.4466462  49.9525259  55.5268311  36.2470728  53.6993011  20.7402263
  47.7861139  16.9660787  51.5521840  54.8130645  69.1459802  27.8381643
  27.8173278  28.6537994  55.1904348  51.1320745  52.0705622  70.0706797
  36.1754047  42.4612094   5.3513851  60.3608517  14.9785783  67.8671486
  48.8659740   7.0634560  13.8859777  65.9651908  25.4211613  64.3945472
  38.6883043   2.4802640  18.2601402   8.8427247  23.9259795  33.7863464
  76.0741558  35.9366093  59.6024846  53.7183316  61.0158828  18.9723831
  14.3005561  22.6622395  20.7402263  43.6138193  54.2146822  68.8318285
  34.8851596  28.5391454  67.0294134  27.9027616   7.1784294  18.9079262
   8.6731229  31.2134082  26.7661902  58.4544546   9.4224226  38.4861887
  47.3420128  66.8424466  32.9364041  32.1763713  47.8609173  64.9646615
  49.0507261  21.4056267  16.7179402  32.9949489  61.2628534  11.5981530
  19.9570860  52.9103049  10.1563622  31.1246053  11.8828075  15.7635326
  54.6529858  81.5421393  52.5557549  45.6966697  34.2761110  81.9322857
  25.6214559  75.4908226  39.7572322  40.9715584  10.4435596  69.3534869
  23.7039231  66.7695222  55.4217348  52.6998858  64.2798279  17.0313750
  13.1833208  37.0567102  35.6850044  66.9718176  29.1282482  14.4919682
  76.7735564  64.2532519  42.1915044  69.3060312  48.7065079  43.3871457
  60.5521839  59.8284603  56.1893901  30.0601247  61.6846819  42.7440514
  56.6335543  11.8232866  28.2521559   4.9946853  24.5171230  20.0614037
  30.3406403  45.2716349  26.2888932  37.6549240   9.3558143  25.5313955
  76.2163366  39.3461911  35.8918139  32.6615748  58.7735271  61.0120448
  43.6336785  72.1642678  59.0745722  11.6254772  40.4865120  54.9840358
  11.5298662  53.1962308  53.9701549  56.2228005  26.0222314   3.2915070
  21.7558942  62.8349730  54.4580586  13.5694154  33.3544144  64.9994963
  29.2427914   5.9565423  31.2179482  23.7711670  17.2098470  57.1829515
  40.4243973  29.7310189  60.2178539  18.5576316  35.3030472  73.9746924
  37.5180160  40.5259202  64.7249524  53.8000862  40.9099297  19.1483425
  16.5218945  43.0695627  74.7213971   7.3206768  13.2165100  56.7312204
  47.2291867  54.0036178  61.9523867  49.5503634  30.8910006   9.2297897
  30.5437910  22.1465778  10.4298261  36.8452503  41.9875570  84.5677489
  36.2609719  42.4925602  84.9743353  36.4422599  41.7617957  83.8274081
  36.6991807  42.0283819  84.5182514  41.3029718  38.2341222  83.0446410
  41.5425722  38.4419206  82.2321753  41.6245559  37.4298731  83.1535354
  41.3866876  38.1455324  82.9406963  34.5139100  35.8479110  82.1006534
  33.7997277  35.5617289  82.5128966  34.9983069  36.1875735  82.7412921
  34.4798463  35.8560759  82.2562169  41.6886418  44.3509064  82.4768342
  42.1037566  44.0194087  81.7852838  40.8578347  44.1177966  82.3488479
  41.6274427  44.2680320  82.3559189  44.3819808  40.6019623  81.6629543
  44.2999970  40.6721810  82.5284530  45.0199528  41.1649367  81.4713284
  44.4639645  40.6958594  81.7619493  41.4859918  40.6240077  84.6738150
  42.3000557  40.9154970  84.5620921  41.4219059  39.9699940  84.0996443
  41.5962657  40.5705272  84.5726987  37.9970641  39.3163885  84.1385351
  38.3815794  39.0971591  84.8901896  37.7482262  40.1426830  84.2686428
  38.0172714  39.4062031  84.2686428  42.9235940  43.8401877  80.0153955
  43.6908925  43.9002002  79.6059807  42.4767249  43.2682319  79.5310274
  42.9709368  43.7638453  79.8831665  38.9710541  40.1120644  81.4791065
  39.2603066  40.8885526  81.7534640  39.0582340  39.6009375  82.1805565
  39.0264797  40.1512562  81.6233563  43.7642160  35.5053907  85.7344752
  43.2365178  35.5882651  85.0450461  44.2237868  36.2471778  85.7309397
  43.7544010  35.6274569  85.6319447  35.7575225  33.7756426  80.7585647
  35.4088029  34.4276152  81.2217197  35.2771671  33.7613539  80.0309518
  35.6345469  33.8699480  80.7196739  36.1599356  37.2682068  83.6004269
  36.7944435  37.8642493  83.5353730  36.2424967  36.9685525  84.4150139
  36.2655907  37.3122976  83.7107355  40.7989450  35.1404167  85.0740375
  40.2054289  35.4621163  84.5224942  40.8364728  34.2945262  84.8661481
  40.7163839  35.0628495  84.9623146  38.7718682  35.7801418  83.1669704
  39.1517647  35.7981047  82.3820819  38.0311278  36.2255406  83.0460552
  38.7187520  35.8483192  83.0333273  39.5703436  42.6178924  84.5578494
  38.7614759  42.2945597  84.5111804  40.0778345  41.9112146  84.4906743
  39.5253103  42.4660240  84.5408789  48.1739406  15.1045744  74.6179733
  48.1433411  15.9590381  74.7898003  48.7720755  14.8041037  75.1765877
  48.2576564  15.1862241  74.7254535  35.7580231  23.7284113  75.1369895
  35.0063130  23.3499651  74.9085940  36.2066243  23.7602547  74.3888705
  35.7129898  23.6769720  74.9927397  41.2105191  24.1509483  70.5655442
  40.8756559  24.8286404  70.1299664  41.7232061  23.7614794  69.9772314
  41.2370772  24.1934061  70.4142234  40.7509482  26.1023751  76.5066554
  41.1348861  26.6710650  75.9671329  40.6868623  25.3773262  76.0272370
  40.7982909  26.0799215  76.3560416  45.9955981  17.6798046  72.8898043
  45.8795507  18.4305732  73.3190181  46.7911868  17.4221999  73.1394130
  46.0960570  17.7532893  72.9902135  37.1765727  28.6580094  78.8047524
  37.8203182  29.0993258  79.1943682  37.5021982  27.8533521  78.7177782
  37.3197555  28.6045289  78.8493001  37.8786306  21.6692069  74.1767385
  38.2002147  22.2097277  73.5728694  38.5258403  21.0988841  74.3089675
  38.0212362  21.6651244  74.1074421  40.1175950  20.0578509  74.2481564
  40.5569585  19.4495610  74.6936336  39.9680613  19.6785883  73.4767029
  40.1597416  19.9116980  74.2000731  43.7185286  18.4105690  71.2012333
  43.6336582  19.2666657  71.3461902  44.2069670  18.1350015  71.8694492
  43.7774184  18.4963012  71.3214414  44.6503720  15.0290485  72.7010068
  44.1215191  15.2450118  73.3607374  45.1728740  15.7226623  72.6211037
  44.6492173  15.1633622  72.7865667  50.1051773  20.6036789  78.0743112
  49.2749476  20.8147433  78.2376529  50.0561025  19.7773844  77.7985396
  49.9758508  20.5126395  78.0580478  36.5403327  18.9253701  71.5017536
  35.9560543  19.4303733  71.9083400  36.1373423  18.6996088  70.7614128
  36.3942631  18.9661950  71.4522561  40.9980542  15.1719353  69.9786457
  41.2376546  15.3797337  69.1661800  41.3196383  14.3676862  70.0875401
  41.0817700  15.0833455  69.8747010  47.3616088  21.2736144  78.2107828
  46.9251320  21.2772886  78.9666800  47.0279003  21.9541643  77.7787406
  47.2478708  21.3748599  78.2588661  50.4960434  17.9917063  77.1027465
  51.1576868  17.4307732  77.0023374  49.8551846  17.4969094  77.4280157
  50.4989301  17.8353472  77.1359806  41.3837242  21.2887195  69.4108389
  41.7988390  20.9572219  68.7192884  40.5529171  21.0556097  69.2828525
  41.3225250  21.2058451  69.2899236  46.7825265  19.0082446  76.8439454
  47.0180854  19.1527645  76.0166305  46.9314828  19.7724854  77.2370968
  46.8391068  19.1421500  76.7803058  48.6115721  17.8484112  74.6809058
  48.9423939  18.3811752  74.0749153  49.1848810  17.9023000  75.3371009
  48.7449401  17.9353681  74.6886840  44.0770632  17.5397754  68.5969590
  43.9950794  17.6099941  69.4624577  44.7150352  18.1027498  68.4053331
  44.1590469  17.6336725  68.6959540  41.1810742  17.5618209  71.6078197
  41.9951381  17.8533101  71.4960968  41.1169883  16.9078071  71.0336490
  41.2913481  17.5083403  71.5067034  37.6921465  16.2542016  71.0725398
  38.0766618  16.0349722  71.8241943  37.4433086  17.0804961  71.2026474
  37.7123538  16.3440162  71.2026475  37.9744708  24.4746892  73.1457768
  38.2643006  24.0835873  72.4216995  38.7048189  24.6563597  73.5863044
  38.1251592  24.4440705  73.1040575  35.9150624  26.4514274  76.2117918
  35.6950919  26.1611629  77.0044585  35.6945146  25.7929229  75.6835830
  35.8498218  26.3113982  76.2506827  38.0818579  27.8243664  74.9948611
  38.7342637  27.2920106  75.2239637  37.3844188  27.4712316  75.3816485
  38.0749297  27.6933187  75.0860778  46.0758498  20.1448078  74.3379590
  46.6416530  20.8041288  74.2538133  45.4286401  20.4897776  74.8095992
  46.0637254  20.2930019  74.3952346  42.5465076  23.0886862  73.7616669
  42.3051752  22.3554723  73.3543734  42.7266409  23.6373719  73.1083002
  42.5372700  23.0609253  73.6046892  47.2721196  20.1954306  71.1305226
  46.8928004  19.4091444  71.1234516  46.6087441  20.7441163  70.9876871
  47.1179670  20.1599130  71.1086023  40.0968104  23.7467825  74.9694053
  40.8617995  23.4777468  74.6476717  39.9946194  23.2617835  75.6864115
  40.1949599  23.6357389  75.0273880  42.6186764  20.7780009  66.9494002
  43.3859749  20.8380133  66.5399854  42.1718073  20.2060450  66.4650320
  42.6660191  20.7016584  66.8171712  45.5181294  22.4399797  71.4656912
  45.6001132  23.2466783  71.1418363  46.0031036  22.4595756  72.1897686
  45.6018452  22.5620459  71.5243811  41.1539387  16.9894568  74.4348326
  41.6954933  16.4864949  74.8986946  41.4685946  16.9359762  73.6237811
  41.2803784  16.9073989  74.3832138  39.3225837  22.3811919  71.7188354
  39.3918657  21.5226458  71.8581354  40.1014292  22.5983800  71.3907378
  39.4478687  22.2864783  71.6905511  43.7133324  24.8049621  75.9324847
  43.3213116  24.5016336  75.2147713  43.8686397  25.6418710  75.7429801
  43.6786914  24.8833457  75.7981344  43.8772999  21.3699609  75.8730878
  43.5187654  21.5414252  76.6494910  43.3911710  21.8312815  75.3158876
  43.7531696  21.4638580  75.9056147  38.6661365  17.0498775  68.4131112
  38.9553889  17.8263657  68.6874686  38.7533163  16.5387506  69.1145611
  38.7215621  17.0890693  68.5573610  44.4823630  24.2085113  79.3654882
  44.2843318  24.6975928  78.6711093  43.8611341  24.4126355  79.9439015
  44.3611194  24.3101651  79.3478105  43.4592984  12.4432038  72.6684799
  42.9316002  12.5260782  71.9790508  43.9188692  13.1849909  72.6649444
  43.4494834  12.5652700  72.5659494  35.4526049  10.7134558  67.6925694
  35.1038853  11.3654283  68.1557243  34.9722495  10.6991671  66.9649565
  35.3296293  10.8077611  67.6536785  43.0130066  21.0135601  71.7994456
  43.7364265  21.4793714  71.6559029  42.5730657  21.0809211  71.0492053
  43.0545758  21.0919438  71.6679237  43.2733916  25.0756306  71.9592517
  42.5563225  24.9017169  71.4939754  43.9240653  24.8408879  71.4268003
  43.2635766  25.0152099  71.8121735  38.5547078  26.3118065  78.3882665
  38.1407476  25.6492195  77.9986507  39.2394452  26.4595924  77.8678359
  38.5945449  26.2358723  78.2539162  41.9212372  25.4708150  79.1406282
  41.5228655  25.5810421  78.3727102  41.3063591  25.6790217  79.7232841
  41.7711261  25.5181718  79.1137581  49.6554214  20.0460117  72.5249372
  50.0387820  20.7951473  72.7547469  48.8598328  20.2925937  72.2661361
  49.5947997  20.1929811  72.5206946  38.4669506  12.7179549  70.1009751
  38.8468471  12.7359178  69.3160866  37.7262102  13.1633538  69.9800599
  38.4138344  12.7861323  69.9673319  39.2654260  19.5557055  71.4918541
  38.4565583  19.2323729  71.4451851  39.7729169  18.8490277  71.4246790
  39.2203927  19.4038371  71.4748836  59.1471990  30.6231052  74.6179733
  59.1165994  31.4775689  74.7898003  59.7453339  30.3226345  75.1765877
  59.2309148  30.7047549  74.7254535  52.3471675  29.7106703  79.3732664
  51.4909570  29.8715201  79.4241780  52.3939329  28.8398767  79.3937725
  52.2270786  29.6057505  79.3838730  46.7312815  39.2469421  75.1369895
  45.9795714  38.8684959  74.9085940  47.1798826  39.2787855  74.3888705
  46.6862481  39.1955028  74.9927397  52.1837774  39.6694790  70.5655442
  51.8489143  40.3471712  70.1299664  52.6964645  39.2800102  69.9772314
  52.2103356  39.7119369  70.4142234  51.7242066  41.6209059  76.5066554
  52.1081445  42.1895958  75.9671329  51.6601207  40.8958569  76.0272370
  51.7715493  41.5984523  76.3560416  55.1923496  31.7698747  82.0164315
  55.7379456  32.4483834  82.0758285  55.1340372  31.6286208  81.1565897
  55.2639410  31.8490749  81.8976376  48.3097571  39.2587813  77.4032668
  48.4107934  38.4488167  77.7129795  47.7139316  39.1644760  76.7732346
  48.2370109  39.1252841  77.3558906  56.9688564  33.1983354  72.8898043
  56.8528090  33.9491040  73.3190181  57.7644451  32.9407307  73.1394130
  57.0693154  33.2718201  72.9902135  48.1498310  44.1765402  78.8047524
  48.7935766  44.6178566  79.1943682  48.4754566  43.3718828  78.7177782
  48.2930139  44.1230597  78.8493001  41.5062615  35.2808100  77.0285001
  41.2712799  34.4475752  76.9217270  41.6448256  35.5612765  76.2146202
  41.4918277  35.1991603  76.8927356  43.8052702  27.4493830  79.9269309
  43.1857734  26.8586478  79.7579324  43.7036566  28.0405266  79.2933632
  43.6990378  27.4497913  79.8074299  48.8518890  37.1877377  74.1767385
  49.1734731  37.7282584  73.5728694  49.4990987  36.6174149  74.3089675
  48.9944945  37.1836552  74.1074421  50.9020598  29.1893372  74.2601772
  51.6000763  29.3681500  74.7523235  51.2172931  28.6663711  73.6372161
  51.0515935  29.1387144  74.2403782  43.5321835  30.9946112  82.1712878
  43.4080532  31.5808557  82.8062697  44.1840120  30.5006308  82.4725153
  43.6095485  31.0084916  82.3098807  51.0908533  35.5763817  74.2481564
  51.5302169  34.9680918  74.6936336  50.9413196  35.1971190  73.4767029
  51.1329999  35.4302288  74.2000731  48.5580176  34.1707829  81.4500389
  49.2029179  33.6780272  81.1311338  48.7981953  34.3132616  82.2766467
  48.6890762  34.1185271  81.5249922  51.0966268  37.0162735  81.1007282
  51.3789511  36.2214141  80.8794038  51.8252428  37.4943322  81.1212343
  51.2455832  36.9697332  81.0710297  49.0747462  24.5585769  78.3423047
  48.7450792  25.0096912  77.6726746  48.3992463  24.4801932  78.8896053
  48.9257898  24.6136904  78.3246270  54.6917870  33.9290998  71.2012333
  54.6069165  34.7851965  71.3461902  55.1802253  33.6535322  71.8694492
  54.7506767  34.0148320  71.3214414  56.2823869  20.5471292  76.5872657
  55.9677310  21.2374770  77.0193080  55.7650811  20.4916074  75.8858158
  56.1588340  20.6406180  76.5469607  55.6236303  30.5475793  72.7010068
  55.0947775  30.7635426  73.3607374  56.1461323  31.2411931  72.6211037
  55.6224756  30.6818929  72.7865667  61.0784356  36.1222097  78.0743112
  60.2482059  36.3332741  78.2376529  61.0293608  35.2959152  77.7985396
  60.9491092  36.0311703  78.0580478  47.5135911  34.4439009  71.5017536
  46.9293126  34.9489041  71.9083400  47.1106006  34.2181396  70.7614128
  47.3675215  34.4847258  71.4522561  43.0679940  40.1593770  78.3041208
  42.5847518  40.8844260  78.2800791  43.8803258  40.4569901  78.4151365
  43.1170687  40.3096124  78.3168487  49.1394094  38.9525951  80.9091022
  48.6221035  38.5933366  80.3052330  49.8368485  38.4288126  80.9197088
  49.1659675  38.8223639  80.8221281  51.9713125  30.6904661  69.9786457
  52.2109129  30.8982645  69.1661800  52.2928966  29.8862170  70.0875401
  52.0550283  30.6018763  69.8747010  47.2803416  22.6198057  73.8245994
  48.0349384  22.9876374  73.5863045  47.1030950  22.9937612  74.5925174
  47.3657894  22.7296245  73.9030883  45.9224137  40.6749946  78.4561487
  46.6244716  40.1601935  78.5134244  45.8421620  41.0024098  79.2608362
  46.0147897  40.6464173  78.5834280  45.6360480  25.0268376  70.5224108
  45.4536054  25.2440257  69.6965100  46.4986093  25.1407389  70.5782722
  45.7365070  25.0758274  70.4078595  45.2474912  36.8656298  77.9647095
  46.0863812  37.0979231  78.0120857  45.2786681  35.9960610  77.8954131
  45.3756630  36.7713245  77.9611740  45.8727615  37.2857174  82.2660401
  46.4125840  37.1428305  82.9363773  45.1897562  37.6853924  82.6344427
  45.8519769  37.3236844  82.4194823  51.3160200  22.0294787  73.5573131
  52.0446360  21.8510742  73.1111288  51.4055092  22.8712867  73.7680309
  51.4366862  22.1278665  73.5226649  55.2968500  32.9648174  77.4605425
  56.0526015  33.3979689  77.4994334  55.4030825  32.3152944  78.0340061
  55.4238671  32.9325658  77.5503451  58.3348671  36.7921451  78.2107828
  57.8983903  36.7958194  78.9666800  58.0011587  37.4726950  77.7787406
  58.2211291  36.8933907  78.2588661  41.2764760  33.5057464  82.4194822
  41.0103176  32.6896581  82.5785813  41.2903325  33.5510620  81.5490338
  41.2389483  33.3914369  82.3148304  45.1822507  28.3042549  69.0346581
  44.4680685  28.0180728  69.4469013  45.6666476  28.6439175  69.6752968
  45.1481871  28.3124198  69.1902215  61.4693018  33.5102371  77.1027465
  62.1309452  32.9493040  77.0023374  60.8284430  33.0154402  77.4280157
  61.4721885  33.3538780  77.1359806  52.3569825  36.8072503  69.4108389
  52.7720974  36.4757527  68.7192884  51.5261755  36.5741405  69.2828525
  52.2957834  36.7243759  69.2899236  41.6858174  34.2916244  79.7006567
  41.5033747  34.2663130  78.8478859  42.4207843  34.7615182  79.7395475
  41.7672238  34.3577606  79.5804485  57.7557848  34.5267754  76.8439454
  57.9913437  34.6712953  76.0166305  57.9047412  35.2910162  77.2370968
  57.8123652  34.6606808  76.7803058  59.5848305  33.3669420  74.6809058
  59.9156522  33.8997060  74.0749153  60.1581393  33.4208307  75.3371009
  59.7181984  33.4538989  74.6886840  54.7980194  31.2134322  75.3632638
  54.8927049  31.9523616  75.8172264  54.1739038  30.7851798  75.7967203
  54.7189224  31.2595643  75.4940786  41.6529084  31.1709744  79.8505633
  42.2302587  31.0346195  80.4897879  40.9543146  30.7145529  80.1051218
  41.6350106  31.0832011  79.9827923  55.0503215  33.0583062  68.5969590
  54.9683378  33.1285249  69.4624577  55.6882936  33.6212806  68.4053331
  55.1323053  33.1522033  68.6959540  48.4096387  32.8243800  78.0644117
  48.1515631  31.9915535  78.0375416  48.4644869  33.0501413  77.2236617
  48.3796164  32.7341571  77.9364253  53.4897437  24.9272251  78.1648209
  52.7853763  24.4381436  78.3232128  53.5382411  24.9394725  77.2936654
  53.3927488  24.8561899  78.0587549  47.3831099  30.3781563  78.5509011
  46.8080690  30.5373731  79.1872972  47.0066775  29.7416972  78.0877462
  47.2433911  30.3079376  78.5763570  51.0504387  28.8504912  83.4101390
  50.6618820  28.4259130  82.7553581  50.3859086  29.0987062  83.9178416
  50.8951315  28.8243633  83.3889258  60.6927657  28.6079917  76.1849220
  60.4364221  27.7959858  75.9947103  61.5356970  28.6157484  75.9579407
  60.7793682  28.4891914  76.1234037  37.1287918  30.0221637  76.5653452
  37.2148169  29.6453506  77.3466982  37.7563715  29.6482083  76.0873410
  37.2344469  29.9107120  76.6098929  52.1543326  33.0803516  71.6078197
  52.9683964  33.3718409  71.4960968  52.0902467  32.4263379  71.0336490
  52.2646065  33.0268711  71.5067034  48.0251234  36.5525034  76.7350509
  48.6625181  36.3136781  77.2802302  48.4506305  36.7562193  76.0003669
  48.1827400  36.5476044  76.7067666  42.7163876  38.7913370  80.6184813
  42.7568022  39.0628221  79.7904592  43.2758400  39.3155278  81.0342600
  42.8047222  38.9089125  80.5576701  48.6654049  31.7727324  71.0725398
  49.0499202  31.5535030  71.8241943  48.4165669  32.5990269  71.2026474
  48.6856122  31.8625470  71.2026475  50.4072706  37.0297457  78.4144295
  50.4811714  36.8672628  79.2686145  51.2242212  37.2187646  78.1704777
  50.5389064  37.0334199  78.5042321  44.1678463  37.3755319  75.4438739
  43.3416580  37.6217057  75.3173017  44.2290454  37.2967400  76.3100797
  44.0552630  37.4000268  75.5527683  46.3854486  23.4424260  76.4034179
  45.5176912  23.5146860  76.4691788  46.6729691  24.2446339  76.5922154
  46.2994234  23.5718407  76.4408945  48.9477292  39.9932200  73.1457768
  49.2375590  39.6021181  72.4216995  49.6780772  40.1748904  73.5863044
  49.0984176  39.9626013  73.1040575  49.5372037  34.7949945  84.2310899
  49.0383730  35.5065713  84.3095787  50.3472261  35.1150612  84.1929061
  49.5828143  34.9476794  84.2367467  46.8883207  41.9699582  76.2117918
  46.6683503  41.6796937  77.0044585  46.6677729  41.3114537  75.6835830
  46.8230801  41.8299290  76.2506827  45.8000154  34.0572898  78.4773620
  45.5113403  33.4310370  79.0119347  46.6683502  33.9993186  78.5438300
  45.8860406  33.9560443  78.5664574  56.5878052  29.2007682  78.7955602
  56.2442818  28.4798017  79.1462851  56.6871095  28.9921533  77.9533960
  56.5520095  29.0631885  78.7227282  49.0551163  43.3428972  74.9948611
  49.7075221  42.8105414  75.2239637  48.3576772  42.9897624  75.3816485
  49.0481881  43.2118495  75.0860778  46.0032428  35.6968150  74.4015985
  46.7578396  36.0781189  74.6151447  45.4103040  36.1479293  74.8562681
  46.0269141  35.8196977  74.4998863  57.0491081  35.6633386  74.3379590
  57.6149114  36.3226596  74.2538133  56.4018985  36.0083084  74.8095992
  57.0369838  35.8115327  74.3952346  47.3230654  36.8676711  79.7756100
  46.8011408  37.0077003  80.4607965  47.7104675  36.1087375  79.9658218
  47.3034355  36.7762235  79.9057177  44.3121838  26.9182520  73.8451055
  44.0246634  26.5483790  73.1083002  44.9992307  27.3877375  73.5834760
  44.3710736  26.9329489  73.6966131  53.5197659  38.6072170  73.7616669
  53.2784335  37.8740031  73.3543734  53.6998992  39.1559027  73.1083002
  53.5105283  38.5794561  73.6046892  48.7496980  33.8980730  75.1737591
  48.5539763  34.5055464  74.5797894  48.9731326  33.2048674  74.6929265
  48.7531621  33.8858255  75.0153672  47.1475510  30.7835468  75.2918460
  47.8698162  30.9476626  74.8322266  46.6683503  31.5045133  75.1857799
  47.1839241  30.9133697  75.2084074  55.1069018  27.1199267  80.6715145
  54.2680118  27.1460546  80.4353408  55.1773385  27.7670002  81.2520491
  54.9937411  27.2195392  80.7224261  44.7983127  33.1893540  84.3972599
  45.3104224  33.4677794  83.7481359  44.5119469  33.9282834  84.7635413
  44.8317990  33.3395894  84.3562478  53.5538296  24.0184644  75.4042760
  54.2564649  23.8192392  74.9262719  53.2882485  23.2460586  75.7111604
  53.6184928  23.8747610  75.3788202  58.9826541  32.3267253  77.9576386
  58.8960516  32.4822679  78.8111165  58.5277021  32.9705329  77.5835791
  58.9029798  32.4443009  78.0283493  41.8850033  27.6963732  74.6936336
  41.9866169  28.4989894  75.0217311  42.6805920  27.4951068  74.3959417
  42.0177939  27.7849631  74.6971691  52.8552357  29.6478001  76.5801946
  52.6087072  29.5673751  77.4138735  53.1837480  28.8631468  76.3864473
  52.8673601  29.5204266  76.6749469  56.7500406  36.3561360  80.3688727
  56.6114766  37.0542406  80.8737469  55.9700404  36.2010016  80.0124909
  56.6143633  36.4361527  80.3915001  48.8149385  32.3834719  85.9924929
  48.9592760  32.9635927  85.3568039  49.1625033  32.7611016  86.6974784
  48.8876846  32.5255423  86.0023924  50.9869302  31.5824887  83.7750060
  50.2392616  31.7755902  83.3698339  51.1410827  30.7570107  83.5374182
  50.8991730  31.4889999  83.6795466  47.8877140  40.5737491  82.8585956
  48.0366703  40.0140407  82.2059360  48.6677142  40.6529493  83.2418475
  48.0251233  40.5023056  82.8182905  58.2453779  35.7139614  71.1305226
  57.8660588  34.9276752  71.1234516  57.5820025  36.2626471  70.9876871
  58.0912254  35.6784438  71.1086023  51.0700687  39.2653133  74.9694053
  51.8350578  38.9962776  74.6476717  50.9678777  38.7803143  75.6864115
  51.1682183  39.1542697  75.0273880  49.1053457  27.4677542  81.5087288
  48.3149532  27.2869002  81.8304624  49.5014080  26.6904495  81.4917583
  49.0470333  27.3265003  81.5539837  53.5919348  36.2965316  66.9494002
  54.3592333  36.3565441  66.5399854  53.1450657  35.7245758  66.4650320
  53.6392775  36.2201892  66.8171712  54.4897143  35.1019972  79.2346734
  53.8142145  34.8705205  79.7360121  54.4989519  34.4941155  78.6088839
  54.3915648  34.9778897  79.2162886  51.6191287  29.9437801  85.9910787
  51.5550428  30.8047758  85.8630924  51.7588475  29.6269794  85.1906338
  51.6306757  30.0237968  85.8539000  56.4913878  37.9585105  71.4656912
  56.5733715  38.7652091  71.1418363  56.9763620  37.9781064  72.1897686
  56.5751036  38.0805767  71.5243811  50.3010381  32.6369941  80.1326990
  49.8772630  32.8374440  79.3966008  50.1255236  31.7898789  80.2451290
  50.2121262  32.5418722  80.0400680  45.5892826  33.1321992  75.5654963
  45.7457445  33.0668795  76.4210955  45.9293419  33.9070545  75.3533642
  45.6626061  33.2371190  75.6609557  52.1271971  32.5079876  74.4348326
  52.6687516  32.0050257  74.8986946  52.4418530  32.4545070  73.6237811
  52.2536368  32.4259297  74.3832138  50.2958420  37.8997227  71.7188354
  50.3651241  37.0411766  71.8581354  51.0746876  38.1169108  71.3907378
  50.4211271  37.8050091  71.6905511  53.2761240  27.4016180  84.4870626
  53.4903210  26.7627094  83.9333980  52.6595139  27.8462004  84.0578488
  53.2166569  27.3726324  84.3421057  54.6865908  40.3234928  75.9324847
  54.2945700  40.0201644  75.2147713  54.8418980  41.1604018  75.7429801
  54.6519498  40.4018765  75.7981344  42.1627088  30.3156943  75.8815730
  42.5426052  30.7341487  75.2175997  41.5882452  30.8970398  76.1884573
  42.1338413  30.4634801  75.8292471  54.8505583  36.8884917  75.8730878
  54.4920238  37.0599560  76.6494910  54.3644294  37.3498123  75.3158876
  54.7264280  36.9823888  75.9056147  52.6675969  20.5116116  79.4757969
  51.7969527  20.4854837  79.4291279  52.9216310  20.3393308  78.6583815
  52.5769529  20.4826259  79.3478106  49.6393948  32.5684083  68.4131112
  49.9286473  33.3448965  68.6874686  49.7265747  32.0572814  69.1145611
  49.6948204  32.6076001  68.5573610  49.6925109  22.5222344  80.9331439
  49.1763598  21.8302536  81.0583018  49.1319038  23.1893121  80.8794038
  49.5331623  22.5185602  80.9437505  57.7367322  29.6277959  81.3863994
  57.3094930  29.5404308  80.6312094  57.0993375  29.7355735  81.9718838
  57.5796930  29.6310619  81.3609436  45.8057889  31.8817347  80.5131224
  44.9645896  31.7821221  80.7210118  46.0147897  32.6512828  80.8645545
  45.7122582  31.9809391  80.5958539  43.2833456  29.5036884  78.3415975
  42.8890154  29.5779896  77.5666084  42.7273573  29.8894831  78.8924337
  43.1436268  29.5718659  78.3083635  54.9198403  22.4818178  78.0219854
  55.1247996  22.4140486  78.8676851  54.5924827  23.2876999  77.9541031
  54.9013651  22.5904119  78.1379509  49.6174554  29.8098746  79.7628822
  49.3137692  29.2554735  80.3639229  48.9153975  29.9890956  79.2756856
  49.4690764  29.7543529  79.7798527  48.6740651  27.1199266  74.3273524
  48.9500385  26.4018179  73.9151091  49.2739320  27.7184186  74.1194630
  48.8033916  27.1019637  74.2354285  47.6792905  37.0248467  84.4700919
  47.5713260  37.0350529  85.3362978  47.8888687  37.8503248  84.2805873
  47.6943016  37.1489542  84.5705011  58.1732091  23.0349942  77.5022619
  57.5606404  23.5220345  77.8876351  58.2696266  22.3593433  78.0460270
  58.0969988  23.0068251  77.6401477  52.1751172  24.7912784  72.6020119
  52.6294918  24.9623344  73.3267963  52.6491217  24.1780894  72.2017894
  52.3119492  24.7263669  72.6493880  55.4556213  39.7270421  79.3654882
  55.2575902  40.2161236  78.6711093  54.8343924  39.9311663  79.9439015
  55.3343778  39.8286959  79.3478105  49.5164192  31.4955318  73.7065126
  50.2606237  31.8829594  73.9448076  49.6624888  30.6512743  73.8705614
  49.6474777  31.4285791  73.7659096  51.4343767  23.2905577  78.7396987
  50.5879812  23.4628385  78.6138337  51.4314900  22.4854921  79.0762816
  51.3090917  23.1966606  78.7708114  52.5042068  27.0680791  79.6059045
  52.0302022  26.5422553  80.1164356  52.8760203  26.5210264  79.0373907
  52.4891956  26.9096788  79.5974192  58.7678798  32.1283167  81.0165826
  58.5277021  31.2889582  81.0208252  59.2470805  32.2083334  81.7406599
  58.8030982  32.0164567  81.1240628  54.4325567  27.9617346  72.6684799
  53.9048586  28.0446090  71.9790508  54.8921275  28.7035217  72.6649444
  54.4227418  28.0838008  72.5659494  60.7683985  28.9084624  78.9695085
  60.5293755  28.8680458  78.1315869  60.9317886  29.7555776  79.0960806
  60.7574289  29.0276709  78.8648567  46.2416884  27.8894747  81.6353009
  45.6169954  27.9013139  81.0278962  45.9062478  28.3654922  82.2844249
  46.1002375  27.9613264  81.6409578  46.4258632  26.2319865  67.6925694
  46.0771437  26.8839591  68.1557243  45.9455078  26.2176979  66.9649565
  46.3028876  26.3262919  67.6536785  42.9542559  35.9495207  83.0756773
  42.4242484  35.2587646  83.1251748  43.2267653  35.9405392  82.2469482
  42.9167281  35.8462339  82.9604189  53.9862650  36.5320909  71.7994456
  54.7096849  36.9979022  71.6559029  53.5463241  36.5994519  71.0492053
  54.0278342  36.6104746  71.6679237  53.1548805  33.3918452  83.0495145
  52.5405798  32.8476502  83.3443780  53.6716090  32.8782688  82.5700961
  53.1404467  33.2354861  83.0219373  52.3945102  34.4622722  80.7839444
  51.9672710  33.8372440  80.3504879  52.3870046  34.1797644  81.6098451
  52.3304243  34.3275502  80.8419271  50.7230812  25.3391476  80.9981978
  50.7473299  24.8051589  80.3094758  50.9742285  24.8308785  81.6607568
  50.7640730  25.1852380  80.9946622  38.2338401  32.6222971  80.4325122
  38.1281850  32.5769816  79.5677206  37.4838621  32.9676752  80.7139407
  38.1074004  32.6663879  80.3462451  47.0032134  24.0662294  80.3787722
  47.0430505  24.5671501  81.0922429  46.1781798  24.1572688  80.1093645
  46.8871660  24.1544111  80.4438260  48.4246497  30.5822804  82.6761621
  47.5938427  30.7496622  82.4696869  48.3698014  30.2058755  83.4610506
  48.2935912  30.5512536  82.7610149  46.7982541  28.8578396  73.2051739
  46.9385502  29.3550860  73.9080380  47.2965074  28.1564690  73.3465952
  46.8923622  28.8280375  73.3303318  46.8282763  29.7245507  70.5344315
  47.4627843  30.3205932  70.4693777  46.9108374  29.4248965  71.3490186
  46.9339314  29.7686415  70.6447402  48.4061746  25.6559482  70.5089757
  48.7277587  25.1762565  69.8549020  48.6688690  26.4659128  70.3180569
  48.4927772  25.7049380  70.3845250  53.8020901  25.0431676  82.8713237
  54.2275973  24.5904203  82.2596763  53.1877894  24.4891747  83.1478024
  53.7749547  24.8945652  82.8218262  43.3335751  31.9213348  73.8033861
  43.8427981  32.5177855  74.1845167  43.8070024  31.6539321  73.1210281
  43.4779127  31.9699163  73.7588384  54.2466499  40.5941614  71.9592517
  53.5295809  40.4202477  71.4939754  54.8973237  40.3594187  71.4268003
  54.2368350  40.5337407  71.8121735  52.2415124  21.5146776  76.2803814
  51.5983442  21.3644422  76.8488952  51.9014531  21.2689121  75.5152918
  52.0960201  21.4558899  76.2506829  56.8314471  29.4706203  75.7033822
  56.1605660  30.0135905  75.5746888  57.5254221  29.9401058  75.4615517
  56.8343338  29.6204474  75.6489350  50.8801204  41.6102915  80.9345580
  50.6566859  40.8521744  81.3029607  50.3911048  41.6400936  80.2126020
  50.7744653  41.5025139  80.8822321  56.9942598  25.9262086  78.6124195
  57.3470208  25.4991809  79.2869994  56.1357400  25.8412930  78.7425272
  56.9192043  25.8506827  78.7319206  45.6926283  28.5569606  76.6707042
  44.9738272  28.9733739  76.9379905  46.0638645  29.1223845  76.1198680
  45.6418215  28.7018888  76.6289849  54.9925864  29.1897455  82.5609038
  54.9723791  29.0080750  83.4143816  55.0405065  30.0609474  82.5368621
  54.9960505  29.2913993  82.6832332  49.5279661  41.8303373  78.3882665
  49.1140060  41.1677503  77.9986507  50.2127035  41.9781232  77.8678359
  49.5678033  41.7544031  78.2539162  52.8944955  40.9893458  79.1406282
  52.4961239  41.0995729  78.3727102  52.2796175  41.1975525  79.7232841
  52.7443845  41.0367026  79.1137581  51.4672857  27.5967606  72.0080421
  50.8737697  27.9184603  71.4564988  51.5048135  26.7508702  71.8001527
  51.3847247  27.5191934  71.8963193  54.3430674  27.5547111  75.4382172
  54.1144367  27.5779812  74.5960530  54.6028750  26.7304578  75.5577182
  54.3476862  27.4363191  75.3307369  47.3975436  26.0923657  76.7336367
  47.8732803  26.4540737  76.0986548  46.8964036  26.7480124  77.0136510
  47.3940795  26.2417846  76.6813108  60.6286798  35.5645425  72.5249372
  61.0120404  36.3136781  72.7547469  59.8330911  35.8111245  72.2661361
  60.5680580  35.7115119  72.5206946  49.4402090  28.2364857  70.1009751
  49.8201054  28.2544486  69.3160866  48.6994686  28.6818846  69.9800599
  49.3870927  28.3046631  69.9673319  57.0687380  26.5447048  75.6885330
  57.0681607  26.3895704  76.5469606  56.8643560  27.3910035  75.6326715
  57.0387158  26.6467669  75.8073269  39.1304651  29.9686832  80.1044146
  38.9526412  29.5163441  80.8299062  38.8423673  30.7712994  80.2882624
  39.0617604  30.0209390  80.2387649  54.7928232  31.2244550  79.3421537
  55.2881898  30.5067545  79.3025557  53.9828008  30.9215347  79.2276024
  54.7472125  31.0742196  79.3195263  50.2386844  35.0742363  71.4918541
  49.4298166  34.7509036  71.4451851  50.7461753  34.3675585  71.4246790
  50.1936511  34.9223679  71.4748836  40.8677121  32.5014556  77.2165906
  40.0022640  32.4900247  77.1048677  40.9675937  32.3144779  78.0637045
  40.7551288  32.4720617  77.3254850  56.8580051  33.9748237  82.0298666
  57.2835123  33.4522659  81.4769091  56.4936971  34.5729075  81.5087288
  56.8666654  33.9858464  81.8707675  46.4934131  42.2712455  80.7896011
  46.8080690  43.0848843  80.7973793  46.9027544  41.8862673  81.4578170
  46.6002229  42.3341157  80.8900103  53.4458651  37.6882501  78.3599823
  53.9169829  38.4022764  78.5289808  53.7818829  37.0881252  78.8959692
  53.5653766  37.7053966  78.4632199  49.4321260  24.4626385  72.7837383
  50.2536955  24.6324698  72.5419078  48.9690911  24.6173646  72.0603680
  49.4852423  24.5108118  72.6409027  43.8347151  36.2185563  80.4374619
  44.4392008  36.1781397  79.8088440  43.6274464  37.0656715  80.4678675
  43.8936048  36.3373566  80.3490736  53.6490923  38.4851508  81.6536857
  54.4689297  38.3414474  81.9153152  53.3685001  39.1097707  82.1953295
  53.7287667  38.5561860  81.7724796  39.0698433  35.2020181  80.3073543
  38.9722711  34.3916452  80.6163599  39.8527303  35.1811974  79.9219811
  39.1714570  35.0787271  80.2960406  61.8753182  44.7078680  74.2601772
  62.5733346  44.8866808  74.7523235  62.1905514  44.1849019  73.6372161
  62.0248519  44.6572452  74.2403782  60.0480045  40.0771077  78.3423047
  59.7183375  40.5282220  77.6726746  59.3725047  39.9987240  78.8896053
  59.8990482  40.1322212  78.3246270  67.2556453  36.0656600  76.5872657
  66.9409894  36.7560078  77.0193080  66.7383395  36.0101382  75.8858158
  67.1320923  36.1591488  76.5469607  58.4868495  49.9624317  71.5017536
  57.9025710  50.4674349  71.9083400  58.0838590  49.7366704  70.7614128
  58.3407798  50.0032566  71.4522561  62.9445709  46.2089969  69.9786457
  63.1841713  46.4167953  69.1661800  63.2661550  45.4047478  70.0875401
  63.0282867  46.1204071  69.8747010  58.2535999  38.1383365  73.8245994
  59.0081967  38.5061682  73.5863045  58.0763534  38.5122919  74.5925174
  58.3390478  38.2481553  73.9030883  56.6093064  40.5453684  70.5224108
  56.4268637  40.7625565  69.6965100  57.4718677  40.6592697  70.5782722
  56.7097653  40.5943582  70.4078595  62.2892783  37.5480095  73.5573131
  63.0178944  37.3696050  73.1111288  62.3787676  38.3898175  73.7680309
  62.4099445  37.6463973  73.5226649  56.1555091  43.8227857  69.0346581
  55.4413268  43.5366036  69.4469013  56.6399060  44.1624483  69.6752968
  56.1214454  43.8309506  69.1902215  63.3302409  52.3257811  69.4108389
  63.7453557  51.9942834  68.7192884  62.4994339  52.0926713  69.2828525
  63.2690418  52.2429067  69.2899236  66.0235799  48.5768370  68.5969590
  65.9415962  48.6470557  69.4624577  66.6615519  49.1398114  68.4053331
  66.1055636  48.6707341  68.6959540  48.1020501  45.5406945  76.5653452
  48.1880753  45.1638814  77.3466982  48.7296299  45.1667391  76.0873410
  48.2077052  45.4292427  76.6098929  63.1275909  48.5988824  71.6078197
  63.9416548  48.8903717  71.4960968  63.0635050  47.9448687  71.0336490
  63.2378648  48.5454019  71.5067034  59.6386632  47.2912632  71.0725398
  60.0231785  47.0720338  71.8241943  59.3898253  48.1175577  71.2026474
  59.6588705  47.3810778  71.2026475  57.3587070  38.9609568  76.4034179
  56.4909495  39.0332168  76.4691788  57.6462274  39.7631647  76.5922154
  57.2726818  39.0903715  76.4408945  55.2854422  42.4367828  73.8451055
  54.9979218  42.0669098  73.1083002  55.9724890  42.9062683  73.5834760
  55.3443319  42.4514797  73.6966131  58.1208094  46.3020776  75.2918460
  58.8430745  46.4661934  74.8322266  57.6416086  47.0230441  75.1857799
  58.1571824  46.4319005  75.2084074  64.5270879  39.5369952  75.4042760
  65.2297232  39.3377700  74.9262719  64.2615068  38.7645894  75.7111604
  64.5917512  39.3932918  75.3788202  52.8582617  43.2149040  74.6936336
  52.9598753  44.0175201  75.0217311  53.6538503  43.0136376  74.3959417
  52.9910522  43.3034939  74.6971691  64.5651931  51.8150624  66.9494002
  65.3324916  51.8750749  66.5399854  64.1183240  51.2431066  66.4650320
  64.6125359  51.7387200  66.8171712  53.1359671  45.8342250  75.8815730
  53.5158636  46.2526795  75.2175997  52.5615036  46.4155706  76.1884573
  53.1070996  45.9820109  75.8292471  63.6408552  36.0301424  79.4757969
  62.7702110  36.0040145  79.4291279  63.8948894  35.8578616  78.6583815
  63.5502112  36.0011567  79.3478106  60.6126532  48.0869391  68.4131112
  60.9019057  48.8634273  68.6874686  60.6998331  47.5758122  69.1145611
  60.6680788  48.1261309  68.5573610  59.6473235  42.6384574  74.3273524
  59.9232969  41.9203487  73.9151091  60.2471904  43.2369494  74.1194630
  59.7766499  42.6204945  74.2354285  63.1483755  40.3098092  72.6020119
  63.6027502  40.4808652  73.3267963  63.6223801  39.6966202  72.2017894
  63.2852075  40.2448977  72.6493880  60.4896775  47.0140626  73.7065126
  61.2338820  47.4014902  73.9448076  60.6357471  46.1698051  73.8705614
  60.6207360  46.9471099  73.7659096  62.4076351  38.8090885  78.7396987
  61.5612396  38.9813693  78.6138337  62.4047483  38.0040229  79.0762816
  62.2823501  38.7151914  78.7708114  65.4058151  43.4802654  72.6684799
  64.8781169  43.5631398  71.9790508  65.8653859  44.2220525  72.6649444
  65.3960001  43.6023316  72.5659494  57.3991216  41.7505173  67.6925694
  57.0504020  42.4024899  68.1557243  56.9187662  41.7362286  66.9649565
  57.2761460  41.8448227  67.6536785  57.7715125  44.3763704  73.2051739
  57.9118086  44.8736168  73.9080380  58.2697657  43.6749998  73.3465952
  57.8656206  44.3465683  73.3303318  57.8015347  45.2430815  70.5344315
  58.4360426  45.8391240  70.4693777  57.8840958  44.9434272  71.3490186
  57.9071898  45.2871723  70.6447402  59.3794330  41.1744790  70.5089757
  59.7010171  40.6947873  69.8549020  59.6421274  41.9844436  70.3180569
  59.4660355  41.2234688  70.3845250  54.3068335  47.4398656  73.8033861
  54.8160564  48.0363163  74.1845167  54.7802607  47.1724629  73.1210281
  54.4511711  47.4884471  73.7588384  63.2147708  37.0332084  76.2803814
  62.5716026  36.8829730  76.8488952  62.8747115  36.7874429  75.5152918
  63.0692785  36.9744206  76.2506829  56.6658867  44.0754914  76.6707042
  55.9470856  44.4919047  76.9379905  57.0371229  44.6409153  76.1198680
  56.6150798  44.2204196  76.6289849  62.4405441  43.1152914  72.0080421
  61.8470280  43.4369911  71.4564988  62.4780719  42.2694009  71.8001527
  62.3579830  43.0377242  71.8963193  58.3708020  41.6108965  76.7336367
  58.8465386  41.9726045  76.0986548  57.8696620  42.2665432  77.0136510
  58.3673379  41.7603154  76.6813108  60.4134673  43.7550165  70.1009751
  60.7933638  43.7729794  69.3160866  59.6727269  44.2004153  69.9800599
  60.3603511  43.8231939  69.9673319  61.2119427  50.5927671  71.4918541
  60.4030750  50.2694344  71.4451851  61.7194336  49.8860893  71.4246790
  61.1669094  50.4408987  71.4748836  60.4053844  39.9811693  72.7837383
  61.2269538  40.1510006  72.5419078  59.9423495  40.1358954  72.0603680
  60.4585006  40.0293426  72.6409027  35.4531055   0.6662244  62.0709942
  34.7013954   0.2877783  61.8425987  35.9017067   0.6980678  61.3228752
  35.4080722   0.6147851  61.9267444  40.9056015   1.0887614  57.4995489
  40.5707383   1.7664535  57.0639711  41.4182885   0.6992925  56.9112361
  40.9321596   1.1312192  57.3482281  40.4460306   3.0401882  63.4406601
  40.8299685   3.6088781  62.9011376  40.3819447   2.3151393  62.9612417
  40.4933733   3.0177346  63.2900463  36.8716551   5.5958226  65.7387571
  37.5154006   6.0371390  66.1283729  37.1972806   4.7911652  65.6517829
  37.0148379   5.5423420  65.7833048  37.5737130  -1.3929800  61.1107432
  37.8952971  -0.8524592  60.5068740  38.2209227  -1.9633028  61.2429722
  37.7163186  -1.3970624  61.0414468  37.6695532   1.4125023  60.0797815
  37.9593830   1.0214004  59.3557042  38.3999013   1.5941728  60.5203091
  37.8202416   1.3818837  60.0380622  35.6101448   3.3892405  63.1457965
  35.3901743   3.0989760  63.9384632  35.3895970   2.7307360  62.6175877
  35.5449042   3.2492114  63.1846874  37.7769403   4.7621795  61.9288657
  38.4293461   4.2298237  62.1579683  37.0795012   4.4090447  62.3156531
  37.7700121   4.6311318  62.0200825  42.2415900   0.0264993  60.6956716
  42.0002576  -0.7067146  60.2883781  42.4217233   0.5751850  60.0423049
  42.2323524  -0.0012615  60.5386939  39.7918928   0.6845956  61.9034099
  40.5568819   0.4155600  61.5816764  39.6897018   0.1995966  62.6204162
  39.8900423   0.5735521  61.9613927  39.0176661  -0.6809950  58.6528401
  39.0869481  -1.5395411  58.7921401  39.7965116  -0.4638069  58.3247425
  39.1429511  -0.7757086  58.6245558  43.4084148   1.7427752  62.8664894
  43.0163940   1.4394467  62.1487760  43.5637221   2.5796842  62.6769848
  43.3737738   1.8211588  62.7321391  44.1774454   1.1463244  66.2994928
  43.9794142   1.6354059  65.6051140  43.5562165   1.3504486  66.8779062
  44.0562018   1.2479783  66.2818152  42.9684740   2.0134438  58.8932564
  42.2514049   1.8395300  58.4279801  43.6191477   1.7787010  58.3608050
  42.9586590   1.9530230  58.7461782  38.2497902   3.2496196  65.3222712
  37.8358300   2.5870326  64.9326554  38.9345276   3.3974055  64.8018406
  38.2896273   3.1736854  65.1879209  41.6163196   2.4086282  66.0746328
  41.2179479   2.5188552  65.3067149  41.0014415   2.6168348  66.6572888
  41.4662085   2.4559850  66.0477628  58.8422814   7.5609183  61.5519780
  58.8116818   8.4153820  61.7238049  59.4404163   7.2604476  62.1105924
  58.9259972   7.6425680  61.6594582  52.0422499   6.6484834  66.3072710
  51.1860394   6.8093333  66.3581827  52.0890152   5.7776898  66.3277771
  51.9221610   6.5435636  66.3178776  46.4263638  16.1847552  62.0709942
  45.6746538  15.8063090  61.8425987  46.8749650  16.2165986  61.3228752
  46.3813305  16.1333159  61.9267444  51.8788598  16.6072922  57.4995489
  51.5439967  17.2849843  57.0639711  52.3915469  16.2178233  56.9112361
  51.9054179  16.6497500  57.3482281  51.4192890  18.5587190  63.4406601
  51.8032269  19.1274089  62.9011376  51.3552031  17.8336701  62.9612417
  51.4666317  18.5362654  63.2900463  54.8874320   8.7076878  68.9504362
  55.4330280   9.3861965  69.0098332  54.8291196   8.5664339  68.0905944
  54.9590234   8.7868880  68.8316423  48.0048395  16.1965944  64.3372714
  48.1058758  15.3866298  64.6469842  47.4090140  16.1022891  63.7072393
  47.9320933  16.0630972  64.2898953  56.6639388  10.1361485  59.8238090
  56.5478914  10.8869171  60.2530228  57.4595275   9.8785439  60.0734177
  56.7643978  10.2096332  59.9242182  47.8449134  21.1143533  65.7387571
  48.4886590  21.5556697  66.1283729  48.1705390  20.3096960  65.6517829
  47.9880963  21.0608728  65.7833048  41.2013439  12.2186231  63.9625048
  40.9663623  11.3853883  63.8557317  41.3399080  12.4990897  63.1486249
  41.1869101  12.1369734  63.8267403  43.5003526   4.3871961  66.8609356
  42.8808558   3.7964609  66.6919371  43.3987390   4.9783397  66.2273679
  43.3941202   4.3876044  66.7414345  48.5469714  14.1255508  61.1107432
  48.8685555  14.6660716  60.5068740  49.1941810  13.5552280  61.2429722
  48.6895769  14.1214683  61.0414468  50.5971422   6.1271503  61.1941819
  51.2951587   6.3059631  61.6863282  50.9123755   5.6041843  60.5712208
  50.7466759   6.0765275  61.1743829  43.2272659   7.9324243  69.1052925
  43.1031356   8.5186689  69.7402744  43.8790944   7.4384439  69.4065200
  43.3046309   7.9463048  69.2438854  50.7859357  12.5141948  61.1821610
  51.2252993  11.9059049  61.6276383  50.6364020  12.1349322  60.4107075
  50.8280823  12.3680419  61.1340778  48.2531000  11.1085960  68.3840436
  48.8980003  10.6158403  68.0651384  48.4932777  11.2510747  69.2106514
  48.3841585  11.0563402  68.4589969  50.7917092  13.9540866  68.0347328
  51.0740335  13.1592272  67.8134084  51.5203252  14.4321453  68.0552389
  50.9406655  13.9075463  68.0050344  48.7698286   1.4963900  65.2763094
  48.4401616   1.9475043  64.6066792  48.0943287   1.4180063  65.8236100
  48.6208722   1.5515035  65.2586317  54.3868694  10.8669130  58.1352380
  54.3019989  11.7230096  58.2801949  54.8753077  10.5913454  58.8034539
  54.4457591  10.9526451  58.2554461  55.3187127   7.4853924  59.6350115
  54.7898599   7.7013557  60.2947421  55.8412147   8.1790062  59.5551084
  55.3175580   7.6197061  59.7205714  60.7735180  13.0600228  65.0083159
  59.9432883  13.2710872  65.1716576  60.7244432  12.2337283  64.7325443
  60.6441915  12.9689834  64.9920525  47.2086735  11.3817141  58.4357583
  46.6243950  11.8867172  58.8423447  46.8056830  11.1559527  57.6954175
  47.0626039  11.4225389  58.3862608  42.7630764  17.0971902  65.2381254
  42.2798342  17.8222391  65.2140838  43.5754082  17.3948032  65.3491412
  42.8121511  17.2474255  65.2508534  48.8344918  15.8904082  67.8431069
  48.3171859  15.5311497  67.2392377  49.5319309  15.3666257  67.8537135
  48.8610499  15.7601770  67.7561327  52.4908510  16.3398896  73.8047242
  52.5791855  16.1525037  74.6525452  52.9198222  15.6936326  73.4052089
  52.5670612  16.2161904  73.8718993  50.0578969  15.6230056  72.7864904
  49.4949804  15.2102666  73.3104565  50.8199993  15.5482962  73.2058047
  50.0873418  15.5507457  72.9257904  51.6663949   7.6282793  56.9126503
  51.9059953   7.8360776  56.1001846  51.9879790   6.8240301  57.0215448
  51.7501107   7.5396894  56.8087056  45.6174961  17.6128078  65.3901534
  46.3195540  17.0980067  65.4474291  45.5372444  17.9402229  66.1948409
  45.7098721  17.5842304  65.5174326  45.3311304   1.9646507  57.4564154
  45.1486878   2.1818388  56.6305147  46.1936917   2.0785520  57.5122769
  45.4315894   2.0136405  57.3418641  44.9425736  13.8034430  64.8987142
  45.7814636  14.0357362  64.9460904  44.9737505  12.9338741  64.8294178
  45.0707454  13.7091376  64.8951787  45.5678439  14.2235305  69.2000448
  46.1076664  14.0806436  69.8703820  44.8848386  14.6232056  69.5684474
  45.5470593  14.2614976  69.3534869  54.9919324   9.9026305  64.3945472
  55.7476839  10.3357820  64.4334381  55.0981649   9.2531075  64.9680108
  55.1189495   9.8703789  64.4843498  58.0299495  13.7299583  65.1447875
  57.5934727  13.7336325  65.9006846  57.6962411  14.4105082  64.7127453
  57.9162115  13.8312038  65.1928708  52.6028569  15.7707915  76.4691025
  53.3868986  15.8838763  76.8346768  52.4025163  14.9449053  76.6649711
  52.6894594  15.6654635  76.5525411  44.8773331   5.2420680  55.9686627
  44.1631508   4.9558859  56.3809060  45.3617300   5.5817306  56.6093015
  44.8432695   5.2502330  56.1242262  52.7598962  17.6818017  70.1157481
  51.9614208  17.4417518  70.3731350  53.2084974  17.7332410  70.8624529
  52.7073573  17.6540409  70.2642405  61.1643841  10.4480502  64.0367512
  61.8260276   9.8871171  63.9363421  60.5235253   9.9532533  64.3620203
  61.1672709  10.2916912  64.0699853  52.0520649  13.7450634  56.3448436
  52.4671798  13.4135658  55.6532931  51.2212579  13.5119536  56.2168572
  51.9908658  13.6621890  56.2239283  41.3808998  11.2294375  66.6346614
  41.1984571  11.2041261  65.7818906  42.1158667  11.6993313  66.6735522
  41.4623062  11.2955737  66.5144532  57.4508672  11.4645885  63.7779501
  57.6864261  11.6091084  62.9506352  57.5998236  12.2288293  64.1711015
  57.5074475  11.5984939  63.7143105  59.2799129  10.3047551  61.6149105
  59.6107346  10.8375191  61.0089200  59.8532217  10.3586439  62.2711056
  59.4132808  10.3917120  61.6226887  54.4931018   8.1512454  62.2972685
  54.5877872   8.8901748  62.7512311  53.8689862   7.7229929  62.7307250
  54.4140048   8.1973774  62.4280833  52.7483492  11.3298666  72.9462966
  53.3222354  10.6925910  73.1011530  52.6698296  11.3302749  72.0772624
  52.8216727  11.2363778  72.8409377  41.3479908   8.1087876  66.7845680
  41.9253411   7.9724326  67.4237925  40.6493970   7.6523660  67.0391264
  41.3300930   8.0210142  66.9167970  54.7454039   9.9961193  55.5309637
  54.6634202  10.0663380  56.3964624  55.3833760  10.5590937  55.3393378
  54.8273877  10.0900164  55.6299587  48.1047211   9.7621931  64.9984163
  47.8466455   8.9293666  64.9715463  48.1595693   9.9879544  64.1576664
  48.0746988   9.6719703  64.8704300  47.0781923   7.3159694  65.4849058
  46.5031514   7.4751862  66.1213019  46.7017599   6.6795103  65.0217509
  46.9384735   7.2457507  65.5103616  50.7455211   5.7883043  70.3441437
  50.3569644   5.3637261  69.6893628  50.0809910   6.0365193  70.8518463
  50.5902139   5.7621764  70.3229304  36.8238742   6.9599769  63.4993499
  36.9098993   6.5831637  64.2807029  37.4514539   6.5860214  63.0213457
  36.9295293   6.8485251  63.5438976  51.8494150  10.0181648  58.5418243
  52.6634788  10.3096540  58.4301015  51.7853291   9.3641510  57.9676536
  51.9596889   9.9646842  58.4407081  47.7202058  13.4903165  63.6690556
  48.3576005  13.2514913  64.2142349  48.1457129  13.6940324  62.9343716
  47.8778224  13.4854175  63.6407713  42.4114700  15.7291502  67.5524859
  42.4518845  16.0006353  66.7244639  42.9709224  16.2533410  67.9682647
  42.4998046  15.8467257  67.4916748  48.3604873   8.7105455  58.0065445
  48.7450026   8.4913162  58.7581990  48.1116493   9.5368400  58.1366521
  48.3806945   8.8003601  58.1366521  59.0940060  12.4852093  69.0176114
  58.7885877  13.2180149  69.3789429  58.3746276  12.0790022  68.7368900
  58.9427403  12.5333826  69.0289251  50.1023530  13.9675588  65.3484342
  50.1762538  13.8050760  66.2026192  50.9193036  14.1565777  65.1044823
  50.2339888  13.9712330  65.4382367  43.8629286  14.3133451  62.3778785
  43.0367404  14.5595188  62.2513064  43.9241278  14.2345531  63.2440843
  43.7503453  14.3378400  62.4867730  46.0805310   0.3802392  63.3374225
  45.2127736   0.4524991  63.4031835  46.3680515   1.1824470  63.5262201
  45.9945058   0.5096539  63.3748992  48.6428115  16.9310331  60.0797815
  48.9326414  16.5399312  59.3557042  49.3731596  17.1127036  60.5203091
  48.7935000  16.9004145  60.0380622  49.2322861  11.7328077  71.1650946
  48.7334554  12.4443844  71.2435834  50.0423085  12.0528743  71.1269108
  49.2778967  11.8854925  71.1707514  46.5834031  18.9077713  63.1457965
  46.3634326  18.6175068  63.9384632  46.3628553  18.2492668  62.6175877
  46.5181625  18.7677422  63.1846874  45.4950978  10.9951030  65.4113667
  45.2064227  10.3688501  65.9459394  46.3634326  10.9371317  65.4778347
  45.5811230  10.8938574  65.5004621  56.2828876   6.1385813  65.7295648
  55.9393642   5.4176148  66.0802898  56.3821919   5.9299664  64.8874007
  56.2470919   6.0010016  65.6567328  48.7501987  20.2807103  61.9288657
  49.4026045  19.7483545  62.1579683  48.0527596  19.9275755  62.3156531
  48.7432705  20.1496626  62.0200825  45.6983252  12.6346281  61.3356032
  46.4529220  13.0159320  61.5491494  45.1053864  13.0857424  61.7902728
  45.7219965  12.7575108  61.4338910  56.7441905  12.6011517  61.2719637
  57.3099938  13.2604727  61.1878180  56.0969809  12.9461215  61.7436039
  56.7320662  12.7493458  61.3292393  47.0181478  13.8054842  66.7096147
  46.4962232  13.9455134  67.3948012  47.4055499  13.0465506  66.8998264
  46.9985179  13.7140366  66.8397224  44.0072662   3.8560651  60.7791102
  43.7197458   3.4861921  60.0423049  44.6943131   4.3255506  60.5174807
  44.0661560   3.8707620  60.6306177  53.2148483  15.5450301  60.6956716
  52.9735159  14.8118162  60.2883781  53.3949816  16.0937158  60.0423049
  53.2056107  15.5172692  60.5386939  48.4447804  10.8358861  62.1077638
  48.2490587  11.4433596  61.5137941  48.6682149  10.1426805  61.6269312
  48.4482445  10.8236387  61.9493719  46.8426334   7.7213599  62.2258506
  47.5648986   7.8854757  61.7662312  46.3634327   8.4423264  62.1197846
  46.8790065   7.8511829  62.1424120  54.8019841   4.0577398  67.6055191
  53.9630942   4.0838677  67.3693455  54.8724209   4.7048133  68.1860538
  54.6888235   4.1573524  67.6564308  44.4933951  10.1271671  71.3312646
  45.0055048  10.4055925  70.6821406  44.2070293  10.8660965  71.6975459
  44.5268814  10.2774025  71.2902524  58.6777365   9.2645385  64.8916433
  58.5911340   9.4200811  65.7451212  58.2227845   9.9083460  64.5175838
  58.5980622   9.3821140  64.9623540  41.5800857   4.6341863  61.6276383
  41.6816993   5.4368025  61.9557358  42.3756744   4.4329199  61.3299463
  41.7128763   4.7227762  61.6311738  52.5503181   6.5856132  63.5141993
  52.3037896   6.5051883  64.3478782  52.8788304   5.8009600  63.3204520
  52.5624425   6.4582397  63.6089516  56.4451230  13.2939491  67.3028774
  56.3065589  13.9920537  67.8077516  55.6651228  13.1388148  66.9464956
  56.3094457  13.3739658  67.3255048  48.5100209   9.3212850  72.9264976
  48.6543584   9.9014058  72.2908086  48.8575857   9.6989147  73.6314830
  48.5827670   9.4633554  72.9363971  50.6820126   8.5203019  70.7090107
  49.9343440   8.7134033  70.3038385  50.8361651   7.6948238  70.4714229
  50.5942554   8.4268130  70.6135513  47.5827964  17.5115622  69.7926003
  47.7317527  16.9518538  69.1399407  48.3627966  17.5907624  70.1758521
  47.7202057  17.4401188  69.7522952  57.9404603  12.6517745  58.0645273
  57.5611412  11.8654883  58.0574562  57.2770848  13.2004602  57.9216917
  57.7863078  12.6162569  58.0426070  50.1081264  17.6830265  71.0710493
  50.0324935  17.0139076  71.6261282  50.0371123  18.3848053  71.5851160
  50.0861871  17.6875172  71.2287341  50.7651511  16.2031264  61.9034099
  51.5301402  15.9340908  61.5816764  50.6629601  15.7181274  62.6204162
  50.8633007  16.0920829  61.9613927  48.8004281   4.4055673  68.4427335
  48.0100356   4.2247133  68.7644671  49.1964904   3.6282626  68.4257630
  48.7421157   4.2643134  68.4879883  53.2870172  13.2343448  53.8834049
  54.0543157  13.2943573  53.4739900  52.8401481  12.6623889  53.3990367
  53.3343599  13.1580023  53.7511759  54.1847967  12.0398103  66.1686781
  53.5092969  11.8083336  66.6700168  54.1940343  11.4319286  65.5428886
  54.0866472  11.9157029  66.1502933  51.3142111   6.8815932  72.9250834
  51.2501252   7.7425889  72.7970971  51.4539299   6.5647926  72.1246385
  51.3257581   6.9616099  72.7879047  56.1864702  14.8963236  58.3996959
  56.2684539  15.7030222  58.0758410  56.6714444  14.9159195  59.1237732
  56.2701860  15.0183898  58.4583858  49.9961205   9.5748072  67.0667037
  49.5723454   9.7752571  66.3306055  49.8206060   8.7276920  67.1791337
  49.9072086   9.4796853  66.9740727  49.4972899  21.0898585  69.5288494
  49.9868829  20.3909374  69.3464159  48.9257131  20.7922455  70.1164551
  49.4857429  20.9424808  69.5889535  45.2843650  10.0700123  62.4995009
  45.4408269  10.0046926  63.3551001  45.6244243  10.8448676  62.2873689
  45.3576885  10.1749321  62.5949604  51.8222795   9.4458007  61.3688373
  52.3638340   8.9428388  61.8326993  52.1369354   9.3923201  60.5577858
  51.9487192   9.3637428  61.3172185  49.9909244  14.8375358  58.6528401
  50.0602065  13.9789897  58.7921401  50.7697700  15.0547239  58.3247425
  50.1162094  14.7428222  58.6245558  52.9712064   4.3394311  71.4210673
  53.1854034   3.7005225  70.8674027  52.3545963   4.7840135  70.9918535
  52.9117393   4.3104455  71.2761104  54.3816732  17.2613060  62.8664894
  53.9896524  16.9579775  62.1487760  54.5369804  18.0982150  62.6769848
  54.3470322  17.3396896  62.7321391  41.8577912   7.2535074  62.8155777
  42.2376876   7.6719619  62.1516044  41.2833276   7.8348529  63.1224620
  41.8289236   7.4012932  62.7632518  54.5456407  13.8263048  62.8070925
  54.1871062  13.9977691  63.5834957  54.0595118  14.2876254  62.2498923
  54.4215104  13.9202020  62.8396194  49.3344772   9.5062214  55.3471159
  49.6237297  10.2827096  55.6214733  49.4216571   8.9950945  56.0485658
  49.3899028   9.5454132  55.4913657  55.7061146  14.7166944  73.7538125
  56.3440867  14.2227140  73.4200581  55.0635238  14.6444345  73.1690352
  55.7055373  14.6325953  73.6180480  57.4318146   6.5656090  68.3204041
  57.0045754   6.4782439  67.5652141  56.7944199   6.6733866  68.9058885
  57.2747753   6.5688750  68.2949483  55.7615403  15.4086753  70.3943482
  56.5507781  15.0575817  70.5145564  55.9359001  16.2223141  70.1320116
  55.9035684  15.4772610  70.3731350  45.5008713   8.8195478  67.4471271
  44.6596720   8.7199353  67.6550165  45.7098721   9.5890959  67.7985592
  45.4073406   8.9187522  67.5298586  42.9784280   6.4415015  65.2756022
  42.5840978   6.5158027  64.5006131  42.4224397   6.8272962  65.8264383
  42.8387092   6.5096790  65.2423681  49.3125378   6.7476878  66.6968869
  49.0088516   6.1932866  67.2979276  48.6104799   6.9269088  66.2096903
  49.1641588   6.6921660  66.7138574  48.3691475   4.0577397  61.2613570
  48.6451209   3.3396310  60.8491138  48.9690144   4.6562317  61.0534676
  48.4984740   4.0397768  61.1694332  47.3743729  13.9626598  71.4040966
  47.2664084  13.9728660  72.2703024  47.5839510  14.7881379  71.2145920
  47.3893840  14.0867673  71.5045058  45.3917521  11.2139241  68.8662904
  44.8005454  11.8548739  68.8365919  46.1538545  11.6376858  68.8394203
  45.4165782  11.3715079  68.8578051  55.1507037  16.6648552  66.2994928
  54.9526726  17.1539367  65.6051140  54.5294748  16.8689794  66.8779062
  55.0294602  16.7665091  66.2818152  49.2115016   8.4333449  60.6405173
  49.9557061   8.8207725  60.8788123  49.3575712   7.5890874  60.8045660
  49.3425601   8.3663922  60.6999142  52.1992891   4.0058922  66.5399092
  51.7252846   3.4800684  67.0504403  52.5711027   3.4588395  65.9713953
  52.1842780   3.8474919  66.5314239  58.4629622   9.0661298  67.9505872
  58.2227845   8.2267713  67.9548299  58.9421629   9.1461465  68.6746646
  58.4981806   8.9542698  68.0580675  54.1276391   4.8995477  59.6024846
  53.5999410   4.9824221  58.9130555  54.5872099   5.6413348  59.5989490
  54.1178242   5.0216139  59.4999541  60.4634809   5.8462755  65.9035132
  60.2244579   5.8058589  65.0655916  60.6268710   6.6933907  66.0300853
  60.4525113   5.9654840  65.7988614  45.9367708   4.8272878  68.5693056
  45.3120778   4.8391270  67.9619009  45.6013302   5.3033053  69.2184296
  45.7953199   4.8991395  68.5749624  46.1209456   3.1697997  54.6265741
  45.7722261   3.8217722  55.0897290  45.6405902   3.1555110  53.8989612
  45.9979700   3.2641050  54.5876832  42.6493383  12.8873338  70.0096820
  42.1193308  12.1965777  70.0591795  42.9218476  12.8783524  69.1809529
  42.6118105  12.7840470  69.8944236  53.6813474  13.4699041  58.7334503
  54.4047672  13.9357154  58.5899076  53.2414065  13.5372650  57.9832100
  53.7229166  13.5482877  58.6019284  52.8499629  10.3296583  69.9835192
  52.2356622   9.7854633  70.2783827  53.3666914   9.8160819  69.5041008
  52.8355291  10.1732992  69.9559420  52.0895926  11.4000853  67.7179490
  51.6623534  10.7750572  67.2844926  52.0820870  11.1175775  68.5438498
  52.0255067  11.2653634  67.7759318  37.9289225   9.5601102  67.3665168
  37.8232674   9.5147947  66.5017253  37.1789445   9.9054883  67.6479453
  37.8024828   9.6042011  67.2802498  46.6982958   1.0040426  67.3127769
  46.7381329   1.5049632  68.0262476  45.8732622   1.0950819  67.0433692
  46.5822484   1.0922242  67.3778307  48.1197321   7.5200935  69.6101668
  47.2889251   7.6874753  69.4036916  48.0648838   7.1436886  70.3950553
  47.9886736   7.4890667  69.6950196  46.4933365   5.7956527  60.1391785
  46.6336326   6.2928991  60.8420427  46.9915898   5.0942821  60.2805999
  46.5874446   5.7658506  60.2643364  46.5233587   6.6623638  57.4684362
  47.1578667   7.2584063  57.4033824  46.6059198   6.3627096  58.2830232
  46.6290138   6.7064546  57.5787449  48.1012570   2.5937613  57.4429804
  48.4228411   2.1140696  56.7889067  48.3639514   3.4037260  57.2520616
  48.1878596   2.6427511  57.3185296  51.3309543  13.6156488  70.9628620
  50.8234634  14.1692335  71.4069251  51.0336189  13.6764778  70.1447395
  51.2114428  13.7062799  70.9077077  43.0286575   8.8591479  60.7373908
  43.5378805   9.4555986  61.1185214  43.5020848   8.5917452  60.0550328
  43.1729951   8.9077294  60.6928431  53.9417323  17.5319746  58.8932564
  53.2246633  17.3580608  58.4279801  54.5924061  17.2972318  58.3608050
  53.9319174  17.4715538  58.7461782  56.5265294   6.4084334  62.6373869
  55.8556484   6.9514036  62.5086934  57.2205045   6.8779189  62.3955564
  56.5294162   6.5582605  62.5829397  50.5752028  18.5481046  67.8685627
  50.3517683  17.7899875  68.2369654  50.0861872  18.5779067  67.1466067
  50.4695477  18.4403271  67.8162368  45.3877107   5.4947737  63.6047089
  44.6689096   5.9111870  63.8719952  45.7589469   6.0601976  63.0538727
  45.3369039   5.6397019  63.5629896  54.6876688   6.1275586  69.4949084
  54.6674615   5.9458881  70.3483863  54.7355889   6.9987605  69.4708668
  54.6911329   6.2292125  69.6172379  52.6323018  12.7162778  75.4197561
  52.5918872  12.0712455  74.8342717  53.4446336  12.6599396  75.7322973
  52.7466171  12.6121745  75.3794510  49.2230485  18.7681504  65.3222712
  48.8090884  18.1055634  64.9326554  49.9077859  18.9159363  64.8018406
  49.2628857  18.6922162  65.1879209  52.5895779  17.9271589  66.0746328
  52.1912063  18.0373860  65.3067149  51.9746999  18.1353656  66.6572888
  52.4394669  17.9745157  66.0477628  51.1623681   4.5345737  58.9420468
  50.5688521   4.8562734  58.3905035  51.1998959   3.6886833  58.7341574
  51.0798070   4.4570066  58.8303239  54.0381498   4.4925242  62.3722218
  53.8095191   4.5157943  61.5300577  54.2979574   3.6682709  62.4917229
  54.0427686   4.3741322  62.2647416  47.0926260   3.0301788  63.6676414
  47.5683627   3.3918868  63.0326595  46.5914860   3.6858256  63.9476557
  47.0891619   3.1795977  63.6153155  60.3237622  12.5023556  59.4589419
  60.7071228  13.2514912  59.6887516  59.5281735  12.7489376  59.2001408
  60.2631404  12.6493250  59.4546993  49.1352914   5.1742988  57.0349798
  49.5151878   5.1922617  56.2500913  48.3945510   5.6196977  56.9140645
  49.0821751   5.2424762  56.9013366  38.8255475   6.9064963  67.0384193
  38.6477236   6.4541572  67.7639109  38.5374497   7.7091125  67.2222671
  38.7568428   6.9587521  67.1727696  54.4879056   8.1622681  66.2761584
  54.9832721   7.4445676  66.2365604  53.6778832   7.8593479  66.1616071
  54.4422949   8.0120327  66.2535309  49.9337668  12.0120494  58.4258588
  49.1248990  11.6887168  58.3791898  50.4412577  11.3053716  58.3586837
  49.8887334  11.8601810  58.4088882  40.5627945   9.4392687  64.1505952
  39.6973464   9.4278378  64.0388724  40.6626761   9.2522910  64.9977092
  40.4502112   9.4098748  64.2594897  56.5530875  10.9126368  68.9638712
  56.9785947  10.3900790  68.4109137  56.1887795  11.5107206  68.4427335
  56.5617478  10.9236595  68.8047722  46.1884955  19.2090586  67.7236058
  46.5031514  20.0226974  67.7313840  46.5978368  18.8240805  68.3918217
  46.2953053  19.2719288  67.8240150  53.1409474  14.6260633  65.2939870
  53.6120653  15.3400895  65.4629855  53.4769653  14.0259383  65.8299739
  53.2604590  14.6432097  65.3972246  53.7783421  14.4178567  72.0567562
  53.2304367  13.7936450  71.7887628  54.2396450  14.6072839  71.3411642
  53.7650630  14.3537617  71.9117994  43.5297975  13.1563694  67.3714666
  44.1342832  13.1159528  66.7428487  43.3225287  14.0034846  67.4018722
  43.5886872  13.2751697  67.2830783  53.3441747  15.4229639  68.5876904
  54.1640121  15.2792606  68.8493199  53.0635825  16.0475838  69.1293342
  53.4238490  15.4939992  68.7064843  38.7649257  12.1398312  67.2413589
  38.6673535  11.3294583  67.5503646  39.5478127  12.1190105  66.8559858
  38.8665394  12.0165402  67.2300452  69.8155397  23.0794491  61.5519780
  69.7849402  23.9339128  61.7238049  70.4136746  22.7789784  62.1105924
  69.8992555  23.1610988  61.6594582  63.0155082  22.1670142  66.3072710
  62.1592978  22.3278640  66.3581827  63.0622736  21.2962206  66.3277771
  62.8954194  22.0620944  66.3178776  57.3996222  31.7032860  62.0709942
  56.6479122  31.3248398  61.8425987  57.8482234  31.7351294  61.3228752
  57.3545889  31.6518467  61.9267444  62.8521182  32.1258230  57.4995489
  62.5172550  32.8035151  57.0639711  63.3648052  31.7363541  56.9112361
  62.8786763  32.1682808  57.3482281  62.3925473  34.0772498  63.4406601
  62.7764853  34.6459397  62.9011376  62.3284614  33.3522009  62.9612417
  62.4398900  34.0547962  63.2900463  65.8606903  24.2262186  68.9504362
  66.4062863  24.9047273  69.0098332  65.8023780  24.0849647  68.0905944
  65.9322818  24.3054188  68.8316423  58.9780978  31.7151252  64.3372714
  59.0791341  30.9051606  64.6469842  58.3822723  31.6208199  63.7072393
  58.9053517  31.5816280  64.2898953  67.6371972  25.6546793  59.8238090
  67.5211498  26.4054479  60.2530228  68.4327859  25.3970746  60.0734177
  67.7376561  25.7281640  59.9242182  58.8181718  36.6328841  65.7387571
  59.4619173  37.0742005  66.1283729  59.1437973  35.8282268  65.6517829
  58.9613546  36.5794036  65.7833048  52.1746022  27.7371539  63.9625048
  51.9396207  26.9039191  63.8557317  52.3131663  28.0176204  63.1486249
  52.1601685  27.6555042  63.8267403  54.4736110  19.9057269  66.8609356
  53.8541142  19.3149917  66.6919371  54.3719974  20.4968705  66.2273679
  54.3673785  19.9061352  66.7414345  59.5202298  29.6440816  61.1107432
  59.8418139  30.1846024  60.5068740  60.1674394  29.0737588  61.2429722
  59.6628353  29.6399991  61.0414468  61.5704006  21.6456811  61.1941819
  62.2684170  21.8244939  61.6863282  61.8856338  21.1227151  60.5712208
  61.7199343  21.5950583  61.1743829  54.2005243  23.4509551  69.1052925
  54.0763940  24.0371997  69.7402744  54.8523527  22.9569747  69.4065200
  54.2778892  23.4648356  69.2438854  61.7591941  28.0327256  61.1821610
  62.1985576  27.4244357  61.6276383  61.6096604  27.6534630  60.4107075
  61.8013407  27.8865727  61.1340778  59.2263584  26.6271268  68.3840436
  59.8712586  26.1343711  68.0651384  59.4665361  26.7696055  69.2106514
  59.3574169  26.5748710  68.4589969  61.7649675  29.4726174  68.0347328
  62.0472918  28.6777580  67.8134084  62.4935836  29.9506761  68.0552389
  61.9139239  29.4260771  68.0050344  59.7430869  17.0149208  65.2763094
  59.4134199  17.4660351  64.6066792  59.0675871  16.9365371  65.8236100
  59.5941305  17.0700343  65.2586317  65.3601278  26.3854437  58.1352380
  65.2752573  27.2415404  58.2801949  65.8485661  26.1098762  58.8034539
  65.4190175  26.4711759  58.2554461  66.9507277  13.0034731  63.5212704
  66.6360718  13.6938209  63.9533127  66.4334219  12.9479513  62.8198205
  66.8271747  13.0969619  63.4809653  66.2919711  23.0039232  59.6350115
  65.7631182  23.2198865  60.2947421  66.8144731  23.6975370  59.5551084
  66.2908164  23.1382369  59.7205714  71.7467764  28.5785536  65.0083159
  70.9165467  28.7896180  65.1716576  71.6977016  27.7522591  64.7325443
  71.6174499  28.4875142  64.9920525  58.1819319  26.9002448  58.4357583
  57.5976534  27.4052480  58.8423447  57.7789414  26.6744835  57.6954175
  58.0358622  26.9410697  58.3862608  53.7363347  32.6157210  65.2381254
  53.2530925  33.3407699  65.2140838  54.5486665  32.9133340  65.3491412
  53.7854095  32.7659563  65.2508534  59.8077501  31.4089390  67.8431069
  59.2904443  31.0496805  67.2392377  60.5051892  30.8851565  67.8537135
  59.8343082  31.2787078  67.7561327  63.4641093  31.8584204  73.8047242
  63.5524439  31.6710345  74.6525452  63.8930806  31.2121634  73.4052089
  63.5403196  31.7347212  73.8718993  61.0311553  31.1415364  72.7864904
  60.4682388  30.7287974  73.3104565  61.7932576  31.0668270  73.2058047
  61.0606002  31.0692765  72.9257904  62.6396533  23.1468101  56.9126503
  62.8792537  23.3546084  56.1001846  62.9612374  22.3425609  57.0215448
  62.7233691  23.0582202  56.8087056  57.9486823  15.0761496  60.7586041
  58.7032791  15.4439813  60.5203092  57.7714358  15.4501051  61.5265221
  58.0341302  15.1859684  60.8370930  56.5907544  33.1313385  65.3901534
  57.2928124  32.6165375  65.4474291  56.5105028  33.4587537  66.1948409
  56.6831305  33.1027612  65.5174326  57.6386451  23.3688972  74.5181949
  57.8106955  23.2594867  75.3667231  58.1755808  24.0143378  74.2813142
  57.7431455  23.4480974  74.6087046  56.3043888  17.4831815  57.4564154
  56.1219461  17.7003696  56.6305147  57.1669501  17.5970828  57.5122769
  56.4048477  17.5321713  57.3418641  55.9158320  29.3219737  64.8987142
  56.7547219  29.5542670  64.9460904  55.9470089  28.4524049  64.8294178
  56.0440037  29.2276684  64.8951787  56.5411023  29.7420613  69.2000448
  57.0809248  29.5991744  69.8703820  55.8580969  30.1417363  69.5684474
  56.5203177  29.7800284  69.3534869  61.9843607  14.4858226  60.4913178
  62.7129768  14.3074181  60.0451334  62.0738500  15.3276306  60.7020356
  62.1050269  14.5842104  60.4566696  69.0032079  29.2484891  65.1447875
  68.5667311  29.2521633  65.9006846  68.6694994  29.9290390  64.7127453
  68.8894699  29.3497346  65.1928708  63.5761152  31.2893223  76.4691025
  64.3601569  31.4024071  76.8346768  63.3757747  30.4634360  76.6649711
  63.6627178  31.1839943  76.5525411  51.9448168  25.9620903  69.3534869
  51.6786583  25.1460020  69.5125860  51.9586732  26.0074059  68.4830385
  51.9072890  25.8477808  69.2488351  55.8505915  20.7605988  55.9686627
  55.1364092  20.4744167  56.3809060  56.3349884  21.1002614  56.6093015
  55.8165278  20.7687638  56.1242262  56.6946774  19.4999282  72.0001877
  56.0018571  19.0296261  72.2462609  57.3107102  19.2737586  72.5743584
  56.6831304  19.3966414  72.1211030  63.7331546  33.2003325  70.1157481
  62.9346792  32.9602825  70.3731350  64.1817557  33.2517718  70.8624529
  63.6806157  33.1725717  70.2642405  72.1376425  25.9665810  64.0367512
  72.7992859  25.4056479  63.9363421  71.4967837  25.4717841  64.3620203
  72.1405293  25.8102219  64.0699853  63.0253233  29.2635942  56.3448436
  63.4404381  28.9320966  55.6532931  62.1945162  29.0304844  56.2168572
  62.9641242  29.1807198  56.2239283  52.3541582  26.7479683  66.6346614
  52.1717155  26.7226569  65.7818906  53.0891251  27.2178621  66.6735522
  52.4355645  26.8141045  66.5144532  68.4241256  26.9831193  63.7779501
  68.6596845  27.1276392  62.9506352  68.5730819  27.7473601  64.1711015
  68.4807059  27.1170247  63.7143105  55.4187333  23.4664686  73.1428722
  56.1427306  23.4517716  73.6293617  55.5203470  24.1760041  72.6450690
  55.5405542  23.5689389  73.1407509  70.2531713  25.8232859  61.6149105
  70.5839930  26.3560499  61.0089200  70.8264801  25.8771747  62.2711056
  70.3865392  25.9102428  61.6226887  65.4663602  23.6697761  62.2972685
  65.5610456  24.4087056  62.7512311  64.8422445  23.2415237  62.7307250
  65.3872632  23.7159082  62.4280833  63.7216075  26.8483974  72.9462966
  64.2954937  26.2111218  73.1011530  63.6430879  26.8488057  72.0772624
  63.7949310  26.7549085  72.8409377  52.3212492  23.6273184  66.7845680
  52.8985995  23.4909634  67.4237925  51.6226554  23.1708968  67.0391264
  52.3033513  23.5395450  66.9167970  65.7186623  25.5146501  55.5309637
  65.6366785  25.5848688  56.3964624  66.3566343  26.0776245  55.3393378
  65.8006460  25.6085472  55.6299587  59.0779794  25.2807239  64.9984163
  58.8199038  24.4478974  64.9715463  59.1328277  25.5064852  64.1576664
  59.0479572  25.1905010  64.8704300  64.1580844  17.3835690  65.0988256
  63.4537171  16.8944875  65.2572175  64.2065819  17.3958164  64.2276700
  64.0610896  17.3125338  64.9927596  58.0514506  22.8345002  65.4849058
  57.4764098  22.9937170  66.1213019  57.6750183  22.1980411  65.0217509
  57.9117319  22.7642815  65.5103616  61.7187795  21.3068351  70.3441437
  61.3302228  20.8822569  69.6893628  61.0542493  21.5550501  70.8518463
  61.5634723  21.2807072  70.3229304  71.3611064  21.0643356  63.1189267
  71.1047629  20.2523297  62.9287149  72.2040378  21.0720923  62.8919454
  71.4477089  20.9455353  63.0574084  47.7971325  22.4785076  63.4993499
  47.8831577  22.1016945  64.2807029  48.4247123  22.1045522  63.0213457
  47.9027876  22.3670559  63.5438976  62.8226733  25.5366956  58.5418243
  63.6367372  25.8281848  58.4301015  62.7585874  24.8826818  57.9676536
  62.9329472  25.4832150  58.4407081  58.6934641  29.0088473  63.6690556
  59.3308588  28.7700221  64.2142349  59.1189713  29.2125632  62.9343716
  58.8510808  29.0039483  63.6407713  53.3847284  31.2476810  67.5524859
  53.4251429  31.5191661  66.7244639  53.9441808  31.7718718  67.9682647
  53.4730630  31.3652565  67.4916748  59.3337456  24.2290763  58.0065445
  59.7182609  24.0098470  58.7581990  59.0849077  25.0553708  58.1366521
  59.3539529  24.3188909  58.1366521  70.0672644  28.0037400  69.0176114
  69.7618461  28.7365457  69.3789429  69.3478860  27.5975330  68.7368900
  69.9159986  28.0519133  69.0289251  61.0756113  29.4860896  65.3484342
  61.1495122  29.3236067  66.2026192  61.8925620  29.6751085  65.1044823
  61.2072472  29.4897638  65.4382367  54.8361870  29.8318758  62.3778785
  54.0099988  30.0780496  62.2513064  54.8973861  29.7530839  63.2440843
  54.7236037  29.8563707  62.4867730  57.0537894  15.8987699  63.3374225
  56.1860319  15.9710299  63.4031835  57.3413098  16.7009778  63.5262201
  56.9677642  16.0281847  63.3748992  59.6160699  32.4495639  60.0797815
  59.9058997  32.0584620  59.3557042  60.3464180  32.6312344  60.5203091
  59.7667583  32.4189452  60.0380622  60.2055444  27.2513385  71.1650946
  59.7067138  27.9629152  71.2435834  61.0155669  27.5714051  71.1269108
  60.2511551  27.4040233  71.1707514  57.5566615  34.4263021  63.1457965
  57.3366910  34.1360376  63.9384632  57.3361137  33.7677976  62.6175877
  57.4914209  34.2862729  63.1846874  56.4683562  26.5136338  65.4113667
  56.1796810  25.8873809  65.9459394  57.3366910  26.4556625  65.4778347
  56.5543814  26.4123882  65.5004621  67.2561460  21.6571121  65.7295648
  66.9126226  20.9361456  66.0802898  67.3554502  21.4484972  64.8874007
  67.2203502  21.5195324  65.6567328  59.7234570  35.7992411  61.9288657
  60.3758628  35.2668853  62.1579683  59.0260179  35.4461063  62.3156531
  59.7165288  35.6681934  62.0200825  56.6715835  28.1531589  61.3356032
  57.4261803  28.5344628  61.5491494  56.0786448  28.6042732  61.7902728
  56.6952549  28.2760416  61.4338910  67.7174489  28.1196825  61.2719637
  68.2832521  28.7790035  61.1878180  67.0702392  28.4646523  61.7436039
  67.7053245  28.2678766  61.3292393  57.9914062  29.3240150  66.7096147
  57.4694815  29.4640442  67.3948012  58.3788082  28.5650814  66.8998264
  57.9717763  29.2325674  66.8397224  54.9805246  19.3745959  60.7791102
  54.6930042  19.0047229  60.0423049  55.6675714  19.8440814  60.5174807
  55.0394143  19.3892928  60.6306177  64.1881067  31.0635609  60.6956716
  63.9467743  30.3303470  60.2883781  64.3682400  31.6122466  60.0423049
  64.1788691  31.0358000  60.5386939  59.4180387  26.3544169  62.1077638
  59.2223170  26.9618904  61.5137941  59.6414733  25.6612113  61.6269312
  59.4215028  26.3421695  61.9493719  57.8158917  23.2398907  62.2258506
  58.5381569  23.4040065  61.7662312  57.3366910  23.9608572  62.1197846
  57.8522648  23.3697137  62.1424120  65.7752425  19.5762706  67.6055191
  64.9363526  19.6023985  67.3693455  65.8456792  20.2233441  68.1860538
  65.6620819  19.6758832  67.6564308  55.4666534  25.6456979  71.3312646
  55.9787631  25.9241233  70.6821406  55.1802877  26.3846273  71.6975459
  55.5001397  25.7959333  71.2902524  64.2221703  16.4748083  62.3382807
  64.9248056  16.2755831  61.8602766  63.9565892  15.7024025  62.6451651
  64.2868336  16.3311049  62.3128249  69.6509949  24.7830693  64.8916433
  69.5643923  24.9386119  65.7451212  69.1960429  25.4268768  64.5175838
  69.5713206  24.9006448  64.9623540  52.5533440  20.1527171  61.6276383
  52.6549577  20.9553333  61.9557358  53.3489327  19.9514507  61.3299463
  52.6861346  20.2413070  61.6311738  58.9850260  17.7383368  71.3913688
  58.7933457  17.7538502  72.2413111  59.8348856  17.9347042  71.3680343
  59.0825981  17.7697719  71.5136983  53.3697173  20.2674349  69.3697504
  53.2282664  19.4158290  69.4942012  53.6537736  20.3103010  68.5459710
  53.3905019  20.1474099  69.2665128  63.5235765  22.1041440  63.5141993
  63.2770479  22.0237191  64.3478782  63.8520888  21.3194907  63.3204520
  63.5357009  21.9767705  63.6089516  67.4183814  28.8124799  67.3028774
  67.2798173  29.5105845  67.8077516  66.6383812  28.6573455  66.9464956
  67.2827041  28.8924966  67.3255048  59.4832792  24.8398158  72.9264976
  59.6276168  25.4199366  72.2908086  59.8308441  25.2174455  73.6314830
  59.5560254  24.9818862  72.9363971  61.6552710  24.0388327  70.7090107
  60.9076024  24.2319341  70.3038385  61.8094235  23.2133546  70.4714229
  61.5675137  23.9453438  70.6135513  58.5560547  33.0300930  69.7926003
  58.7050111  32.4703846  69.1399407  59.3360549  33.1092932  70.1758521
  58.6934641  32.9586496  69.7522952  68.9137187  28.1703053  58.0645273
  68.5343995  27.3840191  58.0574562  68.2503432  28.7189910  57.9216917
  68.7595661  28.1347877  58.0426070  61.0813848  33.2015573  71.0710493
  61.0057519  32.5324383  71.6261282  61.0103707  33.9033361  71.5851160
  61.0594455  33.2060480  71.2287341  61.8954487  17.9338877  71.5985511
  62.3527101  18.6662852  71.7258303  61.9710815  17.5105343  72.3572767
  61.9745456  17.9796115  71.7286588  54.1387478  18.1804697  72.6874955
  53.6029667  17.5685055  73.0035722  54.2005243  18.7552833  73.3408621
  54.0683110  18.1751625  72.8310381  61.7384095  31.7216572  61.9034099
  62.5033986  31.4526216  61.5816764  61.6362185  31.2366582  62.6204162
  61.8365590  31.6106136  61.9613927  59.7736865  19.9240981  68.4427335
  58.9832939  19.7432441  68.7644671  60.1697487  19.1467934  68.4257630
  59.7153741  19.7828442  68.4879883  64.2602755  28.7528756  53.8834049
  65.0275740  28.8128881  53.4739900  63.8134064  28.1809197  53.3990367
  64.3076183  28.6765331  53.7511759  65.1580551  27.5583411  66.1686781
  64.4825553  27.3268644  66.6700168  65.1672927  26.9504594  65.5428886
  65.0599055  27.4342337  66.1502933  62.2874695  22.4001240  72.9250834
  62.2233836  23.2611197  72.7970971  62.4271883  22.0833234  72.1246385
  62.2990165  22.4801407  72.7879047  67.1597285  30.4148544  58.3996959
  67.2417123  31.2215530  58.0758410  67.6447028  30.4344503  59.1237732
  67.2434443  30.5369206  58.4583858  60.9693789  25.0933380  67.0667037
  60.5456038  25.2937879  66.3306055  60.7938644  24.2462228  67.1791337
  60.8804669  24.9982161  66.9740727  60.4705482  36.6083893  69.5288494
  60.9601412  35.9094682  69.3464159  59.8989714  36.3107763  70.1164551
  60.4590012  36.4610116  69.5889535  56.2576234  25.5885431  62.4995009
  56.4140853  25.5232234  63.3551001  56.5976827  26.3633984  62.2873689
  56.3309469  25.6934629  62.5949604  62.7955378  24.9643315  61.3688373
  63.3370924  24.4613696  61.8326993  63.1101937  24.9108509  60.5577858
  62.9219775  24.8822736  61.3172185  60.9641828  30.3560666  58.6528401
  61.0334648  29.4975205  58.7921401  61.7430283  30.5732547  58.3247425
  61.0894678  30.2613530  58.6245558  63.9444648  19.8579619  71.4210673
  64.1586617  19.2190533  70.8674027  63.3278547  20.3025443  70.9918535
  63.8849977  19.8289763  71.2761104  65.3549316  32.7798368  62.8664894
  64.9629107  32.4765083  62.1487760  65.5102388  33.6167457  62.6769848
  65.3202905  32.8582204  62.7321391  52.8310495  22.7720382  62.8155777
  53.2109460  23.1904927  62.1516044  52.2565860  23.3533837  63.1224620
  52.8021820  22.9198240  62.7632518  65.5188990  29.3448356  62.8070925
  65.1603645  29.5162999  63.5834957  65.0327701  29.8061562  62.2498923
  65.3947687  29.4387327  62.8396194  63.3359376  12.9679555  66.4098016
  62.4652934  12.9418276  66.3631325  63.5899718  12.7956747  65.5923862
  63.2452936  12.9389699  66.2818153  60.3077356  25.0247522  55.3471159
  60.5969881  25.8012404  55.6214733  60.3949155  24.5136253  56.0485658
  60.3631612  25.0639440  55.4913657  62.4300750  15.5178743  69.6964339
  62.0432503  15.5427775  70.4777869  61.9433688  14.9520422  69.2438855
  62.3013259  15.4374494  69.7452243  66.6793730  30.2352252  73.7538125
  67.3173450  29.7412448  73.4200581  66.0367821  30.1629653  73.1690352
  66.6787956  30.1511261  73.6180480  68.4050730  22.0841398  68.3204041
  67.9778338  21.9967747  67.5652141  67.7676783  22.1919174  68.9058885
  68.2480337  22.0874058  68.2949483  66.7347986  30.9272061  70.3943482
  67.5240364  30.5761125  70.5145564  66.9091584  31.7408449  70.1320116
  66.8768268  30.9957918  70.3731350  56.4741297  24.3380786  67.4471271
  55.6329303  24.2384661  67.6550165  56.6831305  25.1076267  67.7985592
  56.3805989  24.4372830  67.5298586  53.9516864  21.9600323  65.2756022
  53.5573561  22.0343335  64.5006131  53.3956981  22.3458270  65.8264383
  53.8119676  22.0282098  65.2423681  65.5881810  14.9381617  64.9559901
  65.7931404  14.8703925  65.8016898  65.2608234  15.7440439  64.8881078
  65.5697058  15.0467558  65.0719556  60.2857962  22.2662186  66.6968869
  59.9821099  21.7118174  67.2979276  59.5837382  22.4454396  66.2096903
  60.1374171  22.2106968  66.7138574  59.3424059  19.5762705  61.2613570
  59.6183793  18.8581618  60.8491138  59.9422728  20.1747625  61.0534676
  59.4717323  19.5583076  61.1694332  58.3476313  29.4811906  71.4040966
  58.2396667  29.4913968  72.2703024  58.5572094  30.3066687  71.2145920
  58.3626424  29.6052981  71.5045058  68.8415498  15.4913382  64.4362666
  68.2289812  15.9783784  64.8216398  68.9379673  14.8156872  64.9800317
  68.7653396  15.4631690  64.5741524  62.8434579  17.2476223  59.5360165
  63.2978326  17.4186783  60.2608010  63.3174625  16.6344333  59.1357941
  62.9802899  17.1827108  59.5833927  56.3650105  26.7324549  68.8662904
  55.7738038  27.3734047  68.8365919  57.1271128  27.1562166  68.8394203
  56.3898365  26.8900387  68.8578051  56.7610727  17.8926546  69.5330921
  57.2212209  17.9665476  70.2706045  56.8066834  18.6907800  69.1830743
  56.8361283  18.0220693  69.5903678  58.4094077  18.5593241  74.1002949
  58.0179642  17.9126588  74.5358726  58.5779940  19.1504677  74.7197204
  58.3764987  18.5507509  74.2565655  66.1239621  32.1833860  66.2994928
  65.9259309  32.6724675  65.6051140  65.5027332  32.3875102  66.8779062
  66.0027185  32.2850398  66.2818152  60.1847599  23.9518757  60.6405173
  60.9289644  24.3393033  60.8788123  60.3308295  23.1076182  60.8045660
  60.3158184  23.8849230  60.6999142  62.1027175  15.7469016  65.6737034
  61.2563220  15.9191824  65.5478384  62.0998307  14.9418360  66.0102862
  61.9774325  15.6530045  65.7048161  63.1725475  19.5244230  66.5399092
  62.6985429  18.9985992  67.0504403  63.5443611  18.9773703  65.9713953
  63.1575364  19.3660227  66.5314239  53.5498505  21.5215737  71.9082638
  54.4124118  21.4211446  71.8219968  53.2190288  20.9410446  71.3468210
  53.6283702  21.4207364  71.8128044  69.4362206  24.5846606  67.9505872
  69.1960428  23.7453021  67.9548299  69.9154213  24.6646773  68.6746646
  69.4714389  24.4728006  68.0580675  65.1008975  20.4180785  59.6024846
  64.5731993  20.5009529  58.9130555  65.5604683  21.1598656  59.5989490
  65.0910825  20.5401447  59.4999541  71.4367393  21.3648063  65.9035132
  71.1977163  21.3243897  65.0655916  71.6001294  22.2119215  66.0300853
  71.4257696  21.4840148  65.7988614  56.9100291  20.3458186  68.5693056
  56.2853361  20.3576578  67.9619009  56.5745886  20.8218361  69.2184296
  56.7685783  20.4176703  68.5749624  57.0942040  18.6883305  54.6265741
  56.7454844  19.3403030  55.0897290  56.6138486  18.6740418  53.8989612
  56.9712284  18.7826358  54.5876832  53.6225967  28.4058646  70.0096820
  53.0925891  27.7151085  70.0591795  53.8951060  28.3968831  69.1809529
  53.5850689  28.3025778  69.8944236  64.6546057  28.9884349  58.7334503
  65.3780256  29.4542462  58.5899076  64.2146648  29.0557958  57.9832100
  64.6961749  29.0668185  58.6019284  63.8232212  25.8481891  69.9835192
  63.2089205  25.3039941  70.2783827  64.3399497  25.3346127  69.5041008
  63.8087875  25.6918300  69.9559420  63.0628509  26.9186161  67.7179490
  62.6356117  26.2935879  67.2844926  63.0553454  26.6361083  68.5438498
  62.9987651  26.7838941  67.7759318  56.1791037  21.9551334  70.7867924
  56.3384523  21.1994658  71.1919646  55.9983930  22.5042273  71.4408662
  56.1756395  21.9245148  70.9430630  61.3914219  17.7954915  67.9322024
  61.4156706  17.2615028  67.2434804  61.6425693  17.2872224  68.5947615
  61.4324138  17.6415819  67.9286669  48.9021809  25.0786410  67.3665168
  48.7965258  25.0333255  66.5017253  48.1522029  25.4240191  67.6479453
  48.7757412  25.1227318  67.2802498  57.6715541  16.5225734  67.3127769
  57.7113913  17.0234940  68.0262476  56.8465206  16.6136127  67.0433692
  57.5555067  16.6107550  67.3778307  59.8545154  26.0886474  75.4148063
  59.0040785  26.2258188  75.5505708  60.0173282  25.3550252  75.8595765
  59.7529018  26.0000575  75.5003662  59.0929905  23.0386243  69.6101668
  58.2621834  23.2060061  69.4036916  59.0381422  22.6622194  70.3950553
  58.9619320  23.0075975  69.6950196  57.4665949  21.3141835  60.1391785
  57.6068910  21.8114299  60.8420427  57.9648481  20.6128129  60.2805999
  57.5607029  21.2843814  60.2643364  57.4966171  22.1808946  57.4684362
  58.1311250  22.7769371  57.4033824  57.5791782  21.8812404  58.2830232
  57.6022722  22.2249854  57.5787449  59.0745154  18.1122921  57.4429804
  59.3960995  17.6326004  56.7889067  59.3372098  18.9222567  57.2520616
  59.1611179  18.1612819  57.3185296  62.3042127  29.1341796  70.9628620
  61.7967218  29.6877643  71.4069251  62.0068773  29.1950086  70.1447395
  62.1847012  29.2248107  70.9077077  64.4704309  17.4995115  69.8053283
  64.8959380  17.0467642  69.1936810  63.8561302  16.9455186  70.0818071
  64.4432954  17.3509092  69.7558309  54.0019159  24.3776787  60.7373908
  54.5111388  24.9741294  61.1185214  54.4753431  24.1102760  60.0550328
  54.1462534  24.4262602  60.6928431  64.9149907  33.0505053  58.8932564
  64.1979217  32.8765916  58.4279801  65.5656644  32.8157626  58.3608050
  64.9051757  32.9900846  58.7461782  62.9098532  13.9710215  63.2143860
  62.2666850  13.8207862  63.7828999  62.5697939  13.7252560  62.4492965
  62.7643609  13.9122338  63.1846876  67.4997878  21.9269642  62.6373869
  66.8289068  22.4699344  62.5086934  68.1937628  22.3964497  62.3955564
  67.5026746  22.0767913  62.5829397  61.5484612  34.0666354  67.8685627
  61.3250266  33.3085183  68.2369654  61.0594455  34.0964375  67.1466067
  61.4428061  33.9588578  67.8162368  67.6626006  18.3825526  65.5464242
  68.0153616  17.9555249  66.2210041  66.8040807  18.2976369  65.6765319
  67.5875450  18.3070266  65.6659253  56.3609691  21.0133045  63.6047089
  55.6421680  21.4297178  63.8719952  56.7322053  21.5787284  63.0538727
  56.3101622  21.1582327  63.5629896  65.6609271  21.6460894  69.4949084
  65.6407199  21.4644189  70.3483863  65.7088472  22.5172913  69.4708668
  65.6643912  21.7477432  69.6172379  63.6055601  28.2348086  75.4197561
  63.5651456  27.5897763  74.8342717  64.4178919  28.1784704  75.7322973
  63.7198755  28.1307053  75.3794510  60.1963069  34.2866812  65.3222712
  59.7823467  33.6240942  64.9326554  60.8810443  34.4344671  64.8018406
  60.2361440  34.2107470  65.1879209  63.5628363  33.4456897  66.0746328
  63.1644646  33.5559168  65.3067149  62.9479582  33.6538964  66.6572888
  63.4127252  33.4930465  66.0477628  62.1356265  20.0531045  58.9420468
  61.5421104  20.3748042  58.3905035  62.1731543  19.2072141  58.7341574
  62.0530654  19.9755373  58.8303239  65.0114081  20.0110550  62.3722218
  64.7827775  20.0343251  61.5300577  65.2712158  19.1868017  62.4917229
  65.0160270  19.8926630  62.2647416  59.2933310  21.8645023  71.9747319
  58.7812213  21.2566206  72.3332350  59.1212806  22.5801615  72.4421294
  59.1922947  21.8808322  72.0963542  54.1399025  20.3082598  74.6249680
  53.9701615  20.9683973  74.0797887  53.6964975  20.5189159  75.3462170
  54.0498358  20.4368580  74.6511310  58.0658844  18.5487096  63.6676414
  58.5416210  18.9104176  63.0326595  57.5647444  19.2043564  63.9476557
  58.0624203  18.6981285  63.6153155  71.2970206  28.0208864  59.4589419
  71.6803811  28.7700220  59.6887516  70.5014319  28.2674684  59.2001408
  71.2363988  28.1678558  59.4546993  51.0401089  23.2129464  69.8838170
  50.4927809  22.5430109  70.0019039  51.8293467  22.8459311  69.9481637
  51.0753273  23.0594450  69.9106871  60.8885498  22.8736921  75.3801581
  61.6396825  23.1888598  75.6941135  61.0808074  22.6716092  74.5535503
  61.0276912  22.8904302  75.3044977  60.1085497  20.6928296  57.0349798
  60.4884462  20.7107925  56.2500913  59.3678093  21.1382285  56.9140645
  60.0554335  20.7610070  56.9013366  67.7370788  19.0010487  62.6225377
  67.7365014  18.8459144  63.4809653  67.5326968  19.8473474  62.5666762
  67.7070566  19.1031108  62.7413316  49.7988059  22.4250271  67.0384193
  49.6209820  21.9726880  67.7639109  49.5107081  23.2276433  67.2222671
  49.7301012  22.4772829  67.1727696  65.4611640  23.6807989  66.2761584
  65.9565305  22.9630984  66.2365604  64.6511415  23.3778786  66.1616071
  65.4155533  23.5305635  66.2535309  60.9070251  27.5305802  58.4258588
  60.0981574  27.2072476  58.3791898  61.4145160  26.8239024  58.3586837
  60.8619918  27.3787118  58.4088882  51.5360529  24.9577995  64.1505952
  50.6706048  24.9463686  64.0388724  51.6359344  24.7708218  64.9977092
  51.4234695  24.9284056  64.2594897  67.5263459  26.4311676  68.9638712
  67.9518530  25.9086098  68.4109137  67.1620378  27.0292514  68.4427335
  67.5350061  26.4421903  68.8047722  57.1617538  34.7275894  67.7236058
  57.4764097  35.5412282  67.7313840  57.5710952  34.3426112  68.3918217
  57.2685636  34.7904596  67.8240150  64.1142058  30.1445941  65.2939870
  64.5853236  30.8586203  65.4629855  64.4502237  29.5444691  65.8299739
  64.2337173  30.1617405  65.3972246  64.7516004  29.9363875  72.0567562
  64.2036950  29.3121758  71.7887628  65.2129033  30.1258147  71.3411642
  64.7383214  29.8722925  71.9117994  60.1004668  16.9189824  59.7177430
  60.9220362  17.0888137  59.4759124  59.6374319  17.0737085  58.9943727
  60.1535830  16.9671557  59.5749074  58.6900000  14.9132586  70.4975858
  59.2344413  14.5723713  71.0880200  58.7436935  15.7718048  70.6397143
  58.7789119  14.9887846  70.6057732  54.5030559  28.6749002  67.3714666
  55.1075416  28.6344836  66.7428487  54.2957871  29.5220154  67.4018722
  54.5619456  28.7937005  67.2830783  64.3174331  30.9414947  68.5876904
  65.1372704  30.7977913  68.8493199  64.0368408  31.5661146  69.1293342
  64.3971074  31.0125299  68.7064843  49.7381841  27.6583620  67.2413589
  49.6406119  26.8479891  67.5503646  50.5210711  27.6375413  66.8559858
  49.8397977  27.5350710  67.2300452  73.9887666  37.6855450  66.3072710
  73.1325561  37.8463948  66.3581827  74.0355320  36.8147514  66.3277771
  73.8686777  37.5806252  66.3178776  68.3728806  47.2218168  62.0709942
  67.6211705  46.8433706  61.8425987  68.8214817  47.2536602  61.3228752
  68.3278472  47.1703775  61.9267444  73.8253765  47.6443537  57.4995489
  73.4905134  48.3220459  57.0639711  74.3380636  47.2548849  56.9112361
  73.8519347  47.6868116  57.3482281  73.3658057  49.5957806  63.4406601
  73.7497436  50.1644705  62.9011376  73.3017198  48.8707317  62.9612417
  73.4131484  49.5733270  63.2900463  76.8339487  39.7447494  68.9504362
  77.3795447  40.4232581  69.0098332  76.7756363  39.6034955  68.0905944
  76.9055401  39.8239496  68.8316423  69.9513562  47.2336560  64.3372714
  70.0523925  46.4236914  64.6469842  69.3555307  47.1393507  63.7072393
  69.8786100  47.1001588  64.2898953  69.7914301  52.1514149  65.7387571
  70.4351757  52.5927313  66.1283729  70.1170557  51.3467575  65.6517829
  69.9346130  52.0979344  65.7833048  63.1478606  43.2556847  63.9625048
  62.9128790  42.4224499  63.8557317  63.2864247  43.5361512  63.1486249
  63.1334269  43.1740350  63.8267403  65.4468694  35.4242577  66.8609356
  64.8273725  34.8335225  66.6919371  65.3452557  36.0154013  66.2273679
  65.3406369  35.4246660  66.7414345  70.4934881  45.1626124  61.1107432
  70.8150722  45.7031331  60.5068740  71.1406978  44.5922896  61.2429722
  70.6360936  45.1585299  61.0414468  72.5436589  37.1642119  61.1941819
  73.2416754  37.3430247  61.6863282  72.8588922  36.6412458  60.5712208
  72.6931926  37.1135891  61.1743829  65.1737827  38.9694859  69.1052925
  65.0496523  39.5557305  69.7402744  65.8256111  38.4755055  69.4065200
  65.2511476  38.9833663  69.2438854  72.7324525  43.5512564  61.1821610
  73.1718160  42.9429665  61.6276383  72.5829187  43.1719937  60.4107075
  72.7745990  43.4051035  61.1340778  70.1996168  42.1456576  68.3840436
  70.8445170  41.6529019  68.0651384  70.4397945  42.2881363  69.2106514
  70.3306753  42.0934018  68.4589969  72.7382259  44.9911482  68.0347328
  73.0205502  44.1962888  67.8134084  73.4668419  45.4692069  68.0552389
  72.8871823  44.9446079  68.0050344  70.7163453  32.5334516  65.2763094
  70.3866783  32.9845659  64.6066792  70.0408455  32.4550679  65.8236100
  70.5673889  32.5885651  65.2586317  76.3333861  41.9039745  58.1352380
  76.2485156  42.7600712  58.2801949  76.8218244  41.6284069  58.8034539
  76.3922758  41.9897067  58.2554461  77.9239861  28.5220039  63.5212704
  77.6093302  29.2123517  63.9533127  77.4066802  28.4664821  62.8198205
  77.8004331  28.6154927  63.4809653  77.2652294  38.5224540  59.6350115
  76.7363766  38.7384173  60.2947421  77.7877314  39.2160678  59.5551084
  77.2640747  38.6567676  59.7205714  69.1551902  42.4187756  58.4357583
  68.5709117  42.9237788  58.8423447  68.7521997  42.1930143  57.6954175
  69.0091206  42.4596005  58.3862608  64.7095931  48.1342517  65.2381254
  64.2263509  48.8593007  65.2140838  65.5219249  48.4318648  65.3491412
  64.7586678  48.2844871  65.2508534  70.7810085  46.9274698  67.8431069
  70.2637026  46.5682113  67.2392377  71.4784476  46.4036873  67.8537135
  70.8075666  46.7972386  67.7561327  73.6129117  38.6653408  56.9126503
  73.8525120  38.8731392  56.1001846  73.9344958  37.8610917  57.0215448
  73.6966274  38.5767510  56.8087056  68.9219407  30.5946804  60.7586041
  69.6765375  30.9625121  60.5203092  68.7446941  30.9686359  61.5265221
  69.0073885  30.7044992  60.8370930  67.5640128  48.6498693  65.3901534
  68.2660707  48.1350682  65.4474291  67.4837611  48.9772845  66.1948409
  67.6563888  48.6212920  65.5174326  68.6119035  38.8874280  74.5181949
  68.7839538  38.7780175  75.3667231  69.1488392  39.5328686  74.2813142
  68.7164039  38.9666282  74.6087046  67.2776471  33.0017123  57.4564154
  67.0952045  33.2189004  56.6305147  68.1402084  33.1156136  57.5122769
  67.3781061  33.0507021  57.3418641  66.8890903  44.8405045  64.8987142
  67.7279803  45.0727978  64.9460904  66.9202673  43.9709357  64.8294178
  67.0172621  44.7461992  64.8951787  67.5143606  45.2605921  69.2000448
  68.0541831  45.1177052  69.8703820  66.8313553  45.6602671  69.5684474
  67.4935760  45.2985592  69.3534869  72.9576191  30.0043534  60.4913178
  73.6862351  29.8259489  60.0451334  73.0471084  30.8461614  60.7020356
  73.0782853  30.1027412  60.4566696  76.9384491  40.9396921  64.3945472
  77.6942006  41.3728436  64.4334381  77.0446816  40.2901691  64.9680108
  77.0654662  40.9074405  64.4843498  62.9180751  41.4806211  69.3534869
  62.6519167  40.6645328  69.5125860  62.9319316  41.5259367  68.4830385
  62.8805474  41.3663116  69.2488351  66.8238498  36.2791296  55.9686627
  66.1096676  35.9929475  56.3809060  67.3082467  36.6187922  56.6093015
  66.7897862  36.2872945  56.1242262  67.6679358  35.0184590  72.0001877
  66.9751155  34.5481569  72.2462609  68.2839685  34.7922894  72.5743584
  67.6563888  34.9151722  72.1211030  73.9985816  44.7821250  56.3448436
  74.4136965  44.4506274  55.6532931  73.1677746  44.5490152  56.2168572
  73.9373825  44.6992506  56.2239283  63.3274165  42.2664991  66.6346614
  63.1449738  42.2411877  65.7818906  64.0623834  42.7363929  66.6735522
  63.4088229  42.3326353  66.5144532  66.3919917  38.9849994  73.1428722
  67.1159889  38.9703024  73.6293617  66.4936053  39.6945349  72.6450690
  66.5138126  39.0874697  73.1407509  76.4396185  39.1883069  62.2972685
  76.5343040  39.9272363  62.7512311  75.8155029  38.7600545  62.7307250
  76.3605215  39.2344390  62.4280833  63.2945075  39.1458491  66.7845680
  63.8718578  39.0094942  67.4237925  62.5959137  38.6894276  67.0391264
  63.2766097  39.0580758  66.9167970  76.6919207  41.0331809  55.5309637
  76.6099369  41.1033996  56.3964624  77.3298927  41.5961553  55.3393378
  76.7739044  41.1270780  55.6299587  70.0512378  40.7992547  64.9984163
  69.7931622  39.9664282  64.9715463  70.1060860  41.0250160  64.1576664
  70.0212156  40.7090318  64.8704300  75.1313428  32.9020998  65.0988256
  74.4269755  32.4130183  65.2572175  75.1798402  32.9143472  64.2276700
  75.0343479  32.8310646  64.9927596  69.0247090  38.3530310  65.4849058
  68.4496681  38.5122478  66.1213019  68.6482766  37.7165719  65.0217509
  68.8849902  38.2828123  65.5103616  72.6920378  36.8253659  70.3441437
  72.3034811  36.4007877  69.6893628  72.0275077  37.0735809  70.8518463
  72.5367306  36.7992380  70.3229304  58.7703909  37.9970384  63.4993499
  58.8564161  37.6202253  64.2807029  59.3979706  37.6230830  63.0213457
  58.8760460  37.8855867  63.5438976  73.7959317  41.0552263  58.5418243
  74.6099956  41.3467156  58.4301015  73.7318458  40.4012126  57.9676536
  73.9062056  41.0017458  58.4407081  69.6667225  44.5273781  63.6690556
  70.3041172  44.2885528  64.2142349  70.0922297  44.7310940  62.9343716
  69.8243391  44.5224791  63.6407713  64.3579867  46.7662117  67.5524859
  64.3984013  47.0376969  66.7244639  64.9174391  47.2904026  67.9682647
  64.4463213  46.8837873  67.4916748  70.3070040  39.7476071  58.0065445
  70.6915193  39.5283777  58.7581990  70.0581660  40.5739016  58.1366521
  70.3272113  39.8374217  58.1366521  72.0488697  45.0046204  65.3484342
  72.1227705  44.8421375  66.2026192  72.8658203  45.1936393  65.1044823
  72.1805056  45.0082946  65.4382367  65.8094454  45.3504066  62.3778785
  64.9832571  45.5965804  62.2513064  65.8706445  45.2716147  63.2440843
  65.6968621  45.3749015  62.4867730  68.0270477  31.4173007  63.3374225
  67.1592903  31.4895607  63.4031835  68.3145682  32.2195086  63.5262201
  67.9410225  31.5467154  63.3748992  70.5893283  47.9680947  60.0797815
  70.8791581  47.5769928  59.3557042  71.3196764  48.1497652  60.5203091
  70.7400167  47.9374760  60.0380622  71.1788028  42.7698693  71.1650946
  70.6799722  43.4814460  71.2435834  71.9888252  43.0899359  71.1269108
  71.2244135  42.9225541  71.1707514  68.5299198  49.9448329  63.1457965
  68.3099494  49.6545684  63.9384632  68.3093720  49.2863284  62.6175877
  68.4646792  49.8048037  63.1846874  67.4416145  42.0321646  65.4113667
  67.1529394  41.4059117  65.9459394  68.3099493  41.9741933  65.4778347
  67.5276397  41.9309190  65.5004621  78.2294043  37.1756429  65.7295648
  77.8858809  36.4546764  66.0802898  78.3287086  36.9670280  64.8874007
  78.1936086  37.0380632  65.6567328  70.6967154  51.3177719  61.9288657
  71.3491212  50.7854161  62.1579683  69.9992763  50.9646371  62.3156531
  70.6897872  51.1867242  62.0200825  67.6448419  43.6716897  61.3356032
  68.3994387  44.0529936  61.5491494  67.0519031  44.1228040  61.7902728
  67.6685132  43.7945724  61.4338910  68.9646645  44.8425458  66.7096147
  68.4427399  44.9825750  67.3948012  69.3520666  44.0836122  66.8998264
  68.9450346  44.7510982  66.8397224  65.9537829  34.8931267  60.7791102
  65.6662625  34.5232537  60.0423049  66.6408298  35.3626122  60.5174807
  66.0126727  34.9078236  60.6306177  75.1613650  46.5820917  60.6956716
  74.9200326  45.8488778  60.2883781  75.3414983  47.1307774  60.0423049
  75.1521274  46.5543308  60.5386939  70.3912971  41.8729477  62.1077638
  70.1955754  42.4804211  61.5137941  70.6147317  41.1797421  61.6269312
  70.3947612  41.8607002  61.9493719  68.7891501  38.7584215  62.2258506
  69.5114153  38.9225373  61.7662312  68.3099494  39.4793880  62.1197846
  68.8255232  38.8882444  62.1424120  76.7485009  35.0948014  67.6055191
  75.9096109  35.1209293  67.3693455  76.8189376  35.7418749  68.1860538
  76.6353402  35.1944140  67.6564308  66.4399118  41.1642287  71.3312646
  66.9520215  41.4426541  70.6821406  66.1535460  41.9031581  71.6975459
  66.4733981  41.3144641  71.2902524  75.1954287  31.9933391  62.3382807
  75.8980640  31.7941139  61.8602766  74.9298476  31.2209333  62.6451651
  75.2600919  31.8496357  62.3128249  63.5266024  35.6712479  61.6276383
  63.6282161  36.4738641  61.9557358  64.3221911  35.4699815  61.3299463
  63.6593930  35.7598378  61.6311738  69.9582843  33.2568676  71.3913688
  69.7666040  33.2723810  72.2413111  70.8081439  33.4532350  71.3680343
  70.0558565  33.2883027  71.5136983  64.3429756  35.7859657  69.3697504
  64.2015248  34.9343598  69.4942012  64.6270320  35.8288318  68.5459710
  64.3637602  35.6659407  69.2665128  74.4968349  37.6226748  63.5141993
  74.2503063  37.5422498  64.3478782  74.8253472  36.8380215  63.3204520
  74.5089592  37.4953013  63.6089516  78.3916397  44.3310107  67.3028774
  78.2530757  45.0291153  67.8077516  77.6116395  44.1758763  66.9464956
  78.2559624  44.4110274  67.3255048  70.4565376  40.3583466  72.9264976
  70.6008752  40.9384674  72.2908086  70.8041024  40.7359763  73.6314830
  70.5292837  40.5004170  72.9363971  72.6285293  39.5573635  70.7090107
  71.8808607  39.7504649  70.3038385  72.7826818  38.7318854  70.4714229
  72.5407721  39.4638746  70.6135513  72.8687070  33.4524185  71.5985511
  73.3259684  34.1848160  71.7258303  72.9443399  33.0290650  72.3572767
  72.9478040  33.4981423  71.7286588  65.1120061  33.6990005  72.6874955
  64.5762251  33.0870363  73.0035722  65.1737826  34.2738141  73.3408621
  65.0415694  33.6936933  72.8310381  72.7116678  47.2401880  61.9034099
  73.4766569  46.9711523  61.5816764  72.6094768  46.7551890  62.6204162
  72.8098174  47.1291444  61.9613927  70.7469448  35.4426289  68.4427335
  69.9565523  35.2617749  68.7644671  71.1430071  34.6653242  68.4257630
  70.6886324  35.3013750  68.4879883  75.2335339  44.2714063  53.8834049
  76.0008324  44.3314188  53.4739900  74.7866648  43.6994505  53.3990367
  75.2808766  44.1950639  53.7511759  76.1313134  43.0768719  66.1686781
  75.4558136  42.8453952  66.6700168  76.1405511  42.4689902  65.5428886
  76.0331639  42.9527645  66.1502933  73.2607278  37.9186548  72.9250834
  73.1966420  38.7796505  72.7970971  73.4004466  37.6018541  72.1246385
  73.2722748  37.9986715  72.7879047  78.1329869  45.9333852  58.3996959
  78.2149706  46.7400838  58.0758410  78.6179611  45.9529811  59.1237732
  78.2167027  46.0554514  58.4583858  71.9426372  40.6118688  67.0667037
  71.5188621  40.8123187  66.3306055  71.7671227  39.7647536  67.1791337
  71.8537253  40.5167469  66.9740727  67.2308817  41.1070739  62.4995009
  67.3873436  41.0417542  63.3551001  67.5709410  41.8819292  62.2873689
  67.3042052  41.2119937  62.5949604  73.7687962  40.4828623  61.3688373
  74.3103507  39.9799004  61.8326993  74.0834521  40.4293817  60.5577858
  73.8952359  40.4008044  61.3172185  71.9374412  45.8745974  58.6528401
  72.0067232  45.0160513  58.7921401  72.7162867  46.0917855  58.3247425
  72.0627262  45.7798838  58.6245558  74.9177231  35.3764927  71.4210673
  75.1319201  34.7375841  70.8674027  74.3011130  35.8210751  70.9918535
  74.8582560  35.3475071  71.2761104  76.3281899  48.2983675  62.8664894
  75.9361691  47.9950391  62.1487760  76.4834971  49.1352765  62.6769848
  76.2935489  48.3767512  62.7321391  63.8043079  38.2905690  62.8155777
  64.1842044  38.7090234  62.1516044  63.2298444  38.8719145  63.1224620
  63.7754404  38.4383548  62.7632518  76.4921574  44.8633664  62.8070925
  76.1336229  45.0348307  63.5834957  76.0060285  45.3246870  62.2498923
  76.3680271  44.9572635  62.8396194  74.3091960  28.4864863  66.4098016
  73.4385518  28.4603584  66.3631325  74.5632301  28.3142055  65.5923862
  74.2185520  28.4575007  66.2818153  71.2809939  40.5432830  55.3471159
  71.5702464  41.3197712  55.6214733  71.3681738  40.0321561  56.0485658
  71.3364196  40.5824748  55.4913657  71.3341100  30.4971091  67.8671486
  70.8179589  29.8051283  67.9923065  70.7735029  31.1641868  67.8134085
  71.1747614  30.4934349  67.8777552  73.4033334  31.0364051  69.6964339
  73.0165087  31.0613083  70.4777869  72.9166271  30.4705730  69.2438855
  73.2745843  30.9559802  69.7452243  67.4473880  39.8566094  67.4471271
  66.6061887  39.7569968  67.6550165  67.6563888  40.6261575  67.7985592
  67.3538573  39.9558138  67.5298586  64.9249447  37.4785631  65.2756022
  64.5306145  37.5528643  64.5006131  64.3689564  37.8643578  65.8264383
  64.7852260  37.5467406  65.2423681  76.5614394  30.4566925  64.9559901
  76.7663987  30.3889233  65.8016898  76.2340818  31.2625746  64.8881078
  76.5429642  30.5652866  65.0719556  71.2590545  37.7847493  66.6968869
  70.9553683  37.2303482  67.2979276  70.5569966  37.9639703  66.2096903
  71.1106755  37.7292276  66.7138574  70.3156642  35.0948013  61.2613570
  70.5916377  34.3766926  60.8491138  70.9155312  35.6932933  61.0534676
  70.4449907  35.0768384  61.1694332  69.3208896  44.9997214  71.4040966
  69.2129251  45.0099276  72.2703024  69.5304678  45.8251995  71.2145920
  69.3359007  45.1238289  71.5045058  73.8167163  32.7661531  59.5360165
  74.2710909  32.9372091  60.2608010  74.2907208  32.1529641  59.1357941
  73.9535483  32.7012416  59.5833927  67.3382688  42.2509857  68.8662904
  66.7470621  42.8919355  68.8365919  68.1003712  42.6747474  68.8394203
  67.3630949  42.4085695  68.8578051  67.7343311  33.4111854  69.5330921
  68.1944793  33.4850784  70.2706045  67.7799418  34.2093108  69.1830743
  67.8093866  33.5406001  69.5903678  69.3826661  34.0778549  74.1002949
  68.9912226  33.4311896  74.5358726  69.5512523  34.6689984  74.7197204
  69.3497571  34.0692817  74.2565655  77.0972204  47.7019168  66.2994928
  76.8991893  48.1909983  65.6051140  76.4759915  47.9060410  66.8779062
  76.9759769  47.8035706  66.2818152  71.1580183  39.4704065  60.6405173
  71.9022228  39.8578341  60.8788123  71.3040879  38.6261490  60.8045660
  71.2890768  39.4034538  60.6999142  73.0759758  31.2654324  65.6737034
  72.2295803  31.4377132  65.5478384  73.0730891  30.4603668  66.0102862
  72.9506908  31.1715353  65.7048161  74.1458059  35.0429538  66.5399092
  73.6718013  34.5171300  67.0504403  74.5176194  34.4959011  65.9713953
  74.1307948  34.8845535  66.5314239  64.5231089  37.0401045  71.9082638
  65.3856702  36.9396754  71.8219968  64.1922872  36.4595754  71.3468210
  64.6016285  36.9392672  71.8128044  67.8832875  35.8643494  68.5693056
  67.2585945  35.8761886  67.9619009  67.5478470  36.3403669  69.2184296
  67.7418367  35.9362011  68.5749624  68.0674623  34.2068612  54.6265741
  67.7187428  34.8588338  55.0897290  67.5871069  34.1925726  53.8989612
  67.9444867  34.3011666  54.5876832  64.5958550  43.9243954  70.0096820
  64.0658475  43.2336393  70.0591795  64.8683644  43.9154139  69.1809529
  64.5583273  43.8211086  69.8944236  75.6278641  44.5069656  58.7334503
  76.3512840  44.9727769  58.5899076  75.1879232  44.5743266  57.9832100
  75.6694333  44.5853493  58.6019284  74.7964796  41.3667199  69.9835192
  74.1821789  40.8225249  70.2783827  75.3132081  40.8531435  69.5041008
  74.7820458  41.2103608  69.9559420  74.0361093  42.4371469  67.7179490
  73.6088701  41.8121187  67.2844926  74.0286037  42.1546391  68.5438498
  73.9720234  42.3024249  67.7759318  67.1523620  37.4736642  70.7867924
  67.3117107  36.7179966  71.1919646  66.9716514  38.0227581  71.4408662
  67.1488979  37.4430456  70.9430630  72.3646803  33.3140223  67.9322024
  72.3889290  32.7800336  67.2434804  72.6158276  32.8057532  68.5947615
  72.4056721  33.1601127  67.9286669  59.8754392  40.5971718  67.3665168
  59.7697842  40.5518563  66.5017253  59.1254612  40.9425499  67.6479453
  59.7489995  40.6412626  67.2802498  68.6448125  32.0411042  67.3127769
  68.6846497  32.5420248  68.0262476  67.8197790  32.1321435  67.0433692
  68.5287651  32.1292858  67.3778307  70.0662488  38.5571551  69.6101668
  69.2354418  38.7245369  69.4036916  70.0114005  38.1807502  70.3950553
  69.9351903  38.5261283  69.6950196  68.4398532  36.8327143  60.1391785
  68.5801493  37.3299607  60.8420427  68.9381065  36.1313437  60.2805999
  68.5339613  36.8029122  60.2643364  68.4698755  37.6994254  57.4684362
  69.1043834  38.2954679  57.4033824  68.5524365  37.3997712  58.2830232
  68.5755305  37.7435162  57.5787449  70.0477737  33.6308229  57.4429804
  70.3693578  33.1511312  56.7889067  70.3104681  34.4407875  57.2520616
  70.1343763  33.6798127  57.3185296  75.4436892  33.0180423  69.8053283
  75.8691964  32.5652950  69.1936810  74.8293885  32.4640494  70.0818071
  75.4165538  32.8694400  69.7558309  64.9751742  39.8962095  60.7373908
  65.4843972  40.4926602  61.1185214  65.4486015  39.6288068  60.0550328
  65.1195118  39.9447910  60.6928431  75.8882490  48.5690361  58.8932564
  75.1711800  48.3951224  58.4279801  76.5389228  48.3342934  58.3608050
  75.8784341  48.5086154  58.7461782  73.8831115  29.4895523  63.2143860
  73.2399433  29.3393169  63.7828999  73.5430522  29.2437868  62.4492965
  73.7376193  29.4307646  63.1846876  72.5217195  49.5851662  67.8685627
  72.2982850  48.8270491  68.2369654  72.0327039  49.6149683  67.1466067
  72.4160644  49.4773886  67.8162368  67.3342274  36.5318353  63.6047089
  66.6154263  36.9482486  63.8719952  67.7054636  37.0972592  63.0538727
  67.2834206  36.6767635  63.5629896  76.6341855  37.1646202  69.4949084
  76.6139782  36.9829497  70.3483863  76.6821056  38.0358221  69.4708668
  76.6376496  37.2662740  69.6172379  71.1695652  49.8052120  65.3222712
  70.7556051  49.1426250  64.9326554  71.8543027  49.9529979  64.8018406
  71.2094024  49.7292778  65.1879209  74.5360946  48.9642205  66.0746328
  74.1377230  49.0744476  65.3067149  73.9212166  49.1724272  66.6572888
  74.3859836  49.0115773  66.0477628  73.1088848  35.5716353  58.9420468
  72.5153688  35.8933350  58.3905035  73.1464126  34.7257449  58.7341574
  73.0263238  35.4940681  58.8303239  75.9846665  35.5295858  62.3722218
  75.7560358  35.5528559  61.5300577  76.2444741  34.7053325  62.4917229
  75.9892853  35.4111938  62.2647416  70.2665894  37.3830331  71.9747319
  69.7544797  36.7751514  72.3332350  70.0945390  38.0986923  72.4421294
  70.1655531  37.3993630  72.0963542  65.1131608  35.8267906  74.6249680
  64.9434198  36.4869281  74.0797887  64.6697558  36.0374467  75.3462170
  65.0230942  35.9553888  74.6511310  69.0391428  34.0672404  63.6676414
  69.5148794  34.4289484  63.0326595  68.5380027  34.7228872  63.9476557
  69.0356787  34.2166593  63.6153155  62.0133673  38.7314772  69.8838170
  61.4660392  38.0615417  70.0019039  62.8026051  38.3644619  69.9481637
  62.0485856  38.5779758  69.9106871  71.0818081  36.2113604  57.0349798
  71.4617046  36.2293233  56.2500913  70.3410677  36.6567593  56.9140645
  71.0286918  36.2795378  56.9013366  78.7103371  34.5195795  62.6225377
  78.7097598  34.3644451  63.4809653  78.5059551  35.3658782  62.5666762
  78.6803149  34.6216416  62.7413316  60.7720642  37.9435579  67.0384193
  60.5942403  37.4912188  67.7639109  60.4839664  38.7461741  67.2222671
  60.7033595  37.9958137  67.1727696  76.4344223  39.1993297  66.2761584
  76.9297889  38.4816292  66.2365604  75.6243999  38.8964094  66.1616071
  76.3888117  39.0490943  66.2535309  71.8802835  43.0491110  58.4258588
  71.0714158  42.7257784  58.3791898  72.3877744  42.3424332  58.3586837
  71.8352502  42.8972426  58.4088882  62.5093112  40.4763303  64.1505952
  61.6438632  40.4648994  64.0388724  62.6091928  40.2893526  64.9977092
  62.3967279  40.4469364  64.2594897  78.4996042  41.9496984  68.9638712
  78.9251114  41.4271406  68.4109137  78.1352962  42.5477822  68.4427335
  78.5082645  41.9607211  68.8047722  68.1350122  50.2461202  67.7236058
  68.4496681  51.0597590  67.7313840  68.5443535  49.8611420  68.3918217
  68.2418220  50.3089904  67.8240150  75.0874642  45.6631248  65.2939870
  75.5585820  46.3771511  65.4629855  75.4234820  45.0629999  65.8299739
  75.2069757  45.6802713  65.3972246  71.0737251  32.4375132  59.7177430
  71.8952946  32.6073445  59.4759124  70.6106902  32.5922393  58.9943727
  71.1268414  32.4856865  59.5749074  69.6632583  30.4317894  70.4975858
  70.2076996  30.0909021  71.0880200  69.7169519  31.2903356  70.6397143
  69.7521703  30.5073153  70.6057732  65.4763142  44.1934310  67.3714666
  66.0807999  44.1530144  66.7428487  65.2690455  45.0405462  67.4018722
  65.5352039  44.3122313  67.2830783  60.7114424  43.1768928  67.2413589
  60.6138702  42.3665199  67.5503646  61.4943294  43.1560721  66.8559858
  60.8130561  43.0536018  67.2300452  77.7971082  51.7976604  55.9686627
  77.0829259  51.5114783  56.3809060  78.2815051  52.1373230  56.6093015
  77.7630445  51.8058253  56.1242262  69.7436492  53.5155692  63.4993499
  69.8296744  53.1387561  64.2807029  70.3712290  53.1416138  63.0213457
  69.8493043  53.4041174  63.5438976  76.9270413  50.4116575  60.7791102
  76.6395209  50.0417845  60.0423049  77.6140881  50.8811430  60.5174807
  76.9859310  50.4263544  60.6306177  74.4998608  51.1897787  61.6276383
  74.6014744  51.9923948  61.9557358  75.2954494  50.9885123  61.3299463
  74.6326513  51.2783686  61.6311738  74.7775662  53.8090997  62.8155777
  75.1574627  54.2275542  62.1516044  74.2031027  54.3904453  63.1224620
  74.7486987  53.9568856  62.7632518  75.9484326  55.4147403  60.7373908
  76.4576555  56.0111910  61.1185214  76.4218598  55.1473376  60.0550328
  76.0927702  55.4633218  60.6928431  78.3074858  52.0503661  63.6047089
  77.5886847  52.4667794  63.8719952  78.6787220  52.6157900  63.0538727
  78.2566789  52.1952943  63.5629896  57.0947046   8.6410991  49.0049989
  56.3429945   8.2626530  48.7766034  57.5433058   8.6729425  48.2568799
  57.0496713   8.5896598  48.8607491  62.5472006   9.0636361  44.4335536
  62.2123374   9.7413282  43.9979758  63.0598876   8.6741672  43.8452408
  62.5737587   9.1060939  44.2822327  62.0876297  11.0150629  50.3746647
  62.4715676  11.5837528  49.8351423  62.0235438  10.2900140  49.8952464
  62.1349724  10.9926093  50.2240510  58.6731802   8.6529383  51.2712761
  58.7742165   7.8429737  51.5809889  58.0773547   8.5586330  50.6412440
  58.6004341   8.5194411  51.2239000  58.5132542  13.5706973  52.6727617
  59.1569997  14.0120137  53.0623776  58.8388797  12.7660399  52.5857876
  58.6564370  13.5172167  52.7173095  51.8696846   4.6749670  50.8965095
  51.6347031   3.8417322  50.7897364  52.0082487   4.9554336  50.0826296
  51.8552509   4.5933173  50.7607450  59.2153121   6.5818947  48.0447479
  59.5368963   7.1224155  47.4408787  59.8625218   6.0115719  48.1769769
  59.3579177   6.5778123  47.9754514  53.4314171   9.5535341  52.1721301
  52.9481749  10.2785830  52.1480885  54.2437489   9.8511471  52.2831459
  53.4804919   9.7037694  52.1848580  59.5028325   8.3467521  54.7771116
  58.9855267   7.9874936  54.1732424  60.2002716   7.8229696  54.7877182
  59.5293906   8.2165209  54.6901374  63.1591917   8.7962336  60.7387289
  63.2475263   8.6088476  61.5865499  63.5881630   8.1499765  60.3392135
  63.2354019   8.6725343  60.8059040  60.7262377   8.0793495  59.7204951
  60.1633212   7.6666105  60.2444612  61.4883400   8.0046401  60.1398094
  60.7556826   8.0070896  59.8597951  56.2858368  10.0691517  52.3241581
  56.9878948   9.5543506  52.3814338  56.2055851  10.3965668  53.1288456
  56.3782129  10.0405743  52.4514373  55.6109144   6.2597869  51.8327189
  56.4498043   6.4920801  51.8800951  55.6420913   5.3902180  51.7634224
  55.7390861   6.1654815  51.8291834  56.2361847   6.6798744  56.1340495
  56.7760072   6.5369875  56.8043867  55.5531793   7.0795495  56.5024521
  56.2154001   6.7178415  56.2874916  63.2711976   8.2271355  63.4031072
  64.0552393   8.3402202  63.7686814  63.0708571   7.4012492  63.5989758
  63.3578002   8.1218074  63.4865458  63.4282370  10.1381457  57.0497528
  62.6297615   9.8980957  57.3071396  63.8768381  10.1895849  57.7964575
  63.3756981  10.1103848  57.1982452  52.0492406   3.6857814  53.5686660
  51.8667979   3.6604700  52.7158953  52.7842074   4.1556752  53.6075569
  52.1306469   3.7519176  53.4484579  58.3885465   5.9466604  50.6030602
  59.0259412   5.7078352  51.1482396  58.8140537   6.1503763  49.8683763
  58.5461632   5.9417614  50.5747760  53.0798108   8.1854941  54.4864906
  53.1202253   8.4569792  53.6584686  53.6392632   8.7096849  54.9022694
  53.1681454   8.3030696  54.4256794  60.7706937   6.4239027  52.2824389
  60.8445946   6.2614199  53.1366239  61.5876444   6.6129216  52.0384870
  60.9023296   6.4275769  52.3722414  54.5312694   6.7696890  49.3118832
  53.7050812   7.0158627  49.1853111  54.5924685   6.6908970  50.1780890
  54.4186861   6.7941839  49.4207777  59.3111523   9.3873770  47.0137862
  59.6009821   8.9962751  46.2897089  60.0415004   9.5690475  47.4543137
  59.4618407   9.3567584  46.9720669  57.2517439  11.3641152  50.0798012
  57.0317734  11.0738507  50.8724679  57.0311961  10.7056107  49.5515924
  57.1865033  11.2240861  50.1186920  59.4185394  12.7370542  48.8628704
  60.0709452  12.2046985  49.0919730  58.7211003  12.3839195  49.2496578
  59.4116112  12.6060065  48.9540872  56.3666659   5.0909720  48.2696078
  57.1212627   5.4722759  48.4831541  55.7737272   5.5420863  48.7242775
  56.3903373   5.2138547  48.3678957  57.6864886   6.2618281  53.6436194
  57.1645639   6.4018573  54.3288059  58.0738906   5.5028945  53.8338311
  57.6668587   6.1703805  53.7737270  63.8831891   8.0013740  47.6296763
  63.6418567   7.2681601  47.2223828  64.0633224   8.5500597  46.9763096
  63.8739515   7.9736132  47.4726986  58.2511371   9.9679061  56.7266049
  58.4000935   9.4081977  56.0739454  59.0311373  10.0471063  57.1098568
  58.3885465   9.8964627  56.6862998  60.7764672  10.1393704  58.0050540
  60.7008343   9.4702515  58.5601328  60.7054531  10.8411492  58.5191206
  60.7545279  10.1438611  58.1627388  61.4334919   8.6594703  48.8374146
  62.1984810   8.3904347  48.5156810  61.3313009   8.1744713  49.5544209
  61.5316414   8.5484268  48.8953974  60.1656306  13.5462024  56.4628541
  60.6552236  12.8472813  56.2804206  59.5940538  13.2485894  57.0504598
  60.1540836  13.3988248  56.5229582  60.6592652   7.2938797  45.5868447
  60.7285472   6.4353336  45.7261448  61.4381107   7.5110678  45.2587472
  60.7845502   7.1991661  45.5585605  65.0500139   9.7176499  49.8004941
  64.6579931   9.4143214  49.0827807  65.2053212  10.5545589  49.6109895
  65.0153729   9.7960335  49.6661438  58.0427137   6.4190037  58.3381013
  57.9347491   6.4292100  59.2043071  58.2522918   7.2444818  58.1485967
  58.0577248   6.5431112  58.4385105  65.8190445   9.1211991  53.2334975
  65.6210133   9.6102806  52.5391186  65.1978156   9.3253233  53.8119109
  65.6978009   9.2228530  53.2158198  53.3176791   5.3436777  56.9436867
  52.7876715   4.6529216  56.9931842  53.5901884   5.3346963  56.1149576
  53.2801513   5.2403909  56.8284283  48.5972633   2.0164541  54.3005215
  48.4916082   1.9711386  53.4357299  47.8472853   2.3618322  54.5819500
  48.4708236   2.0605450  54.2142545  61.9992951   6.0719927  57.8968667
  61.4918042   6.6255774  58.3409298  61.7019597   6.1328217  57.0787442
  61.8797835   6.1626238  57.8417124  64.6100731   9.9883185  45.8272611
  63.8930041   9.8144047  45.3619848  65.2607468   9.7535757  45.2948097
  64.6002581   9.9278977  45.6801829  61.2435436  11.0044485  54.8025674
  61.0201090  10.2463314  55.1709700  60.7545279  11.0342506  54.0806114
  61.1378885  10.8966710  54.7502415  59.8913893  11.2244943  52.2562759
  59.4774291  10.5619073  51.8666600  60.5761267  11.3722802  51.7358453
  59.9312264  11.1485601  52.1219256  63.2579187  10.3835029  53.0086375
  62.8595470  10.4937299  52.2407196  62.6430406  10.5917095  53.5912935
  63.1078076  10.4308597  52.9817675  56.8568362  11.6654025  54.6576105
  57.1714921  12.4790413  54.6653886  57.2661776  11.2804244  55.3258264
  56.9636460  11.7282727  54.7580196  54.1981382   5.6127133  54.3054713
  54.8026240   5.5722968  53.6768534  53.9908695   6.4598285  54.3358769
  54.2570280   5.7315136  54.2170830  64.0125155   7.8793079  55.5216950
  64.8323528   7.7356045  55.7833246  63.7319232   8.5039277  56.0633388
  64.0921898   7.9503431  55.6404890  49.4332665   4.5961751  54.1753636
  49.3356943   3.7858022  54.4843693  50.2161534   4.5753544  53.7899904
  49.5348801   4.4728841  54.1640499  73.6838490  14.6233581  53.2412757
  72.8276385  14.7842080  53.2921874  73.7306144  13.7525645  53.2617818
  73.5637601  14.5184383  53.2518823  68.0679630  24.1596299  49.0049989
  67.3162529  23.7811837  48.7766034  68.5165641  24.1914733  48.2568799
  68.0229296  24.1081906  48.8607491  73.5204589  24.5821669  44.4335536
  73.1855958  25.2598590  43.9979758  74.0331460  24.1926980  43.8452408
  73.5470171  24.6246247  44.2822327  73.0608881  26.5335937  50.3746647
  73.4448260  27.1022836  49.8351423  72.9968022  25.8085448  49.8952464
  73.1082308  26.5111401  50.2240510  76.5290311  16.6825625  55.8844409
  77.0746271  17.3610712  55.9438379  76.4707187  16.5413086  55.0245990
  76.6006225  16.7617627  55.7656469  69.6464386  24.1714691  51.2712761
  69.7474749  23.3615045  51.5809889  69.0506131  24.0771638  50.6412440
  69.5736924  24.0379719  51.2239000  69.4865125  29.0892280  52.6727617
  70.1302581  29.5305445  53.0623776  69.8121381  28.2845707  52.5857876
  69.6296954  29.0357475  52.7173095  62.8429430  20.1934978  50.8965095
  62.6079614  19.3602630  50.7897364  62.9815071  20.4739644  50.0826296
  62.8285092  20.1118481  50.7607450  65.1419517  12.3620709  53.7949403
  64.5224549  11.7713356  53.6259417  65.0403381  12.9532144  53.1613726
  65.0357193  12.3624791  53.6754392  70.1885705  22.1004255  48.0447479
  70.5101546  22.6409463  47.4408787  70.8357802  21.5301027  48.1769769
  70.3311760  22.0963430  47.9754514  72.2387413  14.1020250  48.1281866
  72.9367578  14.2808378  48.6203329  72.5539746  13.5790590  47.5052255
  72.3882750  14.0514022  48.1083876  64.8688650  15.9072990  56.0392972
  64.7447347  16.4935436  56.6742791  65.5206935  15.4133186  56.3405247
  64.9462300  15.9211795  56.1778901  72.4275348  20.4890695  48.1161657
  72.8668984  19.8807796  48.5616430  72.2780011  20.1098069  47.3447122
  72.4696814  20.3429166  48.0680825  69.8946991  19.0834707  55.3180483
  70.5395994  18.5907150  54.9991431  70.1348769  19.2259494  56.1446561
  70.0257577  19.0312149  55.3930016  72.4333083  21.9289613  54.9687375
  72.7156326  21.1341019  54.7474131  73.1619243  22.4070200  54.9892436
  72.5822647  21.8824210  54.9390390  70.4114277   9.4712647  52.2103140
  70.0817607   9.9223791  51.5406839  69.7359278   9.3928810  52.7576147
  70.2624713   9.5263782  52.1926364  76.0284685  18.8417877  45.0692426
  75.9435980  19.6978843  45.2141995  76.5169068  18.5662201  45.7374586
  76.0873582  18.9275198  45.1894508  76.9603118  15.4602671  46.5690162
  76.4314590  15.6762304  47.2287468  77.4828138  16.1538809  46.4891131
  76.9591571  15.5945808  46.6545761  68.8502726  19.3565888  45.3697630
  68.2659941  19.8615919  45.7763493  68.4472821  19.1308274  44.6294222
  68.7042030  19.3974136  45.3202655  64.4046755  25.0720649  52.1721301
  63.9214333  25.7971138  52.1480885  65.2170073  25.3696779  52.2831459
  64.4537502  25.2223002  52.1848580  70.4760909  23.8652829  54.7771116
  69.9587850  23.5060244  54.1732424  71.1735300  23.3415004  54.7877182
  70.5026490  23.7350517  54.6901374  74.1324501  24.3147643  60.7387289
  74.2207847  24.1273784  61.5865499  74.5614213  23.6685073  60.3392135
  74.2086603  24.1910651  60.8059040  71.6994960  23.5978803  59.7204951
  71.1365795  23.1851413  60.2444612  72.4615984  23.5231709  60.1398094
  71.7289409  23.5256204  59.8597951  73.3079940  15.6031540  43.8466550
  73.5475944  15.8109523  43.0341893  73.6295781  14.7989048  43.9555495
  73.3917098  15.5145641  43.7427103  67.2590952  25.5876825  52.3241581
  67.9611531  25.0728814  52.3814338  67.1788435  25.9150976  53.1288456
  67.3514712  25.5591051  52.4514373  68.3069858  15.8252412  61.4521996
  68.4790362  15.7158306  62.3007277  68.8439216  16.4706817  61.2153188
  68.4114862  15.9044413  61.5427093  66.9727295   9.9395254  44.3904201
  66.7902869  10.1567135  43.5645194  67.8352908  10.0534267  44.4462816
  67.0731885   9.9885152  44.2758688  66.5841727  21.7783177  51.8327189
  67.4230627  22.0106109  51.8800951  66.6153497  20.9087488  51.7634224
  66.7123445  21.6840123  51.8291834  67.2094430  22.1984052  56.1340495
  67.7492655  22.0555183  56.8043867  66.5264377  22.5980803  56.5024521
  67.1886584  22.2363723  56.2874916  76.6335315  17.8775052  51.3285519
  77.3892830  18.3106567  51.3674428  76.7397640  17.2279822  51.9020155
  76.7605486  17.8452536  51.4183545  74.2444560  23.7456662  63.4031072
  75.0284977  23.8587510  63.7686814  74.0441155  22.9197800  63.5989758
  74.3310585  23.6403382  63.4865458  62.6131575  18.4184343  56.2874916
  62.3469991  17.6023459  56.4465906  62.6270140  18.4637498  55.4170432
  62.5756298  18.3041247  56.1828398  66.5189322  13.2169427  42.9026674
  65.8047500  12.9307606  43.3149107  67.0033291  13.5566053  43.5433062
  66.4848686  13.2251077  43.0582309  67.3630182  11.9562721  58.9341924
  66.6701979  11.4859701  59.1802655  67.9790509  11.7301025  59.5083631
  67.3514712  11.8529853  59.0551076  74.4014953  25.6566765  57.0497528
  73.6030199  25.4166265  57.3071396  74.8500965  25.7081157  57.7964575
  74.3489565  25.6289156  57.1982452  73.6936640  21.7199381  43.2788482
  74.1087789  21.3884405  42.5872978  72.8628570  21.4868283  43.1508619
  73.6324649  21.6370637  43.1579330  63.0224989  19.2043122  53.5686660
  62.8400562  19.1790008  52.7158953  63.7574658  19.6742060  53.6075569
  63.1039053  19.2704484  53.4484579  66.0870741  15.9228125  60.0768769
  66.8110713  15.9081155  60.5633664  66.1886877  16.6323480  59.5790737
  66.2088950  16.0252828  60.0747556  76.1347009  16.1261201  49.2312732
  76.2293864  16.8650495  49.6852357  75.5105853  15.6978676  49.6647296
  76.0556039  16.1722521  49.3620879  74.3899483  19.3047413  59.8803013
  74.9638345  18.6674657  60.0351577  74.3114287  19.3051496  59.0112670
  74.4632718  19.2112525  59.7749424  62.9895899  16.0836623  53.7185727
  63.5669402  15.9473073  54.3577972  62.2909961  15.6272407  53.9731311
  62.9716921  15.9958889  53.8508017  76.3870030  17.9709940  42.4649684
  76.3050193  18.0412127  43.3304671  77.0249751  18.5339684  42.2733424
  76.4689868  18.0648911  42.5639633  69.7463202  17.7370678  51.9324210
  69.4882446  16.9042413  51.9055510  69.8011684  17.9628291  51.0916711
  69.7162979  17.6468450  51.8044347  68.7197914  15.2908441  52.4189105
  68.1447505  15.4500609  53.0553066  68.3433590  14.6543850  51.9557555
  68.5800726  15.2206254  52.4443663  72.3871202  13.7631790  57.2781483
  71.9985635  13.3386008  56.6233675  71.7225901  14.0113940  57.7858510
  72.2318130  13.7370511  57.2569351  58.4654733  14.9348516  50.4333546
  58.5514984  14.5580384  51.2147075  59.0930530  14.5608961  49.9553504
  58.5711284  14.8233998  50.4779023  73.4910141  17.9930395  45.4758290
  74.3050779  18.2845287  45.3641062  73.4269282  17.3390257  44.9016583
  73.6012880  17.9395589  45.3747128  69.3618049  21.4651912  50.6030602
  69.9991996  21.2263660  51.1482396  69.7873120  21.6689071  49.8683763
  69.5194215  21.4602922  50.5747760  64.0530691  23.7040249  54.4864906
  64.0934837  23.9755100  53.6584686  64.6125215  24.2282157  54.9022694
  64.1414037  23.8216004  54.4256794  70.0020864  16.6854202  44.9405492
  70.3866017  16.4661909  45.6922037  69.7532484  17.5117147  45.0706568
  70.0222937  16.7752348  45.0706568  71.7439521  21.9424335  52.2824389
  71.8178529  21.7799507  53.1366239  72.5609027  22.1314524  52.0384870
  71.8755879  21.9461077  52.3722414  65.5045278  22.2882198  49.3118832
  64.6783395  22.5343935  49.1853111  65.5657269  22.2094278  50.1780890
  65.3919445  22.3127147  49.4207777  67.7221301   8.3551139  50.2714272
  66.8543727   8.4273738  50.3371882  68.0096506   9.1573217  50.4602247
  67.6361049   8.4845286  50.3089039  70.2844107  24.9059078  47.0137862
  70.5742405  24.5148059  46.2897089  71.0147587  25.0875783  47.4543137
  70.4350991  24.8752892  46.9720669  70.8738852  19.7076824  58.0990993
  70.3750545  20.4192591  58.1775881  71.6839076  20.0277490  58.0609155
  70.9194958  19.8603672  58.1047561  68.2250022  26.8826460  50.0798012
  68.0050318  26.5923815  50.8724679  68.0044544  26.2241415  49.5515924
  68.1597616  26.7426169  50.1186920  67.1366969  18.9699777  52.3453713
  66.8480218  18.3437248  52.8799441  68.0050317  18.9120064  52.4118394
  67.2227221  18.8687321  52.4344668  77.9244867  14.1134560  52.6635695
  77.5809633  13.3924895  53.0142945  78.0237910  13.9048411  51.8214054
  77.8886910  13.9758763  52.5907375  70.3917978  28.2555850  48.8628704
  71.0442036  27.7232292  49.0919730  69.6943587  27.9024502  49.2496578
  70.3848696  28.1245373  48.9540872  67.3399243  20.6095028  48.2696078
  68.0945211  20.9908067  48.4831541  66.7469855  21.0606171  48.7242775
  67.3635956  20.7323855  48.3678957  78.3857896  20.5760264  48.2059683
  78.9515929  21.2353474  48.1218226  77.7385800  20.9209962  48.6776086
  78.3736653  20.7242205  48.2632440  68.6597469  21.7803589  53.6436194
  68.1378223  21.9203881  54.3288059  69.0471490  21.0214253  53.8338311
  68.6401170  21.6889113  53.7737270  65.6488653  11.8309398  47.7131149
  65.3613449  11.4610668  46.9763096  66.3359122  12.3004253  47.4514853
  65.7077551  11.8456367  47.5646224  74.8564474  23.5199048  47.6296763
  74.6151150  22.7866909  47.2223828  75.0365807  24.0685905  46.9763096
  74.8472098  23.4921440  47.4726986  70.0863795  18.8107608  49.0417685
  69.8906578  19.4182343  48.4477988  70.3098141  18.1175552  48.5609359
  70.0898436  18.7985134  48.8833766  68.4842325  15.6962346  49.1598553
  69.2064977  15.8603504  48.7002359  68.0050318  16.4172011  49.0537893
  68.5206056  15.8260576  49.0764167  76.4435833  12.0326145  54.5395238
  75.6046933  12.0587424  54.3033501  76.5140200  12.6796880  55.1200585
  76.3304226  12.1322271  54.5904355  66.1349942  18.1020418  58.2652693
  66.6471039  18.3804672  57.6161453  65.8486284  18.8409713  58.6315506
  66.1684805  18.2522772  58.2242571  63.2216848  12.6090610  48.5616430
  63.3232984  13.4116772  48.8897405  64.0172735  12.4077946  48.2639510
  63.3544754  12.6976509  48.5651785  69.6533667  10.1946807  58.3253735
  69.4616864  10.2101941  59.1753158  70.5032263  10.3910481  58.3020390
  69.7509389  10.2261158  58.4477029  64.0380580  12.7237789  56.3037551
  63.8966072  11.8721729  56.4282059  64.3221143  12.7666449  55.4799757
  64.0588426  12.6037539  56.2005175  74.1919172  14.5604879  50.4482039
  73.9453887  14.4800630  51.2818828  74.5204296  13.7758347  50.2544567
  74.2040416  14.4331144  50.5429563  78.0867221  21.2688238  54.2368821
  77.9481581  21.9669284  54.7417563  77.3067219  21.1136895  53.8805002
  77.9510448  21.3488405  54.2595095  70.1516200  17.2961597  59.8605023
  70.2959575  17.8762805  59.2248133  70.4991848  17.6737894  60.5654877
  70.2243661  17.4382301  59.8704017  72.3236117  16.4951766  57.6430154
  71.5759431  16.6882780  57.2378432  72.4777642  15.6696985  57.4054275
  72.2358545  16.4016877  57.5475560  69.2243955  25.4864369  56.7266049
  69.3733518  24.9267285  56.0739454  70.0043957  25.5656371  57.1098568
  69.3618048  25.4149935  56.6862998  71.7497255  25.6579012  58.0050540
  71.6740926  24.9887823  58.5601328  71.6787114  26.3596800  58.5191206
  71.7277862  25.6623919  58.1627388  72.5637894  10.3902316  58.5325558
  73.0210508  11.1226291  58.6598350  72.6394223   9.9668782  59.2912814
  72.6428864  10.4359554  58.6626634  64.8070885  10.6368136  59.6215002
  64.2713075  10.0248494  59.9375769  64.8688650  11.2116272  60.2748668
  64.7366518  10.6315064  59.7650428  72.4067502  24.1780011  48.8374146
  73.1717393  23.9089655  48.5156810  72.3045592  23.6930021  49.5544209
  72.5048998  24.0669576  48.8953974  70.4420272  12.3804420  55.3767382
  69.6516347  12.1995880  55.6984718  70.8380895  11.6031373  55.3597676
  70.3837148  12.2391881  55.4219930  74.9286163  21.2092195  40.8174095
  75.6959148  21.2692320  40.4079947  74.4817472  20.6372636  40.3330414
  74.9759590  21.1328770  40.6851806  75.8263958  20.0146851  53.1026828
  75.1508960  19.7832083  53.6040215  75.8356334  19.4068033  52.4768933
  75.7282463  19.8905776  53.0842980  72.9558102  14.8564679  59.8590881
  72.8917244  15.7174636  59.7311017  73.0955290  14.5396673  59.0586432
  72.9673572  14.9364846  59.7219094  77.8280693  22.8711983  45.3337006
  77.9100530  23.6778969  45.0098457  78.3130435  22.8907942  46.0577779
  77.9117851  22.9932645  45.3923904  71.6377196  17.5496819  54.0007084
  71.2139445  17.7501318  53.2646102  71.4622051  16.7025667  54.1131384
  71.5488077  17.4545600  53.9080774  71.1388890  29.0647332  56.4628541
  71.6284820  28.3658121  56.2804206  70.5673122  28.7671202  57.0504598
  71.1273420  28.9173555  56.5229582  66.9259641  18.0448870  49.4335056
  67.0824260  17.9795673  50.2891048  67.2660234  18.8197423  49.2213736
  66.9992876  18.1498068  49.5289650  73.4638786  17.4206754  48.3028419
  74.0054331  16.9177135  48.7667040  73.7785345  17.3671948  47.4917905
  73.5903183  17.3386175  48.2512232  71.6325235  22.8124105  45.5868447
  71.7018056  21.9538644  45.7261448  72.4113691  23.0295986  45.2587472
  71.7578086  22.7176969  45.5585605  74.6128055  12.3143058  58.3550720
  74.8270025  11.6753973  57.8014074  73.9961954  12.7588882  57.9258582
  74.5533384  12.2853202  58.2101151  76.0232723  25.2361807  49.8004941
  75.6312515  24.9328522  49.0827807  76.1785795  26.0730897  49.6109895
  75.9886313  25.3145643  49.6661438  63.4993903  15.2283821  49.7495823
  63.8792868  15.6468366  49.0856091  62.9249267  15.8097276  50.0564667
  63.4705228  15.3761680  49.6972564  76.1872398  21.8011795  49.7410971
  75.8287053  21.9726438  50.5175004  75.7011109  22.2625001  49.1838970
  76.0631095  21.8950767  49.7736240  70.9760763  17.4810961  42.2811206
  71.2653288  18.2575843  42.5554780  71.0632562  16.9699692  42.9825705
  71.0315019  17.5202879  42.4253704  77.3477137  22.6915691  60.6878172
  77.9856858  22.1975887  60.3540628  76.7051229  22.6193092  60.1030399
  77.3471364  22.6074700  60.5520527  77.4031394  23.3835500  57.3283529
  78.1923772  23.0324564  57.4485611  77.5774992  24.1971888  57.0660163
  77.5451675  23.4521357  57.3071397  67.1424704  16.7944225  54.3811318
  66.3012711  16.6948100  54.5890212  67.3514712  17.5639706  54.7325638
  67.0489397  16.8936269  54.4638633  64.6200271  14.4163762  52.2096068
  64.2256969  14.4906774  51.4346178  64.0640388  14.8021709  52.7604430
  64.4803084  14.4845537  52.1763728  70.9541369  14.7225625  53.6308915
  70.6504507  14.1681613  54.2319323  70.2520790  14.9017835  53.1436950
  70.8057579  14.6670407  53.6478621  70.0107466  12.0326144  48.1953617
  70.2867201  11.3145057  47.7831185  70.6106136  12.6311064  47.9874723
  70.1400731  12.0146515  48.1034378  69.0159720  21.9375345  58.3381013
  68.9080075  21.9477407  59.2043071  69.2255502  22.7630126  58.1485967
  69.0309831  22.0616420  58.4385105  67.0333512  19.1887988  55.8002951
  66.4421445  19.8297486  55.7705966  67.7954536  19.6125605  55.7734250
  67.0581773  19.3463826  55.7918098  67.4294135  10.3489985  56.4670968
  67.8895616  10.4228915  57.2046092  67.4750242  11.1471240  56.1170790
  67.5044690  10.4784133  56.5243725  69.0777485  11.0156680  61.0342995
  68.6863050  10.3690027  61.4698773  69.2463347  11.6068116  61.6537251
  69.0448395  11.0070948  61.1905701  76.7923028  24.6397299  53.2334975
  76.5942717  25.1288114  52.5391186  76.1710739  24.8438541  53.8119109
  76.6710593  24.7413838  53.2158198  70.8531007  16.4082196  47.5745219
  71.5973052  16.7956472  47.8128169  70.9991703  15.5639622  47.7385707
  70.9841592  16.3412669  47.6339189  73.8408883  11.9807669  53.4739139
  73.3668837  11.4549432  53.9844450  74.2127018  11.4337142  52.9054000
  73.8258771  11.8223666  53.4654286  64.2181913  13.9779176  58.8422685
  65.0807526  13.8774885  58.7560014  63.8873696  13.3973885  58.2808257
  64.2967109  13.8770803  58.7468090  75.7692382  12.8744224  46.5364893
  75.2415401  12.9572968  45.8470601  76.2288090  13.6162096  46.5329537
  75.7594233  12.9964886  46.4339588  67.5783699  12.8021625  55.5033103
  66.9536769  12.8140017  54.8959055  67.2429294  13.2781800  56.1524343
  67.4369190  12.8740142  55.5089671  67.7625447  11.1446744  41.5605788
  67.4138252  11.7966469  42.0237337  67.2821893  11.1303857  40.8329659
  67.6395691  11.2389797  41.5216879  64.2909374  20.8622085  56.9436867
  63.7609299  20.1714524  56.9931842  64.5634468  20.8532271  56.1149576
  64.2534097  20.7589217  56.8284283  75.3229465  21.4447788  45.6674550
  76.0463664  21.9105901  45.5239123  74.8830056  21.5121397  44.9172147
  75.3645157  21.5231624  45.5359331  74.4915620  18.3045330  56.9175239
  73.8772613  17.7603380  57.2123874  75.0082905  17.7909566  56.4381055
  74.4771282  18.1481739  56.8899467  73.7311917  19.3749600  54.6519537
  73.3039525  18.7499319  54.2184973  73.7236861  19.0924522  55.4778544
  73.6671058  19.2402381  54.7099365  66.8474444  14.4114773  57.7207971
  67.0067931  13.6558097  58.1259693  66.6667338  14.9605713  58.3748709
  66.8439803  14.3808587  57.8770677  72.0597627  10.2518354  54.8662071
  72.0840114   9.7178467  54.1774851  72.3109100   9.7435663  55.5287662
  72.1007545  10.0979258  54.8626716  59.5705216  17.5349849  54.3005215
  59.4648666  17.4896694  53.4357299  58.8205436  17.8803630  54.5819500
  59.4440819  17.5790758  54.2142545  68.3398949   8.9789173  54.2467816
  68.3797320   9.4798379  54.9602523  67.5148614   9.0699566  53.9773739
  68.2238475   9.0670989  54.3118354  70.5228562  18.5449913  62.3488110
  69.6724192  18.6821627  62.4845755  70.6856689  17.8113691  62.7935812
  70.4212425  18.4564014  62.4343709  69.7613312  15.4949683  56.5441715
  68.9305242  15.6623500  56.3376963  69.7064829  15.1185633  57.3290600
  69.6302727  15.4639414  56.6290243  68.1349356  13.7705274  47.0731832
  68.2752317  14.2677738  47.7760474  68.6331889  13.0691568  47.2146046
  68.2290437  13.7407253  47.1983411  68.1649578  14.6372385  44.4024409
  68.7994658  15.2332810  44.3373871  68.2475189  14.3375843  45.2170279
  68.2706129  14.6813293  44.5127496  69.7428561  10.5686360  44.3769851
  70.0644402  10.0889443  43.7229113  70.0055505  11.3786007  44.1860663
  69.8294587  10.6176258  44.2525343  72.9725534  21.5905235  57.8968667
  72.4650625  22.1441082  58.3409298  72.6752180  21.6513525  57.0787442
  72.8530419  21.6811546  57.8417124  64.6702566  16.8340226  47.6713955
  65.1794796  17.4304733  48.0525261  65.1436839  16.5666199  46.9890375
  64.8145942  16.8826041  47.6268478  75.5833314  25.5068493  45.8272611
  74.8662624  25.3329355  45.3619848  76.2340052  25.2721065  45.2948097
  75.5735165  25.4464285  45.6801829  78.1681286  14.3833081  49.5713916
  77.4972475  14.9262783  49.4426981  78.8621036  14.8527936  49.3295611
  78.1710153  14.5331352  49.5169444  72.2168019  26.5229793  54.8025674
  71.9933674  25.7648622  55.1709700  71.7277863  26.5527814  54.0806114
  72.1111468  26.4152018  54.7502415  67.0293098  13.4696484  50.5387136
  66.3105087  13.8860617  50.8059999  67.4005460  14.0350723  49.9878774
  66.9785030  13.6145766  50.4969943  76.3292679  14.1024333  56.4289131
  76.3090606  13.9207628  57.2823910  76.3771880  14.9736352  56.4048715
  76.3327320  14.2040872  56.5512426  74.2739009  20.6911525  62.3537608
  74.2334864  20.0461202  61.7682764  75.0862327  20.6348143  62.6663020
  74.3882162  20.5870492  62.3134557  70.8646476  26.7430251  52.2562759
  70.4506875  26.0804381  51.8666600  71.5493851  26.8908110  51.7358453
  70.9044848  26.6670909  52.1219256  74.2311770  25.9020336  53.0086375
  73.8328054  26.0122607  52.2407196  73.6162990  26.1102403  53.5912935
  74.0810660  25.9493904  52.9817675  72.8039672  12.5094484  45.8760515
  72.2104512  12.8311481  45.3245082  72.8414950  11.6635580  45.6681621
  72.7214062  12.4318813  45.7643286  75.6797489  12.4673989  49.3062265
  75.4511182  12.4906690  48.4640623  75.9395565  11.6431456  49.4257276
  75.6843677  12.3490069  49.1987463  69.9616717  14.3208462  58.9087365
  69.4495621  13.7129645  59.2672397  69.7896214  15.0365054  59.3761341
  69.8606354  14.3371761  59.0303589  64.8082432  12.7646037  61.5589727
  64.6385022  13.4247412  61.0137934  64.3648382  12.9752598  62.2802216
  64.7181766  12.8932019  61.5851357  68.7342252  11.0050535  50.6016461
  69.2099618  11.3667615  49.9666642  68.2330851  11.6607003  50.8816604
  68.7307610  11.1544724  50.5493202  61.7084497  15.6692903  56.8178217
  61.1611216  14.9993548  56.9359085  62.4976875  15.3022751  56.8821684
  61.7436680  15.5157889  56.8446918  71.5568905  15.3300360  62.3141628
  72.3080232  15.6452037  62.6281182  71.7491482  15.1279531  61.4875550
  71.6960319  15.3467742  62.2385024  70.7768905  13.1491735  43.9689845
  71.1567870  13.1671364  43.1840960  70.0361501  13.5945724  43.8480692
  70.7237742  13.2173510  43.8353413  60.4671466  14.8813711  53.9724240
  60.2893227  14.4290320  54.6979156  60.1790488  15.6839872  54.1562718
  60.3984419  14.9336268  54.1067743  76.1295047  16.1371428  53.2101630
  76.6248713  15.4194423  53.1705651  75.3194823  15.8342226  53.0956117
  76.0838941  15.9869074  53.1875356  71.5753659  19.9869241  45.3598635
  70.7664981  19.6635915  45.3131944  72.0828568  19.2802463  45.2926884
  71.5303326  19.8350558  45.3428929  62.2043936  17.4141434  51.0845999
  61.3389455  17.4027125  50.9728770  62.3042752  17.2271657  51.9317138
  62.0918103  17.3847496  51.1934944  78.1946866  18.8875115  55.8978759
  78.6201938  18.3649537  55.3449184  77.8303786  19.4855953  55.3767382
  78.2033469  18.8985342  55.7387769  67.8300946  27.1839333  54.6576105
  68.1447505  27.9975721  54.6653886  68.2394359  26.7989552  55.3258264
  67.9369044  27.2468035  54.7580196  74.7825466  22.6009380  52.2279917
  75.2536644  23.3149642  52.3969902  75.1185644  22.0008130  52.7639786
  74.9020581  22.6180844  52.3312293  75.4199412  22.3927314  58.9907609
  74.8720358  21.7685197  58.7227675  75.8812441  22.5821586  58.2751689
  75.4066621  22.3286364  58.8458040  70.7688075   9.3753263  46.6517476
  71.5903770   9.5451576  46.4099171  70.3057726   9.5300524  45.9283774
  70.8219238   9.4234996  46.5089121  65.1713966  21.1312441  54.3054713
  65.7758823  21.0908275  53.6768534  64.9641279  21.9783593  54.3358769
  65.2302863  21.2500444  54.2170830  74.9857738  23.3978387  55.5216950
  75.8056112  23.2541353  55.7833246  74.7051816  24.0224585  56.0633388
  75.0654482  23.4688739  55.6404890  60.4065248  20.1147059  54.1753636
  60.3089526  19.3043330  54.4843693  61.1894118  20.0938852  53.7899904
  60.5081385  19.9914149  54.1640499  73.8162014  35.7120286  50.8965095
  73.5812198  34.8787938  50.7897364  73.9547654  35.9924952  50.0826296
  73.8017676  35.6303789  50.7607450  76.1152101  27.8806016  53.7949403
  75.4957133  27.2898664  53.6259417  76.0135965  28.4717452  53.1613726
  76.0089777  27.8810099  53.6754392  75.8421234  31.4258298  56.0392972
  75.7179931  32.0120744  56.6742791  76.4939519  30.9318494  56.3405247
  75.9194883  31.4397103  56.1778901  75.3779338  40.5905957  52.1721301
  74.8946916  41.3156446  52.1480885  76.1902657  40.8882087  52.2831459
  75.4270086  40.7408310  52.1848580  78.2323536  41.1062133  52.3241581
  78.9344115  40.5914122  52.3814338  78.1521019  41.4336284  53.1288456
  78.3247296  41.0776359  52.4514373  77.9459879  25.4580562  44.3904201
  77.7635452  25.6752443  43.5645194  78.8085492  25.5719575  44.4462816
  78.0464468  25.5070460  44.2758688  77.5574311  37.2968485  51.8327189
  78.3963210  37.5291417  51.8800951  77.5886080  36.4272796  51.7634224
  77.6856029  37.2025431  51.8291834  78.1827014  37.7169360  56.1340495
  78.7225239  37.5740491  56.8043867  77.4996960  38.1166110  56.5024521
  78.1619168  37.7549031  56.2874916  73.5864159  33.9369650  56.2874916
  73.3202574  33.1208767  56.4465906  73.6002723  33.9822806  55.4170432
  73.5488881  33.8226555  56.1828398  77.4921906  28.7354735  42.9026674
  76.7780083  28.4492914  43.3149107  77.9765875  29.0751361  43.5433062
  77.4581269  28.7436385  43.0582309  78.3362765  27.4748029  58.9341924
  77.6434562  27.0045008  59.1802655  78.9523093  27.2486333  59.5083631
  78.3247295  27.3715161  59.0551076  73.9957573  34.7228430  53.5686660
  73.8133146  34.6975316  52.7158953  74.7307242  35.1927368  53.6075569
  74.0771637  34.7889792  53.4484579  77.0603324  31.4413433  60.0768769
  77.7843297  31.4266463  60.5633664  77.1619461  32.1508788  59.5790737
  77.1821533  31.5438136  60.0747556  73.9628483  31.6021931  53.7185727
  74.5401986  31.4658381  54.3577972  73.2642545  31.1457715  53.9731311
  73.9449504  31.5144197  53.8508017  69.4387316  30.4533823  50.4333546
  69.5247568  30.0765692  51.2147075  70.0663114  30.0794269  49.9553504
  69.5443867  30.3419306  50.4779023  75.0263275  39.2225557  54.4864906
  75.0667420  39.4940408  53.6584686  75.5857799  39.7467465  54.9022694
  75.1146621  39.3401312  54.4256794  76.4777861  37.8067505  49.3118832
  75.6515979  38.0529243  49.1853111  76.5389852  37.7279586  50.1780890
  76.3652028  37.8312454  49.4207777  76.6221237  27.3494706  47.7131149
  76.3346033  26.9795976  46.9763096  77.3091705  27.8189561  47.4514853
  76.6810134  27.3641675  47.5646224  77.1082525  33.6205726  58.2652693
  77.6203622  33.8989980  57.6161453  76.8218868  34.3595020  58.6315506
  77.1417388  33.7708080  58.2242571  74.1949432  28.1275918  48.5616430
  74.2965568  28.9302080  48.8897405  74.9905318  27.9263254  48.2639510
  74.3277337  28.2161817  48.5651785  75.0113164  28.2423096  56.3037551
  74.8698655  27.3907037  56.4282059  75.2953727  28.2851757  55.4799757
  75.0321010  28.1222846  56.2005175  75.7803469  26.1553444  59.6215002
  75.2445658  25.5433802  59.9375769  75.8421234  26.7301580  60.2748668
  75.7099102  26.1500372  59.7650428  77.8992225  33.5634178  49.4335056
  78.0556844  33.4980981  50.2891048  78.2392818  34.3382731  49.2213736
  77.9725460  33.6683376  49.5289650  74.4726486  30.7469129  49.7495823
  74.8525451  31.1653674  49.0856091  73.8981851  31.3282584  50.0564667
  74.4437811  30.8946987  49.6972564  78.1157288  32.3129533  54.3811318
  77.2745294  32.2133408  54.5890212  78.3247296  33.0825014  54.7325638
  78.0221980  32.4121577  54.4638633  75.5932855  29.9349070  52.2096068
  75.1989552  30.0092082  51.4346178  75.0372972  30.3207017  52.7604430
  75.4535667  30.0030845  52.1763728  78.0066096  34.7073296  55.8002951
  77.4154029  35.3482794  55.7705966  78.7687119  35.1310913  55.7734250
  78.0314356  34.8649134  55.7918098  78.4026718  25.8675293  56.4670968
  78.8628200  25.9414223  57.2046092  78.4482825  26.6656547  56.1170790
  78.4777274  25.9969440  56.5243725  75.1914496  29.4964484  58.8422685
  76.0540109  29.3960193  58.7560014  74.8606279  28.9159193  58.2808257
  75.2699693  29.3956111  58.7468090  78.5516282  28.3206933  55.5033103
  77.9269352  28.3325325  54.8959055  78.2161877  28.7967108  56.1524343
  78.4101774  28.3925450  55.5089671  78.7358031  26.6632052  41.5605788
  78.3870835  27.3151777  42.0237337  78.2554477  26.6489165  40.8329659
  78.6128275  26.7575105  41.5216879  75.2641958  36.3807393  56.9436867
  74.7341882  35.6899832  56.9931842  75.5367051  36.3717579  56.1149576
  75.2266680  36.2774525  56.8284283  77.8207028  29.9300081  57.7207971
  77.9800514  29.1743405  58.1259693  77.6399921  30.4791020  58.3748709
  77.8172387  29.8993895  57.8770677  70.5437800  33.0535157  54.3005215
  70.4381249  33.0082002  53.4357299  69.7938020  33.3988938  54.5819500
  70.4173403  33.0976066  54.2142545  75.6435150  32.3525534  47.6713955
  76.1527379  32.9490041  48.0525261  76.1169422  32.0851507  46.9890375
  75.7878526  32.4011349  47.6268478  78.0025682  28.9881792  50.5387136
  77.2837671  29.4045925  50.8059999  78.3738044  29.5536031  49.9878774
  77.9517613  29.1331074  50.4969943  75.7815016  28.2831345  61.5589727
  75.6117606  28.9432720  61.0137934  75.3380966  28.4937906  62.2802216
  75.6914349  28.4117327  61.5851357  72.6817080  31.1878211  56.8178217
  72.1343800  30.5178856  56.9359085  73.4709458  30.8208059  56.8821684
  72.7169264  31.0343197  56.8446918  71.4404050  30.3999018  53.9724240
  71.2625811  29.9475627  54.6979156  71.1523072  31.2025180  54.1562718
  71.3717003  30.4521576  54.1067743  73.1776520  32.9326742  51.0845999
  72.3122039  32.9212433  50.9728770  73.2775335  32.7456965  51.9317138
  73.0650687  32.9032803  51.1934944  76.1446550  36.6497749  54.3054713
  76.7491407  36.6093583  53.6768534  75.9373862  37.4968901  54.3358769
  76.2035447  36.7685752  54.2170830  71.3797832  35.6332367  54.1753636
  71.2822110  34.8228638  54.4843693  72.1626702  35.6124160  53.7899904
  71.4813968  35.5099457  54.1640499  73.5112838  12.6498417  37.8305142
  73.2763022  11.8166069  37.7237411  73.6498478  12.9303083  37.0166343
  73.4968500  12.5681920  37.6947497  75.0730162  17.5284088  39.1061348
  74.5897740  18.2534577  39.0820932  75.8853480  17.8260218  39.2171506
  75.1220910  17.6786441  39.1188627  77.9274359  18.0440264  39.2581628
  78.6294939  17.5292253  39.3154384  77.8471843  18.3714415  40.0628503
  78.0198120  18.0154490  39.3854420  77.2525135  14.2346616  38.7667236
  78.0914034  14.4669548  38.8140997  77.2836904  13.3650927  38.6974271
  77.3806852  14.1403562  38.7631881  77.8777838  14.6547491  43.0680541
  78.4176063  14.5118622  43.7383914  77.1947784  15.0544242  43.4364568
  77.8569992  14.6927162  43.2214963  73.2814983  10.8747782  43.2214963
  73.0153398  10.0586898  43.3805953  73.2953547  10.9200937  42.3510478
  73.2439705  10.7604686  43.1168445  73.6908397  11.6606561  40.5026707
  73.5083970  11.6353447  39.6498999  74.4258066  12.1305499  40.5415616
  73.7722461  11.7267923  40.3824626  74.7214099  16.1603688  41.4204953
  74.7618244  16.4318539  40.5924733  75.2808623  16.6845596  41.8362741
  74.8097445  16.2779443  41.3596841  76.1728685  14.7445637  36.2458879
  75.3466803  14.9907374  36.1193158  76.2340676  14.6657718  37.1120937
  76.0602852  14.7690586  36.3547823  78.8933430  19.3389899  37.0138059
  78.6733725  19.0487254  37.8064726  78.6727952  18.6804854  36.4855971
  78.8281024  19.1989608  37.0526967  78.0082650  13.0658467  35.2036125
  78.7628618  13.4471506  35.4171588  77.4153263  13.5169611  35.6582822
  78.0319364  13.1887294  35.3019004  77.7016920  11.6451427  42.7342998
  77.1104853  12.2860925  42.7046013  78.4637943  12.0689044  42.7074297
  77.7265180  11.8027265  42.7258145  74.9592782  13.3185524  43.8776914
  74.4292706  12.6277963  43.9271889  75.2317875  13.3095710  43.0489622
  74.9217504  13.2152656  43.7624330  70.2388624   9.9913289  41.2345262
  70.1332073   9.9460133  40.3697346  69.4888844  10.3367069  41.5159547
  70.1124227  10.0354197  41.1482592  78.4984353  19.6402772  41.5916151
  78.8130912  20.4539160  41.5993933  78.9077767  19.2552991  42.2598311
  78.6052451  19.7031474  41.6920243  75.8397374  13.5875880  41.2394760
  76.4442231  13.5471715  40.6108581  75.6324686  14.4347032  41.2698816
  75.8986271  13.7063883  41.1510876  71.0748656  12.5710498  41.1093683
  70.9772934  11.7606769  41.4183740  71.8577526  12.5502291  40.7239951
  71.1764792  12.4477588  41.0980546  26.6139773  30.3497707  74.3445094
  26.5833777  31.2042344  74.5163363  27.2121121  30.0493000  74.9031237
  26.6976930  30.4314204  74.4519896  14.1980597  38.9736076  74.8635256
  13.4463497  38.5951614  74.6351301  14.6466609  39.0054510  74.1154066
  14.1530264  38.9221683  74.7192758  19.6505557  39.3961446  70.2920803
  19.3156925  40.0738367  69.8565025  20.1632427  39.0066757  69.7037674
  19.6771138  39.4386024  70.1407594  19.1909848  41.3475714  76.2331914
  19.5749228  41.9162613  75.6936690  19.1268989  40.6225225  75.7537730
  19.2383275  41.3251178  76.0825777  24.4356347  32.9250009  72.6163404
  24.3195873  33.6757695  73.0455542  25.2312234  32.6673963  72.8659491
  24.5360936  32.9984856  72.7167495  15.6166093  43.9032057  78.5312884
  16.2603548  44.3445222  78.9209043  15.9422348  43.0985484  78.4443143
  15.7597922  43.8497252  78.5758361  16.3186673  36.9144032  73.9032746
  16.6402514  37.4549240  73.2994054  16.9658769  36.3440804  74.0355036
  16.4612728  36.9103207  73.8339781  22.1585653  33.6557654  70.9277693
  22.0736948  34.5118620  71.0727262  22.6470036  33.3801978  71.5959852
  22.2174550  33.7414975  71.0479775  23.0904086  30.2742448  72.4275428
  22.5615557  30.4902081  73.0872735  23.6129106  30.9678586  72.3476398
  23.0892539  30.4085585  72.5131028  28.5452139  35.8488752  77.8008473
  27.7149842  36.0599396  77.9641889  28.4961391  35.0225807  77.5250757
  28.4158874  35.7578359  77.7845838  14.9803694  34.1705665  71.2282896
  14.3960909  34.6755696  71.6348760  14.5773789  33.9448051  70.4879488
  14.8342997  34.2113913  71.1787922  19.4380908  30.4171317  69.7051817
  19.6776912  30.6249300  68.8927160  19.7596749  29.6128825  69.8140762
  19.5218066  30.3285418  69.6012370  25.8016454  36.5188107  77.9373189
  25.3651686  36.5224849  78.6932160  25.4679369  37.1993606  77.5052766
  25.6879074  36.6200562  77.9854021  12.6490290  28.0309204  68.7611941
  11.9348467  27.7447383  69.1734374  13.1334259  28.3705830  69.4018328
  12.6149653  28.0390854  68.9167576  28.9360800  33.2369027  76.8292826
  29.5977234  32.6759695  76.7288734  28.2952212  32.7421057  77.1545517
  28.9389668  33.0805436  76.8625166  19.8237608  36.5339158  69.1373749
  20.2388756  36.2024182  68.4458245  18.9929537  36.3008060  69.0093886
  19.7625617  36.4510414  69.0164597  25.2225631  34.2534409  76.5704815
  25.4581220  34.3979608  75.7431665  25.3715194  35.0176817  76.9636328
  25.2791434  34.3873463  76.5068419  27.0516088  33.0936075  74.4074419
  27.3824305  33.6263715  73.8014513  27.6249176  33.1474963  75.0636370
  27.1849767  33.1805644  74.4152200  22.5170998  32.7849717  68.3234951
  22.4351161  32.8551904  69.1889938  23.1550718  33.3479461  68.1318691
  22.5990835  32.8788688  68.4224900  19.6211108  32.8070172  71.3343557
  20.4351747  33.0985064  71.2226328  19.5570249  32.1530034  70.7601850
  19.7313847  32.7535366  71.2332394  16.1321831  31.4993979  70.7990759
  16.5166984  31.2801686  71.5507304  15.8833452  32.3256924  70.9291835
  16.1523904  31.5892125  70.9291835  16.4145074  39.7198855  72.8723129
  16.7043373  39.3287836  72.1482355  17.1448555  39.9015560  73.3128404
  16.5651958  39.6892669  72.8305936  14.3550990  41.6966237  75.9383279
  14.1351285  41.4063592  76.7309946  14.1345512  41.0381192  75.4101191
  14.2898584  41.5565946  75.9772187  24.5158864  35.3900041  74.0644950
  25.0816896  36.0493251  73.9803493  23.8686767  35.7349739  74.5361352
  24.5037620  35.5381982  74.1217707  20.9865442  38.3338825  73.4882029
  20.7452118  37.6006686  73.0809094  21.1666775  38.8825682  72.8348363
  20.9773066  38.3061217  73.3312252  25.7121562  35.4406269  70.8570587
  25.3328370  34.6543407  70.8499876  25.0487807  35.9893126  70.7142231
  25.5580036  35.4051093  70.8351384  18.5368470  38.9919788  74.6959413
  19.3018361  38.7229432  74.3742077  18.4346560  38.5069798  75.4129476
  18.6349965  38.8809353  74.7539241  21.0587130  36.0231972  66.6759362
  21.8260115  36.0832097  66.2665214  20.6118439  35.4512413  66.1915681
  21.1060558  35.9468547  66.5437073  23.9581660  37.6851760  71.1922273
  24.0401498  38.4918746  70.8683723  24.4431403  37.7047719  71.9163046
  24.0418818  37.8072422  71.2509171  19.5939753  32.2346531  74.1613686
  20.1355299  31.7316912  74.6252307  19.9086312  32.1811725  73.3503172
  19.7204150  32.1525952  74.1097498  17.7626203  37.6263882  71.4453714
  17.8319023  36.7678421  71.5846715  18.5414658  37.8435763  71.1172739
  17.8879053  37.5316746  71.4170872  22.1533691  40.0501584  75.6590208
  21.7613482  39.7468299  74.9413074  22.3086763  40.8870674  75.4695161
  22.1187280  40.1285420  75.5246705  22.3173365  36.6151572  75.5996238
  21.9588020  36.7866215  76.3760271  21.8312076  37.0764778  75.0424237
  22.1932062  36.7090544  75.6321507  17.1061731  32.2950738  68.1396473
  17.3954256  33.0715620  68.4140047  17.1933530  31.7839469  68.8410972
  17.1615987  32.3342656  68.2838970  22.9223996  39.4537076  79.0920242
  22.7243684  39.9427891  78.3976453  22.3011707  39.6578318  79.6704375
  22.8011560  39.5553615  79.0743465  21.8993350  27.6884001  72.3950159
  21.3716368  27.7712745  71.7055868  22.3589058  28.4301872  72.3914804
  21.8895200  27.8104663  72.2924855  13.8926415  25.9586521  67.4191055
  13.5439219  26.6106246  67.8822604  13.4122861  25.9443634  66.6914926
  13.7696659  26.0529574  67.3802146  21.4530432  36.2587565  71.5259816
  22.1764631  36.7245678  71.3824390  21.0131023  36.3261174  70.7757413
  21.4946124  36.3371401  71.3944598  14.2950546  29.4512162  70.2609676
  14.9295625  30.0472587  70.1959138  14.3776157  29.1515620  71.0755546
  14.4007097  29.4953070  70.3712762  21.7134282  40.3208270  71.6857878
  20.9963592  40.1469132  71.2205115  22.3641020  40.0860842  71.1533364
  21.7036132  40.2604062  71.5387095  16.9947444  41.5570028  78.1148026
  16.5807842  40.8944158  77.7251867  17.6794818  41.7047887  77.5943720
  17.0345816  41.4810686  77.9804523  20.3612738  40.7160113  78.8671642
  19.9629021  40.8262384  78.0992462  19.7463958  40.9242180  79.4498202
  20.2111627  40.7633681  78.8402941  28.0954581  35.2912080  72.2514733
  28.4788186  36.0403436  72.4812830  27.2998694  35.5377900  71.9926722
  28.0348363  35.4381774  72.2472306  16.9069872  27.9631512  69.8275112
  17.2868837  27.9811141  69.0426226  16.1662468  28.4085501  69.7065959
  16.8538710  28.0313287  69.6938680  17.7054626  34.8009018  71.2183902
  16.8965949  34.4775692  71.1717211  18.2129535  34.0942240  71.1512150
  17.6604293  34.6490335  71.2014196  37.5872356  45.8683015  74.3445094
  37.5566360  46.7227652  74.5163363  38.1853705  45.5678308  74.9031237
  37.6709514  45.9499512  74.4519896  30.7872041  44.9558666  79.0998024
  29.9309936  45.1167164  79.1507141  30.8339695  44.0850730  79.1203085
  30.6671152  44.8509468  79.1104090  25.1713181  54.4921384  74.8635256
  24.4196080  54.1136922  74.6351301  25.6199192  54.5239818  74.1154066
  25.1262847  54.4406991  74.7192758  30.6238141  54.9146754  70.2920803
  30.2889509  55.5923675  69.8565025  31.1365011  54.5252065  69.7037674
  30.6503722  54.9571332  70.1407594  30.1642432  56.8661022  76.2331914
  30.5481811  57.4347921  75.6936690  30.1001573  56.1410533  75.7537730
  30.2115859  56.8436486  76.0825777  33.6323862  47.0150710  81.7429676
  34.1779822  47.6935797  81.8023645  33.5740738  46.8738171  80.8831257
  33.7039776  47.0942712  81.6241736  26.7497937  54.5039776  77.1298028
  26.8508300  53.6940130  77.4395156  26.1539682  54.4096723  76.4997707
  26.6770475  54.3704804  77.0824267  35.4088931  48.4435317  72.6163404
  35.2928457  49.1943003  73.0455542  36.2044817  48.1859271  72.8659491
  35.5093520  48.5170164  72.7167495  26.5898676  59.4217365  78.5312884
  27.2336132  59.8630529  78.9209043  26.9154932  58.6170792  78.4443143
  26.7330505  59.3682560  78.5758361  19.9462981  50.5260063  76.7550362
  19.7113166  49.6927715  76.6482631  20.0848622  50.8064728  75.9411563
  19.9318644  50.4443566  76.6192717  22.2453069  42.6945793  79.6534670
  21.6258100  42.1038441  79.4844684  22.1436932  43.2857229  79.0198993
  22.1390744  42.6949876  79.5339659  27.2919256  52.4329340  73.9032746
  27.6135097  52.9734548  73.2994054  27.9391353  51.8626112  74.0355036
  27.4345311  52.4288515  73.8339781  29.3420964  44.4345335  73.9867133
  30.0401129  44.6133463  74.4788596  29.6573297  43.9115675  73.3637522
  29.4916301  44.3839107  73.9669143  21.9722202  46.2398075  81.8978238
  21.8480898  46.8260521  82.5328057  22.6240486  45.7458271  82.1990513
  22.0495851  46.2536880  82.0364168  29.5308900  50.8215780  73.9746924
  29.9702535  50.2132881  74.4201697  29.3813562  50.4423154  73.2032389
  29.5730365  50.6754251  73.9266091  26.9980543  49.4159792  81.1765750
  27.6429545  48.9232235  80.8576698  27.2382320  49.5584579  82.0031828
  27.1291128  49.3637234  81.2515283  29.5366634  52.2614698  80.8272642
  29.8189877  51.4666104  80.6059398  30.2652794  52.7395285  80.8477703
  29.6856198  52.2149295  80.7975657  27.5147828  39.8037732  78.0688407
  27.1851158  40.2548875  77.3992106  26.8392830  39.7253895  78.6161414
  27.3658264  39.8588867  78.0511631  33.1318236  49.1742962  70.9277693
  33.0469531  50.0303928  71.0727262  33.6202619  48.8987286  71.5959852
  33.1907133  49.2600283  71.0479775  34.7224236  35.7923255  76.3138018
  34.4077677  36.4826733  76.7458440  34.2051177  35.7368037  75.6123519
  34.5988706  35.8858143  76.2734967  34.0636669  45.7927756  72.4275428
  33.5348141  46.0087389  73.0872735  34.5861689  46.4863894  72.3476398
  34.0625122  45.9270893  72.5131028  39.5184722  51.3674060  77.8008473
  38.6882425  51.5784704  77.9641889  39.4693975  50.5411115  77.5250757
  39.3891458  51.2763666  77.7845838  25.9536277  49.6890972  71.2282896
  25.3693492  50.1941004  71.6348760  25.5506372  49.4633359  70.4879488
  25.8075581  49.7299221  71.1787922  21.5080306  55.4045734  78.0306568
  21.0247884  56.1296223  78.0066152  22.3203624  55.7021864  78.1416726
  21.5571053  55.5548087  78.0433847  27.5794460  54.1977914  80.6356382
  27.0621401  53.8385329  80.0317691  28.2768851  53.6740089  80.6462449
  27.6060041  54.0675602  80.5486641  30.4113492  45.9356625  69.7051817
  30.6509495  46.1434608  68.8927160  30.7329333  45.1314133  69.8140762
  30.4950649  45.8470726  69.6012370  25.7203782  37.8650020  73.5511355
  26.4749750  38.2328337  73.3128405  25.5431316  38.2389575  74.3190535
  25.8058260  37.9748208  73.6296243  24.3624503  55.9201910  78.1826848
  25.0645082  55.4053899  78.2399604  24.2821986  56.2476061  78.9873723
  24.4548263  55.8916136  78.3099640  39.0138681  44.0144461  81.5958894
  38.1767102  44.0846648  81.8306489  38.9826911  44.0168956  80.7233197
  38.8856963  44.0254688  81.5018442  24.0760846  40.2720339  70.2489468
  23.8936420  40.4892220  69.4230461  24.9386459  40.3859352  70.3048082
  24.1765436  40.3210237  70.1343955  23.6875278  52.1108261  77.6912456
  24.5264178  52.3431194  77.7386217  23.7187048  51.2412573  77.6219491
  23.8156996  52.0165208  77.6877101  24.3127981  52.5309137  81.9925761
  24.8526206  52.3880268  82.6629134  23.6297928  52.9305887  82.3609788
  24.2920135  52.5688808  82.1460183  29.7560566  37.2746750  73.2838492
  30.4846726  37.0962705  72.8376648  29.8455459  38.1164830  73.4945670
  29.8767228  37.3730628  73.2492009  33.7368866  48.2100137  77.1870786
  34.4926381  48.6431652  77.2259694  33.8431191  47.5604907  77.7605422
  33.8639037  48.1777621  77.2768811  36.7749037  52.0373415  77.9373189
  36.3384269  52.0410157  78.6932160  36.4411953  52.7178914  77.5052766
  36.6611657  52.1385870  77.9854021  36.6946520  39.0787242  80.1802617
  37.3372429  39.1485347  80.7664532  36.9469541  38.4116465  79.6782159
  36.8268652  38.9913591  80.1929896  23.6222874  43.5494512  68.7611941
  22.9081051  43.2632691  69.1734374  24.1066842  43.8891138  69.4018328
  23.5882237  43.5576162  68.9167576  39.9093384  48.7554334  76.8292826
  40.5709818  48.1945003  76.7288734  39.2684796  48.2606365  77.1545517
  39.9122251  48.5990743  76.8625166  30.7970191  52.0524466  69.1373749
  31.2121340  51.7209490  68.4458245  29.9662121  51.8193368  69.0093886
  30.7358200  51.9695722  69.0164597  20.1258540  49.5368207  79.4271927
  19.9434113  49.5115093  78.5744219  20.8608209  50.0067145  79.4660836
  20.2072604  49.6029569  79.3069846  36.1958214  49.7719717  76.5704815
  36.4313804  49.9164916  75.7431665  36.3447778  50.5362125  76.9636328
  36.2524018  49.9058771  76.5068419  38.0248671  48.6121383  74.4074419
  38.3556888  49.1449023  73.8014513  38.5981759  48.6660271  75.0636370
  38.1582350  48.6990952  74.4152200  33.2380560  46.4586286  75.0897999
  33.3327415  47.1975580  75.5437624  32.6139404  46.0303761  75.5232563
  33.1589590  46.5047606  75.2206146  20.0929451  46.4161708  79.5770994
  20.6702953  46.2798158  80.2163239  19.3943512  45.9597492  79.8316578
  20.0750472  46.3283974  79.7093283  33.4903582  48.3035025  68.3234951
  33.4083744  48.3737212  69.1889938  34.1283302  48.8664769  68.1318691
  33.5723419  48.3973996  68.4224900  26.8496753  48.0695763  77.7909477
  26.5915997  47.2367498  77.7640776  26.9045236  48.2953376  76.9501977
  26.8196531  47.9793534  77.6629614  31.9297803  40.1724214  77.8913570
  31.2254130  39.6833399  78.0497489  31.9782777  40.1846688  77.0202014
  31.8327854  40.1013862  77.7852909  25.8231465  45.6233526  78.2774372
  25.2481056  45.7825694  78.9138333  25.4467141  44.9868935  77.8142822
  25.6834277  45.5531339  78.3028930  29.4904754  44.0956875  83.1366750
  29.1019186  43.6711093  82.4818941  28.8259452  44.3439025  83.6443777
  29.3351681  44.0695596  83.1154618  39.1328023  43.8531880  75.9114580
  38.8764587  43.0411821  75.7212463  39.9757337  43.8609447  75.6844767
  39.2194048  43.7343877  75.8499397  15.5688284  45.2673600  76.2918812
  15.6548536  44.8905469  77.0732342  16.1964081  44.8934046  75.8138771
  15.6744835  45.1559083  76.3364290  33.3131115  37.7931504  80.6490734
  33.6941627  37.1109675  81.0358609  32.5094399  37.5041106  80.4666399
  33.2507577  37.6498552  80.6794790  30.5943692  48.3255480  71.3343557
  31.4084331  48.6170372  71.2226328  30.5302833  47.6715342  70.7601850
  30.7046431  48.2720674  71.2332394  26.4651600  51.7976997  76.4615869
  27.1025547  51.5588745  77.0067663  26.8906672  52.0014156  75.7269030
  26.6227766  51.7928007  76.4333027  27.1054415  47.0179287  70.7990759
  27.4899568  46.7986994  71.5507304  26.8566035  47.8442232  70.9291835
  27.1256488  47.1077433  70.9291835  28.8473072  52.2749420  78.1409655
  28.9212080  52.1124592  78.9951505  29.6642578  52.4639609  77.8970137
  28.9789431  52.2786162  78.2307681  22.6078829  52.6207282  75.1704099
  21.7816946  52.8669020  75.0438378  22.6690820  52.5419363  76.0366157
  22.4952996  52.6452231  75.2793043  24.8254852  38.6876223  76.1299539
  23.9577278  38.7598823  76.1957148  25.1130057  39.4898302  76.3187514
  24.7394601  38.8170371  76.1674306  33.9487741  38.8354083  84.4610861
  34.6941333  38.6463893  84.0474286  33.5325046  39.3612321  83.9024717
  33.9972715  38.8856228  84.3175434  27.3877658  55.2384163  72.8723129
  27.6775956  54.8473144  72.1482355  28.1181139  55.4200868  73.3128404
  27.5384542  55.2077976  72.8305936  41.3250012  46.2063311  79.4116366
  41.8757934  45.5731380  79.6513458  41.3094127  46.7378704  80.1031870
  41.4035208  46.1912260  79.5495224  27.9772403  50.0401909  83.9576259
  27.4784097  50.7517676  84.0361148  28.7872627  50.3602575  83.9194422
  28.0228510  50.1928757  83.9632828  25.3283573  57.2151545  75.9383279
  25.1083869  56.9248900  76.7309946  25.1078095  56.5566500  75.4101191
  25.2631167  57.0751253  75.9772187  24.2400520  49.3024862  78.2038980
  23.9513769  48.6762333  78.7384708  25.1083869  49.2445149  78.2703661
  24.3260772  49.2012406  78.2929935  35.0278418  44.4459645  78.5220962
  34.6843184  43.7249980  78.8728212  35.1271461  44.2373496  77.6799320
  34.9920461  44.3083848  78.4492642  27.4951529  58.5880935  74.7213971
  28.1475587  58.0557377  74.9504997  26.7977138  58.2349587  75.1081845
  27.4882247  58.4570458  74.8126139  24.4432794  50.9420113  74.1281345
  25.1978762  51.3233152  74.3416808  23.8503407  51.3931256  74.5828042
  24.4669507  51.0648940  74.2264224  35.4891447  50.9085349  74.0644950
  36.0549480  51.5678559  73.9803493  34.8419351  51.2535047  74.5361352
  35.4770204  51.0567290  74.1217707  25.7631020  52.1128674  79.5021461
  25.2411774  52.2528966  80.1873325  26.1505041  51.3539338  79.6923578
  25.7434721  52.0214198  79.6322537  22.7522204  42.1634483  73.5716415
  22.4647000  41.7935753  72.8348363  23.4392673  42.6329338  73.3100120
  22.8111102  42.1781452  73.4231491  31.9598025  53.8524133  73.4882029
  31.7184701  53.1191994  73.0809094  32.1399358  54.4010990  72.8348363
  31.9505649  53.8246524  73.3312252  27.1897346  49.1432693  74.9002952
  26.9940129  49.7507428  74.3063255  27.4131692  48.4500637  74.4194626
  27.1931987  49.1310219  74.7419033  25.5875876  46.0287431  75.0183820
  26.3098528  46.1928589  74.5587626  25.1083869  46.7497096  74.9123160
  25.6239607  46.1585661  74.9349434  33.5469384  42.3651230  80.3980505
  32.7080484  42.3912509  80.1618768  33.6173751  43.0121965  80.9785852
  33.4337777  42.4647356  80.4489622  31.9938662  39.2636607  75.1308121
  32.6965015  39.0644355  74.6528079  31.7282851  38.4912549  75.4376964
  32.0585294  39.1199573  75.1053563  37.4226908  47.5719217  77.6841747
  37.3360882  47.7274643  78.5376526  36.9677387  48.2157292  77.3101152
  37.3430164  47.6894972  77.7548854  20.3250399  42.9415695  74.4201696
  20.4266536  43.7441857  74.7482672  21.1206286  42.7403031  74.1224777
  20.4578305  43.0301594  74.4237052  31.2952724  44.8929964  76.3067306
  31.0487438  44.8125715  77.1404095  31.6237847  44.1083431  76.1129834
  31.3073967  44.7656229  76.4014829  35.1900772  51.6013323  80.0954088
  35.0515132  52.2994369  80.6002830  34.4100770  51.4461979  79.7390269
  35.0543999  51.6813490  80.1180362  27.2549751  47.6286682  85.7190289
  27.3993127  48.2087890  85.0833399  27.6025399  48.0062979  86.4240144
  27.3277212  47.7707386  85.7289284  29.4269668  46.8276851  83.5015421
  28.6792982  47.0207865  83.0963699  29.5811193  46.0022070  83.2639542
  29.3392096  46.7341962  83.4060827  26.3277506  55.8189454  82.5851316
  26.4767070  55.2592370  81.9324721  27.1077508  55.8981456  82.9683835
  26.4651599  55.7475020  82.5448265  36.6854145  50.9591577  70.8570587
  36.3060954  50.1728715  70.8499876  36.0220391  51.5078434  70.7142231
  36.5312620  50.9236401  70.8351384  34.1398771  33.9017277  78.2604668
  34.2582339  34.3593740  77.5271970  33.9660947  33.0962538  77.9740885
  34.1317942  33.8511049  78.1105601  29.5101053  54.5105096  74.6959413
  30.2750944  54.2414740  74.3742077  29.4079143  54.0255106  75.4129476
  29.6082549  54.3994660  74.7539241  27.5453823  42.7129505  81.2352649
  26.7549898  42.5320965  81.5569985  27.9414446  41.9356458  81.2182943
  27.4870699  42.5716966  81.2805197  32.0319714  51.5417280  66.6759362
  32.7992699  51.6017405  66.2665214  31.5851023  50.9697721  66.1915681
  32.0793141  51.4653855  66.5437073  32.9297509  50.3471935  78.9612095
  32.2542511  50.1157168  79.4625482  32.9389886  49.7393118  78.3354200
  32.8316014  50.2230861  78.9428247  30.0591653  45.1889764  85.7176148
  29.9950795  46.0499721  85.5896284  30.1988841  44.8721758  84.9171699
  30.0707123  45.2689931  85.5804360  34.9314244  53.2037068  71.1922273
  35.0134081  54.0104054  70.8683723  35.4163986  53.2233027  71.9163046
  35.0151402  53.3257730  71.2509171  28.7410747  47.8821904  79.8592351
  28.3172996  48.0826403  79.1231369  28.5655602  47.0350752  79.9716650
  28.6521628  47.7870685  79.7666041  24.0293192  48.3773955  75.2920323
  24.1857811  48.3120758  76.1476315  24.3693785  49.1522508  75.0799003
  24.1026427  48.4823153  75.3874917  30.5672337  47.7531839  74.1613686
  31.1087882  47.2502220  74.6252307  30.8818896  47.6997033  73.3503172
  30.6936734  47.6711260  74.1097498  28.7358787  53.1449190  71.4453714
  28.8051607  52.2863729  71.5846715  29.5147242  53.3621071  71.1172739
  28.8611637  53.0502054  71.4170872  31.7161606  42.6468143  84.2135987
  31.9303576  42.0079057  83.6599341  31.0995505  43.0913967  83.7843848
  31.6566936  42.6178287  84.0686418  33.1266274  55.5686892  75.6590208
  32.7346066  55.2653607  74.9413074  33.2819346  56.4055982  75.4695161
  33.0919864  55.6470728  75.5246705  20.6027454  45.5608906  75.6081090
  20.9826419  45.9793451  74.9441358  20.0282819  46.1422361  75.9149934
  20.5738779  45.7086764  75.5557831  33.8800694  44.2557208  85.1519294
  33.0677376  43.9483099  85.2332467  34.3390629  43.7756209  85.7162006
  33.8281079  44.1393701  85.2473888  33.2905949  52.1336880  75.5996238
  32.9320604  52.3051523  76.3760271  32.8044660  52.5950086  75.0424237
  33.1664646  52.2275851  75.6321507  31.1076335  35.7568079  79.2023330
  30.2369893  35.7306800  79.1556639  31.3616676  35.5845271  78.3849175
  31.0169895  35.7278223  79.0743466  28.0794314  47.8136046  68.1396473
  28.3686839  48.5900928  68.4140047  28.1666113  47.3024777  68.8410972
  28.1348571  47.8527964  68.2838970  28.1325475  37.7674307  80.6596800
  27.6163964  37.0754499  80.7848379  27.5719404  38.4345084  80.6059399
  27.9731989  37.7637565  80.6702866  36.1767688  44.8729922  81.1129355
  35.7495296  44.7856271  80.3577454  35.5393741  44.9807698  81.6984199
  36.0197296  44.8762582  81.0874796  24.2458255  47.1269310  80.2396585
  23.4046262  47.0273185  80.4475478  24.4548263  47.8964791  80.5910905
  24.1522948  47.2261354  80.3223900  21.7233822  44.7488847  78.0681335
  21.3290520  44.8231859  77.2931445  21.1673939  45.1346794  78.6189697
  21.5836635  44.8170622  78.0348995  33.3598769  37.7270141  77.7485214
  33.5648362  37.6592449  78.5942211  33.0325193  38.5328963  77.6806392
  33.3414017  37.8356082  77.8644869  28.0574920  45.0550710  79.4894182
  27.7538058  44.5006698  80.0904590  27.3554341  45.2342920  79.0022216
  27.9091130  44.9995492  79.5063888  27.1141017  42.3651229  74.0538884
  27.3900752  41.6470142  73.6416452  27.7139687  42.9636149  73.8459990
  27.2434282  42.3471600  73.9619645  36.6132457  38.2801906  77.2287980
  36.0006770  38.7672308  77.6141712  36.7096632  37.6045396  77.7725631
  36.5370354  38.2520214  77.3666838  30.6151538  40.0364747  72.3285479
  31.0695284  40.2075307  73.0533324  31.0891584  39.4232857  71.9283255
  30.7519858  39.9715632  72.3759241  24.1367063  49.5213073  81.6588218
  23.5454996  50.1622571  81.6291233  24.8988087  49.9450690  81.6319517
  24.1615324  49.6788911  81.6503365  33.8956579  54.9722384  79.0920242
  33.6976268  55.4613199  78.3976453  33.2744290  55.1763626  79.6704375
  33.7744144  55.0738923  79.0743465  27.9564558  46.7407281  73.4330486
  28.7006603  47.1281557  73.6713436  28.1025254  45.8964706  73.5970974
  28.0875143  46.6737754  73.4924456  29.8744133  38.5357540  78.4662348
  29.0280178  38.7080348  78.3403698  29.8715266  37.7306884  78.8028176
  29.7491283  38.4418569  78.4973475  30.9442434  42.3132754  79.3324406
  30.4702388  41.7874516  79.8429717  31.3160569  41.7662227  78.7639267
  30.9292323  42.1548751  79.3239553  37.2079164  47.3735130  80.7431186
  36.9677387  46.5341545  80.7473613  37.6871171  47.4535297  81.4671960
  37.2431348  47.2616530  80.8505988  32.8725933  43.2069309  72.3950159
  32.3448952  43.2898053  71.7055868  33.3321641  43.9487180  72.3914804
  32.8627784  43.3289971  72.2924855  39.2084351  44.1536587  78.6960445
  38.9694121  44.1132421  77.8581230  39.3718252  45.0007739  78.8226166
  39.1974655  44.2728672  78.5913927  24.6817250  43.1346710  81.3618370
  24.0570320  43.1465102  80.7544322  24.3462845  43.6106885  82.0109610
  24.5402742  43.2065227  81.3674938  24.8658998  41.4771829  67.4191055
  24.5171803  42.1291554  67.8822604  24.3855444  41.4628942  66.6914926
  24.7429242  41.5714882  67.3802146  32.4263016  51.7772873  71.5259816
  33.1497215  52.2430986  71.3824390  31.9863607  51.8446482  70.7757413
  32.4678708  51.8556709  71.3944598  31.5949171  48.6370415  82.7760505
  30.9806164  48.0928465  83.0709141  32.1116456  48.1234651  82.2966322
  31.5804833  48.4806824  82.7484734  30.8345468  49.7074685  80.5104804
  30.4073076  49.0824403  80.0770239  30.8270412  49.4249607  81.3363811
  30.7704609  49.5727465  80.5684632  29.1631178  40.5843439  80.7247338
  29.1873665  40.0503552  80.0360118  29.4142651  40.0760748  81.3872929
  29.2041096  40.4304343  80.7211983  25.4432500  39.3114258  80.1053082
  25.4830872  39.8123464  80.8187790  24.6182165  39.4024651  79.8359005
  25.3272026  39.3996074  80.1703621  26.8646863  45.8274767  82.4026981
  26.0338793  45.9948585  82.1962230  26.8098381  45.4510718  83.1875867
  26.7336278  45.7964499  82.4875510  25.2382907  44.1030359  72.9317099
  25.3785868  44.6002823  73.6345740  25.7365440  43.4016653  73.0731313
  25.3323988  44.0732338  73.0568678  25.2683130  44.9697470  70.2609676
  25.9028209  45.5657895  70.1959138  25.3508740  44.6700928  71.0755546
  25.3739681  45.0138378  70.3712762  26.8462112  40.9011445  70.2355118
  27.1677953  40.4214528  69.5814380  27.1089056  41.7111091  70.0445930
  26.9328138  40.9501343  70.1110610  30.0759085  51.9230320  83.7553934
  29.5684176  52.4766167  84.1994565  29.7785731  51.9838610  82.9372709
  29.9563970  52.0136631  83.7002391  32.2421267  40.2883639  82.5978597
  32.6676339  39.8356166  81.9862123  31.6278260  39.7343710  82.8743384
  32.2149913  40.1397616  82.5483622  21.7736117  47.1665311  73.5299222
  22.2828347  47.7629818  73.9110527  22.2470390  46.8991284  72.8475642
  21.9179493  47.2151126  73.4853745  32.6866865  55.8393577  71.6857878
  31.9696175  55.6654440  71.2205115  33.3373603  55.6046150  71.1533364
  32.6768716  55.7789370  71.5387095  30.6815490  36.7598739  76.0069174
  30.0383808  36.6096386  76.5754312  30.3414897  36.5141084  75.2418279
  30.5360568  36.7010862  75.9772189  35.2714837  44.7158166  75.4299183
  34.6006027  45.2587868  75.3012248  35.9654587  45.1853021  75.1880877
  35.2743704  44.8656437  75.3754710  29.3201570  56.8554878  80.6610941
  29.0967225  56.0973707  81.0294967  28.8311414  56.8852899  79.9391381
  29.2145019  56.7477103  80.6087682  35.4342964  41.1714050  78.3389556
  35.7870574  40.7443773  79.0135355  34.5757766  41.0864893  78.4690632
  35.3592409  41.0958790  78.4584566  24.1326649  43.8021569  76.3972402
  23.4138638  44.2185702  76.6645266  24.5039011  44.3675808  75.8464041
  24.0818581  43.9470851  76.3555209  33.4326230  44.4349418  82.2874398
  33.4124157  44.2532713  83.1409177  33.4805431  45.3061437  82.2633982
  33.4360871  44.5365956  82.4097693  27.9680027  57.0755336  78.1148026
  27.5540426  56.4129466  77.7251867  28.6527402  57.2233195  77.5943720
  28.0078399  56.9995994  77.9804523  31.3345322  56.2345421  78.8671642
  30.9361605  56.3447692  78.0992462  30.7196541  56.4427488  79.4498202
  31.1844211  56.2818989  78.8402941  29.9073224  42.8419569  71.7345782
  29.3138063  43.1636566  71.1830349  29.9448501  41.9960665  71.5266888
  29.8247613  42.7643897  71.6228553  36.8667024  36.2932461  79.2673868
  36.3597889  35.5861601  79.1995046  37.6634458  35.9625650  79.3974945
  36.9094263  36.1405613  79.2772863  32.7831040  42.7999074  75.1647532
  32.5544733  42.8231775  74.3225890  33.0429116  41.9756541  75.2842543
  32.7877228  42.6815154  75.0572730  25.8375803  41.3375620  76.4601728
  26.3133169  41.6992700  75.8251909  25.3364402  41.9932088  76.7401870
  25.8341162  41.4869809  76.4078469  39.0687164  50.8097388  72.2514733
  39.4520770  51.5588744  72.4812830  38.2731278  51.0563208  71.9926722
  39.0080946  50.9567082  72.2472306  27.8802456  43.4816820  69.8275112
  28.2601421  43.4996449  69.0426226  27.1395052  43.9270809  69.7065959
  27.8271294  43.5498594  69.6938680  35.5087746  41.7899011  75.4150690
  35.5081973  41.6347668  76.2734967  35.3043926  42.6361998  75.3592076
  35.4787524  41.8919632  75.5338630  17.5705017  45.2138795  79.8309507
  17.3926778  44.7615404  80.5564423  17.2824039  46.0164957  80.0147984
  17.5017970  45.2661353  79.9653010  33.2328598  46.4696513  79.0686897
  33.7282264  45.7519508  79.0290918  32.4228374  46.1667310  78.9541384
  33.1872492  46.3194159  79.0460623  28.6787210  50.3194326  71.2183902
  27.8698533  49.9961000  71.1717211  29.1862119  49.6127548  71.1512150
  28.6336877  50.1675642  71.2014196  19.3077487  47.7466519  76.9431266
  18.4423007  47.7352210  76.8314037  19.4076303  47.5596742  77.7902405
  19.1951654  47.7172580  77.0520210  35.2980417  49.2200200  81.7564026
  35.7235489  48.6974622  81.2034451  34.9337337  49.8181038  81.2352649
  35.3067020  49.2310427  81.5973036  24.9334497  57.5164418  80.5161372
  25.2481056  58.3300806  80.5239153  25.3427910  57.1314636  81.1843531
  25.0402595  57.5793120  80.6165463  31.8859017  52.9334465  78.0865183
  32.3570195  53.6474727  78.2555169  32.2219195  52.3333215  78.6225053
  32.0054132  52.9505929  78.1897559  35.3326827  40.7937753  82.2344068
  34.7489816  41.2946960  81.8221636  35.6531121  40.2867309  81.6008392
  35.2940003  40.7929588  82.0802576  27.8721626  39.7078348  72.5102743
  28.6937321  39.8776661  72.2684438  27.4091277  39.8625609  71.7869041
  27.9252789  39.7560081  72.3674388  22.2747517  51.4637526  80.1639980
  22.8792375  51.4233360  79.5353801  22.0674830  52.3108678  80.1944036
  22.3336414  51.5825529  80.0756096  32.0891289  53.7303471  81.3802217
  32.9089663  53.5866437  81.6418512  31.8085367  54.3549670  81.9218655
  32.1688033  53.8013823  81.4990157  40.3153548  59.9530643  73.9867133
  41.0133712  60.1318771  74.4788596  40.6305880  59.4300982  73.3637522
  40.4648885  59.9024415  73.9669143  38.4880411  55.3223040  78.0688407
  38.1583741  55.7734183  77.3992106  37.8125413  55.2439203  78.6161414
  38.3390848  55.3774175  78.0511631  45.6956819  51.3108563  76.3138018
  45.3810260  52.0012041  76.7458440  45.1783761  51.2553345  75.6123519
  45.5721290  51.4043451  76.2734967  36.9268861  65.2076280  71.2282896
  36.3426076  65.7126312  71.6348760  36.5238956  64.9818667  70.4879488
  36.7808165  65.2484529  71.1787922  41.3846075  61.4541932  69.7051817
  41.6242079  61.6619916  68.8927160  41.7061916  60.6499441  69.8140762
  41.4683233  61.3656034  69.6012370  36.6936365  53.3835328  73.5511355
  37.4482333  53.7513645  73.3128405  36.5163900  53.7574883  74.3190535
  36.7790844  53.4933516  73.6296243  35.0493430  55.7905647  70.2489468
  34.8669003  56.0077528  69.4230461  35.9119043  55.9044660  70.3048082
  35.1498020  55.8395545  70.1343955  40.7293149  52.7932058  73.2838492
  41.4579310  52.6148013  72.8376648  40.8188042  53.6350138  73.4945670
  40.8499811  52.8915936  73.2492009  34.5955457  59.0679820  68.7611941
  33.8813634  58.7817999  69.1734374  35.0799426  59.4076446  69.4018328
  34.5614820  59.0761469  68.9167576  41.7702775  67.5709774  69.1373749
  42.1853924  67.2394798  68.4458245  40.9394705  67.3378676  69.0093886
  41.7090784  67.4881030  69.0164597  44.4636165  63.8220333  68.3234951
  44.3816328  63.8922520  69.1889938  45.1015886  64.3850077  68.1318691
  44.5456003  63.9159304  68.4224900  26.5420867  60.7858908  76.2918812
  26.6281119  60.4090777  77.0732342  27.1696665  60.4119354  75.8138771
  26.6477418  60.6744391  76.3364290  41.5676275  63.8440788  71.3343557
  42.3816914  64.1355680  71.2226328  41.5035417  63.1900650  70.7601850
  41.6779014  63.7905982  71.2332394  38.0786999  62.5364595  70.7990759
  38.4632151  62.3172301  71.5507304  37.8298619  63.3627540  70.9291835
  38.0989071  62.6262741  70.9291835  35.7987436  54.2061531  76.1299539
  34.9309861  54.2784131  76.1957148  36.0862640  55.0083610  76.3187514
  35.7127184  54.3355678  76.1674306  33.7254788  57.6819791  73.5716415
  33.4379584  57.3121061  72.8348363  34.4125256  58.1514646  73.3100120
  33.7843685  57.6966760  73.4231491  36.5608460  61.5472739  75.0183820
  37.2831112  61.7113897  74.5587626  36.0816452  62.2682404  74.9123160
  36.5972190  61.6770968  74.9349434  42.9671246  54.7821915  75.1308121
  43.6697598  54.5829663  74.6528079  42.7015434  54.0097857  75.4376964
  43.0317878  54.6384881  75.1053563  31.2982983  58.4601003  74.4201696
  31.3999119  59.2627165  74.7482672  32.0938869  58.2588339  74.1224777
  31.4310888  58.5486902  74.4237052  45.1131355  49.4202584  78.2604668
  45.2314923  49.8779048  77.5271970  44.9393530  48.6147846  77.9740885
  45.1050526  49.3696357  78.1105601  43.0052297  67.0602588  66.6759362
  43.7725283  67.1202712  66.2665214  42.5583606  66.4883029  66.1915681
  43.0525725  66.9839163  66.5437073  31.5760037  61.0794214  75.6081090
  31.9559002  61.4978758  74.9441358  31.0015402  61.6607669  75.9149934
  31.5471362  61.2272072  75.5557831  42.0808918  51.2753387  79.2023330
  41.2102476  51.2492108  79.1556639  42.3349260  51.1030579  78.3849175
  41.9902479  51.2463531  79.0743466  39.0526898  63.3321354  68.1396473
  39.3419423  64.1086236  68.4140047  39.1398697  62.8210085  68.8410972
  39.1081154  63.3713272  68.2838970  38.0873601  57.8836537  74.0538884
  38.3633335  57.1655450  73.6416452  38.6872270  58.4821457  73.8459990
  38.2166865  57.8656908  73.9619645  41.5884121  55.5550055  72.3285479
  42.0427868  55.7260615  73.0533324  42.0624167  54.9418165  71.9283255
  41.7252441  55.4900940  72.3759241  38.9297141  62.2592589  73.4330486
  39.6739186  62.6466865  73.6713436  39.0757838  61.4150014  73.5970974
  39.0607726  62.1923062  73.4924456  40.8476717  54.0542848  78.4662348
  40.0012762  54.2265656  78.3403698  40.8447849  53.2492192  78.8028176
  40.7223867  53.9603877  78.4973475  43.8458517  58.7254617  72.3950159
  43.3181535  58.8083361  71.7055868  44.3054225  59.4672488  72.3914804
  43.8360367  58.8475279  72.2924855  35.8391582  56.9957137  67.4191055
  35.4904386  57.6476862  67.8822604  35.3588028  56.9814250  66.6914926
  35.7161826  57.0900190  67.3802146  36.2115491  59.6215667  72.9317099
  36.3518452  60.1188131  73.6345740  36.7098024  58.9201961  73.0731313
  36.3056572  59.5917646  73.0568678  36.2415713  60.4882778  70.2609676
  36.8760793  61.0843203  70.1959138  36.3241324  60.1886236  71.0755546
  36.3472264  60.5323686  70.3712762  37.8194696  56.4196753  70.2355118
  38.1410537  55.9399836  69.5814380  38.0821640  57.2296399  70.0445930
  37.9060721  56.4686651  70.1110610  32.7468701  62.6850619  73.5299222
  33.2560930  63.2815126  73.9110527  33.2202973  62.4176592  72.8475642
  32.8912077  62.7336434  73.4853745  41.6548074  52.2784047  76.0069174
  41.0116392  52.1281693  76.5754312  41.3147481  52.0326392  75.2418279
  41.5093151  52.2196170  75.9772189  35.1059233  59.3206877  76.3972402
  34.3871222  59.7371010  76.6645266  35.4771595  59.8861116  75.8464041
  35.0551165  59.4656159  76.3555209  40.8805807  58.3604877  71.7345782
  40.2870646  58.6821874  71.1830349  40.9181085  57.5145973  71.5266888
  40.7980196  58.2829205  71.6228553  36.8108386  56.8560928  76.4601728
  37.2865752  57.2178008  75.8251909  36.3096986  57.5117396  76.7401870
  36.8073745  57.0055117  76.4078469  38.8535039  59.0002128  69.8275112
  39.2334004  59.0181757  69.0426226  38.1127635  59.4456117  69.7065959
  38.8003877  59.0683902  69.6938680  39.6519793  65.8379634  71.2183902
  38.8431116  65.5146308  71.1717211  40.1594702  65.1312856  71.1512150
  39.6069460  65.6860950  71.2014196  30.2810071  63.2651827  76.9431266
  29.4155590  63.2537518  76.8314037  30.3808887  63.0782050  77.7902405
  30.1684238  63.2357888  77.0520210  38.8454210  55.2263656  72.5102743
  39.6669904  55.3961969  72.2684438  38.3823861  55.3810917  71.7869041
  38.8985372  55.2745389  72.3674388  26.3090596   7.2875838  61.2785140
  26.2784601   8.1420475  61.4503410  26.9071945   6.9871131  61.8371284
  26.3927754   7.3692335  61.3859943  13.8931421  15.9114207  61.7975302
  13.1414321  15.5329746  61.5691348  14.3417433  15.9432641  61.0494113
  13.8481088  15.8599814  61.6532805  19.3456381  16.3339577  57.2260850
  19.0107749  17.0116498  56.7905072  19.8583251  15.9444888  56.6377721
  19.3721962  16.3764155  57.0747641  18.8860672  18.2853846  63.1671961
  19.2700052  18.8540744  62.6276736  18.8219813  17.5603356  62.6877777
  18.9334099  18.2629309  63.0165824  24.1307171   9.8628140  59.5503450
  24.0146697  10.6135827  59.9795588  24.9263058   9.6052094  59.7999537
  24.2311760   9.9362987  59.6507542  15.3116917  20.8410189  65.4652931
  15.9554372  21.2823353  65.8549089  15.6373172  20.0363615  65.3783190
  15.4548745  20.7875383  65.5098408  16.0137496  13.8522164  60.8372793
  16.3353338  14.3927371  60.2334101  16.6609593  13.2818935  60.9695082
  16.1563552  13.8481339  60.7679828  18.2527140  12.2408603  60.9086971
  18.6920775  11.6325704  61.3541744  18.1031803  11.8615977  60.1372436
  18.2948606  12.0947075  60.8606138  21.8536477  10.5935785  57.8617740
  21.7687772  11.4496751  58.0067309  22.3420860  10.3180109  58.5299899
  21.9125374  10.6793106  57.9819822  22.7854910   7.2120579  59.3615475
  22.2566381   7.4280212  60.0212781  23.3079930   7.9056717  59.2816445
  22.7843363   7.3463716  59.4471074  28.2402963  12.7866883  64.7348520
  27.4100666  12.9977527  64.8981936  28.1912215  11.9603938  64.4590803
  28.1109698  12.6956490  64.7185885  14.6754518  11.1083796  58.1622943
  14.0911733  11.6133827  58.5688807  14.2724613  10.8826183  57.4219535
  14.5293821  11.1492044  58.1127968  19.1331732   7.3549448  56.6391864
  19.3727736   7.5627432  55.8267207  19.4547573   6.5506956  56.7480808
  19.2168890   7.2663549  56.5352417  25.4967278  13.4566238  64.8713236
  25.0602510  13.4602980  65.6272207  25.1630193  14.1371737  64.4392813
  25.3829898  13.5578694  64.9194068  28.6311624  10.1747158  63.7632873
  29.2928058   9.6137826  63.6628781  27.9903036   9.6799188  64.0885564
  28.6340492  10.0183567  63.7965213  19.5188432  13.4717289  56.0713796
  19.9339580  13.1402313  55.3798292  18.6880361  13.2386191  55.9433933
  19.4576441  13.3888545  55.9504643  24.9176455  11.1912540  63.5044862
  25.1532044  11.3357739  62.6771712  25.0666018  11.9554948  63.8976375
  24.9742258  11.3251594  63.4408465  26.7466911  10.0314206  61.3414465
  27.0775129  10.5641846  60.7354560  27.3200000  10.0853094  61.9976416
  26.8800591  10.1183775  61.3492247  22.2121822   9.7227849  55.2574997
  22.1301984   9.7930036  56.1229984  22.8501542  10.2857592  55.0658738
  22.2941659   9.8166820  55.3564947  19.3161932   9.7448303  58.2683604
  20.1302571  10.0363196  58.1566375  19.2521073   9.0908165  57.6941897
  19.4264671   9.6913498  58.1672441  15.8272655   8.4372110  57.7330805
  16.2117808   8.2179817  58.4847350  15.5784276   9.2635055  57.8631882
  15.8474728   8.5270256  57.8631882  16.1095898  16.6576986  59.8063176
  16.3994196  16.2665967  59.0822402  16.8399379  16.8393691  60.2468451
  16.2602782  16.6270800  59.7645983  14.0501814  18.6344368  62.8723325
  13.8302109  18.3441723  63.6649992  13.8296336  17.9759323  62.3441238
  13.9849408  18.4944077  62.9112234  16.2169769  20.0073758  61.6554018
  16.8693827  19.4750201  61.8845044  15.5195378  19.6542411  62.0421892
  16.2100487  19.8763281  61.7466186  24.2109688  12.3278172  60.9984997
  24.7767720  12.9871382  60.9143540  23.5637591  12.6727870  61.4701399
  24.1988444  12.4760114  61.0557754  20.6816266  15.2716957  60.4222076
  20.4402942  14.5384817  60.0149141  20.8617599  15.8203814  59.7688410
  20.6723890  15.2439348  60.2652299  25.4072386  12.3784400  57.7910634
  25.0279194  11.5921538  57.7839923  24.7438631  12.9271257  57.6482278
  25.2530860  12.3429224  57.7691430  18.2319294  15.9297919  61.6299460
  18.9969185  15.6607563  61.3082124  18.1297384  15.4447929  62.3469523
  18.3300789  15.8187484  61.6879287  20.7537954  12.9610103  53.6099409
  21.5210939  13.0210228  53.2005261  20.3069263  12.3890544  53.1255728
  20.8011382  12.8846679  53.4777119  23.6532484  14.6229891  58.1262319
  23.7352322  15.4296877  57.8023770  24.1382227  14.6425850  58.8503093
  23.7369642  14.7450553  58.1849218  17.4577027  14.5642014  58.3793761
  17.5269847  13.7056552  58.5186762  18.2365482  14.7813894  58.0512786
  17.5829877  14.4694877  58.3510918  21.8484515  16.9879715  62.5930254
  21.4564306  16.6846430  61.8753121  22.0037587  17.8248805  62.4035208
  21.8138104  17.0663552  62.4586752  22.0124189  13.5529704  62.5336285
  21.6538844  13.7244347  63.3100317  21.5262900  14.0142909  61.9764283
  21.8882886  13.6468675  62.5661554  16.8012555   9.2328869  55.0736519
  17.0905080  10.0093752  55.3480094  16.8884354   8.7217600  55.7751019
  16.8566811   9.2720787  55.2179017  22.6174820  16.3915208  66.0260289
  22.4194508  16.8806022  65.3316500  21.9962531  16.5956449  66.6044422
  22.4962384  16.4931746  66.0083512  21.5944174   4.6262132  59.3290206
  21.0667192   4.7090876  58.6395915  22.0539882   5.3680004  59.3254851
  21.5846024   4.7482795  59.2264901  21.1481256  13.1965696  58.4599863
  21.8715455  13.6623809  58.3164437  20.7081847  13.2639305  57.7097460
  21.1896948  13.2749533  58.3284645  21.4085106  17.2586401  58.6197924
  20.6914416  17.0847263  58.1545162  22.0591843  17.0238973  58.0873410
  21.3986956  17.1982193  58.4727142  16.6898268  18.4948159  65.0488072
  16.2758666  17.8322290  64.6591914  17.3745642  18.6426018  64.5283766
  16.7296639  18.4188818  64.9144569  20.0563562  17.6538245  65.8011689
  19.6579845  17.7640515  65.0332509  19.4414781  17.8620311  66.3838249
  19.9062451  17.7011813  65.7742988  27.7905405  12.2290211  59.1854780
  28.1739010  12.9781568  59.4152877  26.9949518  12.4756031  58.9266769
  27.7299187  12.3759905  59.1812353  16.6020696   4.9009643  56.7615158
  16.9819661   4.9189272  55.9766273  15.8613292   5.3463632  56.6406006
  16.5489534   4.9691418  56.6278727  17.4005450  11.7387149  58.1523949
  16.5916773  11.4153823  58.1057258  17.9080359  11.0320371  58.0852197
  17.3555117  11.5868466  58.1354243  37.2823180  22.8061146  61.2785140
  37.2517184  23.6605783  61.4503410  37.8804529  22.5056439  61.8371284
  37.3660338  22.8877643  61.3859943  30.4822865  21.8936797  66.0338071
  29.6260760  22.0545296  66.0847188  30.5290519  21.0228861  66.0543132
  30.3621976  21.7887599  66.0444137  24.8664005  31.4299515  61.7975302
  24.1146904  31.0515054  61.5691348  25.3150016  31.4617949  61.0494113
  24.8213671  31.3785122  61.6532805  33.7916581  28.1623323  75.6398527
  34.4983349  27.6675354  75.7685461  33.9804517  28.6032405  74.9101185
  33.9244487  28.1541673  75.5507572  30.3188964  31.8524885  57.2260850
  29.9840333  32.5301806  56.7905072  30.8315835  31.4630196  56.6377721
  30.3454546  31.8949463  57.0747641  29.8593256  33.8039153  63.1671961
  30.2432635  34.3726052  62.6276736  29.7952397  33.0788664  62.6877777
  29.9066683  33.7814617  63.0165824  33.3274686  23.9528841  68.6769723
  33.8730646  24.6313928  68.7363692  33.2691562  23.8116302  67.8171304
  33.3990600  24.0320843  68.5581783  26.4448761  31.4417907  64.0638075
  26.5459124  30.6318261  64.3735203  25.8490506  31.3474854  63.4337753
  26.3721299  31.3082936  64.0164313  35.1039755  25.3813448  59.5503450
  34.9879280  26.1321134  59.9795588  35.8995641  25.1237402  59.7999537
  35.2044344  25.4548295  59.6507542  26.2849500  36.3595497  65.4652931
  26.9286956  36.8008661  65.8549089  26.6105756  35.5548923  65.3783190
  26.4281329  36.3060691  65.5098408  19.6413805  27.4638194  63.6890409
  19.4063989  26.6305846  63.5822677  19.7799446  27.7442860  62.8751610
  19.6269467  27.3821697  63.5532764  21.9403892  19.6323925  66.5874716
  21.3208924  19.0416572  66.4184731  21.8387756  20.2235360  65.9539040
  21.8341568  19.6328007  66.4679706  26.9870080  29.3707471  60.8372793
  27.3085921  29.9112679  60.2334101  27.6342177  28.8004243  60.9695082
  27.1296135  29.3666647  60.7679828  29.0371788  21.3723466  60.9207179
  29.7351953  21.5511594  61.4128643  29.3524121  20.8493806  60.2977569
  29.1867125  21.3217238  60.9009190  21.6673026  23.1776206  68.8318285
  21.5431722  23.7638652  69.4668104  22.3191310  22.6836402  69.1330560
  21.7446675  23.1915011  68.9704215  29.2259724  27.7593911  60.9086971
  29.6653359  27.1511012  61.3541744  29.0764386  27.3801285  60.1372436
  29.2681189  27.6132383  60.8606138  26.6931367  26.3537923  68.1105796
  27.3380369  25.8610366  67.7916745  26.9333144  26.4962710  68.9371875
  26.8241952  26.3015365  68.1855330  29.2317458  29.1992829  67.7612689
  29.5140701  28.4044235  67.5399445  29.9603618  29.6773417  67.7817750
  29.3807022  29.1527426  67.7315704  27.2098652  16.7415863  65.0028454
  26.8801982  17.1927007  64.3332153  26.5343654  16.6632026  65.5501460
  27.0609088  16.7966998  64.9851677  32.8269060  26.1121093  57.8617740
  32.7420355  26.9682059  58.0067309  33.3153443  25.8365417  58.5299899
  32.8857957  26.1978414  57.9819822  34.4175059  12.7301386  63.2478065
  34.1028500  13.4204865  63.6798487  33.9002001  12.6746168  62.5463565
  34.2939530  12.8236274  63.2075014  33.7587493  22.7305887  59.3615475
  33.2298965  22.9465520  60.0212781  34.2812513  23.4242025  59.2816445
  33.7575946  22.8649024  59.4471074  39.2135546  28.3052191  64.7348520
  38.3833249  28.5162835  64.8981936  39.1644799  27.4789246  64.4590803
  39.0842282  28.2141798  64.7185885  25.6487101  26.6269104  58.1622943
  25.0644316  27.1319135  58.5688807  25.2457196  26.4011491  57.4219535
  25.5026405  26.6677352  58.1127968  21.2031130  32.3423865  64.9646615
  20.7198708  33.0674354  64.9406198  22.0154448  32.6399995  65.0756772
  21.2521877  32.4926218  64.9773894  27.2745284  31.1356045  67.5696429
  26.7572225  30.7763460  66.9657737  27.9719675  30.6118220  67.5802495
  27.3010865  31.0053733  67.4826688  30.9308876  31.5850860  73.5312602
  31.0192222  31.3977000  74.3790813  31.3598588  30.9388289  73.1317449
  31.0070978  31.4613867  73.5984354  28.4979336  30.8682020  72.5130264
  27.9350170  30.4554629  73.0369926  29.2600359  30.7934925  72.9323408
  28.5273784  30.7959420  72.6523265  30.1064316  22.8734756  56.6391864
  30.3460319  23.0812739  55.8267207  30.4280157  22.0692264  56.7480808
  30.1901473  22.7848857  56.5352417  25.4154606  14.8028151  60.4851402
  26.1700574  15.1706469  60.2468452  25.2382140  15.1767706  61.2530581
  25.5009084  14.9126339  60.5636290  24.0575327  32.8580041  65.1166895
  24.7595906  32.3432030  65.1739651  23.9772810  33.1854192  65.9213770
  24.1499087  32.8294267  65.2439687  38.7089504  20.9522592  68.5298941
  37.8717926  21.0224779  68.7646536  38.6777735  20.9547087  67.6573243
  38.5807787  20.9632819  68.4358489  23.3826102  29.0486393  64.6252503
  24.2215002  29.2809325  64.6726264  23.4137872  28.1790704  64.5559538
  23.5107820  28.9543339  64.6217147  24.0078805  29.4687268  68.9265808
  24.5477030  29.3258399  69.5969181  23.3248752  29.8684019  69.2949834
  23.9870959  29.5066939  69.0800230  29.4511390  14.2124881  60.2178539
  30.1797550  14.0340836  59.7716695  29.5406283  15.0542961  60.4285717
  29.5718052  14.3108760  60.1832056  33.4319690  25.1478268  64.1210833
  34.1877205  25.5809783  64.1599741  33.5382015  24.4983038  64.6945469
  33.5589861  25.1155752  64.2108858  36.4699861  28.9751546  64.8713236
  36.0335093  28.9788288  65.6272207  36.1362777  29.6557045  64.4392813
  36.3562481  29.0764002  64.9194068  31.0428935  31.0159879  76.1956386
  31.8269352  31.1290726  76.5612128  30.8425530  30.1901016  76.3915072
  31.1294960  30.9106598  76.2790772  19.4115950  25.6887559  69.0800230
  19.1454366  24.8726675  69.2391220  19.4254515  25.7340714  68.2095745
  19.3740673  25.5744463  68.9753712  36.3897344  16.0165374  67.1142663
  37.0323253  16.0863478  67.7004579  36.6420365  15.3494596  66.6122205
  36.5219476  15.9291722  67.1269943  23.3173697  20.4872643  55.6951988
  22.6031875  20.2010823  56.1074420  23.8017666  20.8269269  56.3358375
  23.2833061  20.4954293  55.8507623  31.1999328  32.9269981  69.8422841
  30.4014574  32.6869481  70.0996710  31.6485340  32.9784374  70.5889889
  31.1473940  32.8992372  69.9907766  39.6044208  25.6932466  63.7632873
  40.2660642  25.1323134  63.6628781  38.9635620  25.1984496  64.0885564
  39.6073075  25.5368875  63.7965213  30.4921015  28.9902597  56.0713796
  30.9072164  28.6587621  55.3798292  29.6612945  28.7571499  55.9433933
  30.4309024  28.9073853  55.9504643  19.8209364  26.4746338  66.3611974
  19.6384937  26.4493224  65.5084266  20.5559033  26.9445276  66.4000883
  19.9023428  26.5407700  66.2409892  35.8909038  26.7097848  63.5044862
  36.1264628  26.8543047  62.6771712  36.0398602  27.4740256  63.8976375
  35.9474842  26.8436902  63.4408465  37.7199495  25.5499514  61.3414465
  38.0507712  26.0827154  60.7354560  38.2932583  25.6038402  61.9976416
  37.8533174  25.6369083  61.3492247  32.9331384  23.3964417  62.0238045
  33.0278239  24.1353711  62.4777671  32.3090228  22.9681892  62.4572610
  32.8540414  23.4425737  62.1546193  31.1883858  26.5750629  72.6728326
  31.7622720  25.9377873  72.8276890  31.1098662  26.5754712  71.8037984
  31.2617093  26.4815741  72.5674737  19.7880274  23.3539839  66.5111041
  20.3653777  23.2176290  67.1503286  19.0894336  22.8975623  66.7656625
  19.7701296  23.2662105  66.6433330  33.1854405  25.2413156  55.2574997
  33.1034568  25.3115344  56.1229984  33.8234126  25.8042900  55.0658738
  33.2674243  25.3352128  55.3564947  26.5447577  25.0073894  64.7249524
  26.2866821  24.1745629  64.6980823  26.5996059  25.2331507  63.8842024
  26.5147355  24.9171666  64.5969661  31.6248627  17.1102345  64.8253616
  30.9204954  16.6211531  64.9837536  31.6733601  17.1224820  63.9542061
  31.5278678  17.0391993  64.7192956  25.5182289  22.5611657  65.2114419
  24.9431880  22.7203825  65.8478379  25.1417965  21.9247066  64.7482869
  25.3785101  22.4909470  65.2368977  29.1855577  21.0335006  70.0706797
  28.7970010  20.6089224  69.4158988  28.5210276  21.2817156  70.5783824
  29.0302505  21.0073727  70.0494665  38.8278847  20.7910011  62.8454627
  38.5715411  19.9789952  62.6552510  39.6708161  20.7987578  62.6184814
  38.9144872  20.6722008  62.7839444  15.2639108  22.2051732  63.2258859
  15.3499360  21.8283600  64.0072389  15.8914905  21.8312177  62.7478817
  15.3695659  22.0937214  63.2704336  33.0081939  14.7309635  67.5830781
  33.3892451  14.0487806  67.9698655  32.2045223  14.4419237  67.4006446
  32.9458401  14.5876683  67.6134837  30.2894516  25.2633611  58.2683604
  31.1035155  25.5548504  58.1566375  30.2253657  24.6093473  57.6941897
  30.3997255  25.2098805  58.1672441  36.5104006  27.9459607  72.6813180
  36.2742643  27.1147672  72.5625240  37.1547235  27.8945214  73.2668024
  36.5698677  27.8157295  72.7499073  26.1602424  28.7355128  63.3955916
  26.7976371  28.4966876  63.9407709  26.5857496  28.9392287  62.6609077
  26.3178590  28.7306138  63.3673073  20.8515066  30.9743465  67.2790220
  20.8919212  31.2458316  66.4509999  21.4109590  31.4985373  67.6948008
  20.9398412  31.0919220  67.2182108  26.8005239  23.9557418  57.7330805
  27.1850392  23.7365125  58.4847350  26.5516859  24.7820363  57.8631882
  26.8207312  24.0455564  57.8631882  37.5340426  27.7304056  68.7441474
  37.2286244  28.4632112  69.1054790  36.8146642  27.3241985  68.4634260
  37.3827769  27.7785789  68.7554611  28.5423896  29.2127551  65.0749702
  28.6162904  29.0502723  65.9291552  29.3593402  29.4017740  64.8310184
  28.6740255  29.2164293  65.1647728  43.2342219  24.3697056  68.0709818
  43.1666719  24.3893015  67.2012405  43.2197881  25.2127384  68.2965489
  43.2220975  24.4970791  67.9762295  22.3029653  29.5585414  62.1044146
  21.4767770  29.8047151  61.9778425  22.3641644  29.4797495  62.9706204
  22.1903820  29.5830363  62.2133090  24.5205676  15.6254355  63.0639586
  23.6528102  15.6976954  63.1297195  24.8080881  16.4276434  63.2527561
  24.4345424  15.7548502  63.1014353  27.0828482  32.1762294  59.8063176
  27.3726780  31.7851275  59.0822402  27.8131962  32.3578999  60.2468451
  27.2335366  32.1456108  59.7645983  41.0200836  23.1441443  66.3456413
  41.5708758  22.5109512  66.5853505  41.0044951  23.6756835  67.0371917
  41.0986032  23.1290391  66.4835271  27.6723227  26.9780040  70.8916306
  27.1734920  27.6895808  70.9701195  28.4823451  27.2980706  70.8534469
  27.7179334  27.1306888  70.8972875  25.0234397  34.1529676  62.8723325
  24.8034693  33.8627031  63.6649992  24.8028919  33.4944631  62.3441238
  24.9581991  34.0129385  62.9112234  23.9351344  26.2402993  65.1379027
  23.6464593  25.6140464  65.6724754  24.8034692  26.1823280  65.2043708
  24.0211596  26.1390537  65.2269982  34.7229242  21.3837776  65.4561009
  34.3794008  20.6628111  65.8068259  34.8222285  21.1751627  64.6139367
  34.6871285  21.2461979  65.3832689  27.1902353  35.5259066  61.6554018
  27.8426411  34.9935509  61.8845044  26.4927962  35.1727719  62.0421892
  27.1833071  35.3948589  61.7466186  24.1383618  27.8798244  61.0621392
  24.8929586  28.2611283  61.2756855  23.5454230  28.3309388  61.5168089
  24.1620331  28.0027071  61.1604271  35.1842271  27.8463480  60.9984997
  35.7500304  28.5056690  60.9143540  34.5370175  28.1913178  61.4701399
  35.1721028  27.9945422  61.0557754  25.4581844  29.0506805  66.4361508
  24.9362598  29.1907097  67.1213372  25.8455865  28.2917469  66.6263625
  25.4385545  28.9592329  66.5662584  22.4473028  19.1012614  60.5056462
  22.1597824  18.7313884  59.7688410  23.1343497  19.5707469  60.2440167
  22.5061926  19.1159583  60.3571538  31.6548849  30.7902264  60.4222076
  31.4135525  30.0570125  60.0149141  31.8350182  31.3389121  59.7688410
  31.6456473  30.7624656  60.2652299  26.8848170  26.0810824  61.8342999
  26.6890953  26.6885559  61.2403302  27.1082516  25.3878768  61.3534672
  26.8882811  26.0688350  61.6759079  25.2826700  22.9665562  61.9523867
  26.0049352  23.1306720  61.4927673  24.8034693  23.6875227  61.8463207
  25.3190431  23.0963792  61.8689481  33.2420208  19.3029361  67.3320552
  32.4031308  19.3290640  67.0958815  33.3124575  19.9500096  67.9125898
  33.1288601  19.4025487  67.3829669  22.9334317  25.3723635  71.0578007
  23.4455414  25.6507888  70.4086767  22.6470659  26.1112929  71.4240820
  22.9669180  25.5225988  71.0167885  31.6889486  16.2014738  62.0648168
  32.3915839  16.0022486  61.5868126  31.4233675  15.4290680  62.3717011
  31.7536118  16.0577704  62.0393609  37.1177731  24.5097348  64.6181794
  37.0311706  24.6652774  65.4716572  36.6628211  25.1535423  64.2441199
  37.0380988  24.6273103  64.6888900  20.0201223  19.8793826  61.3541743
  20.1217359  20.6819988  61.6822719  20.8157110  19.6781162  61.0564824
  20.1529129  19.9679725  61.3577099  30.9903548  21.8308095  63.2407353
  30.7438262  21.7503846  64.0744142  31.3188671  21.0461563  63.0469881
  31.0024791  21.7034360  63.3354876  33.2229681  24.8387830  73.2816516
  33.2177720  23.9667646  73.2858942  33.9290675  25.0375999  72.8085972
  33.3274685  24.7391704  73.2123551  26.9500575  24.5664813  72.6530336
  27.0943951  25.1466022  72.0173446  27.2976223  24.9441110  73.3580191
  27.0228036  24.7085517  72.6629331  29.1220492  23.7654982  70.4355468
  28.3743806  23.9585996  70.0303746  29.2762017  22.9400201  70.1979589
  29.0342920  23.6720093  70.3400874  26.0228330  32.7567585  69.5191363
  26.1717894  32.1970501  68.8664767  26.8028332  32.8359587  69.9023882
  26.1602423  32.6853151  69.4788312  36.3804969  27.8969708  57.7910634
  36.0011778  27.1106846  57.7839923  35.7171215  28.4456565  57.6482278
  36.2263444  27.8614532  57.7691430  28.5481630  32.9282228  70.7975854
  28.4725302  32.2591039  71.3526642  28.4771490  33.6300016  71.3116520
  28.5262237  32.9327135  70.9552702  33.8349595  10.8395408  65.1944714
  33.9533163  11.2971871  64.4612017  33.6611771  10.0340669  64.9080932
  33.8268766  10.7889180  65.0445648  29.2051877  31.4483227  61.6299460
  29.9701768  31.1792871  61.3082124  29.1029967  30.9633237  62.3469523
  29.3033373  31.3372792  61.6879287  27.2404647  19.6507636  68.1692696
  26.4500722  19.4699097  68.4910031  27.6365270  18.8734589  68.1522990
  27.1821523  19.5095097  68.2145244  31.7270538  28.4795411  53.6099409
  32.4943523  28.5395536  53.2005261  31.2801847  27.9075852  53.1255728
  31.7743965  28.4031986  53.4777119  32.6248333  27.2850067  65.8952141
  31.9493335  27.0535299  66.3965528  32.6340709  26.6771250  65.2694246
  32.5266838  27.1608992  65.8768294  29.7542477  22.1267896  72.6516194
  29.6901619  22.9877852  72.5236331  29.8939665  21.8099889  71.8511746
  29.7657947  22.2068062  72.5144407  34.6265068  30.1415199  58.1262319
  34.7084905  30.9482185  57.8023770  35.1114810  30.1611158  58.8503093
  34.7102226  30.2635861  58.1849218  28.4361571  24.8200035  66.7932397
  28.0123820  25.0204534  66.0571416  28.2606426  23.9728883  66.9056697
  28.3472452  24.7248816  66.7006087  27.9373265  36.3350548  69.2553855
  28.4269195  35.6361337  69.0729519  27.3657497  36.0374418  69.8429912
  27.9257795  36.1876772  69.3154895  23.7244016  25.3152086  62.2260370
  23.8808635  25.2498889  63.0816362  24.0644609  26.0900639  62.0139049
  23.7977251  25.4201284  62.3214964  30.2623161  24.6909970  61.0953733
  30.8038706  24.1880351  61.5592354  30.5769720  24.6375165  60.2843218
  30.3887558  24.6089391  61.0437545  34.1340268  28.9012617  78.2080645
  34.9475134  28.6297766  78.3685778  33.9735235  28.6020157  77.4040841
  34.2310217  28.8167543  78.1126051  28.4309611  30.0827321  58.3793761
  28.5002431  29.2241860  58.5186762  29.2098066  30.2999202  58.0512786
  28.5562461  29.9880185  58.3510918  31.4112430  19.5846274  71.1476034
  31.6254400  18.9457189  70.5939388  30.7946329  20.0292098  70.7183895
  31.3517759  19.5556418  71.0026465  32.8217098  32.5065023  62.5930254
  32.4296890  32.2031738  61.8753121  32.9770170  33.3434113  62.4035208
  32.7870688  32.5848859  62.4586752  20.2978278  22.4987037  62.5421137
  20.6777243  22.9171582  61.8781404  19.7233643  23.0800492  62.8489980
  20.2689603  22.6464896  62.4897878  33.5751518  21.1935340  72.0859341
  32.7628200  20.8861230  72.1672513  34.0341453  20.7134340  72.6502053
  33.5231903  21.0771832  72.1813935  32.9856773  29.0715012  62.5336285
  32.6271428  29.2429654  63.3100317  32.4995484  29.5328217  61.9764283
  32.8615470  29.1653983  62.5661554  30.8027159  12.6946210  66.1363376
  29.9320717  12.6684931  66.0896686  31.0567500  12.5223402  65.3189222
  30.7120719  12.6656354  66.0083513  27.7745138  24.7514177  55.0736519
  28.0637663  25.5279059  55.3480094  27.8616937  24.2402908  55.7751019
  27.8299395  24.7906095  55.2179017  34.1461512  29.9618908  73.4803486
  34.7841233  29.4679103  73.1465942  33.5035604  29.8896308  72.8955713
  34.1455739  29.8777916  73.3445841  35.8718512  21.8108053  68.0469401
  35.4446120  21.7234402  67.2917501  35.2344565  21.9185829  68.6324246
  35.7148120  21.8140713  68.0214843  34.2015769  30.6538716  70.1208843
  34.9908147  30.3027781  70.2410924  34.3759367  31.4675104  69.8585476
  34.3436050  30.7224573  70.0996711  23.9409079  24.0647442  67.1736631
  23.0997086  23.9651316  67.3815525  24.1499087  24.8342922  67.5250952
  23.8473772  24.1639485  67.2563946  21.4184646  21.6866978  65.0021382
  21.0241344  21.7609990  64.2271492  20.8624763  22.0724925  65.5529744
  21.2787459  21.7548753  64.9689042  33.0549593  14.6648272  64.6825261
  33.2599186  14.5970580  65.5282258  32.7276017  15.4707094  64.6146438
  33.0364841  14.7734213  64.7984916  27.7525744  21.9928841  66.4234229
  27.4488882  21.4384829  67.0244637  27.0505165  22.1721051  65.9362263
  27.6041954  21.9373623  66.4403935  26.8091841  19.3029361  60.9878931
  27.0851576  18.5848273  60.5756498  27.4090511  19.9014280  60.7800037
  26.9385106  19.2849731  60.8959692  25.8144095  29.2078561  71.1306327
  25.7064450  29.2180624  71.9968385  26.0239877  30.0333342  70.9411281
  25.8294206  29.3319636  71.2310418  36.3083281  15.2180037  64.1628026
  35.6957594  15.7050439  64.5481758  36.4047456  14.5423528  64.7065678
  36.2321178  15.1898345  64.3006885  30.3102362  16.9742878  59.2625526
  30.7646108  17.1453438  59.9873370  30.7842407  16.3610989  58.8623302
  30.4470682  16.9093763  59.3099287  23.8317887  26.4591204  68.5928264
  23.2405820  27.1000702  68.5631279  24.5938911  26.8828821  68.5659564
  23.8566148  26.6167042  68.5843412  39.9508309  26.2896974  69.5905543
  40.0091432  26.7383622  70.3365519  39.3174776  26.6995786  69.1535623
  39.8659604  26.4170708  69.6358091  33.5907403  31.9100515  66.0260289
  33.3927092  32.3991330  65.3316500  32.9695114  32.1141757  66.6044422
  33.4694968  32.0117054  66.0083512  27.6515382  23.6785412  60.3670533
  28.3957427  24.0659689  60.6053483  27.7976078  22.8342838  60.5311021
  27.7825967  23.6115885  60.4264503  29.5694957  15.4735671  65.4002394
  28.7231002  15.6458479  65.2743744  29.5666090  14.6685015  65.7368223
  29.4442107  15.3796700  65.4313521  30.6393258  19.2510886  66.2664452
  30.1653212  18.7252648  66.7769763  31.0111393  18.7040358  65.6979314
  30.6243147  19.0926882  66.2579600  36.9029988  24.3113261  67.6771233
  36.6628211  23.4719676  67.6813659  37.3821995  24.3913428  68.4012006
  36.9382172  24.1994661  67.7846035  32.5676757  20.1447440  59.3290206
  32.0399776  20.2276184  58.6395915  33.0272465  20.8865312  59.3254851
  32.5578608  20.2668103  59.2264901  38.9035175  21.0914718  65.6300492
  38.6644945  21.0510553  64.7921277  39.0669076  21.9385870  65.7566213
  38.8925479  21.2106803  65.5253974  35.5081205  25.4764668  71.5605537
  36.2315404  25.0237194  71.3816557  35.2431168  25.7569333  70.7777865
  35.5762479  25.4515636  71.4184253  24.3768074  20.0724841  68.2958416
  23.7521144  20.0843233  67.6884369  24.0413669  20.5485016  68.9449657
  24.2353566  20.1443358  68.3014985  24.5609822  18.4149960  54.3531101
  24.2122627  19.0669685  54.8162651  24.0806268  18.4007073  53.6254973
  24.4380066  18.5093013  54.3142193  21.0893749  28.1325301  69.7362181
  20.5593674  27.4417740  69.7857155  21.3618843  28.1235487  68.9074889
  21.0518472  28.0292433  69.6209597  32.1213840  28.7151004  58.4599863
  32.8448039  29.1809117  58.3164437  31.6814431  28.7824613  57.7097460
  32.1629532  28.7934840  58.3284645  31.2899995  25.5748546  69.7100552
  30.6756988  25.0306596  70.0049188  31.8067280  25.0612782  69.2306368
  31.2755657  25.4184955  69.6824781  30.5296292  26.6452816  67.4444851
  30.1023900  26.0202535  67.0110286  30.5221236  26.3627738  68.2703858
  30.4655433  26.5105597  67.5024678  28.8582002  17.5221571  67.6587385
  28.8824489  16.9881683  66.9700165  29.1093475  17.0138879  68.3212975
  28.8991920  17.3682474  67.6552030  16.3689591  24.8053066  67.0930529
  16.2633041  24.7599910  66.2282613  15.6189811  25.1506846  67.3744814
  16.2425194  24.8493974  67.0067859  25.1383324  16.2492389  67.0393129
  25.1781695  16.7501595  67.7527837  24.3132989  16.3402782  66.7699052
  25.0222850  16.3374205  67.1043667  26.5597687  22.7652899  69.3367028
  25.7289617  22.9326717  69.1302276  26.5049204  22.3888849  70.1215914
  26.4287102  22.7342630  69.4215556  24.9333731  21.0408490  59.8657146
  25.0736692  21.5380954  60.5685787  25.4316264  20.3394785  60.0071360
  25.0274812  21.0110469  59.9908725  24.9633953  21.9075601  57.1949723
  25.5979033  22.5036026  57.1299185  25.0459564  21.6079059  58.0095593
  25.0690504  21.9516509  57.3052809  37.9416519  24.4391079  70.0636087
  38.5334360  25.0788329  70.0954285  38.3775514  23.7414115  70.3528154
  38.0934950  24.4309429  70.1116920  26.5412936  17.8389577  57.1695165
  26.8628777  17.3592659  56.5154427  26.8039880  18.6489223  56.9785976
  26.6278962  17.8879475  57.0450657  29.7709909  28.8608451  70.6893981
  29.2635000  29.4144298  71.1334611  29.4736555  28.9216741  69.8712755
  29.6514794  28.9514762  70.6342438  31.9372091  17.2261771  69.5318644
  32.3627163  16.7734297  68.9202170  31.3229084  16.6721841  69.8083431
  31.9100737  17.0775747  69.4823669  21.4686941  24.1043442  60.4639269
  21.9779171  24.7007949  60.8450574  21.9421214  23.8369416  59.7815688
  21.6130317  24.1529257  60.4193791  32.3817689  32.7771709  58.6197924
  31.6646999  32.6032571  58.1545162  33.0324427  32.5424281  58.0873410
  32.3719540  32.7167501  58.4727142  30.3766314  13.6976870  62.9409221
  29.7334632  13.5474517  63.5094359  30.0365721  13.4519216  62.1758325
  30.2311391  13.6388993  62.9112236  34.9665661  21.6536297  62.3639229
  34.2956851  22.1965999  62.2352295  35.6605411  22.1231153  62.1220924
  34.9694528  21.8034568  62.3094757  29.0152394  33.7933009  67.5950988
  28.7918049  33.0351838  67.9635014  28.5262238  33.8231030  66.8731427
  28.9095843  33.6855234  67.5427729  35.1293788  18.1092181  65.2729603
  35.4821398  17.6821904  65.9475401  34.2708590  18.0243024  65.4030679
  35.0543233  18.0336921  65.3924613  23.8277473  20.7399701  63.3312449
  23.1089462  21.1563833  63.5985313  24.1989835  21.3053939  62.7804087
  23.7769405  20.8848982  63.2895256  33.1277054  21.3727549  69.2214445
  33.1074981  21.1910845  70.0749224  33.1756255  22.2439568  69.1974029
  33.1311695  21.4744088  69.3437740  31.0723384  27.9614741  75.1462921
  31.0319239  27.3164418  74.5608077  31.8846702  27.9051359  75.4588333
  31.1866537  27.8573708  75.1059871  27.6630851  34.0133467  65.0488072
  27.2491250  33.3507598  64.6591914  28.3478226  34.1611326  64.5283766
  27.7029223  33.9374125  64.9144569  31.0296145  33.1723553  65.8011689
  30.6312429  33.2825823  65.0332509  30.4147365  33.3805619  66.3838249
  30.8795035  33.2197121  65.7742988  29.6024047  19.7797700  58.6685829
  29.0088887  20.1014697  58.1170396  29.6399325  18.9338796  58.4606935
  29.5198437  19.7022029  58.5568600  36.5617848  13.2310593  66.2013915
  36.0548713  12.5239732  66.1335093  37.3585282  12.9003781  66.3314992
  36.6045087  13.0783744  66.2112910  32.4781864  19.7377205  62.0987579
  32.2495557  19.7609906  61.2565937  32.7379940  18.9134672  62.2182589
  32.4828052  19.6193285  61.9912777  25.5326627  18.2753751  63.3941775
  26.0083993  18.6370831  62.7591956  25.0315226  18.9310219  63.6741917
  25.5291986  18.4247940  63.3418515  38.7637988  27.7475519  59.1854780
  39.1471594  28.4966875  59.4152877  37.9682101  27.9941339  58.9266769
  38.7031770  27.8945213  59.1812353  27.5753280  20.4194951  56.7615158
  27.9552245  20.4374580  55.9766273  26.8345876  20.8648940  56.6406006
  27.5222117  20.4876726  56.6278727  35.2038570  18.7277142  62.3490737
  35.2032797  18.5725799  63.2075014  34.9994750  19.5740129  62.2932123
  35.1738348  18.8297763  62.4678677  17.2655841  22.1516927  66.7649554
  17.0877602  21.6993536  67.4904469  16.9774863  22.9543088  66.9488031
  17.1968794  22.2039484  66.8993057  32.9279422  23.4074644  66.0026944
  33.4233088  22.6897639  65.9630964  32.1179198  23.1045442  65.8881431
  32.8823316  23.2572290  65.9800670  28.3738034  27.2572457  58.1523949
  27.5649357  26.9339131  58.1057258  28.8812943  26.5505679  58.0852197
  28.3287701  27.1053774  58.1354243  19.0028311  24.6844650  63.8771313
  18.1373831  24.6730341  63.7654084  19.1027127  24.4974873  64.7242452
  18.8902478  24.6550712  63.9860257  34.9931241  26.1578331  68.6904073
  35.4186313  25.6352753  68.1374498  34.6288161  26.7559169  68.1692696
  35.0017844  26.1688559  68.5313083  24.6285321  34.4542549  67.4501418
  24.9431880  35.2678937  67.4579200  25.0378734  34.0692768  68.1183577
  24.7353419  34.5171251  67.5505510  31.5809841  29.8712596  65.0205230
  32.0521019  30.5852858  65.1895215  31.9170019  29.2711346  65.5565100
  31.7004956  29.8884060  65.1237606  33.6686825  31.4813909  77.1997302
  33.7783791  30.6922470  77.5554050  33.9977722  31.3919845  76.3971640
  33.7339231  31.3519762  77.1339693  32.2183787  29.6630530  71.7832923
  31.6704733  29.0388414  71.5152988  32.6796816  29.8524802  71.0677002
  32.2050996  29.5989580  71.6383354  35.0277651  17.7315884  69.1684115
  34.4440640  18.2325091  68.7561683  35.3481945  17.2245441  68.5348439
  34.9890827  17.7307719  69.0142622  27.5672450  16.6456479  59.4442790
  28.3888145  16.8154792  59.2024485  27.1042101  16.8003740  58.7209088
  27.6203613  16.6938212  59.3014434  21.9698341  28.4015657  67.0980027
  22.5743198  28.3611492  66.4693847  21.7625654  29.2486809  67.1284083
  22.0287238  28.5203660  67.0096143  31.7842113  30.6681603  68.3142264
  32.6040487  30.5244569  68.5758559  31.5036191  31.2927801  68.8558702
  31.8638857  30.7391955  68.4330204  17.2049623  27.3850275  66.9678950
  17.1073901  26.5746546  67.2769007  17.9878493  27.3642068  66.5825218
  17.3065760  27.2617365  66.9565813  41.4555448  37.4122105  66.0338071
  40.5993344  37.5730604  66.0847188  41.5023102  36.5414169  66.0543132
  41.3354560  37.3072907  66.0444137  44.7649165  43.6808631  75.6398527
  45.4715932  43.1860662  75.7685461  44.9537100  44.1217712  74.9101185
  44.8977071  43.6726981  75.5507572  44.3007269  39.4714149  68.6769723
  44.8463230  40.1499236  68.7363692  44.2424146  39.3301610  67.8171304
  44.3723184  39.5506151  68.5581783  37.4181344  46.9603215  64.0638075
  37.5191707  46.1503569  64.3735203  36.8223090  46.8660162  63.4337753
  37.3453883  46.8268243  64.0164313  37.2582084  51.8780805  65.4652931
  37.9019539  52.3193969  65.8549089  37.5838339  51.0734231  65.3783190
  37.4013913  51.8245999  65.5098408  30.6146389  42.9823502  63.6890409
  30.3796573  42.1491154  63.5822677  30.7532029  43.2628168  62.8751610
  30.6002051  42.9007005  63.5532764  32.9136476  35.1509233  66.5874716
  32.2941508  34.5601880  66.4184731  32.8120340  35.7420668  65.9539040
  32.8074152  35.1513315  66.4679706  40.0104372  36.8908774  60.9207179
  40.7084536  37.0696902  61.4128643  40.3256704  36.3679114  60.2977569
  40.1599709  36.8402546  60.9009190  32.6405609  38.6961514  68.8318285
  32.5164306  39.2823960  69.4668104  33.2923894  38.2021710  69.1330560
  32.7179258  38.7100319  68.9704215  37.6663950  41.8723231  68.1105796
  38.3112953  41.3795674  67.7916745  37.9065727  42.0148018  68.9371875
  37.7974535  41.8200673  68.1855330  40.2050041  44.7178137  67.7612689
  40.4873284  43.9229543  67.5399445  40.9336202  45.1958724  67.7817750
  40.3539605  44.6712734  67.7315704  38.1831235  32.2601171  65.0028454
  37.8534565  32.7112315  64.3332153  37.5076237  32.1817334  65.5501460
  38.0341672  32.3152306  64.9851677  45.3907643  28.2486694  63.2478065
  45.0761084  28.9390172  63.6798487  44.8734585  28.1931476  62.5463565
  45.2672113  28.3421582  63.2075014  36.6219685  42.1454412  58.1622943
  36.0376900  42.6504443  58.5688807  36.2189780  41.9196798  57.4219535
  36.4758988  42.1862660  58.1127968  38.2477867  46.6541353  67.5696429
  37.7304809  46.2948768  66.9657737  38.9452259  46.1303528  67.5802495
  38.2743448  46.5239041  67.4826688  41.9041459  47.1036167  73.5312602
  41.9924805  46.9162308  74.3790813  42.3331172  46.4573597  73.1317449
  41.9803562  46.9799175  73.5984354  39.4711919  46.3867327  72.5130264
  38.9082754  45.9739937  73.0369926  40.2332943  46.3120233  72.9323408
  39.5006368  46.3144728  72.6523265  36.3887189  30.3213459  60.4851402
  37.1433157  30.6891776  60.2468452  36.2114724  30.6953014  61.2530581
  36.4741668  30.4311647  60.5636290  35.0307911  48.3765349  65.1166895
  35.7328490  47.8617338  65.1739651  34.9505394  48.7039500  65.9213770
  35.1231671  48.3479575  65.2439687  49.6822088  36.4707900  68.5298941
  48.8450509  36.5410087  68.7646536  49.6510319  36.4732395  67.6573243
  49.5540370  36.4818127  68.4358489  36.0786817  38.6140936  74.2447310
  36.2507321  38.5046830  75.0932591  36.6156175  39.2595341  74.0078502
  36.1831821  38.6932937  74.3352406  34.7444254  32.7283778  57.1829515
  34.5619827  32.9455659  56.3570508  35.6069867  32.8422791  57.2388129
  34.8448843  32.7773676  57.0684002  34.3558686  44.5671701  64.6252503
  35.1947585  44.7994633  64.6726264  34.3870455  43.6976012  64.5559538
  34.4840404  44.4728647  64.6217147  34.9811389  44.9872576  68.9265808
  35.5209614  44.8443707  69.5969181  34.2981335  45.3869327  69.2949834
  34.9603543  45.0252247  69.0800230  44.4052274  40.6663576  64.1210833
  45.1609789  41.0995091  64.1599741  44.5114598  40.0168346  64.6945469
  44.5322444  40.6341060  64.2108858  47.4432445  44.4936854  64.8713236
  47.0067677  44.4973596  65.6272207  47.1095360  45.1742353  64.4392813
  47.3295065  44.5949309  64.9194068  42.0161519  46.5345186  76.1956386
  42.8001935  46.6476034  76.5612128  41.8158113  45.7086324  76.3915072
  42.1027544  46.4291906  76.2790772  30.3848534  41.2072867  69.0800230
  30.1186949  40.3911983  69.2391220  30.3987098  41.2526022  68.2095745
  30.3473256  41.0929771  68.9753712  47.3629928  31.5350681  67.1142663
  48.0055836  31.6048786  67.7004579  47.6152949  30.8679904  66.6122205
  47.4952060  31.4477030  67.1269943  35.1347140  34.7451245  71.7267237
  34.4418937  34.2748225  71.9727969  35.7507468  34.5189549  72.3008945
  35.1231670  34.6418377  71.8476390  42.1731912  48.4455289  69.8422841
  41.3747158  48.2054789  70.0996710  42.6217923  48.4969681  70.5889889
  42.1206523  48.4177680  69.9907766  30.7941948  41.9931646  66.3611974
  30.6117521  41.9678532  65.5084266  31.5291617  42.4630584  66.4000883
  30.8756012  42.0593008  66.2409892  46.8641622  42.2283156  63.5044862
  47.0997211  42.3728355  62.6771712  47.0131186  42.9925564  63.8976375
  46.9207425  42.3622210  63.4408465  33.8587699  38.7116649  72.8694083
  34.5827672  38.6969679  73.3558977  33.9603836  39.4212004  72.3716051
  33.9805908  38.8141352  72.8672869  41.2332649  42.1915733  77.7343030
  40.4405630  42.5059245  77.9195649  41.3481576  42.4067202  76.8963814
  41.1328059  42.2699570  77.6381364  42.1616442  42.0935937  72.6728326
  42.7355303  41.4563181  72.8276890  42.0831245  42.0940020  71.8037984
  42.2349676  42.0001049  72.5674737  30.7612858  38.8725147  66.5111041
  31.3386361  38.7361597  67.1503286  30.0626920  38.4160931  66.7656625
  30.7433879  38.7847413  66.6433330  42.5981210  32.6287653  64.8253616
  41.8937537  32.1396839  64.9837536  42.6466185  32.6410127  63.9542061
  42.5011262  32.5577301  64.7192956  36.4914872  38.0796965  65.2114419
  35.9164464  38.2389133  65.8478379  36.1150549  37.4432374  64.7482869
  36.3517685  38.0094778  65.2368977  40.1588161  36.5520314  70.0706797
  39.7702594  36.1274532  69.4158988  39.4942859  36.8002464  70.5783824
  40.0035089  36.5259035  70.0494665  49.8011430  36.3095319  62.8454627
  49.5447995  35.4975260  62.6552510  50.6440744  36.3172886  62.6184814
  49.8877456  36.1907316  62.7839444  26.2371691  37.7237040  63.2258859
  26.3231943  37.3468908  64.0072389  26.8647489  37.3497485  62.7478817
  26.3428242  37.6122522  63.2704336  43.9814523  30.2494943  67.5830781
  44.3625034  29.5673114  67.9698655  43.1777807  29.9604545  67.4006446
  43.9190984  30.1061991  67.6134837  47.4836589  43.4644915  72.6813180
  47.2475227  42.6332980  72.5625240  48.1279818  43.4130522  73.2668024
  47.5431260  43.3342603  72.7499073  37.1335008  44.2540436  63.3955916
  37.7708954  44.0152184  63.9407709  37.5590079  44.4577595  62.6609077
  37.2911174  44.2491446  63.3673073  31.8247650  46.4928773  67.2790220
  31.8651795  46.7643624  66.4509999  32.3842174  47.0170681  67.6948008
  31.9130996  46.6104528  67.2182108  37.7737823  39.4742726  57.7330805
  38.1582975  39.2550433  58.4847350  37.5249443  40.3005671  57.8631882
  37.7939895  39.5640872  57.8631882  37.9406363  32.7549141  77.4493390
  37.6259804  33.5248704  77.1862952  37.6196296  32.1919397  76.8645617
  37.8465282  32.7859410  77.3234740  48.5073010  43.2489364  68.7441474
  48.2018827  43.9817420  69.1054790  47.7879226  42.8427293  68.4634260
  48.3560352  43.2971097  68.7554611  39.5156479  44.7312859  65.0749702
  39.5895488  44.5688031  65.9291552  40.3325986  44.9203048  64.8310184
  39.6472838  44.7349601  65.1647728  54.2074802  39.8882364  68.0709818
  54.1399302  39.9078323  67.2012405  54.1930465  40.7312691  68.2965489
  54.1953559  40.0156099  67.9762295  33.2762236  45.0770722  62.1044146
  32.4500354  45.3232459  61.9778425  33.3374227  44.9982802  62.9706204
  33.1636403  45.1015671  62.2133090  35.4938260  31.1439663  63.0639586
  34.6260685  31.2162262  63.1297195  35.7813464  31.9461742  63.2527561
  35.4078008  31.2733810  63.1014353  44.6171149  31.2917522  71.3950908
  45.3624741  31.1027332  70.9814333  44.2008453  31.8175760  70.8364764
  44.6656123  31.3419667  71.2515481  51.9933420  38.6626750  66.3456413
  52.5441341  38.0294819  66.5853505  51.9777535  39.1942143  67.0371917
  52.0718616  38.6475699  66.4835271  38.6455810  42.4965348  70.8916306
  38.1467504  43.2081115  70.9701195  39.4556035  42.8166014  70.8534469
  38.6911917  42.6492196  70.8972875  35.9966981  49.6714984  62.8723325
  35.7767276  49.3812339  63.6649992  35.7761503  49.0129939  62.3441238
  35.9314575  49.5314693  62.9112234  34.9083928  41.7588301  65.1379027
  34.6197177  41.1325772  65.6724754  35.7767276  41.7008588  65.2043708
  34.9944180  41.6575845  65.2269982  45.6961826  36.9023084  65.4561009
  45.3526592  36.1813419  65.8068259  45.7954868  36.6936935  64.6139367
  45.6603869  36.7647287  65.3832689  38.1634937  51.0444374  61.6554018
  38.8158995  50.5120816  61.8845044  37.4660545  50.6913026  62.0421892
  38.1565654  50.9133897  61.7466186  35.1116201  43.3983552  61.0621392
  35.8662169  43.7796591  61.2756855  34.5186814  43.8494695  61.5168089
  35.1352915  43.5212379  61.1604271  37.5722868  35.3546392  76.1878604
  36.7622644  35.6604172  76.0768447  38.0497555  36.0751974  76.3031188
  37.5226347  35.5060993  76.1885675  36.4314428  44.5692113  66.4361508
  35.9095181  44.7092405  67.1213372  36.8188448  43.8102777  66.6263625
  36.4118129  44.4777637  66.5662584  33.4205612  34.6197922  60.5056462
  33.1330408  34.2499192  59.7688410  34.1076080  35.0892777  60.2440167
  33.4794509  34.6344891  60.3571538  37.8580754  41.5996132  61.8342999
  37.6623536  42.2070867  61.2403302  38.0815099  40.9064076  61.3534672
  37.8615395  41.5873658  61.6759079  36.2559284  38.4850870  61.9523867
  36.9781936  38.6492028  61.4927673  35.7767276  39.2060535  61.8463207
  36.2923014  38.6149100  61.8689481  44.2152791  34.8214669  67.3320552
  43.3763892  34.8475948  67.0958815  44.2857158  35.4685404  67.9125898
  44.1021185  34.9210795  67.3829669  33.9066900  40.8908942  71.0578007
  34.4187997  41.1693196  70.4086767  33.6203243  41.6298237  71.4240820
  33.9401763  41.0411296  71.0167885  42.6622069  31.7200046  62.0648168
  43.3648422  31.5207794  61.5868126  42.3966258  30.9475988  62.3717011
  42.7268702  31.5763012  62.0393609  48.0910315  40.0282656  64.6181794
  48.0044290  40.1838082  65.4716572  47.6360795  40.6720731  64.2441199
  48.0113572  40.1458411  64.6888900  30.9933807  35.3979134  61.3541743
  31.0949943  36.2005296  61.6822719  31.7889693  35.1966470  61.0564824
  31.1261712  35.4865033  61.3577099  37.4250626  32.9835331  71.1179048
  37.2333823  32.9990466  71.9678472  38.2749222  33.1799005  71.0945703
  37.5226348  33.0149682  71.2402343  31.8097539  35.5126313  69.0962865
  31.6683031  34.6610253  69.2207373  32.0938102  35.5554973  68.2725071
  31.8305385  35.3926063  68.9930489  41.9636131  37.3493403  63.2407353
  41.7170845  37.2689154  64.0744142  42.2921254  36.5646871  63.0469881
  41.9757375  37.2219668  63.3354876  45.8584180  44.0576762  67.0294134
  45.7198539  44.7557808  67.5342877  45.0784178  43.9025419  66.6730316
  45.7227407  44.1376929  67.0520408  44.1962265  40.3573137  73.2816516
  44.1910304  39.4852954  73.2858942  44.9023259  40.5561307  72.8085972
  44.3007269  40.2577012  73.2123551  37.9233158  40.0850121  72.6530336
  38.0676534  40.6651329  72.0173446  38.2708807  40.4626418  73.3580191
  37.9960620  40.2270825  72.6629331  40.0953076  39.2840290  70.4355468
  39.3476390  39.4771304  70.0303746  40.2494601  38.4585509  70.1979589
  40.0075503  39.1905401  70.3400874  36.9960913  48.2752893  69.5191363
  37.1450477  47.7155809  68.8664767  37.7760915  48.3544895  69.9023882
  37.1335007  48.2038459  69.4788312  39.5214214  48.4467536  70.7975854
  39.4457885  47.7776347  71.3526642  39.4504073  49.1485324  71.3116520
  39.4994821  48.4512443  70.9552702  40.3354853  33.1790840  71.3250872
  40.7927467  33.9114815  71.4523664  40.4111182  32.7557306  72.0838127
  40.4145823  33.2248079  71.4551948  32.5787844  33.4256660  72.4140315
  32.0430033  32.8137018  72.7301082  32.6405609  34.0004796  73.0673982
  32.5083477  33.4203588  72.5575742  44.8082179  26.3580716  65.1944714
  44.9265747  26.8157179  64.4612017  44.6344354  25.5525977  64.9080932
  44.8001350  26.3074488  65.0445648  38.2137231  35.1692944  68.1692696
  37.4233305  34.9884404  68.4910031  38.6097853  34.3919897  68.1522990
  38.1554107  35.0280405  68.2145244  43.5980917  42.8035375  65.8952141
  42.9225919  42.5720607  66.3965528  43.6073293  42.1956557  65.2694246
  43.4999421  42.6794300  65.8768294  40.7275061  37.6453203  72.6516194
  40.6634202  38.5063160  72.5236331  40.8672249  37.3285197  71.8511746
  40.7390531  37.7253370  72.5144407  39.4094155  40.3385343  66.7932397
  38.9856404  40.5389842  66.0571416  39.2339010  39.4914191  66.9056697
  39.3205035  40.2434124  66.7006087  38.9105848  51.8535856  69.2553855
  39.4001779  51.1546645  69.0729519  38.3390081  51.5559726  69.8429912
  38.8990378  51.7062079  69.3154895  34.6976600  40.8337394  62.2260370
  34.8541219  40.7684197  63.0816362  35.0377193  41.6085947  62.0139049
  34.7709835  40.9386592  62.3214964  45.1072852  44.4197925  78.2080645
  45.9207717  44.1483074  78.3685778  44.9467818  44.1205465  77.4040841
  45.2042800  44.3352851  78.1126051  42.3845014  35.1031582  71.1476034
  42.5986983  34.4642497  70.5939388  41.7678913  35.5477406  70.7183895
  42.3250343  35.0741726  71.0026465  43.7949682  48.0250331  62.5930254
  43.4029473  47.7217046  61.8753121  43.9502754  48.8619421  62.4035208
  43.7603272  48.1034167  62.4586752  31.2710861  38.0172345  62.5421137
  31.6509826  38.4356890  61.8781404  30.6966226  38.5985800  62.8489980
  31.2422186  38.1650204  62.4897878  44.5484102  36.7120648  72.0859341
  43.7360784  36.4046538  72.1672513  45.0074036  36.2319648  72.6502053
  44.4964487  36.5957140  72.1813935  43.9589356  44.5900320  62.5336285
  43.6004011  44.7614962  63.3100317  43.4728067  45.0513525  61.9764283
  43.8348053  44.6839291  62.5661554  41.7759742  28.2131518  66.1363376
  40.9053300  28.1870239  66.0896686  42.0300084  28.0408710  65.3189222
  41.6853303  28.1841662  66.0083513  41.6437609  38.1180719  76.8688043
  42.1137240  38.7422835  77.2555917  41.6899489  37.4497694  77.4281258
  41.7205485  38.1115399  77.0088114  38.8008883  30.2237746  67.5936847
  38.2847372  29.5317938  67.7188426  38.2402812  30.8908523  67.5399445
  38.6415396  30.2201004  67.6042913  40.8701116  30.7630706  69.4229699
  40.4832870  30.7879738  70.2043229  40.3834054  30.1972385  68.9704216
  40.7413625  30.6826457  69.4717603  45.1194096  45.4804215  73.4803486
  45.7573816  44.9864411  73.1465942  44.4768187  45.4081616  72.8955713
  45.1188322  45.3963224  73.3445841  46.8451096  37.3293361  68.0469401
  46.4178704  37.2419710  67.2917501  46.2077149  37.4371137  68.6324246
  46.6880703  37.3326021  68.0214843  40.5358258  27.6497692  71.7139959
  41.1651376  28.1857992  71.4361030  40.7044121  27.5575051  72.5653525
  40.6536053  27.7159054  71.7988487  40.3372173  32.4368887  73.9866371
  41.1645602  32.1654036  74.0424985  40.3580019  33.2329728  74.3430189
  40.4625023  32.5148641  74.0481554  45.1748352  46.1724024  70.1208843
  45.9640731  45.8213088  70.2410924  45.3491950  46.9860412  69.8585476
  45.3168634  46.2409881  70.0996711  34.9141663  39.5832749  67.1736631
  34.0729669  39.4836624  67.3815525  35.1231671  40.3528230  67.5250952
  34.8206355  39.6824793  67.2563946  32.3917230  37.2052286  65.0021382
  31.9973928  37.2795298  64.2271492  31.8357347  37.5910233  65.5529744
  32.2520042  37.2734061  64.9689042  44.0282177  30.1833580  64.6825261
  44.2331770  30.1155888  65.5282258  43.7008601  30.9892402  64.6146438
  44.0097424  30.2919521  64.7984916  38.7258328  37.5114149  66.4234229
  38.4221465  36.9570137  67.0244637  38.0237748  37.6906359  65.9362263
  38.5774537  37.4558931  66.4403935  37.7824425  34.8214668  60.9878931
  38.0584159  34.1033581  60.5756498  38.3823094  35.4199588  60.7800037
  37.9117689  34.8035039  60.8959692  36.7876679  44.7263869  71.1306327
  36.6797034  44.7365931  71.9968385  36.9972460  45.5518650  70.9411281
  36.8026790  44.8504944  71.2310418  47.2815864  30.7365345  64.1628026
  46.6690178  31.2235747  64.5481758  47.3780039  30.0608836  64.7065678
  47.2053762  30.7083653  64.3006885  41.2834945  32.4928186  59.2625526
  41.7378692  32.6638746  59.9873370  41.7574991  31.8796297  58.8623302
  41.4203265  32.4279071  59.3099287  34.8050471  41.9776512  68.5928264
  34.2138404  42.6186010  68.5631279  35.5671494  42.4014129  68.5659564
  34.8298731  42.1352350  68.5843412  35.2011093  33.1378510  69.2596282
  35.6612575  33.2117439  69.9971406  35.2467200  33.9359764  68.9096103
  35.2761649  33.2672657  69.3169038  36.8494443  33.8045204  73.8268309
  36.4580008  33.1578552  74.2624087  37.0180306  34.3956640  74.4462564
  36.8165354  33.7959472  73.9831015  50.9240892  41.8082281  69.5905543
  50.9824016  42.2568930  70.3365519  50.2907360  42.2181094  69.1535623
  50.8392187  41.9356016  69.6358091  44.5639987  47.4285823  66.0260289
  44.3659676  47.9176638  65.3316500  43.9427698  47.6327065  66.6044422
  44.4427551  47.5302362  66.0083512  38.6247965  39.1970720  60.3670533
  39.3690010  39.5844996  60.6053483  38.7708661  38.3528146  60.5311021
  38.7558550  39.1301193  60.4264503  40.5427541  30.9920979  65.4002394
  39.6963586  31.1643787  65.2743744  40.5398673  30.1870323  65.7368223
  40.4174691  30.8982008  65.4313521  41.6125841  34.7696193  66.2664452
  41.1385795  34.2437956  66.7769763  41.9843977  34.2225666  65.6979314
  41.5975730  34.6112190  66.2579600  31.9898871  36.7667700  71.6347998
  32.8524484  36.6663409  71.5485328  31.6590654  36.1862409  71.0733570
  32.0684068  36.6659327  71.5393404  47.8762572  39.8298569  67.6771233
  47.6360795  38.9904984  67.6813659  48.3554579  39.9098736  68.4012006
  47.9114755  39.7179969  67.7846035  49.8767759  36.6100026  65.6300492
  49.6377529  36.5695861  64.7921277  50.0401660  37.4571178  65.7566213
  49.8658062  36.7292111  65.5253974  46.4813789  40.9949976  71.5605537
  47.2047988  40.5422502  71.3816557  46.2163751  41.2754641  70.7777865
  46.5495062  40.9700944  71.4184253  35.3500657  35.5910149  68.2958416
  34.7253727  35.6028541  67.6884369  35.0146252  36.0670324  68.9449657
  35.2086149  35.6628666  68.3014985  32.0626333  43.6510609  69.7362181
  31.5326257  42.9603048  69.7857155  32.3351426  43.6420795  68.9074889
  32.0251055  43.5477741  69.6209597  42.2632578  41.0933854  69.7100552
  41.6489571  40.5491904  70.0049188  42.7799863  40.5798090  69.2306368
  42.2488241  40.9370263  69.6824781  41.5028876  42.1638124  67.4444851
  41.0756484  41.5387843  67.0110286  41.4953820  41.8813046  68.2703858
  41.4388017  42.0290905  67.5024678  34.6191403  37.2003297  70.5133285
  34.7784889  36.4446621  70.9185007  34.4384296  37.7494237  71.1674023
  34.6156762  37.1697111  70.6695991  42.5611706  29.3664533  71.0684074
  42.0652267  29.5628207  70.3775641  43.3180768  29.7657201  70.8972876
  42.5998530  29.4542266  70.9404211  39.8314585  33.0406878  67.6587385
  39.8557072  32.5066991  66.9700165  40.0826059  32.5324187  68.3212975
  39.8724504  32.8867782  67.6552030  27.3422175  40.3238373  67.0930529
  27.2365624  40.2785218  66.2282613  26.5922395  40.6692154  67.3744814
  27.2157778  40.3679282  67.0067859  36.1115907  31.7677697  67.0393129
  36.1514279  32.2686903  67.7527837  35.2865572  31.8588090  66.7699052
  35.9955433  31.8559513  67.1043667  38.2945520  41.3338437  75.1413424
  37.4441151  41.4710151  75.2771069  38.4573648  40.6002215  75.5861125
  38.1929384  41.2452538  75.2269023  37.5330271  38.2838207  69.3367028
  36.7022200  38.4512025  69.1302276  37.4781788  37.9074157  70.1215914
  37.4019686  38.2527938  69.4215556  35.3414054  31.7747099  74.9723439
  35.9666757  31.2309232  75.2452871  34.8864534  31.2942017  74.4031229
  35.3662315  31.6236581  74.9285033  35.9066315  36.5593798  59.8657146
  36.0469276  37.0566262  60.5685787  36.4048847  35.8580092  60.0071360
  36.0007396  36.5295777  59.9908725  35.9366537  37.4260909  57.1949723
  36.5711617  38.0221334  57.1299185  36.0192148  37.1264367  58.0095593
  36.0423088  37.4701817  57.3052809  48.9149103  39.9576386  70.0636087
  49.5066943  40.5973637  70.0954285  49.3508097  39.2599423  70.3528154
  49.0667534  39.9494737  70.1116920  37.5145520  33.3574885  57.1695165
  37.8361361  32.8777967  56.5154427  37.7772464  34.1674531  56.9785976
  37.6011545  33.4064782  57.0450657  40.7442493  44.3793759  70.6893981
  40.2367584  44.9329606  71.1334611  40.4469139  44.4402049  69.8712755
  40.6247378  44.4700070  70.6342438  42.9104675  32.7447078  69.5318644
  43.3359746  32.2919605  68.9202170  42.2961668  32.1907149  69.8083431
  42.8833320  32.5961055  69.4823669  32.4419525  39.6228750  60.4639269
  32.9511754  40.2193257  60.8450574  32.9153797  39.3554724  59.7815688
  32.5862901  39.6714565  60.4193791  41.3498898  29.2162178  62.9409221
  40.7067216  29.0659825  63.5094359  41.0098305  28.9704524  62.1758325
  41.2043975  29.1574301  62.9112236  39.9884978  49.3118317  67.5950988
  39.7650632  48.5537146  67.9635014  39.4994821  49.3416338  66.8731427
  39.8828427  49.2040542  67.5427729  46.1026372  33.6277489  65.2729603
  46.4553982  33.2007212  65.9475401  45.2441173  33.5428332  65.4030679
  46.0275816  33.5522229  65.3924613  34.8010057  36.2585008  63.3312449
  34.0822046  36.6749141  63.5985313  35.1722419  36.8239247  62.7804087
  34.7501988  36.4034290  63.2895256  44.1009637  36.8912857  69.2214445
  44.0807565  36.7096152  70.0749224  44.1488838  37.7624876  69.1974029
  44.1044278  36.9929396  69.3437740  42.0455967  43.4800049  75.1462921
  42.0051822  42.8349726  74.5608077  42.8579286  43.4236667  75.4588333
  42.1599121  43.3759016  75.1059871  38.6363435  49.5318775  65.0488072
  38.2223834  48.8692905  64.6591914  39.3210809  49.6796634  64.5283766
  38.6761807  49.4559433  64.9144569  42.0028729  48.6908860  65.8011689
  41.6045012  48.8011131  65.0332509  41.3879949  48.8990927  66.3838249
  41.8527618  48.7382429  65.7742988  40.5756631  35.2983008  58.6685829
  39.9821470  35.6200005  58.1170396  40.6131909  34.4524104  58.4606935
  40.4931020  35.2207337  58.5568600  47.5350432  28.7495901  66.2013915
  47.0281296  28.0425040  66.1335093  48.3317865  28.4189089  66.3314992
  47.5777671  28.5969052  66.2112910  37.7333676  37.1096986  71.7012679
  37.2212579  36.5018169  72.0597710  37.5613172  37.8253578  72.1686655
  37.6323313  37.1260285  71.8228903  32.5799391  35.5534561  74.3515041
  32.4101981  36.2135936  73.8063248  32.1365341  35.7641122  75.0727530
  32.4898724  35.6820543  74.3776670  36.5059210  33.7939059  63.3941775
  36.9816576  34.1556139  62.7591956  36.0047810  34.4495527  63.6741917
  36.5024569  33.9433248  63.3418515  41.6102746  35.0321231  74.1414935
  42.1674177  34.8035040  73.5093400  41.2863811  35.7926896  73.8650147
  41.6449157  35.1105067  74.0071432  29.4801455  38.4581427  69.6103531
  28.9328175  37.7882072  69.7284399  30.2693833  38.0911275  69.6746998
  29.5153639  38.3046413  69.6372231  39.3285864  38.1188884  75.1066942
  40.0797191  38.4340561  75.4206496  39.5208440  37.9168055  74.2800863
  39.4677278  38.1356266  75.0310337  46.1771154  34.2462450  62.3490737
  46.1765380  34.0911107  63.2075014  45.9727334  35.0925437  62.2932123
  46.1470932  34.3483071  62.4678677  28.2388425  37.6702235  66.7649554
  28.0610186  37.2178844  67.4904469  27.9507447  38.4728396  66.9488031
  28.1701378  37.7224792  66.8993057  43.9012006  38.9259952  66.0026944
  44.3965671  38.2082947  65.9630964  43.0911782  38.6230750  65.8881431
  43.8555899  38.7757598  65.9800670  29.9760895  40.2029958  63.8771313
  29.1106414  40.1915649  63.7654084  30.0759711  40.0160181  64.7242452
  29.8635062  40.1736020  63.9860257  45.9663825  41.6763639  68.6904073
  46.3918896  41.1538061  68.1374498  45.6020745  42.2744477  68.1692696
  45.9750427  41.6873866  68.5313083  35.6017905  49.9727857  67.4501418
  35.9164463  50.7864245  67.4579200  36.0111318  49.5878076  68.1183577
  35.7086003  50.0356559  67.5505510  42.5542424  45.3897904  65.0205230
  43.0253602  46.1038166  65.1895215  42.8902603  44.7896654  65.5565100
  42.6737539  45.4069368  65.1237606  44.6419409  46.9999217  77.1997302
  44.7516374  46.2107778  77.5554050  44.9710305  46.9105153  76.3971640
  44.7071815  46.8705070  77.1339693  39.4711919  30.1625374  71.9763325
  39.6039825  29.3656368  72.3044301  39.8557072  30.6891777  72.5561601
  39.5468248  30.1225291  72.1106828  43.1916371  45.1815838  71.7832923
  42.6437316  44.5573721  71.5152988  43.6529399  45.3710110  71.0677002
  43.1783580  45.1174888  71.6383354  42.5444274  27.0855700  68.5744418
  41.7390238  26.9753430  68.8912257  42.4151010  27.1868156  67.7174284
  42.4064407  27.0839370  68.4952459  46.0010235  33.2501192  69.1684115
  45.4173224  33.7510399  68.7561683  46.3214529  32.7430748  68.5348439
  45.9623410  33.2493027  69.0142622  38.5405034  32.1641787  59.4442790
  39.3620728  32.3340100  59.2024485  38.0774685  32.3189048  58.7209088
  38.5936196  32.2123520  59.3014434  37.1300366  30.1584549  70.2241219
  37.6744779  29.8175676  70.8145561  37.1837302  31.0170011  70.3662503
  37.2189485  30.2339809  70.3323092  32.9430925  43.9200965  67.0980027
  33.5475782  43.8796800  66.4693847  32.7358237  44.7672117  67.1284083
  33.0019822  44.0388968  67.0096143  42.7574697  46.1866911  68.3142264
  43.5773071  46.0429877  68.5758559  42.4768774  46.8113109  68.8558702
  42.8371440  46.2577263  68.4330204  28.1782207  42.9035583  66.9678950
  28.0806485  42.0931854  67.2769007  28.9611077  42.8827376  66.5825218
  28.2798343  42.7802673  66.9565813  59.2288347  53.8431762  61.2785140
  59.1982352  54.6976399  61.4503410  59.8269696  53.5427055  61.8371284
  59.3125505  53.9248259  61.3859943  52.4288032  52.9307413  66.0338071
  51.5725928  53.0915912  66.0847188  52.4755686  52.0599477  66.0543132
  52.3087143  52.8258215  66.0444137  46.8129172  62.4670131  61.7975302
  46.0612071  62.0885669  61.5691348  47.2615183  62.4988565  61.0494113
  46.7678839  62.4155738  61.6532805  52.2654132  62.8895501  57.2260850
  51.9305500  63.5672422  56.7905072  52.7781002  62.5000812  56.6377721
  52.2919713  62.9320079  57.0747641  51.8058423  64.8409769  63.1671961
  52.1897802  65.4096668  62.6276736  51.7417564  64.1159280  62.6877777
  51.8531850  64.8185233  63.0165824  55.2739853  54.9899457  68.6769723
  55.8195813  55.6684544  68.7363692  55.2156729  54.8486918  67.8171304
  55.3455767  55.0691459  68.5581783  48.3913928  62.4788523  64.0638075
  48.4924291  61.6688877  64.3735203  47.7955673  62.3845470  63.4337753
  48.3186467  62.3453551  64.0164313  57.0504922  56.4184064  59.5503450
  56.9344448  57.1691750  59.9795588  57.8460808  56.1608018  59.7999537
  57.1509511  56.4918911  59.6507542  48.2314668  67.3966112  65.4652931
  48.8752123  67.8379276  65.8549089  48.5570923  66.5919539  65.3783190
  48.3746496  67.3431307  65.5098408  41.5878972  58.5008810  63.6890409
  41.3529157  57.6676462  63.5822677  41.7264613  58.7813476  62.8751610
  41.5734635  58.4192313  63.5532764  43.8869060  50.6694540  66.5874716
  43.2674091  50.0787188  66.4184731  43.7852923  51.2605976  65.9539040
  43.7806735  50.6698623  66.4679706  48.9335247  60.4078087  60.8372793
  49.2551088  60.9483295  60.2334101  49.5807344  59.8374859  60.9695082
  49.0761302  60.4037262  60.7679828  50.9836955  52.4094082  60.9207179
  51.6817120  52.5882210  61.4128643  51.2989288  51.8864422  60.2977569
  51.1332292  52.3587854  60.9009190  51.1724891  58.7964527  60.9086971
  51.6118526  58.1881628  61.3541744  51.0229554  58.4171901  60.1372436
  51.2146356  58.6502998  60.8606138  48.6396534  57.3908539  68.1105796
  49.2845536  56.8980982  67.7916745  48.8798311  57.5333326  68.9371875
  48.7707119  57.3385981  68.1855330  51.1782625  60.2363445  67.7612689
  51.4605868  59.4414851  67.5399445  51.9068785  60.7144032  67.7817750
  51.3272189  60.1898042  67.7315704  49.1563819  47.7786479  65.0028454
  48.8267149  48.2297622  64.3332153  48.4808821  47.7002642  65.5501460
  49.0074255  47.8337614  64.9851677  54.7734227  57.1491709  57.8617740
  54.6885522  58.0052675  58.0067309  55.2618610  56.8736033  58.5299899
  54.8323124  57.2349030  57.9819822  56.3640227  43.7672002  63.2478065
  56.0493668  44.4575480  63.6798487  55.8467168  43.7116784  62.5463565
  56.2404697  43.8606890  63.2075014  55.7052660  53.7676503  59.3615475
  55.1764132  53.9836136  60.0212781  56.2277680  54.4612641  59.2816445
  55.7041113  53.9019640  59.4471074  61.1600713  59.3422807  64.7348520
  60.3298416  59.5533451  64.8981936  61.1109966  58.5159862  64.4590803
  61.0307449  59.2512413  64.7185885  47.5952268  57.6639720  58.1622943
  47.0109483  58.1689751  58.5688807  47.1922363  57.4382106  57.4219535
  47.4491572  57.7047968  58.1127968  43.1496297  63.3794481  64.9646615
  42.6663875  64.1044970  64.9406198  43.9619615  63.6770611  65.0756772
  43.1987045  63.5296834  64.9773894  49.2210451  62.1726661  67.5696429
  48.7037393  61.8134076  66.9657737  49.9184842  61.6488836  67.5802495
  49.2476032  62.0424349  67.4826688  52.0529483  53.9105372  56.6391864
  52.2925486  54.1183355  55.8267207  52.3745324  53.1062880  56.7480808
  52.1366641  53.8219473  56.5352417  46.0040494  63.8950657  65.1166895
  46.7061073  63.3802646  65.1739651  45.9237977  64.2224808  65.9213770
  46.0964255  63.8664883  65.2439687  60.6554672  51.9893208  68.5298941
  59.8183093  52.0595395  68.7646536  60.6242903  51.9917703  67.6573243
  60.5272954  52.0003435  68.4358489  47.0519401  54.1326243  74.2447310
  47.2239904  54.0232138  75.0932591  47.5888758  54.7780649  74.0078502
  47.1564405  54.2118245  74.3352406  45.3291270  60.0857009  64.6252503
  46.1680169  60.3179941  64.6726264  45.3603039  59.2161320  64.5559538
  45.4572987  59.9913955  64.6217147  45.9543973  60.5057884  68.9265808
  46.4942198  60.3629015  69.5969181  45.2713919  60.9054635  69.2949834
  45.9336126  60.5437555  69.0800230  55.3784857  56.1848884  64.1210833
  56.1342372  56.6180399  64.1599741  55.4847182  55.5353654  64.6945469
  55.5055028  56.1526368  64.2108858  58.4165029  60.0122162  64.8713236
  57.9800260  60.0158904  65.6272207  58.0827944  60.6927661  64.4392813
  58.3027649  60.1134617  64.9194068  41.3581118  56.7258175  69.0800230
  41.0919533  55.9097291  69.2391220  41.3719682  56.7711330  68.2095745
  41.3205840  56.6115079  68.9753712  58.3362511  47.0535989  67.1142663
  58.9788420  47.1234094  67.7004579  58.5885532  46.3865212  66.6122205
  58.4684644  46.9662338  67.1269943  46.1079724  50.2636553  71.7267237
  45.4151521  49.7933533  71.9727969  46.7240051  50.0374857  72.3008945
  46.0964254  50.1603685  71.8476390  61.5509375  56.7303081  63.7632873
  62.2125809  56.1693750  63.6628781  60.9100787  56.2355112  64.0885564
  61.5538242  56.5739491  63.7965213  52.4386183  60.0273213  56.0713796
  52.8537331  59.6958237  55.3798292  51.6078112  59.7942115  55.9433933
  52.3774191  59.9444469  55.9504643  41.7674531  57.5116954  66.3611974
  41.5850105  57.4863840  65.5084266  42.5024200  57.9815892  66.4000883
  41.8488595  57.5778316  66.2409892  57.8374205  57.7468464  63.5044862
  58.0729795  57.8913663  62.6771712  57.9863769  58.5110872  63.8976375
  57.8940009  57.8807518  63.4408465  44.8320283  54.2301957  72.8694083
  45.5560255  54.2154987  73.3558977  44.9336419  54.9397312  72.3716051
  44.9538492  54.3326660  72.8672869  59.6664662  56.5870130  61.3414465
  59.9972879  57.1197770  60.7354560  60.2397750  56.6409018  61.9976416
  59.7998341  56.6739699  61.3492247  54.8796551  54.4335033  62.0238045
  54.9743406  55.1724327  62.4777671  54.2555395  54.0052508  62.4572610
  54.8005581  54.4796353  62.1546193  41.7345442  54.3910455  66.5111041
  42.3118944  54.2546905  67.1503286  41.0359503  53.9346239  66.7656625
  41.7166463  54.3032721  66.6433330  55.1319573  56.2783772  55.2574997
  55.0499735  56.3485959  56.1229984  55.7699293  56.8413516  55.0658738
  55.2139410  56.3722743  55.3564947  48.4912744  56.0444510  64.7249524
  48.2331988  55.2116245  64.6980823  48.5461227  56.2702123  63.8842024
  48.4612522  55.9542282  64.5969661  47.4647456  53.5982273  65.2114419
  46.8897047  53.7574441  65.8478379  47.0883132  52.9617682  64.7482869
  47.3250268  53.5280086  65.2368977  60.7744014  51.8280627  62.8454627
  60.5180579  51.0160568  62.6552510  61.6173328  51.8358194  62.6184814
  60.8610039  51.7092624  62.7839444  37.2104275  53.2422348  63.2258859
  37.2964527  52.8654216  64.0072389  37.8380072  52.8682793  62.7478817
  37.3160826  53.1307830  63.2704336  54.9547106  45.7680251  67.5830781
  55.3357618  45.0858422  67.9698655  54.1510390  45.4789853  67.4006446
  54.8923568  45.6247299  67.6134837  52.2359683  56.3004227  58.2683604
  53.0500322  56.5919119  58.1566375  52.1718824  55.6464089  57.6941897
  52.3462422  56.2469421  58.1672441  48.1067591  59.7725744  63.3955916
  48.7441538  59.5337492  63.9407709  48.5322663  59.9762903  62.6609077
  48.2643757  59.7676754  63.3673073  42.7980234  62.0114081  67.2790220
  42.8384379  62.2828932  66.4509999  43.3574758  62.5355989  67.6948008
  42.8863579  62.1289836  67.2182108  48.7470406  54.9928034  57.7330805
  49.1315559  54.7735741  58.4847350  48.4982026  55.8190979  57.8631882
  48.7672479  55.0826180  57.8631882  48.9138947  48.2734449  77.4493390
  48.5992388  49.0434012  77.1862952  48.5928879  47.7104705  76.8645617
  48.8197866  48.3044718  77.3234740  50.4889063  60.2498167  65.0749702
  50.5628071  60.0873339  65.9291552  51.3058569  60.4388356  64.8310184
  50.6205422  60.2534909  65.1647728  44.2494820  60.5956030  62.1044146
  43.4232937  60.8417767  61.9778425  44.3106811  60.5168110  62.9706204
  44.1368987  60.6200978  62.2133090  46.4670844  46.6624971  63.0639586
  45.5993269  46.7347570  63.1297195  46.7546048  47.4647049  63.2527561
  46.3810592  46.7919118  63.1014353  55.5903732  46.8102830  71.3950908
  56.3357324  46.6212640  70.9814333  55.1741037  47.3361068  70.8364764
  55.6388706  46.8604975  71.2515481  49.0293649  63.2132910  59.8063176
  49.3191947  62.8221891  59.0822402  49.7597130  63.3949615  60.2468451
  49.1800533  63.1826724  59.7645983  62.9666003  54.1812058  66.3456413
  63.5173925  53.5480127  66.5853505  62.9510118  54.7127451  67.0371917
  63.0451199  54.1661007  66.4835271  49.6188394  58.0150656  70.8916306
  49.1200088  58.7266423  70.9701195  50.4288618  58.3351322  70.8534469
  49.6644501  58.1677504  70.8972875  46.9699564  65.1900292  62.8723325
  46.7499860  64.8997647  63.6649992  46.7494086  64.5315247  62.3441238
  46.9047159  65.0500001  62.9112234  45.8816512  57.2773609  65.1379027
  45.5929760  56.6511080  65.6724754  46.7499860  57.2193896  65.2043708
  45.9676763  57.1761153  65.2269982  56.6694409  52.4208392  65.4561009
  56.3259175  51.6998727  65.8068259  56.7687452  52.2122243  64.6139367
  56.6336452  52.2832595  65.3832689  49.1367520  66.5629682  61.6554018
  49.7891578  66.0306124  61.8845044  48.4393129  66.2098334  62.0421892
  49.1298238  66.4319205  61.7466186  46.0848785  58.9168860  61.0621392
  46.8394753  59.2981899  61.2756855  45.4919398  59.3680003  61.5168089
  46.1085499  59.0397687  61.1604271  57.1307438  58.8834096  60.9984997
  57.6965471  59.5427306  60.9143540  56.4835342  59.2283794  61.4701399
  57.1186195  59.0316037  61.0557754  48.5455452  50.8731700  76.1878604
  47.7355228  51.1789480  76.0768447  49.0230139  51.5937282  76.3031188
  48.4958931  51.0246301  76.1885675  47.4047012  60.0877421  66.4361508
  46.8827765  60.2277713  67.1213372  47.7921032  59.3288085  66.6263625
  47.3850712  59.9962945  66.5662584  44.3938196  50.1383230  60.5056462
  44.1062991  49.7684500  59.7688410  45.0808664  50.6078085  60.2440167
  44.4527093  50.1530199  60.3571538  53.6014017  61.8272880  60.4222076
  53.3600692  61.0940741  60.0149141  53.7815349  62.3759737  59.7688410
  53.5921640  61.7995271  60.2652299  48.8313337  57.1181440  61.8342999
  48.6356120  57.7256175  61.2403302  49.0547683  56.4249384  61.3534672
  48.8347978  57.1058966  61.6759079  55.1885375  50.3399977  67.3320552
  54.3496475  50.3661256  67.0958815  55.2589742  50.9870712  67.9125898
  55.0753768  50.4396103  67.3829669  44.8799484  56.4094250  71.0578007
  45.3920581  56.6878504  70.4086767  44.5935826  57.1483544  71.4240820
  44.9134347  56.5596604  71.0167885  59.0642899  55.5467964  64.6181794
  58.9776873  55.7023390  65.4716572  58.6093379  56.1906039  64.2441199
  58.9846155  55.6643719  64.6888900  41.9666390  50.9164442  61.3541743
  42.0682527  51.7190604  61.6822719  42.7622277  50.7151778  61.0564824
  42.0994296  51.0050341  61.3577099  48.3983209  48.5020639  71.1179048
  48.2066406  48.5175773  71.9678472  49.2481805  48.6984313  71.0945703
  48.4958931  48.5334990  71.2402343  42.7830122  51.0311620  69.0962865
  42.6415614  50.1795561  69.2207373  43.0670686  51.0740281  68.2725071
  42.8037968  50.9111371  68.9930489  52.9368715  52.8678711  63.2407353
  52.6903429  52.7874462  64.0744142  53.2653838  52.0832179  63.0469881
  52.9489958  52.7404976  63.3354876  56.8316763  59.5762070  67.0294134
  56.6931123  60.2743116  67.5342877  56.0516761  59.4210726  66.6730316
  56.6959990  59.6562237  67.0520408  48.8965742  55.6035429  72.6530336
  49.0409118  56.1836637  72.0173446  49.2441390  55.9811726  73.3580191
  48.9693203  55.7456133  72.6629331  51.0685659  54.8025598  70.4355468
  50.3208973  54.9956612  70.0303746  51.2227185  53.9770817  70.1979589
  50.9808087  54.7090709  70.3400874  58.3270136  58.9340324  57.7910634
  57.9476945  58.1477462  57.7839923  57.6636382  59.4827181  57.6482278
  58.1728611  58.8985148  57.7691430  51.3087436  48.6976148  71.3250872
  51.7660050  49.4300123  71.4523664  51.3843765  48.2742614  72.0838127
  51.3878406  48.7433386  71.4551948  43.5520428  48.9441968  72.4140315
  43.0162617  48.3322326  72.7301082  43.6138192  49.5190104  73.0673982
  43.4816060  48.9388896  72.5575742  55.7814762  41.8766024  65.1944714
  55.8998330  42.3342487  64.4612017  55.6076938  41.0711285  64.9080932
  55.7733933  41.8259796  65.0445648  51.1517044  62.4853843  61.6299460
  51.9166936  62.2163487  61.3082124  51.0495134  62.0003853  62.3469523
  51.2498540  62.3743407  61.6879287  49.1869814  50.6878252  68.1692696
  48.3965889  50.5069712  68.4910031  49.5830437  49.9105205  68.1522990
  49.1286690  50.5465713  68.2145244  53.6735705  59.5166027  53.6099409
  54.4408690  59.5766152  53.2005261  53.2267014  58.9446468  53.1255728
  53.7209132  59.4402602  53.4777119  54.5713501  58.3220682  65.8952141
  53.8958502  58.0905915  66.3965528  54.5805877  57.7141865  65.2694246
  54.4732005  58.1979608  65.8768294  51.7007645  53.1638511  72.6516194
  51.6366786  54.0248468  72.5236331  51.8404832  52.8470505  71.8511746
  51.7123115  53.2438678  72.5144407  56.5730235  61.1785815  58.1262319
  56.6550073  61.9852801  57.8023770  57.0579977  61.1981774  58.8503093
  56.6567393  61.3006477  58.1849218  50.3826738  55.8570651  66.7932397
  49.9588988  56.0575150  66.0571416  50.2071594  55.0099499  66.9056697
  50.2937619  55.7619432  66.7006087  45.6709183  56.3522702  62.2260370
  45.8273803  56.2869505  63.0816362  46.0109776  57.1271255  62.0139049
  45.7442418  56.4571900  62.3214964  52.2088328  55.7280586  61.0953733
  52.7503873  55.2250967  61.5592354  52.5234887  55.6745780  60.2843218
  52.3352725  55.6460007  61.0437545  50.3774778  61.1197937  58.3793761
  50.4467598  60.2612476  58.5186762  51.1563233  61.3369818  58.0512786
  50.5027628  61.0250801  58.3510918  53.3577597  50.6216890  71.1476034
  53.5719567  49.9827804  70.5939388  52.7411497  51.0662714  70.7183895
  53.2982927  50.5927034  71.0026465  54.7682265  63.5435639  62.5930254
  54.3762057  63.2402354  61.8753121  54.9235338  64.3804729  62.4035208
  54.7335855  63.6219475  62.4586752  42.2443445  53.5357653  62.5421137
  42.6242410  53.9542198  61.8781404  41.6698810  54.1171108  62.8489980
  42.2154770  53.6835511  62.4897878  55.5216685  52.2305955  72.0859341
  54.7093367  51.9231846  72.1672513  55.9806620  51.7504956  72.6502053
  55.4697070  52.1142448  72.1813935  54.9321940  60.1085627  62.5336285
  54.5736595  60.2800270  63.3100317  54.4460651  60.5698833  61.9764283
  54.8080637  60.2024598  62.5661554  52.7492326  43.7316826  66.1363376
  51.8785884  43.7055547  66.0896686  53.0032667  43.5594018  65.3189222
  52.6585886  43.7026970  66.0083513  49.7210305  55.7884793  55.0736519
  50.0102830  56.5649675  55.3480094  49.8082104  55.2773524  55.7751019
  49.7764562  55.8276711  55.2179017  49.7741467  45.7423054  67.5936847
  49.2579955  45.0503246  67.7188426  49.2135395  46.4093831  67.5399445
  49.6147980  45.7386312  67.6042913  51.8433700  46.2816014  69.4229699
  51.4565453  46.3065046  70.2043229  51.3566637  45.7157693  68.9704216
  51.7146209  46.2011765  69.4717603  57.8183679  52.8478669  68.0469401
  57.3911288  52.7605018  67.2917501  57.1809732  52.9556445  68.6324246
  57.6613287  52.8511329  68.0214843  51.5090842  43.1683000  71.7139959
  52.1383960  43.7043300  71.4361030  51.6776704  43.0760359  72.5653525
  51.6268636  43.2344362  71.7988487  51.3104757  47.9554195  73.9866371
  52.1378186  47.6839343  74.0424985  51.3312603  48.7515036  74.3430189
  51.4357607  48.0333949  74.0481554  45.8874246  55.1018057  67.1736631
  45.0462253  55.0021932  67.3815525  46.0964254  55.8713538  67.5250952
  45.7938939  55.2010101  67.2563946  43.3649813  52.7237594  65.0021382
  42.9706511  52.7980606  64.2271492  42.8089930  53.1095541  65.5529744
  43.2252626  52.7919369  64.9689042  55.0014760  45.7018888  64.6825261
  55.2064354  45.6341196  65.5282258  54.6741184  46.5077710  64.6146438
  54.9830008  45.8104829  64.7984916  49.6990911  53.0299457  66.4234229
  49.3954049  52.4755445  67.0244637  48.9970332  53.2091667  65.9362263
  49.5507121  52.9744239  66.4403935  47.7609262  60.2449177  71.1306327
  47.6529617  60.2551239  71.9968385  47.9705044  61.0703958  70.9411281
  47.7759373  60.3690252  71.2310418  58.2548448  46.2550653  64.1628026
  57.6422761  46.7421055  64.5481758  58.3512623  45.5794143  64.7065678
  58.1786346  46.2268961  64.3006885  45.7783054  57.4961820  68.5928264
  45.1870988  58.1371318  68.5631279  46.5404078  57.9199437  68.5659564
  45.8031315  57.6537658  68.5843412  46.1743677  48.6563817  69.2596282
  46.6345159  48.7302747  69.9971406  46.2199784  49.4545071  68.9096103
  46.2494232  48.7857965  69.3169038  47.8227027  49.3230512  73.8268309
  47.4312592  48.6763859  74.2624087  47.9912890  49.9141948  74.4462564
  47.7897937  49.3144780  73.9831015  55.5372571  62.9471131  66.0260289
  55.3392259  63.4361946  65.3316500  54.9160282  63.1512373  66.6044422
  55.4160135  63.0487670  66.0083512  49.5980549  54.7156028  60.3670533
  50.3422594  55.1030304  60.6053483  49.7441245  53.8713453  60.5311021
  49.7291134  54.6486501  60.4264503  52.5858425  50.2881501  66.2664452
  52.1118379  49.7623263  66.7769763  52.9576561  49.7410974  65.6979314
  52.5708314  50.1297498  66.2579600  42.9631455  52.2853008  71.6347998
  43.8257068  52.1848717  71.5485328  42.6323238  51.7047717  71.0733570
  43.0416651  52.1844635  71.5393404  58.8495155  55.3483877  67.6771233
  58.6093378  54.5090292  67.6813659  59.3287162  55.4284044  68.4012006
  58.8847339  55.2365277  67.7846035  60.8500342  52.1285334  65.6300492
  60.6110112  52.0881168  64.7921277  61.0134244  52.9756486  65.7566213
  60.8390646  52.2477419  65.5253974  46.3233241  51.1095457  68.2958416
  45.6986311  51.1213849  67.6884369  45.9878836  51.5855632  68.9449657
  46.1818733  51.1813974  68.3014985  43.0358916  59.1695917  69.7362181
  42.5058841  58.4788356  69.7857155  43.3084010  59.1606103  68.9074889
  42.9983639  59.0663049  69.6209597  54.0679007  59.7521620  58.4599863
  54.7913206  60.2179733  58.3164437  53.6279598  59.8195229  57.7097460
  54.1094699  59.8305456  58.3284645  53.2365162  56.6119162  69.7100552
  52.6222155  56.0677212  70.0049188  53.7532447  56.0983398  69.2306368
  53.2220824  56.4555571  69.6824781  52.4761459  57.6823432  67.4444851
  52.0489067  57.0573150  67.0110286  52.4686404  57.3998354  68.2703858
  52.4120600  57.5476213  67.5024678  45.5923986  52.7188605  70.5133285
  45.7517473  51.9631929  70.9185007  45.4116880  53.2679544  71.1674023
  45.5889345  52.6882419  70.6695991  53.5344289  44.8849840  71.0684074
  53.0384850  45.0813515  70.3775641  54.2913351  45.2842509  70.8972876
  53.5731114  44.9727574  70.9404211  50.8047169  48.5592186  67.6587385
  50.8289656  48.0252299  66.9700165  51.0558642  48.0509495  68.3212975
  50.8457087  48.4053090  67.6552030  38.3154759  55.8423681  67.0930529
  38.2098208  55.7970526  66.2282613  37.5654979  56.1877462  67.3744814
  38.1890362  55.8864590  67.0067859  47.0848491  47.2863005  67.0393129
  47.1246863  47.7872211  67.7527837  46.2598156  47.3773398  66.7699052
  46.9688017  47.3744821  67.1043667  48.5062854  53.8023514  69.3367028
  47.6754784  53.9697332  69.1302276  48.4514372  53.4259465  70.1215914
  48.3752269  53.7713246  69.4215556  46.3146638  47.2932407  74.9723439
  46.9399341  46.7494540  75.2452871  45.8597118  46.8127325  74.4031229
  46.3394898  47.1421889  74.9285033  46.8798898  52.0779106  59.8657146
  47.0201859  52.5751570  60.5685787  47.3781431  51.3765400  60.0071360
  46.9739979  52.0481085  59.9908725  46.9099121  52.9446217  57.1949723
  47.5444200  53.5406642  57.1299185  46.9924731  52.6449675  58.0095593
  47.0155672  52.9887125  57.3052809  48.4878103  48.8760192  57.1695165
  48.8093945  48.3963275  56.5154427  48.7505047  49.6859839  56.9785976
  48.5744129  48.9250090  57.0450657  53.8837258  48.2632386  69.5318644
  54.3092330  47.8104913  68.9202170  53.2694252  47.7092457  69.8083431
  53.8565904  48.1146363  69.4823669  43.4152109  55.1414058  60.4639269
  43.9244338  55.7378565  60.8450574  43.8886381  54.8740031  59.7815688
  43.5595484  55.1899873  60.4193791  54.3282857  63.8142324  58.6197924
  53.6112166  63.6403187  58.1545162  54.9789594  63.5794897  58.0873410
  54.3184707  63.7538117  58.4727142  56.9130828  52.6906913  62.3639229
  56.2422018  53.2336615  62.2352295  57.6070578  53.1601768  62.1220924
  56.9159695  52.8405184  62.3094757  50.9617562  64.8303625  67.5950988
  50.7383216  64.0722454  67.9635014  50.4727405  64.8601646  66.8731427
  50.8561011  64.7225850  67.5427729  57.0758955  49.1462797  65.2729603
  57.4286565  48.7192520  65.9475401  56.2173757  49.0613640  65.4030679
  57.0008400  49.0707537  65.3924613  45.7742640  51.7770316  63.3312449
  45.0554629  52.1934449  63.5985313  46.1455003  52.3424555  62.7804087
  45.7234572  51.9219598  63.2895256  55.0742221  52.4098165  69.2214445
  55.0540148  52.2281460  70.0749224  55.1221422  53.2810184  69.1974029
  55.0776862  52.5114704  69.3437740  49.6096018  65.0504083  65.0488072
  49.1956417  64.3878213  64.6591914  50.2943393  65.1981942  64.5283766
  49.6494390  64.9744741  64.9144569  52.9761313  64.2094168  65.8011689
  52.5777596  64.3196439  65.0332509  52.3612532  64.4176235  66.3838249
  52.8260202  64.2567736  65.7742988  58.5083015  44.2681208  66.2013915
  58.0013880  43.5610348  66.1335093  59.3050449  43.9374397  66.3314992
  58.5510255  44.1154360  66.2112910  54.4247031  50.7747821  62.0987579
  54.1960724  50.7980522  61.2565937  54.6845107  49.9505288  62.2182589
  54.4293219  50.6563901  61.9912777  48.7066260  52.6282294  71.7012679
  48.1945163  52.0203477  72.0597710  48.5345756  53.3438886  72.1686655
  48.6055897  52.6445593  71.8228903  43.5531974  51.0719869  74.3515041
  43.3834565  51.7321244  73.8063248  43.1097924  51.2826430  75.0727530
  43.4631308  51.2005851  74.3776670  47.4791794  49.3124367  63.3941775
  47.9549160  49.6741447  62.7591956  46.9780393  49.9680835  63.6741917
  47.4757153  49.4618556  63.3418515  60.7103155  58.7846135  59.1854780
  61.0936761  59.5337491  59.4152877  59.9147269  59.0311955  58.9266769
  60.6496938  58.9315829  59.1812353  52.5835330  50.5506538  74.1414935
  53.1406760  50.3220348  73.5093400  52.2596395  51.3112204  73.8650147
  52.6181740  50.6290375  74.0071432  40.4534039  53.9766735  69.6103531
  39.9060758  53.3067380  69.7284399  41.2426417  53.6096583  69.6746998
  40.4886223  53.8231721  69.6372231  49.5218447  51.4565567  56.7615158
  49.9017412  51.4745196  55.9766273  48.7811043  51.9019556  56.6406006
  49.4687285  51.5247341  56.6278727  57.1503737  49.7647758  62.3490737
  57.1497964  49.6096415  63.2075014  56.9459917  50.6110745  62.2932123
  57.1203515  49.8668379  62.4678677  39.2121008  53.1887542  66.7649554
  39.0342769  52.7364151  67.4904469  38.9240030  53.9913704  66.9488031
  39.1433962  53.2410100  66.8993057  54.8744589  54.4445260  66.0026944
  55.3698255  53.7268255  65.9630964  54.0644365  54.1416058  65.8881431
  54.8288483  54.2942906  65.9800670  50.3203201  58.2943073  58.1523949
  49.5114524  57.9709747  58.1057258  50.8278110  57.5876295  58.0852197
  50.2752868  58.1424389  58.1354243  40.9493478  55.7215266  63.8771313
  40.0838998  55.7100957  63.7654084  41.0492294  55.5345489  64.7242452
  40.8367645  55.6921327  63.9860257  56.9396408  57.1948947  68.6904073
  57.3651480  56.6723369  68.1374498  56.5753328  57.7929785  68.1692696
  56.9483011  57.2059174  68.5313083  46.5750488  65.4913165  67.4501418
  46.8897047  66.3049553  67.4579200  46.9843901  65.1063384  68.1183577
  46.6818586  65.5541867  67.5505510  53.5275008  60.9083212  65.0205230
  53.9986186  61.6223474  65.1895215  53.8635186  60.3081962  65.5565100
  53.6470123  60.9254676  65.1237606  50.4444503  45.6810682  71.9763325
  50.5772408  44.8841676  72.3044301  50.8289655  46.2077085  72.5561601
  50.5200832  45.6410599  72.1106828  53.5176858  42.6041008  68.5744418
  52.7122822  42.4938738  68.8912257  53.3883593  42.7053464  67.7174284
  53.3796991  42.6024678  68.4952459  56.9742818  48.7686500  69.1684115
  56.3905807  49.2695707  68.7561683  57.2947112  48.2616056  68.5348439
  56.9355994  48.7678335  69.0142622  48.1032949  45.6769857  70.2241219
  48.6477362  45.3360984  70.8145561  48.1569885  46.5355319  70.3662503
  48.1922069  45.7525117  70.3323092  43.9163508  59.4386273  67.0980027
  44.5208366  59.3982107  66.4693847  43.7090821  60.2857425  67.1284083
  43.9752406  59.5574276  67.0096143  53.7307280  61.7052218  68.3142264
  54.5505654  61.5615184  68.5758559  53.4501358  62.3298417  68.8558702
  53.8104024  61.7762570  68.4330204  39.1514791  58.4220891  66.9678950
  39.0539069  57.6117162  67.2769007  39.9343660  58.4012684  66.5825218
  39.2530927  58.2987981  66.9565813  61.9569539  67.9279390  60.9207179
  62.6549704  68.1067518  61.4128643  62.2721871  67.4049730  60.2977569
  62.1064876  67.8773162  60.9009190  60.1296402  63.2971787  65.0028454
  59.7999732  63.7482930  64.3332153  59.4541404  63.2187950  65.5501460
  59.9806839  63.3522922  64.9851677  67.3372810  59.2857310  63.2478065
  67.0226251  59.9760788  63.6798487  66.8199752  59.2302092  62.5463565
  67.2137281  59.3792198  63.2075014  58.5684852  73.1825027  58.1622943
  57.9842067  73.6875059  58.5688807  58.1654947  72.9567414  57.4219535
  58.4224156  73.2233276  58.1127968  63.0262066  69.4290680  56.6391864
  63.2658070  69.6368663  55.8267207  63.3477907  68.6248188  56.7480808
  63.1099224  69.3404781  56.5352417  58.3352357  61.3584075  60.4851402
  59.0898325  61.7262392  60.2468452  58.1579891  61.7323630  61.2530581
  58.4206835  61.4682263  60.5636290  56.6909421  63.7654394  57.1829515
  56.5084994  63.9826275  56.3570508  57.5535034  63.8793407  57.2388129
  56.7914011  63.8144292  57.0684002  62.3709140  60.7680805  60.2178539
  63.0995301  60.5896760  59.7716695  62.4604033  61.6098885  60.4285717
  62.4915802  60.8664683  60.1832056  56.2371448  67.0428567  55.6951988
  55.5229625  66.7566746  56.1074420  56.7215417  67.3825193  56.3358375
  56.2030812  67.0510217  55.8507623  63.4118766  75.5458521  56.0713796
  63.8269915  75.2143545  55.3798292  62.5810696  75.3127423  55.9433933
  63.3506775  75.4629777  55.9504643  66.1052156  71.7969080  55.2574997
  66.0232319  71.8671267  56.1229984  66.7431877  72.3598824  55.0658738
  66.1871994  71.8908051  55.3564947  48.1836858  68.7607655  63.2258859
  48.2697110  68.3839524  64.0072389  48.8112656  68.3868101  62.7478817
  48.2893409  68.6493138  63.2704336  63.2092266  71.8189535  58.2683604
  64.0232905  72.1104427  58.1566375  63.1451408  71.1649397  57.6941897
  63.3195005  71.7654729  58.1672441  59.7202990  70.5113342  57.7330805
  60.1048142  70.2921048  58.4847350  59.4714610  71.3376287  57.8631882
  59.7405062  70.6011488  57.8631882  57.4403427  62.1810278  63.0639586
  56.5725853  62.2532878  63.1297195  57.7278631  62.9832357  63.2527561
  57.3543175  62.3104426  63.1014353  55.3670779  65.6568538  60.5056462
  55.0795575  65.2869808  59.7688410  56.0541247  66.1263393  60.2440167
  55.4259676  65.6715507  60.3571538  58.2024451  69.5221486  61.9523867
  58.9247103  69.6862644  61.4927673  57.7232444  70.2431151  61.8463207
  58.2388181  69.6519716  61.8689481  64.6087237  62.7570662  62.0648168
  65.3113589  62.5578410  61.5868126  64.3431425  61.9846604  62.3717011
  64.6733869  62.6133628  62.0393609  52.9398974  66.4349750  61.3541743
  53.0415110  67.2375912  61.6822719  53.7354861  66.2337086  61.0564824
  53.0726879  66.5235649  61.3577099  66.7547346  57.3951331  65.1944714
  66.8730914  57.8527795  64.4612017  66.5809522  56.5896593  64.9080932
  66.7466517  57.3445104  65.0445648  64.6468289  75.0351335  53.6099409
  65.4141274  75.0951460  53.2005261  64.1999598  74.4631776  53.1255728
  64.6941716  74.9587910  53.4777119  53.2176028  69.0542961  62.5421137
  53.5974993  69.4727506  61.8781404  52.6431393  69.6356416  62.8489980
  53.1887353  69.2020819  62.4897878  63.7224910  59.2502134  66.1363376
  62.8518468  59.2240855  66.0896686  63.9765251  59.0779326  65.3189222
  63.6318470  59.2212278  66.0083513  60.6942889  71.3070101  55.0736519
  60.9835414  72.0834983  55.3480094  60.7814688  70.7958832  55.7751019
  60.7497145  71.3462019  55.2179017  59.7289592  65.8585284  60.9878931
  60.0049326  65.1404197  60.5756498  60.3288261  66.4570204  60.7800037
  59.8582857  65.8405655  60.8959692  63.2300112  63.5298802  59.2625526
  63.6843859  63.7009362  59.9873370  63.7040158  62.9166912  58.8623302
  63.3668433  63.4649687  59.3099287  60.5713132  70.2341336  60.3670533
  61.3155177  70.6215612  60.6053483  60.7173829  69.3898761  60.5311021
  60.7023718  70.1671809  60.4264503  65.4874508  66.7003364  59.3290206
  64.9597527  66.7832108  58.6395915  65.9470216  67.4421235  59.3254851
  65.4776358  66.8224026  59.2264901  57.4807573  64.9705884  54.3531101
  57.1320377  65.6225609  54.8162651  57.0004019  64.9562997  53.6254973
  57.3577817  65.0648937  54.3142193  57.8531482  67.5964414  59.8657146
  57.9934443  68.0936878  60.5685787  58.3514015  66.8950708  60.0071360
  57.9472563  67.5666393  59.9908725  57.8831704  68.4631525  57.1949723
  58.5176784  69.0591950  57.1299185  57.9657315  68.1634983  58.0095593
  57.9888255  68.5072433  57.3052809  59.4610687  64.3945500  57.1695165
  59.7826528  63.9148583  56.5154427  59.7237631  65.2045146  56.9785976
  59.5476712  64.4435398  57.0450657  54.3884692  70.6599366  60.4639269
  54.8976921  71.2563873  60.8450574  54.8618964  70.3925339  59.7815688
  54.5328068  70.7085181  60.4193791  63.2964065  60.2532794  62.9409221
  62.6532383  60.1030440  63.5094359  62.9563472  60.0075139  62.1758325
  63.1509142  60.1944917  62.9112236  56.7475224  67.2955624  63.3312449
  56.0287213  67.7119757  63.5985313  57.1187586  67.8609863  62.7804087
  56.6967156  67.4404906  63.2895256  62.5221798  66.3353624  58.6685829
  61.9286637  66.6570621  58.1170396  62.5597076  65.4894720  58.4606935
  62.4396187  66.2577952  58.5568600  58.4524377  64.8309675  63.3941775
  58.9281744  65.1926755  62.7591956  57.9512977  65.4866143  63.6741917
  58.4489736  64.9803864  63.3418515  60.4951030  66.9750875  56.7615158
  60.8749995  66.9930504  55.9766273  59.7543626  67.4204864  56.6406006
  60.4419868  67.0432649  56.6278727  61.2935785  73.8128381  58.1523949
  60.4847107  73.4895055  58.1057258  61.8010693  73.1061603  58.0852197
  61.2485451  73.6609697  58.1354243  60.4870201  63.2012403  59.4442790
  61.3085895  63.3710716  59.2024485  60.0239852  63.3559664  58.7209088
  60.5401363  63.2494136  59.3014434  36.9774004  -0.2560722  48.2125187
  36.9468008   0.5983914  48.3843457  37.5755353  -0.5565430  48.7711331
  37.0611162  -0.1744226  48.3199990  30.1773689  -1.1685071  52.9678118
  29.3211584  -1.0076573  53.0187234  30.2241343  -2.0393007  52.9883179
  30.0572800  -1.2734270  52.9784184  24.5614829   8.3677646  48.7315349
  23.8097728   7.9893185  48.5031394  25.0100840   8.3996080  47.9834160
  24.5164495   8.3163254  48.5872851  33.4867405   5.1001454  62.5738574
  34.1934173   4.6053485  62.7025508  33.6755341   5.5410536  61.8441232
  33.6195311   5.0919805  62.4847619  30.0139788   8.7903016  44.1600896
  29.6791157   9.4679938  43.7245119  30.5266659   8.4008327  43.5717768
  30.0405370   8.8327594  44.0087688  29.5544080  10.7417285  50.1012008
  29.9383459  11.3104183  49.5616783  29.4903221  10.0166795  49.6217824
  29.6017507  10.7192748  49.9505871  33.0225510   0.8906973  55.6109769
  33.5681470   1.5692059  55.6703739  32.9642386   0.7494433  54.7511351
  33.0941424   0.9698974  55.4921830  26.1399585   8.3796039  50.9978122
  26.2409948   7.5696393  51.3075250  25.5441330   8.2852985  50.3677800
  26.0672123   8.2461067  50.9504360  34.7990578   2.3191580  46.4843497
  34.6830104   3.0699266  46.9135635  35.5946465   2.0615533  46.7339584
  34.8995168   2.3926427  46.5847589  25.9800324  13.2973628  52.3992978
  26.6237780  13.7386792  52.7889136  26.3056580  12.4927054  52.3123237
  26.1232153  13.2438823  52.4438455  19.3364629   4.4016325  50.6230455
  19.1014813   3.5683978  50.5162724  19.4750270   4.6820991  49.8091656
  19.3220291   4.3199829  50.4872810  26.6820904   6.3085603  47.7712840
  27.0036745   6.8490810  47.1674148  27.3293001   5.7382374  47.9035129
  26.8246959   6.3044778  47.7019875  28.7322612  -1.6898402  47.8547226
  29.4302777  -1.5110275  48.3468690  29.0474945  -2.2128063  47.2317616
  28.8817949  -1.7404630  47.8349236  21.3623849   0.1154337  55.7658332
  21.2382546   0.7016783  56.4008151  22.0142134  -0.3785467  56.0670607
  21.4397499   0.1293142  55.9044261  28.9210547   4.6972043  47.8427018
  29.3604183   4.0889143  48.2881790  28.7715210   4.3179416  47.0712483
  28.9632013   4.5510514  47.7946185  26.3882190   3.2916054  55.0445843
  27.0331193   2.7988498  54.7256792  26.6283967   3.4340841  55.8711921
  26.5192776   3.2393497  55.1195376  28.9268282   6.1370960  54.6952736
  29.2091525   5.3422366  54.4739492  29.6554442   6.6151548  54.7157797
  29.0757846   6.0905557  54.6655751  32.5219884   3.0499224  44.7957787
  32.4371179   3.9060191  44.9407356  33.0104267   2.7743548  45.4639946
  32.5808781   3.1356545  44.9159868  33.4538317  -0.3315982  46.2955522
  32.9249789  -0.1156348  46.9552828  33.9763337   0.3620157  46.2156491
  33.4526770  -0.1972845  46.3811121  38.9086370   5.2430322  51.6688567
  38.0784073   5.4540966  51.8321983  38.8595622   4.4167377  51.3930850
  38.7793106   5.1519929  51.6525932  25.3437925   3.5647235  45.0962990
  24.7595140   4.0697266  45.5028854  24.9408020   3.3389622  44.3559582
  25.1977229   3.6055483  45.0468015  20.8981954   9.2801996  51.8986662
  20.4149532  10.0052486  51.8746245  21.7105272   9.5778126  52.0096819
  20.9472701   9.4304350  51.9113941  26.9696108   8.0734177  54.5036476
  26.4523049   7.7141592  53.8997784  27.6670499   7.5496351  54.5142542
  26.9961689   7.9431865  54.4166735  30.6259700   8.5228991  60.4652649
  30.7143046   8.3355131  61.3130859  31.0549412   7.8766420  60.0657496
  30.7021802   8.3991998  60.5324401  28.1930159   7.8060151  59.4470311
  27.6300994   7.3932761  59.9709972  28.9551183   7.7313056  59.8663455
  28.2224608   7.7337551  59.5863312  29.8015139  -0.1887113  43.5731911
  30.0411143   0.0190871  42.7607254  30.1230980  -0.9929604  43.6820855
  29.8852297  -0.2773012  43.4692464  23.7526151   9.7958172  52.0506941
  24.4546730   9.2810161  52.1079698  23.6723634  10.1232323  52.8553817
  23.8449911   9.7672398  52.1779734  38.4040328  -2.1099277  55.4638988
  37.5668750  -2.0397090  55.6986582  38.3728559  -2.1074782  54.5913290
  38.2758611  -2.0989050  55.3698536  23.0776926   5.9864524  51.5592549
  23.9165826   6.2187457  51.6066311  23.1088695   5.1168835  51.4899585
  23.2058644   5.8921470  51.5557194  23.7029629   6.4065399  55.8605855
  24.2427854   6.2636530  56.5309227  23.0199576   6.8062150  56.2289881
  23.6821783   6.4445070  56.0140277  33.1270514   2.0856400  51.0550879
  33.8828029   2.5187914  51.0939788  33.2332839   1.4361169  51.6285515
  33.2540685   2.0533884  51.1448905  36.1650685   5.9129677  51.8053282
  35.7285917   5.9166419  52.5612254  35.8313601   6.5935176  51.3732860
  36.0513305   6.0142133  51.8534115  30.7379759   7.9538010  63.1296433
  31.5220176   8.0668858  63.4952175  30.5376354   7.1279147  63.3255118
  30.8245784   7.8484729  63.2130819  19.1066774   2.6265690  56.0140277
  18.8405190   1.8104807  56.1731267  19.1205339   2.6718845  55.1435792
  19.0691497   2.5122595  55.9093759  23.0124521  -2.5749226  42.6292035
  22.2982699  -2.8611046  43.0414467  23.4968490  -2.2352600  43.2698422
  22.9783885  -2.5667576  42.7847670  30.8950152   9.8648112  56.7762888
  30.0965398   9.6247612  57.0336757  31.3436164   9.9162505  57.5229936
  30.8424764   9.8370503  56.9247813  39.2995032   2.6310597  50.6972920
  39.9611466   2.0701265  50.5968828  38.6586444   2.1362628  51.0225611
  39.3023899   2.4747006  50.7305260  30.1871839   5.9280728  43.0053843
  30.6022988   5.5965752  42.3138339  29.3563769   5.6949630  42.8773979
  30.1259848   5.8451984  42.8844690  19.5160188   3.4124469  53.2952021
  19.3335761   3.3871355  52.4424313  20.2509857   3.8823407  53.3340930
  19.5974252   3.4785831  53.1749939  35.5859862   3.6475979  50.4384908
  35.8215451   3.7921178  49.6111759  35.7349426   4.4118387  50.8316422
  35.6425666   3.7815034  50.3748512  37.4150319   2.4877645  48.2754512
  37.7458536   3.0205285  47.6694607  37.9883407   2.5416533  48.9316463
  37.5483998   2.5747214  48.2832294  32.6282208   0.3342548  48.9578092
  32.7229063   1.0731842  49.4117718  32.0041052  -0.0939977  49.3912657
  32.5491238   0.3803868  49.0886240  30.8834682   3.5128760  59.6068373
  31.4573544   2.8756005  59.7616937  30.8049486   3.5132843  58.7378031
  30.9567917   3.4193872  59.5014784  19.4831098   0.2917970  53.4451087
  20.0604601   0.1554421  54.0843333  18.7845160  -0.1646246  53.6996672
  19.4652120   0.2040236  53.5773377  32.8805229   2.1791288  42.1915044
  32.7985392   2.2493475  43.0570031  33.5184950   2.7421032  41.9998785
  32.9625067   2.2730259  42.2904994  26.2398401   1.9452026  51.6589571
  25.9817645   1.1123760  51.6320870  26.2946883   2.1709639  50.8182071
  26.2098178   1.8549797  51.5309707  25.2133113  -0.5010212  52.1454465
  24.6382704  -0.3418044  52.7818426  24.8368789  -1.1374803  51.6822916
  25.0735925  -0.5712399  52.1709024  28.8806401  -2.0286863  57.0046844
  28.4920834  -2.4532645  56.3499035  28.2161100  -1.7804713  57.5123870
  28.7253329  -2.0548142  56.9834712  29.9845340   2.2011742  45.2023651
  30.7985978   2.4926635  45.0906422  29.9204481   1.5471604  44.6281944
  30.0948079   2.1476937  45.1012488  36.2054830   4.8837738  59.6153226
  35.9693467   4.0525803  59.4965287  36.8498059   4.8323345  60.2008071
  36.2649501   4.7535426  59.6839120  25.8553248   5.6733259  50.3295963
  26.4927195   5.4345007  50.8747756  26.2808319   5.8770418  49.5949123
  26.0129414   5.6684270  50.3013120  20.5465890   7.9121596  54.2130267
  20.5870036   8.1836447  53.3850046  21.1060414   8.4363504  54.6288054
  20.6349236   8.0297351  54.1522155  26.4956063   0.8935549  44.6670852
  26.8801216   0.6743256  45.4187397  26.2467683   1.7198495  44.7971929
  26.5158136   0.9833695  44.7971929  37.2291250   4.6682187  55.6781521
  36.9237067   5.4010244  56.0394836  36.5097466   4.2620116  55.3974307
  37.0778593   4.7163920  55.6894658  28.2374720   6.1505682  52.0089749
  28.3113728   5.9880854  52.8631599  29.0544226   6.3395872  51.7650231
  28.3691078   6.1542424  52.0987775  42.9293043   1.3075188  55.0049865
  42.8617543   1.3271147  54.1352452  42.9148705   2.1505515  55.2305536
  42.9171799   1.4348922  54.9102342  21.9980477   6.4963545  49.0384193
  21.1718594   6.7425282  48.9118471  22.0592468   6.4175626  49.9046251
  21.8854644   6.5208494  49.1473137  26.7779306   9.1140425  46.7403222
  27.0677604   8.7229406  46.0162449  27.5082786   9.2957130  47.1808498
  26.9286190   9.0834239  46.6986029  40.7151660   0.0819574  53.2796460
  41.2659581  -0.5512357  53.5193552  40.6995775   0.6134967  53.9711964
  40.7936856   0.0668522  53.4175318  27.3674051   3.9158171  57.8256353
  26.8685744   4.6273939  57.9041241  28.1774275   4.2358838  57.7874515
  27.4130157   4.0685020  57.8312922  24.7185221  11.0907807  49.8063372
  24.4985517  10.8005162  50.5990039  24.4979743  10.4322763  49.2781285
  24.6532815  10.9507516  49.8452281  23.6302168   3.1781124  52.0719074
  23.3415417   2.5518595  52.6064801  24.4985516   3.1201411  52.1383754
  23.7162420   3.0768668  52.1610028  34.4180066  -1.6784093  52.3901056
  34.0744832  -2.3993757  52.7408305  34.5173109  -1.8870241  51.5479414
  34.3822109  -1.8159889  52.3172736  26.8853177  12.4637197  48.5894065
  27.5377235  11.9313640  48.8185091  26.1878786  12.1105850  48.9761939
  26.8783895  12.3326720  48.6806232  23.8334442   4.8176375  47.9961439
  24.5880410   5.1989414  48.2096901  23.2405054   5.2687519  48.4508135
  23.8571155   4.9405202  48.0944317  34.8793095   4.7841611  47.9325044
  35.4451128   5.4434821  47.8483587  34.2320999   5.1291310  48.4041446
  34.8671852   4.9323553  47.9897800  25.1532668   5.9884936  53.3701554
  24.6313422   6.1285228  54.0553419  25.5406689   5.2295601  53.5603672
  25.1336369   5.8970460  53.5002631  31.3499673   7.7280396  47.3562123
  31.1086349   6.9948256  46.9489188  31.5301006   8.2767253  46.7028456
  31.3407297   7.7002787  47.1992346  26.5798994   3.0188955  48.7683045
  26.3841777   3.6263690  48.1743348  26.8033340   2.3256899  48.2874719
  26.5833635   3.0066481  48.6099126  24.9777524  -0.0956307  48.8863914
  25.7000176   0.0684851  48.4267720  24.4985517   0.6253358  48.7803253
  25.0141255   0.0341923  48.8029528  32.9371032  -3.7592508  54.2660599
  32.0982132  -3.7331229  54.0298862  33.0075399  -3.1121772  54.8465945
  32.8239425  -3.6596382  54.3169716  22.6285141   2.3101766  57.9918054
  23.1406238   2.5886019  57.3426813  22.3421483   3.0491060  58.3580867
  22.6620004   2.4604119  57.9507932  36.8128555   1.4475479  51.5521840
  36.7262530   1.6030905  52.4056619  36.3579035   2.0913554  51.1781245
  36.7331812   1.5651234  51.6228947  30.6854371  -1.2313774  50.1747400
  30.4389086  -1.3118023  51.0084189  31.0139494  -2.0160306  49.9809927
  30.6975615  -1.3587509  50.2694923  34.5802420   5.4769585  53.9634181
  34.4416780   6.1750631  54.4682924  33.8002418   5.3218242  53.6070363
  34.4445647   5.5569752  53.9860455  32.9180505   1.7765961  60.2156563
  32.9128544   0.9045777  60.2198989  33.6241499   1.9754130  59.7426019
  33.0225509   1.6769835  60.1463598  26.6451399   1.5042945  59.5870383
  26.7894774   2.0844153  58.9513493  26.9927047   1.8819241  60.2920238
  26.7178860   1.6463649  59.5969378  28.8171316   0.7033113  57.3695515
  28.0694630   0.8964127  56.9643793  28.9712841  -0.1221667  57.1319636
  28.7293744   0.6098224  57.2740920  25.7179154   9.6945716  56.4531410
  25.8668717   9.1348632  55.8004814  26.4979156   9.7737718  56.8363929
  25.8553247   9.6231282  56.4128359  36.0755793   4.8347839  44.7250680
  35.6962602   4.0484977  44.7179970  35.4122039   5.3834696  44.5822325
  35.9214268   4.7992663  44.7031477  28.2432454   9.8660359  57.7315901
  28.1676125   9.1969170  58.2866689  28.1722313  10.5678147  58.2456567
  28.2213061   9.8705267  57.8892749  28.9002701   8.3861358  48.5639507
  29.6652592   8.1171002  48.2422171  28.7980791   7.9011369  49.2809569
  28.9984197   8.2750923  48.6219334  26.9355471  -3.4114232  55.1032742
  26.1451546  -3.5922772  55.4250078  27.3316094  -4.1887280  55.0863037
  26.8772347  -3.5526771  55.1485291  31.4221362   5.4173542  40.5439456
  32.1894347   5.4773667  40.1345308  30.9752671   4.8453983  40.0595774
  31.4694789   5.3410118  40.4117166  32.3199157   4.2228198  52.8292188
  31.6444159   3.9913430  53.3305575  32.3291533   3.6149381  52.2034293
  32.2217662   4.0987123  52.8108340  29.4493301  -0.9353973  59.5856241
  29.3852443  -0.0744017  59.4576378  29.5890489  -1.2521980  58.7851793
  29.4608771  -0.8553807  59.4484454  34.3215892   7.0793330  45.0602366
  34.4035729   7.8860316  44.7363817  34.8065634   7.0989289  45.7843140
  34.4053050   7.2013993  45.1189265  28.1312395   1.7578166  53.7272444
  27.7074644   1.9582665  52.9911462  27.9557250   0.9107014  53.8396744
  28.0423276   1.6626948  53.6346134  27.6324089  13.2728679  56.1893901
  28.1220019  12.5739468  56.0069566  27.0608321  12.9752549  56.7769959
  27.6208619  13.1254903  56.2494942  23.4194840   2.2530218  49.1600417
  23.5759459   2.1877020  50.0156409  23.7595433   3.0278770  48.9479096
  23.4928075   2.3579416  49.2555011  29.9573985   1.6288101  48.0293780
  30.4989530   1.1258482  48.4932400  30.2720544   1.5753296  47.2183265
  30.0838382   1.5467522  47.9777592  33.8291092   5.8390748  65.1420692
  34.6425957   5.5675897  65.3025825  33.6686059   5.5398288  64.3380888
  33.9261041   5.7545674  65.0466098  28.1260434   7.0205453  45.3133808
  28.1953255   6.1619991  45.4526808  28.9048890   7.2377334  44.9852832
  28.2513285   6.9258317  45.2850965  31.1063254  -3.4775594  58.0816080
  31.3205224  -4.1164680  57.5279434  30.4897153  -3.0329771  57.6523942
  31.0468583  -3.5065451  57.9366511  32.5167922   9.4443154  49.5270301
  32.1247714   9.1409869  48.8093167  32.6720994  10.2812244  49.3375255
  32.4821512   9.5226991  49.3926798  19.9929102  -0.5634832  49.4761184
  20.3728066  -0.1450287  48.8121451  19.4184466   0.0178624  49.7830027
  19.9640427  -0.4156973  49.4237925  33.2702342  -1.8686529  59.0199387
  32.4579024  -2.1760639  59.1012560  33.7292277  -2.3487529  59.5842100
  33.2182727  -1.9850037  59.1153982  32.6807597   6.0093143  49.4676332
  32.3222252   6.1807786  50.2440364  32.1946308   6.4706348  48.9104330
  32.5566294   6.1032114  49.5001601  27.4695962   1.6892308  42.0076566
  27.7588487   2.4657191  42.2820140  27.5567761   1.1781040  42.7091065
  27.5250218   1.7284227  42.1519064  33.8412336   6.8997039  60.4143533
  34.4792057   6.4057234  60.0805989  33.1986428   6.8274439  59.8295760
  33.8406563   6.8156047  60.2785888  35.5669336  -1.2513815  54.9809448
  35.1396944  -1.3387467  54.2257548  34.9295389  -1.1436040  55.5664292
  35.4098944  -1.2481155  54.9554890  33.8966593   7.5916847  57.0548889
  34.6858971   7.2405912  57.1750971  34.0710191   8.4053235  56.7925523
  34.0386874   7.6602704  57.0336757  23.6359903   1.0025573  54.1076678
  22.7947910   0.9029447  54.3155572  23.8449911   1.7721053  54.4590999
  23.5424596   1.1017616  54.1903993  21.1135470  -1.3754890  51.9361429
  20.7192168  -1.3011879  51.1611539  20.5575587  -0.9896944  52.4869791
  20.9738283  -1.3073116  51.9029089  27.4476568  -1.0693028  53.3574276
  27.1439706  -1.6237040  53.9584683  26.7455989  -0.8900818  52.8702310
  27.2992778  -1.1248246  53.3743981  26.5042665  -3.7592508  47.9218978
  26.7802399  -4.4773596  47.5096545  27.1041334  -3.1607588  47.7140084
  26.6335930  -3.7772138  47.8299739  25.5094919   6.1456693  58.0646374
  25.4015274   6.1558755  58.9308432  25.7190701   6.9711473  57.8751327
  25.5245030   6.2697767  58.1650465  23.5268711   3.3969335  55.5268311
  22.9356644   4.0378833  55.4971326  24.2889735   3.8206952  55.4999611
  23.5516972   3.5545173  55.5183458  39.6459133   3.2275105  56.5245589
  39.7042256   3.6761753  57.2705566  39.0125600   3.6373918  56.0875669
  39.5610428   3.3548839  56.5698138  33.2858227   8.8478647  52.9600336
  33.0877916   9.3369461  52.2656547  32.6645938   9.0519888  53.5384469
  33.1645792   8.9495185  52.9423559  27.3466206   0.6163543  47.3010580
  28.0908251   1.0037820  47.5393530  27.4926902  -0.2279031  47.4651068
  27.4776791   0.5494016  47.3604550  30.3344082  -3.8110983  53.2004499
  29.8604036  -4.3369221  53.7109810  30.7062217  -4.3581510  52.6319361
  30.3193970  -3.9694987  53.1919646  36.5980812   1.2491392  54.6111280
  36.3579035   0.4097808  54.6153706  37.0772819   1.3291559  55.3352053
  36.6332996   1.1372792  54.7186082  32.2627581  -2.9174429  46.2630253
  31.7350600  -2.8345685  45.5735962  32.7223289  -2.1756557  46.2594898
  32.2529432  -2.7953766  46.1604948  38.5985999  -1.9707150  52.5640539
  38.3595769  -2.0111316  51.7261323  38.7619900  -1.1235998  52.6906260
  38.5876303  -1.8515065  52.4594021  35.2032029   2.4142799  58.4945584
  35.9266228   1.9615325  58.3156604  34.9381992   2.6947465  57.7117912
  35.2713303   2.3893767  58.3524299  24.0718898  -2.9897028  55.2298463
  23.4471968  -2.9778636  54.6224416  23.7364493  -2.5136852  55.8789703
  23.9304389  -2.9178511  55.2355032  20.7844573   5.0703433  56.6702227
  20.2544498   4.3795871  56.7197202  21.0569667   5.0613618  55.8414936
  20.7469296   4.9670564  56.5549643  31.8164664   5.6529135  45.3939910
  32.5398863   6.1187248  45.2504483  31.3765255   5.7202745  44.6437507
  31.8580356   5.7312972  45.2624691  30.9850819   2.5126677  56.6440599
  30.3707812   1.9684727  56.9389234  31.5018104   1.9990914  56.1646415
  30.9706481   2.3563086  56.6164827  30.2247116   3.5830947  54.3784898
  29.7974724   2.9580666  53.9450333  30.2172060   3.3005869  55.2043905
  30.1606257   3.4483728  54.4364725  16.0640415   1.7431197  54.0270576
  15.9583865   1.6978041  53.1622660  15.3140635   2.0884977  54.3084861
  15.9376018   1.7872105  53.9407905  26.2548511  -0.2968970  56.2707075
  25.4240441  -0.1295152  56.0642323  26.2000028  -0.6733019  57.0555960
  26.1237926  -0.3279239  56.3555603  24.6284555  -2.0213379  46.7997193
  24.7687516  -1.5240914  47.5025834  25.1267088  -2.7227084  46.9411406
  24.7225636  -2.0511400  46.9248772  24.6584777  -1.1546268  44.1289770
  25.2929857  -0.5585843  44.0639231  24.7410388  -1.4542810  44.9435640
  24.7641328  -1.1105359  44.2392856  37.6367343   1.3769210  56.9976134
  38.2285183   2.0166460  57.0294332  38.0726338   0.6792246  57.2868201
  37.7885774   1.3687560  57.0456966  26.2363760  -5.2232292  44.1035212
  26.5579601  -5.7029210  43.4494474  26.4990704  -4.4132646  43.9126023
  26.3229786  -5.1742394  43.9790704  29.4660733   5.7986582  57.6234028
  28.9585824   6.3522429  58.0674658  29.1687379   5.8594872  56.8052802
  29.3465618   5.8892893  57.5682484  21.1637765   1.0421573  47.3979316
  21.6729995   1.6386081  47.7790621  21.6372038   0.7747547  46.7155735
  21.3081141   1.0907389  47.3533838  32.0768513   9.7149840  45.5537971
  31.3597823   9.5410702  45.0885208  32.7275251   9.4802412  45.0213457
  32.0670364   9.6545632  45.4067189  34.6616485  -1.4085572  49.2979276
  33.9907674  -0.8655869  49.1692342  35.3556235  -0.9390716  49.0560971
  34.6645352  -1.2587300  49.2434804  28.7103218  10.7311140  54.5291034
  28.4868873   9.9729970  54.8975061  28.2213062  10.7609162  53.8071474
  28.6046667  10.6233365  54.4767775  23.5228297  -2.3222168  50.2652496
  22.8040286  -1.9058036  50.5325360  23.8940659  -1.7567930  49.7144134
  23.4720229  -2.1772887  50.2235303  32.8227878  -1.6894319  56.1554492
  32.8025805  -1.8711024  57.0089271  32.8707079  -0.8182301  56.1314075
  32.8262519  -1.5877781  56.2777786  30.7674208   4.8992873  62.0802968
  30.7270063   4.2542550  61.4948124  31.5797526   4.8429490  62.3928380
  30.8817361   4.7951839  62.0399917  27.3581675  10.9511598  51.9828119
  26.9442074  10.2885729  51.5931961  28.0429050  11.0989457  51.4623813
  27.3980047  10.8752257  51.8484616  30.7246969  10.1101684  52.7351736
  30.3263253  10.2203954  51.9672556  30.1098189  10.3183750  53.3178295
  30.5745859  10.1575252  52.7083035  29.2974871  -3.2824168  45.6025875
  28.7039711  -2.9607172  45.0510442  29.3350149  -4.1283073  45.3946982
  29.2149261  -3.3599840  45.4908647  32.1732688  -3.3244664  49.0327626
  31.9446381  -3.3011962  48.1905984  32.4330764  -4.1487197  49.1522636
  32.1778876  -3.4428584  48.9252823  25.2277450  -4.7868118  50.3281821
  25.7034817  -4.4251038  49.6932002  24.7266050  -4.1311650  50.6081964
  25.2242809  -4.6373929  50.2758562  38.4588812   4.6853650  46.1194826
  38.8422418   5.4345007  46.3492923  37.6632925   4.9319470  45.8606815
  38.3982594   4.8323344  46.1152400  27.2704104  -2.6426918  43.6955205
  27.6503068  -2.6247289  42.9106320  26.5296700  -2.1972929  43.5746053
  27.2172941  -2.5745143  43.5618773  32.6230246   0.3452775  52.9366991
  33.1183912  -0.3724230  52.8971011  31.8130022   0.0423573  52.8221478
  32.5774140   0.1950421  52.9140717  28.0688858   4.1950588  45.0863995
  27.2600180   3.8717262  45.0397305  28.5763767   3.4883811  45.0192244
  28.0238525   4.0431905  45.0694290  18.6979135   1.6222782  50.8111360
  17.8324654   1.6108472  50.6994131  18.7977951   1.4353004  51.6582499
  18.5853302   1.5928843  50.9200304  34.6882065   3.0956463  55.6244120
  35.1137137   2.5730885  55.0714545  34.3238985   3.6937300  55.1032743
  34.6968668   3.1066690  55.4653129  24.3236145  11.3920680  54.3841465
  24.6382704  12.2057069  54.3919247  24.7329558  11.0070899  55.0523624
  24.4304243  11.4549383  54.4845557  31.2760665   6.8090727  51.9545277
  31.7471843   7.5230990  52.1235262  31.6120843   6.2089477  52.4905147
  31.3955780   6.8262191  52.0577653  33.3637649   8.4192040  64.1337349
  33.4734615   7.6300601  64.4894096  33.6928546   8.3297977  63.3311687
  33.4290055   8.2897893  64.0679740  31.9134611   6.6008661  58.7172970
  31.3655557   5.9766545  58.4493035  32.3747640   6.7902933  58.0017049
  31.9001820   6.5367711  58.5723401  21.6649165   5.3393789  54.0320074
  22.2694022   5.2989623  53.4033894  21.4576478   6.1864941  54.0624129
  21.7238062   5.4581791  53.9436190  31.4792937   7.6059734  55.2482311
  32.2991311   7.4622700  55.5098606  31.1987015   8.2305933  55.7898749
  31.5589681   7.6770086  55.3670250  16.9000447   4.3228406  53.9018997
  16.8024725   3.5124678  54.2109053  17.6829317   4.3020200  53.5165265
  17.0016584   4.1995496  53.8905860  41.1506272  14.3500236  52.9678118
  40.2944168  14.5108735  53.0187234  41.1973926  13.4792300  52.9883179
  41.0305384  14.2451038  52.9784184  44.4599989  20.6186762  62.5738574
  45.1666756  20.1238793  62.7025508  44.6487924  21.0595844  61.8441232
  44.5927895  20.6105112  62.4847619  43.9958093  16.4092280  55.6109769
  44.5414053  17.0877367  55.6703739  43.9374970  16.2679741  54.7511351
  44.0674008  16.4884282  55.4921830  36.9532908  28.8158936  52.3992978
  37.5970363  29.2572100  52.7889136  37.2789163  28.0112362  52.3123237
  37.0964737  28.7624130  52.4438455  30.3097213  19.9201633  50.6230455
  30.0747397  19.0869285  50.5162724  30.4482853  20.2006299  49.8091656
  30.2952875  19.8385136  50.4872810  32.6087300  12.0887364  53.5214763
  31.9892332  11.4980011  53.3524778  32.5071164  12.6798799  52.8879086
  32.5024976  12.0891446  53.4019753  39.7055196  13.8286905  47.8547226
  40.4035360  14.0075033  48.3468690  40.0207528  13.3057245  47.2317616
  39.8550533  13.7780678  47.8349236  32.3356433  15.6339645  55.7658332
  32.2115130  16.2202091  56.4008151  32.9874718  15.1399841  56.0670607
  32.4130082  15.6478450  55.9044261  39.8943131  20.2157351  47.8427018
  40.3336767  19.6074451  48.2881790  39.7447794  19.8364724  47.0712483
  39.9364597  20.0695822  47.7946185  37.3614774  18.8101362  55.0445843
  38.0063777  18.3173805  54.7256792  37.6016551  18.9526149  55.8711921
  37.4925359  18.7578805  55.1195376  39.9000865  21.6556268  54.6952736
  40.1824108  20.8607674  54.4739492  40.6287026  22.1336856  54.7157797
  40.0490429  21.6090865  54.6655751  37.8782059   9.1979302  51.9368501
  37.5485389   9.6490446  51.2672200  37.2027061   9.1195465  52.4841507
  37.7292496   9.2530437  51.9191724  45.0858467   5.1864825  50.1818112
  44.7711908   5.8768304  50.6138534  44.5685409   5.1309607  49.4803612
  44.9622937   5.2799714  50.1415061  44.4270901  15.1869326  46.2955522
  43.8982372  15.4028959  46.9552828  44.9495921  15.8805464  46.2156491
  44.4259354  15.3212463  46.3811121  49.8818954  20.7615630  51.6688567
  49.0516657  20.9726274  51.8321983  49.8328206  19.9352685  51.3930850
  49.7525689  20.6705237  51.6525932  36.3170509  19.0832543  45.0962990
  35.7327724  19.5882574  45.5028854  35.9140604  18.8574930  44.3559582
  36.1709812  19.1240791  45.0468015  31.8714537  24.7987304  51.8986662
  31.3882115  25.5237794  51.8746245  32.6837856  25.0963434  52.0096819
  31.9205285  24.9489658  51.9113941  37.9428691  23.5919485  54.5036476
  37.4255633  23.2326900  53.8997784  38.6403083  23.0681659  54.5142542
  37.9694272  23.4617173  54.4166735  41.5992283  24.0414299  60.4652649
  41.6875629  23.8540439  61.3130859  42.0281996  23.3951728  60.0657496
  41.6754386  23.9177306  60.5324401  39.1662743  23.3245459  59.4470311
  38.6033578  22.9118068  59.9709972  39.9283767  23.2498364  59.8663455
  39.1957192  23.2522859  59.5863312  40.7747723  15.3298195  43.5731911
  41.0143727  15.5376179  42.7607254  41.0963564  14.5255704  43.6820855
  40.8584881  15.2412296  43.4692464  36.0838013   7.2591591  47.4191449
  36.8383981   7.6269908  47.1808499  35.9065548   7.6331145  48.1870628
  36.1692492   7.3689778  47.4976337  34.7258735  25.3143480  52.0506941
  35.4279314  24.7995469  52.1079698  34.6456218  25.6417631  52.8553817
  34.8182495  25.2857706  52.1779734  49.3772912  13.4086031  55.4638988
  48.5401333  13.4788218  55.6986582  49.3461143  13.4110526  54.5913290
  49.2491194  13.4196258  55.3698536  35.7737641  15.5519067  61.1787357
  35.9458145  15.4424961  62.0272638  36.3106999  16.1973472  60.9418549
  35.8782645  15.6311068  61.2692453  34.4395078   9.6661910  44.1169562
  34.2570651   9.8833790  43.2910554  35.3020691   9.7800922  44.1728176
  34.5399667   9.7151807  44.0024049  34.0509510  21.5049832  51.5592549
  34.8898409  21.7372765  51.6066311  34.0821279  20.6354143  51.4899585
  34.1791228  21.4106778  51.5557194  34.6762213  21.9250707  55.8605855
  35.2160438  21.7821838  56.5309227  33.9932159  22.3247458  56.2289881
  34.6554367  21.9630378  56.0140277  40.1194797   6.6688320  47.1518585
  40.8480958   6.4904275  46.7056742  40.2089690   7.5106400  47.3625764
  40.2401459   6.7672199  47.1172103  44.1003098  17.6041708  51.0550879
  44.8560613  18.0373222  51.0939788  44.2065422  16.9546477  51.6285515
  44.2273268  17.5719191  51.1448905  47.1383269  21.4314985  51.8053282
  46.7018501  21.4351727  52.5612254  46.8046184  22.1120484  51.3732860
  47.0245889  21.5327441  51.8534115  41.7112343  23.4723318  63.1296433
  42.4952759  23.5854165  63.4952175  41.5108937  22.6464455  63.3255118
  41.7978368  23.3670037  63.2130819  30.0799358  18.1450998  56.0140277
  29.8137773  17.3290114  56.1731267  30.0937922  18.1904153  55.1435792
  30.0424080  18.0307903  55.9093759  47.0580752   8.4728813  54.0482710
  47.7006660   8.5426917  54.6344626  47.3103773   7.8058036  53.5462252
  47.1902884   8.3855161  54.0609990  33.9857105  12.9436082  42.6292035
  33.2715282  12.6574262  43.0414467  34.4701074  13.2832708  43.2698422
  33.9516468  12.9517732  42.7847670  34.8297964  11.6829376  58.6607284
  34.1369761  11.2126356  58.9068016  35.4458292  11.4567681  59.2348991
  34.8182494  11.5796508  58.7816437  41.8682736  25.3833420  56.7762888
  41.0697982  25.1432920  57.0336757  42.3168747  25.4347813  57.5229936
  41.8157347  25.3555811  56.9247813  50.2727615  18.1495905  50.6972920
  50.9344049  17.5886573  50.5968828  49.6319027  17.6547935  51.0225611
  50.2756483  17.9932314  50.7305260  30.4892772  18.9309777  53.2952021
  30.3068345  18.9056663  52.4424313  31.2242441  19.4008715  53.3340930
  30.5706836  18.9971139  53.1749939  46.5592446  19.1661287  50.4384908
  46.7948035  19.3106486  49.6111759  46.7082010  19.9303695  50.8316422
  46.6158249  19.3000342  50.3748512  33.5538523  15.6494780  59.8034129
  34.2778496  15.6347811  60.2899024  33.6554660  16.3590135  59.3056098
  33.6756732  15.7519483  59.8012916  40.9283473  19.1293865  64.6683076
  40.1356454  19.4437376  64.8535696  41.0432400  19.3445333  63.8303861
  40.8278883  19.2077701  64.5721411  43.6014792  15.8527856  48.9578092
  43.6961646  16.5917150  49.4117718  42.9773635  15.4245331  49.3912657
  43.5223822  15.8989176  49.0886240  41.8567266  19.0314068  59.6068373
  42.4306127  18.3941313  59.7616937  41.7782069  19.0318151  58.7378031
  41.9300500  18.9379180  59.5014784  30.4563682  15.8103278  53.4451087
  31.0337185  15.6739729  54.0843333  29.7577744  15.3539062  53.6996672
  30.4384703  15.7225544  53.5773377  37.2130984  17.4637334  51.6589571
  36.9550228  16.6309068  51.6320870  37.2679467  17.6894946  50.8182071
  37.1830762  17.3735105  51.5309707  42.2932034   9.5665784  51.7593663
  41.5888361   9.0774970  51.9177582  42.3417009   9.5788259  50.8882108
  42.1962086   9.4955432  51.6533003  36.1865696  15.0175096  52.1454465
  35.6115288  15.1767264  52.7818426  35.8101373  14.3810505  51.6822916
  36.0468509  14.9472909  52.1709024  39.8538985  13.4898445  57.0046844
  39.4653418  13.0652663  56.3499035  39.1893683  13.7380595  57.5123870
  39.6985913  13.4637166  56.9834712  49.4962254  13.2473450  49.7794674
  49.2398819  12.4353391  49.5892557  50.3391568  13.2551017  49.5524861
  49.5828280  13.1285447  49.7179491  25.9322515  14.6615171  50.1598906
  26.0182767  14.2847039  50.9412436  26.5598313  14.2875616  49.6818864
  26.0379066  14.5500653  50.2044383  43.6765347   7.1873074  54.5170828
  44.0575858   6.5051245  54.9038702  42.8728631   6.8982676  54.3346492
  43.6141808   7.0440123  54.5474884  40.9577923  17.7197050  45.2023651
  41.7718562  18.0111943  45.0906422  40.8937064  17.0656912  44.6281944
  41.0680662  17.6662245  45.1012488  47.1787413  20.4023046  59.6153226
  46.9426051  19.5711111  59.4965287  47.8230642  20.3508653  60.2008071
  47.2382084  20.2720734  59.6839120  36.8285831  21.1918567  50.3295963
  37.4659778  20.9530315  50.8747756  37.2540903  21.3955726  49.5949123
  36.9861998  21.1869578  50.3013120  31.5198474  23.4306904  54.2130267
  31.5602619  23.7021755  53.3850046  32.0792998  23.9548812  54.6288054
  31.6081820  23.5482659  54.1522155  37.4688647  16.4120857  44.6670852
  37.8533799  16.1928564  45.4187397  37.2200267  17.2383802  44.7971929
  37.4890719  16.5019003  44.7971929  37.6357187   9.6927272  64.3833436
  37.3210628  10.4626835  64.1202999  37.3147119   9.1297528  63.7985663
  37.5416106   9.7237541  64.2574786  48.2023834  20.1867495  55.6781521
  47.8969651  20.9195552  56.0394836  47.4830050  19.7805424  55.3974307
  48.0511176  20.2349228  55.6894658  39.2107303  21.6690990  52.0089749
  39.2846312  21.5066162  52.8631599  40.0276810  21.8581180  51.7650231
  39.3423662  21.6727732  52.0987775  53.9025626  16.8260495  55.0049865
  53.8350126  16.8456455  54.1352452  53.8881289  17.6690823  55.2305536
  53.8904383  16.9534230  54.9102342  32.9713060  22.0148853  49.0384193
  32.1451178  22.2610590  48.9118471  33.0325051  21.9360934  49.9046251
  32.8587227  22.0393802  49.1473137  35.1889084   8.0817794  49.9979633
  34.3211509   8.1540393  50.0637242  35.4764288   8.8839873  50.1867608
  35.1028832   8.2111941  50.0354399  44.3121973   8.2295653  58.3290955
  45.0575565   8.0405464  57.9154380  43.8959277   8.7553891  57.7704811
  44.3606947   8.2797799  58.1855528  51.6884243  15.6004882  53.2796460
  52.2392165  14.9672951  53.5193552  51.6728359  16.1320274  53.9711964
  51.7669440  15.5853830  53.4175318  38.3406634  19.4343479  57.8256353
  37.8418328  20.1459247  57.9041241  39.1506859  19.7544145  57.7874515
  38.3862741  19.5870328  57.8312922  34.6034752  18.6966432  52.0719074
  34.3148001  18.0703903  52.6064801  35.4718100  18.6386719  52.1383754
  34.6895004  18.5953976  52.1610028  45.3912650  13.8401215  52.3901056
  45.0477416  13.1191551  52.7408305  45.4905692  13.6315066  51.5479414
  45.3554693  13.7025419  52.3172736  45.8525679  20.3026919  47.9325044
  46.4183711  20.9620129  47.8483587  45.2053582  20.6476617  48.4041446
  45.8404435  20.4508861  47.9897800  37.2673692  12.2924523  63.1218651
  36.4573468  12.5982303  63.0108494  37.7448379  13.0130106  63.2371235
  37.2177171  12.4439124  63.1225722  36.1265252  21.5070244  53.3701554
  35.6046005  21.6470536  54.0553419  36.5139272  20.7480909  53.5603672
  36.1068953  21.4155768  53.5002631  33.1156436  11.5576053  47.4396509
  32.8281232  11.1877323  46.7028456  33.8026904  12.0270908  47.1780214
  33.1745333  11.5723022  47.2911585  37.5531578  18.5374263  48.7683045
  37.3574360  19.1448998  48.1743348  37.7765923  17.8442207  48.2874719
  37.5566219  18.5251789  48.6099126  35.9510108  15.4229001  48.8863914
  36.6732759  15.5870159  48.4267720  35.4718100  16.1438666  48.7803253
  35.9873838  15.5527231  48.8029528  43.9103615  11.7592800  54.2660599
  43.0714716  11.7854079  54.0298862  43.9807982  12.4063535  54.8465945
  43.7972009  11.8588926  54.3169716  33.6017724  17.8287074  57.9918054
  34.1138821  18.1071327  57.3426813  33.3154067  18.5676368  58.3580867
  33.6352587  17.9789427  57.9507932  42.3572893   8.6578177  48.9988215
  43.0599246   8.4585925  48.5208173  42.0917082   7.8854119  49.3057058
  42.4219526   8.5141143  48.9733656  30.6884631  12.3357266  48.2881790
  30.7900767  13.1383427  48.6162765  31.4840517  12.1344601  47.9904871
  30.8212536  12.4243164  48.2917145  37.1201450   9.9213462  58.0519095
  36.9284647   9.9368597  58.9018519  37.9700046  10.1177137  58.0285750
  37.2177172   9.9527813  58.1742390  31.5048363  12.4504444  56.0302912
  31.3633854  11.5988384  56.1547420  31.7888926  12.4933104  55.2065118
  31.5256209  12.3304194  55.9270536  41.6586955  14.2871534  50.1747400
  41.4121669  14.2067285  51.0084189  41.9872078  13.5025002  49.9809927
  41.6708199  14.1597799  50.2694923  45.5535004  20.9954893  53.9634181
  45.4149363  21.6935939  54.4682924  44.7735002  20.8403550  53.6070363
  45.4178231  21.0755060  53.9860455  43.8913089  17.2951269  60.2156563
  43.8861127  16.4231085  60.2198989  44.5974083  17.4939438  59.7426019
  43.9958093  17.1955143  60.1463598  37.6183982  17.0228253  59.5870383
  37.7627358  17.6029461  58.9513493  37.9659631  17.4004549  60.2920238
  37.6911444  17.1648957  59.5969378  39.7903900  16.2218421  57.3695515
  39.0427214  16.4149435  56.9643793  39.9445425  15.3963640  57.1319636
  39.7026327  16.1283532  57.2740920  36.6911737  25.2131024  56.4531410
  36.8401301  24.6533940  55.8004814  37.4711739  25.2923026  56.8363929
  36.8285831  25.1416590  56.4128359  39.2165038  25.3845667  57.7315901
  39.1408709  24.7154478  58.2866689  39.1454897  26.0863455  58.2456567
  39.1945645  25.3890575  57.8892749  40.0305677  10.1168972  58.2590918
  40.4878291  10.8492946  58.3863711  40.1062005   9.6935437  59.0178174
  40.1096647  10.1626210  58.3891995  32.2738668  10.3634791  59.3480362
  31.7380857   9.7515149  59.6641129  32.3356433  10.9382927  60.0014029
  32.2034301  10.3581719  59.4915789  44.5033003   3.2958847  52.1284761
  44.6216571   3.7535310  51.3952064  44.3295178   2.4904108  51.8420979
  44.4952174   3.2452619  51.9785695  37.9088055  12.1071076  55.1032742
  37.1184129  11.9262536  55.4250078  38.3048677  11.3298028  55.0863037
  37.8504931  11.9658536  55.1485291  43.2931741  19.7413506  52.8292188
  42.6176743  19.5098738  53.3305575  43.3024117  19.1334689  52.2034293
  43.1950245  19.6172431  52.8108340  40.4225885  14.5831335  59.5856241
  40.3585026  15.4441291  59.4576378  40.5623073  14.2663328  58.7851793
  40.4341355  14.6631501  59.4484454  39.1044979  17.2763474  53.7272444
  38.6807228  17.4767973  52.9911462  38.9289834  16.4292322  53.8396744
  39.0155859  17.1812255  53.6346134  38.6056672  28.7913987  56.1893901
  39.0952603  28.0924776  56.0069566  38.0340904  28.4937857  56.7769959
  38.5941202  28.6440211  56.2494942  34.3927424  17.7715525  49.1600417
  34.5492043  17.7062328  50.0156409  34.7328017  18.5464078  48.9479096
  34.4660659  17.8764724  49.2555011  40.9306568  17.1473409  48.0293780
  41.4722114  16.6443790  48.4932400  41.2453127  17.0938604  47.2183265
  41.0570965  17.0652830  47.9777592  44.8023676  21.3576056  65.1420692
  45.6158541  21.0861205  65.3025825  44.6418642  21.0583596  64.3380888
  44.8993624  21.2730982  65.0466098  42.0795838  12.0409714  58.0816080
  42.2937807  11.4020628  57.5279434  41.4629737  12.4855537  57.6523942
  42.0201167  12.0119857  57.9366511  30.9661685  14.9550476  49.4761184
  31.3460650  15.3735021  48.8121451  30.3917050  15.5363932  49.7830027
  30.9373010  15.1028335  49.4237925  44.2434926  13.6498779  59.0199387
  43.4311607  13.3424669  59.1012560  44.7024860  13.1697779  59.5842100
  44.1915310  13.5335271  59.1153982  43.6540180  21.5278451  49.4676332
  43.2954835  21.6993094  50.2440364  43.1678891  21.9891656  48.9104330
  43.5298877  21.6217422  49.5001601  41.4710566   5.1509649  53.0703423
  40.6004124   5.1248370  53.0236733  41.7250908   4.9786841  52.2529269
  41.3804126   5.1219793  52.9423560  38.4428546  17.2077616  42.0076566
  38.7321071  17.9842499  42.2820140  38.5300345  16.6966348  42.7091065
  38.4982802  17.2469534  42.1519064  41.3388433  15.0558850  63.8028090
  41.8088064  15.6800967  64.1895964  41.3850313  14.3875826  64.3621304
  41.4156309  15.0493530  63.9428161  38.4959707   7.1615878  54.5276894
  37.9798195   6.4696069  54.6528473  37.9353636   7.8286655  54.4739492
  38.3366220   7.1579135  54.5382960  40.5651940   7.7008838  56.3569746
  40.1783693   7.7257869  57.1383276  40.0784878   7.1350516  55.9044263
  40.4364449   7.6204589  56.4057650  44.8144920  22.4182347  60.4143533
  45.4524640  21.9242542  60.0805989  44.1719011  22.3459747  59.8295760
  44.8139146  22.3341355  60.2785888  46.5401920  14.2671493  54.9809448
  46.1129528  14.1797841  54.2257548  45.9027973  14.3749268  55.5664292
  46.3831527  14.2704152  54.9554890  40.2309082   4.5875823  58.6480006
  40.8602200   5.1236123  58.3701076  40.3994945   4.4953182  59.4993572
  40.3486877   4.6537185  58.7328534  40.0322997   9.3747018  60.9206418
  40.8596426   9.1032167  60.9765032  40.0530843  10.1707860  61.2770236
  40.1575847   9.4526772  60.9821601  44.8699176  23.1102155  57.0548889
  45.6591555  22.7591220  57.1750971  45.0442774  23.9238543  56.7925523
  45.0119458  23.1788012  57.0336757  34.6092487  16.5210881  54.1076678
  33.7680493  16.4214755  54.3155572  34.8182495  17.2906361  54.4590999
  34.5157179  16.6202924  54.1903993  32.0868054  14.1430418  51.9361429
  31.6924751  14.2173429  51.1611539  31.5308171  14.5288364  52.4869791
  31.9470866  14.2112192  51.9029089  43.7233001   7.1211712  51.6165308
  43.9282594   7.0534019  52.4622305  43.3959424   7.9270533  51.5486485
  43.7048248   7.2297652  51.7324963  38.4209152  14.4492280  53.3574276
  38.1172289  13.8948268  53.9584683  37.7188572  14.6284490  52.8702310
  38.2725361  14.3937062  53.3743981  37.4775249  11.7592800  47.9218978
  37.7534983  11.0411712  47.5096545  38.0773918  12.3577720  47.7140084
  37.6068513  11.7413170  47.8299739  36.4827503  21.6642001  58.0646374
  36.3747858  21.6744063  58.9308432  36.6923284  22.4896781  57.8751327
  36.4977614  21.7883075  58.1650465  46.9766688   7.6743476  51.0968073
  46.3641002   8.1613878  51.4821805  47.0730863   6.9986967  51.6405724
  46.9004586   7.6461785  51.2346931  40.9785769   9.4306317  46.1965573
  41.4329516   9.6016877  46.9213417  41.4525815   8.8174428  45.7963348
  41.1154089   9.3657202  46.2439334  34.5001295  18.9154643  55.5268311
  33.9089228  19.5564141  55.4971326  35.2622318  19.3392260  55.4999611
  34.5249555  19.0730481  55.5183458  34.8961917  10.0756641  56.1936329
  35.3563399  10.1495570  56.9311453  34.9418024  10.8737895  55.8436150
  34.9712473  10.2050788  56.2509085  36.5445267  10.7423336  60.7608356
  36.1530832  10.0956683  61.1964134  36.7131130  11.3334771  61.3802611
  36.5116178  10.7337603  60.9171062  50.6191716  18.7460413  56.5245589
  50.6774840  19.1947061  57.2705566  49.9858184  19.1559225  56.0875669
  50.5343011  18.8734147  56.5698138  44.2590811  24.3663955  52.9600336
  44.0610500  24.8554769  52.2656547  43.6378522  24.5705196  53.5384469
  44.1378375  24.4680493  52.9423559  38.3198789  16.1348851  47.3010580
  39.0640834  16.5223128  47.5393530  38.4659485  15.2906277  47.4651068
  38.4509374  16.0679324  47.3604550  40.2378365   7.9299110  52.3342441
  39.3914410   8.1021918  52.2083791  40.2349497   7.1248454  52.6708270
  40.1125515   7.8360139  52.3653568  41.3076665  11.7074325  53.2004499
  40.8336619  11.1816087  53.7109810  41.6794801  11.1603798  52.6319361
  41.2926554  11.5490321  53.1919646  31.6849695  13.7045831  58.5688045
  32.5475308  13.6041541  58.4825375  31.3541478  13.1240541  58.0073617
  31.7634892  13.6037458  58.4733451  47.5713396  16.7676700  54.6111280
  47.3311619  15.9283116  54.6153706  48.0505403  16.8476867  55.3352053
  47.6065579  16.6558100  54.7186082  43.2360165  12.6010879  46.2630253
  42.7083183  12.6839623  45.5735962  43.6955873  13.3428751  46.2594898
  43.2262015  12.7231542  46.1604948  49.5718583  13.5478158  52.5640539
  49.3328353  13.5073992  51.7261323  49.7352484  14.3949310  52.6906260
  49.5608886  13.6670243  52.4594021  46.1764613  17.9328107  58.4945584
  46.8998812  17.4800633  58.3156604  45.9114575  18.2132773  57.7117912
  46.2445886  17.9079075  58.3524299  35.0451481  12.5288280  55.2298463
  34.4204551  12.5406672  54.6224416  34.7097076  13.0048456  55.8789703
  34.9036973  12.6006797  55.2355032  35.2293230  10.8713399  41.2871148
  34.8806034  11.5233124  41.7502698  34.7489676  10.8570512  40.5595019
  35.1063474  10.9656452  41.2482239  31.7577157  20.5888740  56.6702227
  31.2277081  19.8981179  56.7197202  32.0302250  20.5798926  55.8414936
  31.7201879  20.4855872  56.5549643  41.9583402  18.0311985  56.6440599
  41.3440395  17.4870035  56.9389234  42.4750687  17.5176222  56.1646415
  41.9439065  17.8748394  56.6164827  41.1979699  19.1016255  54.3784898
  40.7707308  18.4765974  53.9450333  41.1904644  18.8191177  55.2043905
  41.1338841  18.9669036  54.4364725  34.3142227  14.1381428  57.4473332
  34.4735713  13.3824752  57.8525054  34.1335120  14.6872368  58.1014069
  34.3107586  14.1075242  57.6036038  42.2562530   6.3042664  58.0024121
  41.7603091   6.5006338  57.3115688  43.0131592   6.7035332  57.8312923
  42.2949354   6.3920398  57.8744258  39.5265409   9.9785010  54.5927432
  39.5507896   9.4445122  53.9040212  39.7776883   9.4702318  55.2553022
  39.5675328   9.8245914  54.5892076  27.0372999  17.2616505  54.0270576
  26.9316448  17.2163349  53.1622660  26.2873219  17.6070285  54.3084861
  26.9108602  17.3057413  53.9407905  35.8066731   8.7055828  53.9733176
  35.8465103   9.2065034  54.6867883  34.9816396   8.7966222  53.7039099
  35.6906257   8.7937644  54.0383714  37.9896344  18.2716568  62.0753471
  37.1391975  18.4088282  62.2111115  38.1524472  17.5380346  62.5201172
  37.8880208  18.1830669  62.1609070  37.2281095  15.2216338  56.2707075
  36.3973024  15.3890156  56.0642323  37.1732612  14.8452289  57.0555960
  37.0970510  15.1906069  56.3555603  35.0364878   8.7125231  61.9063486
  35.6617581   8.1687363  62.1792918  34.5815358   8.2320148  61.3371276
  35.0613139   8.5614712  61.8625080  35.6017139  13.4971929  46.7997193
  35.7420100  13.9944394  47.5025834  36.0999671  12.7958224  46.9411406
  35.6958220  13.4673908  46.9248772  35.6317361  14.3639040  44.1289770
  36.2662440  14.9599465  44.0639231  35.7142972  14.0642498  44.9435640
  35.7373912  14.4079948  44.2392856  48.6099927  16.8954518  56.9976134
  49.2017767  17.5351768  57.0294332  49.0458921  16.1977554  57.2868201
  48.7618358  16.8872868  57.0456966  37.2096344  10.2953016  44.1035212
  37.5312185   9.8156098  43.4494474  37.4723288  11.1052662  43.9126023
  37.2962369  10.3442914  43.9790704  40.4393317  21.3171890  57.6234028
  39.9318408  21.8707737  58.0674658  40.1419963  21.3780180  56.8052802
  40.3198202  21.4078201  57.5682484  42.6055499   9.6825210  56.4658691
  43.0310570   9.2297736  55.8542217  41.9912492   9.1285280  56.7423478
  42.5784144   9.5339186  56.4163716  32.1370349  16.5606881  47.3979316
  32.6462578  17.1571389  47.7790621  32.6104621  16.2932855  46.7155735
  32.2813725  16.6092697  47.3533838  41.0449722   6.1540309  49.8749268
  40.4018040   6.0037956  50.4434406  40.7049129   5.9082655  49.1098372
  40.8994799   6.0952432  49.8452283  45.6349068  14.1099736  49.2979276
  44.9640258  14.6529439  49.1692342  46.3288818  14.5794592  49.0560971
  45.6377936  14.2598008  49.2434804  39.6835802  26.2496448  54.5291034
  39.4601456  25.4915278  54.8975061  39.1945645  26.2794469  53.8071474
  39.5779251  26.1418673  54.4767775  45.7977196  10.5655620  52.2069649
  46.1504806  10.1385343  52.8815448  44.9391997  10.4806463  52.3370726
  45.7226640  10.4900361  52.3264660  34.4960881  13.1963140  50.2652496
  33.7772870  13.6127272  50.5325360  34.8673243  13.7617378  49.7144134
  34.4452812  13.3412421  50.2235303  43.7960461  13.8290989  56.1554492
  43.7758389  13.6474284  57.0089271  43.8439662  14.7003007  56.1314075
  43.7995102  13.9307527  56.2777786  41.7406791  20.4178181  62.0802968
  41.7002646  19.7727857  61.4948124  42.5530110  20.3614798  62.3928380
  41.8549945  20.3137147  62.0399917  41.6979553  25.6286992  52.7351736
  41.2995836  25.7389262  51.9672556  41.0830773  25.8369058  53.3178295
  41.5478442  25.6760560  52.7083035  40.2707455  12.2361140  45.6025875
  39.6772294  12.5578136  45.0510442  40.3082733  11.3902235  45.3946982
  40.1881844  12.1585468  45.4908647  47.2301256   5.6874032  53.1353962
  46.7232120   4.9803171  53.0675139  48.0268689   5.3567221  53.2655039
  47.2728495   5.5347183  53.1452957  43.1465272  12.1940644  49.0327626
  42.9178965  12.2173345  48.1905984  43.4063348  11.3698111  49.1522636
  43.1511460  12.0756724  48.9252823  37.4284500  14.0475117  58.6352726
  36.9163403  13.4396300  58.9937757  37.2563996  14.7631710  59.1026702
  37.3274137  14.0638416  58.7568950  32.2750215  12.4912692  61.2855088
  32.1052805  13.1514067  60.7403294  31.8316165  12.7019254  62.0067577
  32.1849548  12.6198674  61.3116717  36.2010034  10.7317190  50.3281821
  36.6767400  11.0934270  49.6932002  35.6998634  11.3873658  50.6081964
  36.1975393  10.8811379  50.2758562  41.3053570  11.9699362  61.0754981
  41.8625001  11.7413171  60.4433447  40.9814635  12.7305027  60.7990194
  41.3399981  12.0483198  60.9411479  29.1752279  15.3959558  56.5443577
  28.6278999  14.7260203  56.6624446  29.9644657  15.0289406  56.6087045
  29.2104463  15.2424544  56.5712278  39.0236688  15.0567015  62.0406989
  39.7748015  15.3718692  62.3546543  39.2159264  14.8546186  61.2140910
  39.1628102  15.0734397  61.9650384  38.2436687  12.8758390  43.6955205
  38.6235652  12.8938019  42.9106320  37.5029283  13.3212379  43.5746053
  38.1905525  12.9440165  43.5618773  45.8721978  11.1840581  49.2830784
  45.8716204  11.0289238  50.1415060  45.6678158  12.0303568  49.2272170
  45.8421756  11.2861202  49.4018723  27.9339249  14.6080366  53.6989601
  27.7561010  14.1556975  54.4244516  27.6458271  15.4106527  53.8828078
  27.8652202  14.6602924  53.8333103  43.5962830  15.8638083  52.9366991
  44.0916495  15.1461078  52.8971011  42.7862606  15.5608881  52.8221478
  43.5506723  15.7135729  52.9140717  29.6711719  17.1408089  50.8111360
  28.8057238  17.1293780  50.6994131  29.7710534  16.9538312  51.6582499
  29.5585886  17.1114151  50.9200304  45.6614649  18.6141771  55.6244120
  46.0869720  18.0916192  55.0714545  45.2971569  19.2122608  55.1032743
  45.6701251  18.6251998  55.4653129  35.2968728  26.9105988  54.3841465
  35.6115287  27.7242377  54.3919247  35.7062142  26.5256207  55.0523624
  35.4036826  26.9734690  54.4845557  42.2493248  22.3276035  51.9545277
  42.7204426  23.0416297  52.1235262  42.5853427  21.7274785  52.4905147
  42.3688363  22.3447499  52.0577653  44.3370233  23.9377348  64.1337349
  44.4467198  23.1485909  64.4894096  44.6661129  23.8483284  63.3311687
  44.4022639  23.8083201  64.0679740  39.1662743   7.1003505  58.9103372
  39.2990649   6.3034499  59.2384347  39.5507896   7.6269908  59.4901648
  39.2419072   7.0603422  59.0446875  42.8867194  22.1193969  58.7172970
  42.3388140  21.4951853  58.4493035  43.3480223  22.3088241  58.0017049
  42.8734404  22.0553019  58.5723401  42.2395098   4.0233832  55.5084465
  41.4341062   3.9131561  55.8252303  42.1101834   4.1246287  54.6514331
  42.1015231   4.0217502  55.4292506  45.6961059  10.1879323  56.1024162
  45.1124048  10.6888530  55.6901729  46.0165353   9.6808880  55.4688485
  45.6574234  10.1871159  55.9482669  38.2355858   9.1019918  46.3782837
  39.0571552   9.2718231  46.1364532  37.7725509   9.2567179  45.6549134
  38.2887020   9.1501651  46.2354481  36.8251190   7.0962681  57.1581266
  37.3695603   6.7553807  57.7485607  36.8788126   7.9548142  57.3002550
  36.9140309   7.1717940  57.2663139  32.6381749  20.8579097  54.0320074
  33.2426606  20.8174931  53.4033894  32.4309061  21.7050249  54.0624129
  32.6970646  20.9767099  53.9436190  42.4525521  23.1245042  55.2482311
  43.2723895  22.9808008  55.5098606  42.1719598  23.7491241  55.7898749
  42.5322264  23.1955394  55.3670250  27.8733031  19.8413714  53.9018997
  27.7757309  19.0309986  54.2109053  28.6561901  19.8205507  53.5165265
  27.9749167  19.7180804  53.8905860  58.9239171  30.7809893  48.2125187
  58.8933175  31.6354530  48.3843457  59.5220520  30.4805186  48.7711331
  59.0076329  30.8626390  48.3199990  52.1238856  29.8685544  52.9678118
  51.2676751  30.0294043  53.0187234  52.1706510  28.9977608  52.9883179
  52.0037967  29.7636346  52.9784184  55.4332572  36.1372070  62.5738574
  56.1399340  35.6424101  62.7025508  55.6220508  36.5781152  61.8441232
  55.5660478  36.1290420  62.4847619  54.9690677  31.9277588  55.6109769
  55.5146637  32.6062675  55.6703739  54.9107553  31.7865049  54.7511351
  55.0406591  32.0069590  55.4921830  43.5819884  27.6072672  53.5214763
  42.9624915  27.0165319  53.3524778  43.4803747  28.1984107  52.8879086
  43.4757559  27.6076754  53.4019753  50.6787779  29.3472213  47.8547226
  51.3767944  29.5260341  48.3468690  50.9940112  28.8242553  47.2317616
  50.8283116  29.2965986  47.8349236  43.3089017  31.1524953  55.7658332
  43.1847713  31.7387399  56.4008151  43.9607301  30.6585149  56.0670607
  43.3862666  31.1663758  55.9044261  48.8514643  24.7164610  51.9368501
  48.5217973  25.1675754  51.2672200  48.1759645  24.6380773  52.4841507
  48.7025079  24.7715745  51.9191724  56.0591051  20.7050133  50.1818112
  55.7444492  21.3953612  50.6138534  55.5417992  20.6494915  49.4803612
  55.9355521  20.7985022  50.1415061  60.8551537  36.2800938  51.6688567
  60.0249240  36.4911582  51.8321983  60.8060790  35.4537993  51.3930850
  60.7258273  36.1890545  51.6525932  60.3505496  28.9271339  55.4638988
  59.5133917  28.9973526  55.6986582  60.3193727  28.9295834  54.5913290
  60.2223778  28.9381566  55.3698536  46.7470225  31.0704375  61.1787357
  46.9190728  30.9610269  62.0272638  47.2839582  31.7158780  60.9418549
  46.8515229  31.1496376  61.2692453  58.1115852  36.9500293  51.8053282
  57.6751084  36.9537035  52.5612254  57.7778768  37.6305792  51.3732860
  57.9978472  37.0512749  51.8534115  52.6844926  38.9908626  63.1296433
  53.4685343  39.1039473  63.4952175  52.4841521  38.1649763  63.3255118
  52.7710952  38.8855345  63.2130819  58.0313335  23.9914121  54.0482710
  58.6739244  24.0612225  54.6344626  58.2836356  23.3243343  53.5462252
  58.1635468  23.9040469  54.0609990  45.8030548  27.2014684  58.6607284
  45.1102345  26.7311664  58.9068016  46.4190875  26.9752988  59.2348991
  45.7915078  27.0981816  58.7816437  61.2460199  33.6681213  50.6972920
  61.9076633  33.1071881  50.5968828  60.6051611  33.1733243  51.0225611
  61.2489066  33.5117622  50.7305260  57.5325029  34.6846595  50.4384908
  57.7680619  34.8291794  49.6111759  57.6814593  35.4489003  50.8316422
  57.5890833  34.8185649  50.3748512  44.5271107  31.1680088  59.8034129
  45.2511079  31.1533119  60.2899024  44.6287243  31.8775443  59.3056098
  44.6489316  31.2704791  59.8012916  59.3615486  33.5248261  48.2754512
  59.6923703  34.0575901  47.6694607  59.9348574  33.5787149  48.9316463
  59.4949165  33.6117830  48.2832294  51.9016056  34.6479173  64.6683076
  51.1089037  34.9622684  64.8535696  52.0164983  34.8630641  63.8303861
  51.8011467  34.7263009  64.5721411  52.8299849  34.5499376  59.6068373
  53.4038711  33.9126621  59.7616937  52.7514653  34.5503459  58.7378031
  52.9033084  34.4564488  59.5014784  53.2664618  25.0851092  51.7593663
  52.5620945  24.5960278  51.9177582  53.3149592  25.0973567  50.8882108
  53.1694669  25.0140740  51.6533003  50.8271569  29.0083753  57.0046844
  50.4386001  28.5837971  56.3499035  50.1626267  29.2565903  57.5123870
  50.6718496  28.9822474  56.9834712  60.4694838  28.7658758  49.7794674
  60.2131403  27.9538699  49.5892557  61.3124152  28.7736325  49.5524861
  60.5560863  28.6470755  49.7179491  54.6497930  22.7058382  54.5170828
  55.0308442  22.0236553  54.9038702  53.8461214  22.4167984  54.3346492
  54.5874392  22.5625430  54.5474884  58.1519997  35.9208354  59.6153226
  57.9158634  35.0896419  59.4965287  58.7963226  35.8693961  60.2008071
  58.2114668  35.7906042  59.6839120  48.6089770  25.2112580  64.3833436
  48.2943212  25.9812143  64.1202999  48.2879703  24.6482836  63.7985663
  48.5148690  25.2422849  64.2574786  59.1756418  35.7052803  55.6781521
  58.8702235  36.4380860  56.0394836  58.4562633  35.2990732  55.3974307
  59.0243760  35.7534536  55.6894658  64.8758210  32.3445803  55.0049865
  64.8082710  32.3641762  54.1352452  64.8613872  33.1876131  55.2305536
  64.8636966  32.4719538  54.9102342  46.1621667  23.6003102  49.9979633
  45.2944093  23.6725701  50.0637242  46.4496872  24.4025181  50.1867608
  46.0761416  23.7297249  50.0354399  55.2854556  23.7480961  58.3290955
  56.0308148  23.5590771  57.9154380  54.8691861  24.2739199  57.7704811
  55.3339530  23.7983106  58.1855528  62.6616827  31.1190190  53.2796460
  63.2124749  30.4858259  53.5193552  62.6460942  31.6505582  53.9711964
  62.7402023  31.1039138  53.4175318  49.3139218  34.9528787  57.8256353
  48.8150912  35.6644555  57.9041241  50.1239442  35.2729453  57.7874515
  49.3595325  35.1055635  57.8312922  56.3645233  29.3586523  52.3901056
  56.0209999  28.6376858  52.7408305  56.4638276  29.1500374  51.5479414
  56.3287276  29.2210726  52.3172736  48.2406276  27.8109831  63.1218651
  47.4306052  28.1167611  63.0108494  48.7180963  28.5315414  63.2371235
  48.1909755  27.9624432  63.1225722  54.8836199  27.2778108  54.2660599
  54.0447299  27.3039387  54.0298862  54.9540566  27.9248843  54.8465945
  54.7704592  27.3774234  54.3169716  44.5750308  33.3472382  57.9918054
  45.0871405  33.6256635  57.3426813  44.2886650  34.0861676  58.3580867
  44.6085171  33.4974735  57.9507932  53.3305477  24.1763485  48.9988215
  54.0331830  23.9771233  48.5208173  53.0649666  23.4039427  49.3057058
  53.3952109  24.0326451  48.9733656  58.7593723  32.4846095  51.5521840
  58.6727697  32.6401521  52.4056619  58.3044202  33.1284170  51.1781245
  58.6796979  32.6021850  51.6228947  48.0934033  25.4398770  58.0519095
  47.9017230  25.4553905  58.9018519  48.9432629  25.6362444  58.0285750
  48.1909755  25.4713121  58.1742390  42.4780946  27.9689752  56.0302912
  42.3366438  27.1173692  56.1547420  42.7621510  28.0118412  55.2065118
  42.4988792  27.8489502  55.9270536  52.6319539  29.8056842  50.1747400
  52.3854253  29.7252593  51.0084189  52.9604662  29.0210310  49.9809927
  52.6440782  29.6783107  50.2694923  56.5267587  36.5140201  53.9634181
  56.3881947  37.2121247  54.4682924  55.7467585  36.3588858  53.6070363
  56.3910814  36.5940368  53.9860455  54.8645673  32.8136577  60.2156563
  54.8593711  31.9416393  60.2198989  55.5706666  33.0124746  59.7426019
  54.9690677  32.7140451  60.1463598  48.5916566  32.5413560  59.5870383
  48.7359942  33.1214769  58.9513493  48.9392214  32.9189857  60.2920238
  48.6644027  32.6834264  59.5969378  50.7636483  31.7403729  57.3695515
  50.0159797  31.9334743  56.9643793  50.9178008  30.9148948  57.1319636
  50.6758911  31.6468840  57.2740920  51.0038260  25.6354280  58.2590918
  51.4610874  26.3678254  58.3863711  51.0794589  25.2120745  59.0178174
  51.0829230  25.6811518  58.3891995  43.2471251  25.8820099  59.3480362
  42.7113441  25.2700457  59.6641129  43.3089016  26.4568235  60.0014029
  43.1766884  25.8767027  59.4915789  55.4765586  18.8144155  52.1284761
  55.5949154  19.2720618  51.3952064  55.3027762  18.0089416  51.8420979
  55.4684757  18.7637927  51.9785695  48.8820638  27.6256383  55.1032742
  48.0916713  27.4447844  55.4250078  49.2781261  26.8483336  55.0863037
  48.8237514  27.4843844  55.1485291  54.2664324  35.2598814  52.8292188
  53.5909326  35.0284046  53.3305575  54.2756701  34.6519997  52.2034293
  54.1682829  35.1357739  52.8108340  51.3958468  30.1016643  59.5856241
  51.3317610  30.9626599  59.4576378  51.5355656  29.7848636  58.7851793
  51.4073939  30.1816809  59.4484454  55.7756259  36.8761364  65.1420692
  56.5891125  36.6046513  65.3025825  55.6151226  36.5768904  64.3380888
  55.8726208  36.7916290  65.0466098  53.0528421  27.5595021  58.0816080
  53.2670391  26.9205936  57.5279434  52.4362320  28.0040845  57.6523942
  52.9933751  27.5305165  57.9366511  55.2167509  29.1684087  59.0199387
  54.4044191  28.8609977  59.1012560  55.6757444  28.6883087  59.5842100
  55.1647894  29.0520579  59.1153982  52.4443150  20.6694957  53.0703423
  51.5736708  20.6433678  53.0236733  52.6983491  20.4972149  52.2529269
  52.3536710  20.6405101  52.9423560  52.3121017  30.5744158  63.8028090
  52.7820648  31.1986274  64.1895964  52.3582897  29.9061134  64.3621304
  52.3888893  30.5678838  63.9428161  49.4692290  22.6801186  54.5276894
  48.9530779  21.9881377  54.6528473  48.9086219  23.3471963  54.4739492
  49.3098804  22.6764443  54.5382960  51.5384524  23.2194146  56.3569746
  51.1516277  23.2443177  57.1383276  51.0517461  22.6535824  55.9044263
  51.4097033  23.1389896  56.4057650  55.7877503  37.9367655  60.4143533
  56.4257224  37.4427850  60.0805989  55.1451595  37.8645055  59.8295760
  55.7871730  37.8526663  60.2785888  57.5134503  29.7856801  54.9809448
  57.0862111  29.6983149  54.2257548  56.8760556  29.8934576  55.5664292
  57.3564111  29.7889460  54.9554890  51.2041666  20.1061131  58.6480006
  51.8334784  20.6421431  58.3701076  51.3727528  20.0138490  59.4993572
  51.3219460  20.1722493  58.7328534  51.0055581  24.8932326  60.9206418
  51.8329010  24.6217475  60.9765032  51.0263427  25.6893167  61.2770236
  51.1308431  24.9712080  60.9821601  55.8431760  38.6287463  57.0548889
  56.6324138  38.2776528  57.1750971  56.0175358  39.4423851  56.7925523
  55.9852042  38.6973320  57.0336757  54.6965584  22.6397020  51.6165308
  54.9015177  22.5719327  52.4622305  54.3692008  23.4455841  51.5486485
  54.6780832  22.7482960  51.7324963  49.3941735  29.9677588  53.3574276
  49.0904873  29.4133576  53.9584683  48.6921156  30.1469798  52.8702310
  49.2457945  29.9122370  53.3743981  57.9499272  23.1928784  51.0968073
  57.3373585  23.6799186  51.4821805  58.0463447  22.5172275  51.6405724
  57.8737169  23.1647093  51.2346931  51.9518353  24.9491625  46.1965573
  52.4062099  25.1202185  46.9213417  52.4258399  24.3359736  45.7963348
  52.0886673  24.8842510  46.2439334  45.8694501  25.5941949  56.1936329
  46.3295983  25.6680878  56.9311453  45.9150608  26.3923203  55.8436150
  45.9445056  25.7236096  56.2509085  47.5177851  26.2608644  60.7608356
  47.1263416  25.6141991  61.1964134  47.6863713  26.8520079  61.3802611
  47.4848761  26.2522911  60.9171062  61.5924300  34.2645721  56.5245589
  61.6507423  34.7132369  57.2705566  60.9590767  34.6744533  56.0875669
  61.5075595  34.3919455  56.5698138  55.2323394  39.8849262  52.9600336
  55.0343083  40.3740077  52.2656547  54.6111106  40.0890504  53.5384469
  55.1110959  39.9865801  52.9423559  51.2110948  23.4484418  52.3342441
  50.3646993  23.6207226  52.2083791  51.2082081  22.6433762  52.6708270
  51.0858098  23.3545447  52.3653568  52.2809249  27.2259633  53.2004499
  51.8069203  26.7001395  53.7109810  52.6527384  26.6789105  52.6319361
  52.2659138  27.0675629  53.1919646  42.6582279  29.2231139  58.5688045
  43.5207892  29.1226849  58.4825375  42.3274062  28.6425849  58.0073617
  42.7367475  29.1222766  58.4733451  58.5445979  32.2862008  54.6111280
  58.3044202  31.4468423  54.6153706  59.0237986  32.3662175  55.3352053
  58.5798163  32.1743408  54.7186082  54.2092748  28.1196187  46.2630253
  53.6815767  28.2024931  45.5735962  54.6688456  28.8614059  46.2594898
  54.1994599  28.2416850  46.1604948  60.5451166  29.0663465  52.5640539
  60.3060936  29.0259300  51.7261323  60.7085068  29.9134618  52.6906260
  60.5341470  29.1855550  52.4594021  57.1497196  33.4513415  58.4945584
  57.8731395  32.9985941  58.3156604  56.8847159  33.7318080  57.7117912
  57.2178470  33.4264383  58.3524299  46.0184065  28.0473588  55.2298463
  45.3937135  28.0591980  54.6224416  45.6829660  28.5233763  55.8789703
  45.8769557  28.1192105  55.2355032  52.9315986  33.5497293  56.6440599
  52.3172979  33.0055343  56.9389234  53.4483271  33.0361529  56.1646415
  52.9171648  33.3933702  56.6164827  45.2874810  29.6566736  57.4473332
  45.4468297  28.9010060  57.8525054  45.1067704  30.2057676  58.1014069
  45.2840169  29.6260550  57.6036038  53.2295113  21.8227972  58.0024121
  52.7335674  22.0191646  57.3115688  53.9864175  22.2220640  57.8312923
  53.2681938  21.9105705  57.8744258  50.4997993  25.4970318  54.5927432
  50.5240480  24.9630430  53.9040212  50.7509466  24.9887626  55.2553022
  50.5407911  25.3431222  54.5892076  46.7799315  24.2241136  53.9733176
  46.8197687  24.7250342  54.6867883  45.9548980  24.3151530  53.7039099
  46.6638841  24.3122952  54.0383714  48.9628928  33.7901876  62.0753471
  48.1124558  33.9273590  62.2111115  49.1257056  33.0565654  62.5201172
  48.8612791  33.7015977  62.1609070  48.2013678  30.7401646  56.2707075
  47.3705608  30.9075464  56.0642323  48.1465196  30.3637596  57.0555960
  48.0703093  30.7091377  56.3555603  46.0097462  24.2310539  61.9063486
  46.6350165  23.6872671  62.1792918  45.5547942  23.7505456  61.3371276
  46.0345722  24.0800020  61.8625080  59.5832510  32.4139826  56.9976134
  60.1750351  33.0537076  57.0294332  60.0191505  31.7162862  57.2868201
  59.7350942  32.4058176  57.0456966  51.4125900  36.8357198  57.6234028
  50.9050991  37.3893045  58.0674658  51.1152546  36.8965488  56.8052802
  51.2930785  36.9263509  57.5682484  53.5788082  25.2010518  56.4658691
  54.0043154  24.7483044  55.8542217  52.9645076  24.6470588  56.7423478
  53.5516728  25.0524494  56.4163716  52.0182305  21.6725617  49.8749268
  51.3750623  21.5223264  50.4434406  51.6781712  21.4267963  49.1098372
  51.8727383  21.6137740  49.8452283  56.6081652  29.6285044  49.2979276
  55.9372842  30.1714746  49.1692342  57.3021402  30.0979900  49.0560971
  56.6110519  29.7783315  49.2434804  56.7709779  26.0840928  52.2069649
  57.1237389  25.6570651  52.8815448  55.9124581  25.9991771  52.3370726
  56.6959224  26.0085669  52.3264660  54.7693045  29.3476296  56.1554492
  54.7490972  29.1659592  57.0089271  54.8172246  30.2188315  56.1314075
  54.7727686  29.4492835  56.2777786  52.7139375  35.9363488  62.0802968
  52.6735230  35.2913165  61.4948124  53.5262693  35.8800106  62.3928380
  52.8282528  35.8322455  62.0399917  51.2440039  27.7546447  45.6025875
  50.6504878  28.0763444  45.0510442  51.2815316  26.9087543  45.3946982
  51.1614428  27.6770776  45.4908647  58.2033839  21.2059340  53.1353962
  57.6964704  20.4988479  53.0675139  59.0001273  20.8752529  53.2655039
  58.2461078  21.0532491  53.1452957  54.1197855  27.7125952  49.0327626
  53.8911548  27.7358653  48.1905984  54.3795931  26.8883419  49.1522636
  54.1244043  27.5942032  48.9252823  48.4017084  29.5660425  58.6352726
  47.8895987  28.9581608  58.9937757  48.2296580  30.2817018  59.1026702
  48.3006721  29.5823724  58.7568950  43.2482798  28.0098000  61.2855088
  43.0785389  28.6699375  60.7403294  42.8048748  28.2204562  62.0067577
  43.1582132  28.1383982  61.3116717  47.1742618  26.2502498  50.3281821
  47.6499984  26.6119578  49.6932002  46.6731217  26.9058966  50.6081964
  47.1707977  26.3996687  50.2758562  60.4053979  35.7224266  46.1194826
  60.7887585  36.4715622  46.3492923  59.6098093  35.9690086  45.8606815
  60.3447761  35.8693960  46.1152400  52.2786154  27.4884670  61.0754981
  52.8357584  27.2598479  60.4433447  51.9547219  28.2490335  60.7990194
  52.3132564  27.5668506  60.9411479  40.1484863  30.9144866  56.5443577
  39.6011582  30.2445511  56.6624446  40.9377241  30.5474714  56.6087045
  40.1837046  30.7609852  56.5712278  49.9969271  30.5752323  62.0406989
  50.7480598  30.8904000  62.3546543  50.1891848  30.3731494  61.2140910
  50.1360685  30.5919705  61.9650384  56.8454561  26.7025889  49.2830784
  56.8448788  26.5474546  50.1415060  56.6410741  27.5488876  49.2272170
  56.8154339  26.8046510  49.4018723  38.9071832  30.1265674  53.6989601
  38.7293593  29.6742283  54.4244516  38.6190854  30.9291835  53.8828078
  38.8384785  30.1788231  53.8333103  54.5695413  31.3823391  52.9366991
  55.0649079  30.6646386  52.8971011  53.7595189  31.0794189  52.8221478
  54.5239307  31.2321037  52.9140717  56.6347232  34.1327079  55.6244120
  57.0602304  33.6101500  55.0714545  56.2704152  34.7307916  55.1032743
  56.6433835  34.1437306  55.4653129  55.3102816  39.4562656  64.1337349
  55.4199782  38.6671217  64.4894096  55.6393713  39.3668592  63.3311687
  55.3755222  39.3268509  64.0679740  50.1395327  22.6188813  58.9103372
  50.2723232  21.8219807  59.2384347  50.5240479  23.1455216  59.4901648
  50.2151655  22.5788730  59.0446875  53.8599778  37.6379277  58.7172970
  53.3120724  37.0137161  58.4493035  54.3212807  37.8273549  58.0017049
  53.8466987  37.5738327  58.5723401  53.2127682  19.5419140  55.5084465
  52.4073646  19.4316869  55.8252303  53.0834417  19.6431595  54.6514331
  53.0747815  19.5402810  55.4292506  56.6693642  25.7064631  56.1024162
  56.0856631  26.2073838  55.6901729  56.9897936  25.1994188  55.4688485
  56.6306818  25.7056466  55.9482669  47.7983773  22.6147988  57.1581266
  48.3428186  22.2739115  57.7485607  47.8520709  23.4733450  57.3002550
  47.8872893  22.6903248  57.2663139  53.4258104  38.6430350  55.2482311
  54.2456478  38.4993316  55.5098606  53.1452182  39.2676549  55.7898749
  53.5054848  38.7140702  55.3670250  69.8971755  46.2995201  48.2125187
  69.8665759  47.1539838  48.3843457  70.4953103  45.9990494  48.7711331
  69.9808913  46.3811698  48.3199990  63.0971440  45.3870852  52.9678118
  62.2409335  45.5479351  53.0187234  63.1439093  44.5162916  52.9883179
  62.9770551  45.2821654  52.9784184  57.4812579  54.9233570  48.7315349
  56.7295479  54.5449109  48.5031394  57.9298591  54.9552004  47.9834160
  57.4362246  54.8719177  48.5872851  66.4065156  51.6557378  62.5738574
  67.1131923  51.1609409  62.7025508  66.5953092  52.0966459  61.8441232
  66.5393062  51.6475728  62.4847619  62.9337539  55.3458940  44.1600896
  62.5988908  56.0235861  43.7245119  63.4464410  54.9564251  43.5717768
  62.9603120  55.3883518  44.0087688  62.4741830  57.2973208  50.1012008
  62.8581210  57.8660107  49.5616783  62.4100972  56.5722719  49.6217824
  62.5215258  57.2748672  49.9505871  65.9423261  47.4462896  55.6109769
  66.4879221  48.1247983  55.6703739  65.8840137  47.3050357  54.7511351
  66.0139175  47.5254898  55.4921830  59.0597335  54.9351962  50.9978122
  59.1607698  54.1252316  51.3075250  58.4639081  54.8408909  50.3677800
  58.9869874  54.8016990  50.9504360  67.7188329  48.8747503  46.4843497
  67.6027855  49.6255189  46.9135635  68.5144216  48.6171457  46.7339584
  67.8192919  48.9482350  46.5847589  58.8998075  59.8529552  52.3992978
  59.5435530  60.2942716  52.7889136  59.2254331  59.0482978  52.3123237
  59.0429904  59.7994746  52.4438455  59.6018655  52.8641526  47.7712840
  59.9234496  53.4046734  47.1674148  60.2490751  52.2938298  47.9035129
  59.7444710  52.8600702  47.7019875  61.8408298  51.2527966  47.8427018
  62.2801934  50.6445067  48.2881790  61.6912961  50.8735340  47.0712483
  61.8829764  51.1066437  47.7946185  59.3079941  49.8471978  55.0445843
  59.9528944  49.3544421  54.7256792  59.5481718  49.9896765  55.8711921
  59.4390526  49.7949420  55.1195376  61.8466033  52.6926884  54.6952736
  62.1289275  51.8978290  54.4739492  62.5752193  53.1707472  54.7157797
  61.9955596  52.6461481  54.6655751  59.8247226  40.2349918  51.9368501
  59.4950556  40.6861062  51.2672200  59.1492228  40.1566081  52.4841507
  59.6757663  40.2901053  51.9191724  65.4417635  49.6055148  44.7957787
  65.3568930  50.4616114  44.9407356  65.9302018  49.3299472  45.4639946
  65.5006532  49.6912469  44.9159868  67.0323634  36.2235441  50.1818112
  66.7177075  36.9138919  50.6138534  66.5150576  36.1680223  49.4803612
  66.9088105  36.3170329  50.1415061  66.3736068  46.2239942  46.2955522
  65.8447539  46.4399575  46.9552828  66.8961088  46.9176080  46.2156491
  66.3724521  46.3583079  46.3811121  71.8284121  51.7986246  51.6688567
  70.9981824  52.0096890  51.8321983  71.7793373  50.9723301  51.3930850
  71.6990856  51.7075853  51.6525932  53.8179704  55.8357920  51.8986662
  53.3347283  56.5608409  51.8746245  54.6303023  56.1334050  52.0096819
  53.8670452  55.9860273  51.9113941  59.8893858  54.6290100  54.5036476
  59.3720800  54.2697515  53.8997784  60.5868250  54.1052275  54.5142542
  59.9159440  54.4987788  54.4166735  63.5457450  55.0784915  60.4652649
  63.6340796  54.8911055  61.3130859  63.9747163  54.4322344  60.0657496
  63.6219553  54.9547922  60.5324401  61.1127910  54.3616074  59.4470311
  60.5498745  53.9488684  59.9709972  61.8748934  54.2868980  59.8663455
  61.1422359  54.2893475  59.5863312  56.6723902  56.3514096  52.0506941
  57.3744481  55.8366085  52.1079698  56.5921385  56.6788247  52.8553817
  56.7647662  56.3228322  52.1779734  71.3238079  44.4456647  55.4638988
  70.4866500  44.5158834  55.6986582  71.2926310  44.4481142  54.5913290
  71.1956362  44.4566874  55.3698536  57.7202808  46.5889683  61.1787357
  57.8923312  46.4795577  62.0272638  58.2572166  47.2344088  60.9418549
  57.8247812  46.6681684  61.2692453  56.6227380  52.9621323  55.8605855
  57.1625605  52.8192454  56.5309227  55.9397326  53.3618074  56.2289881
  56.6019534  53.0000994  56.0140277  62.0659964  37.7058936  47.1518585
  62.7946125  37.5274891  46.7056742  62.1554857  38.5477016  47.3625764
  62.1866626  37.8042814  47.1172103  66.0468265  48.6412323  51.0550879
  66.8025780  49.0743838  51.0939788  66.1530589  47.9917093  51.6285515
  66.1738436  48.6089807  51.1448905  69.0848436  52.4685601  51.8053282
  68.6483668  52.4722343  52.5612254  68.7511352  53.1491100  51.3732860
  68.9711056  52.5698056  51.8534115  63.6577510  54.5093934  63.1296433
  64.4417926  54.6224781  63.4952175  63.4574104  53.6835071  63.3255118
  63.7443535  54.4040653  63.2130819  69.0045919  39.5099429  54.0482710
  69.6471827  39.5797533  54.6344626  69.2568940  38.8428651  53.5462252
  69.1368051  39.4225777  54.0609990  63.8147903  56.4204036  56.7762888
  63.0163149  56.1803536  57.0336757  64.2633915  56.4718428  57.5229936
  63.7622514  56.3926427  56.9247813  72.2192782  49.1866521  50.6972920
  72.8809216  48.6257189  50.5968828  71.5784194  48.6918551  51.0225611
  72.2221650  49.0302930  50.7305260  63.1069590  52.4836652  43.0053843
  63.5220739  52.1521676  42.3138339  62.2761520  52.2505554  42.8773979
  63.0457599  52.4007908  42.8844690  68.5057613  50.2031903  50.4384908
  68.7413202  50.3477102  49.6111759  68.6547177  50.9674311  50.8316422
  68.5623416  50.3370957  50.3748512  70.3348070  49.0433569  48.2754512
  70.6656287  49.5761209  47.6694607  70.9081158  49.0972457  48.9316463
  70.4681749  49.1303138  48.2832294  62.8748640  50.1664480  64.6683076
  62.0821621  50.4807992  64.8535696  62.9897567  50.3815949  63.8303861
  62.7744050  50.2448317  64.5721411  65.5479959  46.8898472  48.9578092
  65.6426813  47.6287766  49.4117718  64.9238802  46.4615947  49.3912657
  65.4688989  46.9359792  49.0886240  63.8032433  50.0684684  59.6068373
  64.3771294  49.4311928  59.7616937  63.7247236  50.0688767  58.7378031
  63.8765668  49.9749796  59.5014784  65.8002980  48.7347211  42.1915044
  65.7183143  48.8049399  43.0570031  66.4382701  49.2976955  41.9998785
  65.8822818  48.8286183  42.2904994  59.1596151  48.5007949  51.6589571
  58.9015396  47.6679684  51.6320870  59.2144634  48.7265562  50.8182071
  59.1295929  48.4105721  51.5309707  64.2397201  40.6036400  51.7593663
  63.5353528  40.1145586  51.9177582  64.2882176  40.6158874  50.8882108
  64.1427253  40.5326048  51.6533003  61.8004152  44.5269061  57.0046844
  61.4118585  44.1023279  56.3499035  61.1358850  44.7751211  57.5123870
  61.6451080  44.5007782  56.9834712  71.4427421  44.2844066  49.7794674
  71.1863986  43.4724007  49.5892557  72.2856735  44.2921633  49.5524861
  71.5293447  44.1656063  49.7179491  65.6230514  38.2243690  54.5170828
  66.0041025  37.5421861  54.9038702  64.8193798  37.9353292  54.3346492
  65.5606975  38.0810738  54.5474884  69.1252581  51.4393662  59.6153226
  68.8891218  50.6081727  59.4965287  69.7695809  51.3879269  60.2008071
  69.1847251  51.3091350  59.6839120  58.7750999  52.2289183  50.3295963
  59.4124946  51.9900931  50.8747756  59.2006070  52.4326342  49.5949123
  58.9327165  52.2240193  50.3013120  53.4663641  54.4677520  54.2130267
  53.5067786  54.7392371  53.3850046  54.0258165  54.9919428  54.6288054
  53.5546987  54.5853275  54.1522155  59.5822354  40.7297888  64.3833436
  59.2675795  41.4997451  64.1202999  59.2612287  40.1668144  63.7985663
  59.4881273  40.7608157  64.2574786  70.1489001  51.2238111  55.6781521
  69.8434818  51.9566167  56.0394836  69.4295217  50.8176040  55.3974307
  69.9976343  51.2719844  55.6894658  61.1572471  52.7061606  52.0089749
  61.2311479  52.5436778  52.8631599  61.9741977  52.8951795  51.7650231
  61.2888829  52.7098348  52.0987775  75.8490793  47.8631111  55.0049865
  75.7815294  47.8827070  54.1352452  75.8346456  48.7061439  55.2305536
  75.8369550  47.9904846  54.9102342  66.2587140  39.2666269  58.3290955
  67.0040732  39.0776079  57.9154380  65.8424444  39.7924507  57.7704811
  66.3072114  39.3168414  58.1855528  59.6977056  55.6696349  46.7403222
  59.9875355  55.2785330  46.0162449  60.4280537  55.8513054  47.1808498
  59.8483940  55.6390163  46.6986029  73.6349411  46.6375497  53.2796460
  74.1857332  46.0043567  53.5193552  73.6193526  47.1690890  53.9711964
  73.7134607  46.6224446  53.4175318  60.2871801  50.4714095  57.8256353
  59.7883495  51.1829862  57.9041241  61.0972026  50.7914761  57.7874515
  60.3327908  50.6240943  57.8312922  57.6382972  57.6463731  49.8063372
  57.4183267  57.3561086  50.5990039  57.4177494  56.9878686  49.2781285
  57.5730566  57.5063440  49.8452281  67.3377817  44.8771831  52.3901056
  66.9942583  44.1562166  52.7408305  67.4370859  44.6685682  51.5479414
  67.3019860  44.7396034  52.3172736  59.8050928  59.0193121  48.5894065
  60.4574986  58.4869564  48.8185091  59.1076536  58.6661774  48.9761939
  59.7981646  58.8882644  48.6806232  67.7990846  51.3397535  47.9325044
  68.3648879  51.9990745  47.8483587  67.1518749  51.6847233  48.4041446
  67.7869602  51.4879477  47.9897800  59.2138859  43.3295139  63.1218651
  58.4038635  43.6352919  63.0108494  59.6913546  44.0500722  63.2371235
  59.1642338  43.4809740  63.1225722  58.0730419  52.5440860  53.3701554
  57.5511173  52.6841152  54.0553419  58.4604439  51.7851524  53.5603672
  58.0534120  52.4526384  53.5002631  64.2697424  54.2836319  47.3562123
  64.0284100  53.5504180  46.9489188  64.4498757  54.8323176  46.7028456
  64.2605048  54.2558711  47.1992346  59.4996745  49.5744879  48.7683045
  59.3039527  50.1819614  48.1743348  59.7231090  48.8812823  48.2874719
  59.5031386  49.5622405  48.6099126  65.8568782  42.7963416  54.2660599
  65.0179883  42.8224695  54.0298862  65.9273150  43.4434151  54.8465945
  65.7437176  42.8959542  54.3169716  64.3038061  39.6948793  48.9988215
  65.0064413  39.4956541  48.5208173  64.0382249  38.9224735  49.3057058
  64.3684693  39.5511759  48.9733656  69.7326306  48.0031403  51.5521840
  69.6460281  48.1586829  52.4056619  69.2776786  48.6469478  51.1781245
  69.6529563  48.1207158  51.6228947  59.0666617  40.9584078  58.0519095
  58.8749814  40.9739213  58.9018519  59.9165213  41.1547752  58.0285750
  59.1642339  40.9898429  58.1742390  63.6052122  45.3242150  50.1747400
  63.3586836  45.2437901  51.0084189  63.9337245  44.5395618  49.9809927
  63.6173366  45.1968415  50.2694923  67.5000171  52.0325509  53.9634181
  67.3614530  52.7306555  54.4682924  66.7200169  51.8774166  53.6070363
  67.3643398  52.1125676  53.9860455  65.8378256  48.3321884  60.2156563
  65.8326295  47.4601701  60.2198989  66.5439250  48.5310054  59.7426019
  65.9423260  48.2325759  60.1463598  59.5649149  48.0598868  59.5870383
  59.7092525  48.6400077  58.9513493  59.9124798  48.4375165  60.2920238
  59.6376611  48.2019572  59.5969378  61.7369067  47.2589037  57.3695515
  60.9892381  47.4520051  56.9643793  61.8910592  46.4334256  57.1319636
  61.6491494  47.1654148  57.2740920  58.6376904  56.2501640  56.4531410
  58.7866468  55.6904556  55.8004814  59.4176907  56.3293642  56.8363929
  58.7750998  56.1787206  56.4128359  68.9953544  51.3903763  44.7250680
  68.6160353  50.6040901  44.7179970  68.3319789  51.9390620  44.5822325
  68.8412019  51.3548587  44.7031477  61.1630205  56.4216283  57.7315901
  61.0873876  55.7525094  58.2866689  61.0920064  57.1234071  58.2456567
  61.1410812  56.4261190  57.8892749  61.9770844  41.1539587  58.2590918
  62.4343458  41.8863562  58.3863711  62.0527173  40.7306053  59.0178174
  62.0561814  41.1996826  58.3891995  66.4498170  34.3329463  52.1284761
  66.5681738  34.7905926  51.3952064  66.2760345  33.5274724  51.8420979
  66.4417341  34.2823235  51.9785695  61.8200452  54.9417282  48.5639507
  62.5850343  54.6726926  48.2422171  61.7178542  54.4567292  49.2809569
  61.9181947  54.8306847  48.6219334  59.8553222  43.1441691  55.1032742
  59.0649297  42.9633151  55.4250078  60.2513845  42.3668644  55.0863037
  59.7970098  43.0029152  55.1485291  64.3419113  51.9729466  40.5439456
  65.1092098  52.0329591  40.1345308  63.8950421  51.4009907  40.0595774
  64.3892540  51.8966041  40.4117166  65.2396908  50.7784122  52.8292188
  64.5641910  50.5469354  53.3305575  65.2489284  50.1705304  52.2034293
  65.1415413  50.6543047  52.8108340  62.3691052  45.6201951  59.5856241
  62.3050193  46.4811907  59.4576378  62.5088240  45.3033944  58.7851793
  62.3806522  45.7002117  59.4484454  67.2413643  53.6349254  45.0602366
  67.3233480  54.4416240  44.7363817  67.7263385  53.6545213  45.7843140
  67.3250801  53.7569916  45.1189265  61.0510146  48.3134090  53.7272444
  60.6272395  48.5138589  52.9911462  60.8755001  47.4662938  53.8396744
  60.9621027  48.2182871  53.6346134  66.7488843  52.3946672  65.1420692
  67.5623708  52.1231821  65.3025825  66.5883809  52.0954212  64.3380888
  66.8458791  52.3101598  65.0466098  61.0458185  53.5761376  45.3133808
  61.1151006  52.7175915  45.4526808  61.8246640  53.7933257  44.9852832
  61.1711035  53.4814240  45.2850965  64.0261005  43.0780329  58.0816080
  64.2402974  42.4391244  57.5279434  63.4094904  43.5226153  57.6523942
  63.9666334  43.0490473  57.9366511  65.4365673  55.9999078  49.5270301
  65.0445465  55.6965793  48.8093167  65.5918745  56.8368168  49.3375255
  65.4019263  56.0782914  49.3926798  66.1900093  44.6869395  59.0199387
  65.3776775  44.3795285  59.1012560  66.6490027  44.2068395  59.5842100
  66.1380478  44.5705887  59.1153982  65.6005348  52.5649067  49.4676332
  65.2420002  52.7363709  50.2440364  65.1144058  53.0262272  48.9104330
  65.4764044  52.6588038  49.5001601  63.4175734  36.1880265  53.0703423
  62.5469291  36.1618986  53.0236733  63.6716075  36.0157457  52.2529269
  63.3269294  36.1590409  52.9423560  63.2853600  46.0929466  63.8028090
  63.7553232  46.7171582  64.1895964  63.3315481  45.4246442  64.3621304
  63.3621476  46.0864146  63.9428161  60.4424874  38.1986493  54.5276894
  59.9263363  37.5066685  54.6528473  59.8818803  38.8657271  54.4739492
  60.2831387  38.1949751  54.5382960  62.5117107  38.7379453  56.3569746
  62.1248861  38.7628485  57.1383276  62.0250045  38.1721132  55.9044263
  62.3829616  38.6575204  56.4057650  66.7610087  53.4552962  60.4143533
  67.3989807  52.9613158  60.0805989  66.1184178  53.3830363  59.8295760
  66.7604313  53.3711971  60.2785888  68.4867087  45.3042108  54.9809448
  68.0594695  45.2168457  54.2257548  67.8493140  45.4119884  55.5664292
  68.3296694  45.3074768  54.9554890  62.1774249  35.6246439  58.6480006
  62.8067367  36.1606739  58.3701076  62.3460112  35.5323798  59.4993572
  62.2952044  35.6907801  58.7328534  61.9788164  40.4117634  60.9206418
  62.8061593  40.1402783  60.9765032  61.9996010  41.2078475  61.2770236
  62.1041014  40.4897388  60.9821601  66.8164343  54.1472771  57.0548889
  67.6056722  53.7961835  57.1750971  66.9907941  54.9609159  56.7925523
  66.9584625  54.2158628  57.0336757  65.6698168  38.1582327  51.6165308
  65.8747761  38.0904635  52.4622305  65.3424592  38.9641149  51.5486485
  65.6513416  38.2668268  51.7324963  60.3674319  45.4862896  53.3574276
  60.0637456  44.9318884  53.9584683  59.6653740  45.6655106  52.8702310
  60.2190529  45.4307678  53.3743981  58.4292670  52.7012616  58.0646374
  58.3213025  52.7114679  58.9308432  58.6388451  53.5267397  57.8751327
  58.4442781  52.8253691  58.1650465  68.9231855  38.7114092  51.0968073
  68.3106169  39.1984494  51.4821805  69.0196030  38.0357583  51.6405724
  68.8469753  38.6832400  51.2346931  56.8427085  41.1127257  56.1936329
  57.3028566  41.1866186  56.9311453  56.8883191  41.9108511  55.8436150
  56.9177640  41.2421404  56.2509085  58.4910434  41.7793951  60.7608356
  58.0995999  41.1327299  61.1964134  58.6596297  42.3705387  61.3802611
  58.4581345  41.7708219  60.9171062  72.5656883  49.7831028  56.5245589
  72.6240007  50.2317677  57.2705566  71.9323351  50.1929841  56.0875669
  72.4808178  49.9104763  56.5698138  66.2055978  55.4034570  52.9600336
  66.0075667  55.8925385  52.2656547  65.5843689  55.6075812  53.5384469
  66.0843542  55.5051109  52.9423559  62.1843532  38.9669726  52.3342441
  61.3379577  39.1392534  52.2083791  62.1814664  38.1619070  52.6708270
  62.0590682  38.8730755  52.3653568  63.2541832  42.7444941  53.2004499
  62.7801786  42.2186703  53.7109810  63.6259968  42.1974413  52.6319361
  63.2391721  42.5860937  53.1919646  69.5178563  47.8047316  54.6111280
  69.2776786  46.9653731  54.6153706  69.9970570  47.8847483  55.3352053
  69.5530746  47.6928716  54.7186082  65.1825332  43.6381495  46.2630253
  64.6548351  43.7210239  45.5735962  65.6421040  44.3799367  46.2594898
  65.1727182  43.7602158  46.1604948  71.5183750  44.5848773  52.5640539
  71.2793520  44.5444608  51.7261323  71.6817651  45.4319925  52.6906260
  71.5074053  44.7040858  52.4594021  68.1229780  48.9698723  58.4945584
  68.8463979  48.5171249  58.3156604  67.8579742  49.2503388  57.7117912
  68.1911053  48.9449691  58.3524299  64.7362414  52.2085059  45.3939910
  65.4596613  52.6743172  45.2504483  64.2963005  52.2758668  44.6437507
  64.7778107  52.2868895  45.2624691  63.9048569  49.0682601  56.6440599
  63.2905563  48.5240651  56.9389234  64.4215854  48.5546837  56.1646415
  63.8904232  48.9119010  56.6164827  63.1444867  50.1386871  54.3784898
  62.7172475  49.5136590  53.9450333  63.1369811  49.8561793  55.2043905
  63.0804008  50.0039652  54.4364725  64.2027697  37.3413280  58.0024121
  63.7068258  37.5376954  57.3115688  64.9596759  37.7405948  57.8312923
  64.2414521  37.4291013  57.8744258  61.4730576  41.0155626  54.5927432
  61.4973063  40.4815738  53.9040212  61.7242050  40.5072934  55.2553022
  61.5140495  40.8616529  54.5892076  57.7531899  39.7426444  53.9733176
  57.7930270  40.2435650  54.6867883  56.9281563  39.8336837  53.7039099
  57.6371424  39.8308260  54.0383714  59.9361511  49.3087184  62.0753471
  59.0857142  49.4458898  62.2111115  60.0989639  48.5750962  62.5201172
  59.8345375  49.2201285  62.1609070  59.1746262  46.2586954  56.2707075
  58.3438192  46.4260772  56.0642323  59.1197779  45.8822904  57.0555960
  59.0435677  46.2276685  56.3555603  56.9830045  39.7495847  61.9063486
  57.6082749  39.2057979  62.1792918  56.5280525  39.2690764  61.3371276
  57.0078306  39.5985328  61.8625080  70.5565094  47.9325134  56.9976134
  71.1482934  48.5722384  57.0294332  70.9924088  47.2348170  57.2868201
  70.7083525  47.9243484  57.0456966  62.3858484  52.3542506  57.6234028
  61.8783575  52.9078353  58.0674658  62.0885130  52.4150796  56.8052802
  62.2663369  52.4448817  57.5682484  64.5520666  40.7195826  56.4658691
  64.9775738  40.2668352  55.8542217  63.9377659  40.1655896  56.7423478
  64.5249311  40.5709802  56.4163716  64.9966264  56.2705764  45.5537971
  64.2795574  56.0966626  45.0885208  65.6473002  56.0358336  45.0213457
  64.9868115  56.2101556  45.4067189  62.9914889  37.1910925  49.8749268
  62.3483207  37.0408572  50.4434406  62.6514296  36.9453271  49.1098372
  62.8459966  37.1323048  49.8452283  67.5814235  45.1470352  49.2979276
  66.9105425  45.6900054  49.1692342  68.2753986  45.6165207  49.0560971
  67.5843103  45.2968623  49.2434804  61.6300969  57.2867064  54.5291034
  61.4066623  56.5285893  54.8975061  61.1410812  57.3165085  53.8071474
  61.5244418  57.1789289  54.4767775  67.7442363  41.6026236  52.2069649
  68.0969973  41.1755959  52.8815448  66.8857164  41.5177079  52.3370726
  67.6691807  41.5270976  52.3264660  65.7425629  44.8661604  56.1554492
  65.7223556  44.6844900  57.0089271  65.7904829  45.7373623  56.1314075
  65.7460270  44.9678143  56.2777786  63.6871958  51.4548796  62.0802968
  63.6467813  50.8098473  61.4948124  64.4995277  51.3985414  62.3928380
  63.8015112  51.3507763  62.0399917  60.2779426  57.5067522  51.9828119
  59.8639825  56.8441652  51.5931961  60.9626800  57.6545381  51.4623813
  60.3177798  57.4308180  51.8484616  63.6444720  56.6657608  52.7351736
  63.2461003  56.7759878  51.9672556  63.0295940  56.8739674  53.3178295
  63.4943609  56.7131176  52.7083035  69.1766423  36.7244648  53.1353962
  68.6697288  36.0173787  53.0675139  69.9733857  36.3937836  53.2655039
  69.2193662  36.5717799  53.1452957  65.0930439  43.2311260  49.0327626
  64.8644132  43.2543961  48.1905984  65.3528515  42.4068727  49.1522636
  65.0976627  43.1127340  48.9252823  59.3749667  45.0845733  58.6352726
  58.8628570  44.4766916  58.9937757  59.2029163  45.8002325  59.1026702
  59.2739304  45.1009032  58.7568950  54.2215382  43.5283308  61.2855088
  54.0517972  44.1884683  60.7403294  53.7781332  43.7389869  62.0067577
  54.1314715  43.6569290  61.3116717  71.3786563  51.2409574  46.1194826
  71.7620169  51.9900930  46.3492923  70.5830676  51.4875394  45.8606815
  71.3180345  51.3879268  46.1152400  63.2518737  43.0069978  61.0754981
  63.8090168  42.7783787  60.4433447  62.9279803  43.7675643  60.7990194
  63.2865148  43.0853814  60.9411479  60.9701855  46.0937631  62.0406989
  61.7213182  46.4089308  62.3546543  61.1624431  45.8916802  61.2140910
  61.1093269  46.1105013  61.9650384  67.8187145  42.2211197  49.2830784
  67.8181371  42.0659854  50.1415060  67.6143325  43.0674184  49.2272170
  67.7886923  42.3231818  49.4018723  65.5427997  46.9008699  52.9366991
  66.0381662  46.1831694  52.8971011  64.7327773  46.5979497  52.8221478
  65.4971890  46.7506345  52.9140717  67.6079816  49.6512386  55.6244120
  68.0334887  49.1286808  55.0714545  67.2436736  50.2493224  55.1032743
  67.6166418  49.6622613  55.4653129  57.2433896  57.9476604  54.3841465
  57.5580455  58.7612992  54.3919247  57.6527309  57.5626823  55.0523624
  57.3501994  58.0105306  54.4845557  64.1958415  53.3646651  51.9545277
  64.6669593  54.0786913  52.1235262  64.5318594  52.7645401  52.4905147
  64.3153530  53.3818115  52.0577653  66.2835400  54.9747964  64.1337349
  66.3932365  54.1856525  64.4894096  66.6126296  54.8853900  63.3311687
  66.3487806  54.8453817  64.0679740  61.1127910  38.1374121  58.9103372
  61.2455816  37.3405115  59.2384347  61.4973063  38.6640524  59.4901648
  61.1884239  38.0974038  59.0446875  64.8332362  53.1564585  58.7172970
  64.2853308  52.5322469  58.4493035  65.2945390  53.3458857  58.0017049
  64.8199571  53.0923635  58.5723401  64.1860265  35.0604447  55.5084465
  63.3806229  34.9502177  55.8252303  64.0567001  35.1616903  54.6514331
  64.0480398  35.0588117  55.4292506  67.6426226  41.2249939  56.1024162
  67.0589215  41.7259146  55.6901729  67.9630520  40.7179496  55.4688485
  67.6039401  41.2241774  55.9482669  58.7716357  38.1333296  57.1581266
  59.3160770  37.7924423  57.7485607  58.8253293  38.9918758  57.3002550
  58.8605476  38.2088556  57.2663139  54.5846916  51.8949712  54.0320074
  55.1891773  51.8545547  53.4033894  54.3774228  52.7420864  54.0624129
  54.6435813  52.0137715  53.9436190  64.3990688  54.1615658  55.2482311
  65.2189062  54.0178624  55.5098606  64.1184766  54.7861856  55.7898749
  64.4787431  54.2326010  55.3670250  74.0704023  60.9056160  52.9678118
  73.2141919  61.0664659  53.0187234  74.1171677  60.0348224  52.9883179
  73.9503135  60.8006962  52.9784184  68.4545163  70.4418878  48.7315349
  67.7028062  70.0634416  48.5031394  68.9031175  70.4737312  47.9834160
  68.4094830  70.3904485  48.5872851  76.9155844  62.9648204  55.6109769
  77.4611804  63.6433291  55.6703739  76.8572720  62.8235665  54.7511351
  76.9871758  63.0440206  55.4921830  70.0329919  70.4537270  50.9978122
  70.1340282  69.6437624  51.3075250  69.4371664  70.3594217  50.3677800
  69.9602458  70.3202298  50.9504360  63.2294963  66.4757557  50.6230455
  62.9945148  65.6425209  50.5162724  63.3680604  66.7562223  49.8091656
  63.2150626  66.3941060  50.4872810  65.5285051  58.6443287  53.5214763
  64.9090082  58.0535935  53.3524778  65.4268914  59.2354723  52.8879086
  65.4222726  58.6447370  53.4019753  70.5751238  68.3826834  47.7712840
  70.8967079  68.9232042  47.1674148  71.2223335  67.8123606  47.9035129
  70.7177293  68.3786009  47.7019875  72.6252946  60.3842829  47.8547226
  73.3233111  60.5630957  48.3468690  72.9405279  59.8613169  47.2317616
  72.7748284  60.3336601  47.8349236  65.2554184  62.1895569  55.7658332
  65.1312881  62.7758015  56.4008151  65.9072468  61.6955765  56.0670607
  65.3327833  62.2034374  55.9044261  72.8140882  66.7713274  47.8427018
  73.2534517  66.1630375  48.2881790  72.6645545  66.3920648  47.0712483
  72.8562347  66.6251745  47.7946185  70.2812525  65.3657286  55.0445843
  70.9261527  64.8729729  54.7256792  70.5214302  65.5082073  55.8711921
  70.4123110  65.3134728  55.1195376  72.8198616  68.2112192  54.6952736
  73.1021859  67.4163598  54.4739492  73.5484777  68.6892779  54.7157797
  72.9688180  68.1646789  54.6655751  70.7979810  55.7535226  51.9368501
  70.4683140  56.2046370  51.2672200  70.1224812  55.6751389  52.4841507
  70.6490246  55.8086361  51.9191724  76.4150218  65.1240456  44.7957787
  76.3301513  65.9801422  44.9407356  76.9034602  64.8484780  45.4639946
  76.4739116  65.2097777  44.9159868  78.0056218  51.7420749  50.1818112
  77.6909659  52.4324227  50.6138534  77.4883159  51.6865531  49.4803612
  77.8820688  51.8355637  50.1415061  77.3468652  61.7425250  46.2955522
  76.8180123  61.9584883  46.9552828  77.8693671  62.4361388  46.2156491
  77.3457105  61.8768387  46.3811121  69.2368259  65.6388467  45.0962990
  68.6525475  66.1438498  45.5028854  68.8338355  65.4130853  44.3559582
  69.0907563  65.6796715  45.0468015  64.7912288  71.3543228  51.8986662
  64.3079866  72.0793717  51.8746245  65.6035606  71.6519358  52.0096819
  64.8403036  71.5045581  51.9113941  70.8626442  70.1475408  54.5036476
  70.3453384  69.7882823  53.8997784  71.5600833  69.6237583  54.5142542
  70.8892023  70.0173096  54.4166735  73.6945474  61.8854119  43.5731911
  73.9341477  62.0932102  42.7607254  74.0161315  61.0811627  43.6820855
  73.7782632  61.7968220  43.4692464  69.0035764  53.8147514  47.4191449
  69.7581732  54.1825831  47.1808499  68.8263299  54.1887069  48.1870628
  69.0890242  53.9245702  47.4976337  67.6456485  71.8699404  52.0506941
  68.3477065  71.3551393  52.1079698  67.5653968  72.1973555  52.8553817
  67.7380246  71.8413630  52.1779734  68.6935392  62.1074990  61.1787357
  68.8655895  61.9980885  62.0272638  69.2304749  62.7529396  60.9418549
  68.7980396  62.1866992  61.2692453  67.3592829  56.2217833  44.1169562
  67.1768402  56.4389714  43.2910554  68.2218442  56.3356846  44.1728176
  67.4597418  56.2707731  44.0024049  66.9707261  68.0605756  51.5592549
  67.8096160  68.2928688  51.6066311  67.0019030  67.1910067  51.4899585
  67.0988978  67.9662702  51.5557194  67.5959964  68.4806631  55.8605855
  68.1358189  68.3377762  56.5309227  66.9129910  68.8803382  56.2289881
  67.5752118  68.5186302  56.0140277  73.0392548  53.2244244  47.1518585
  73.7678708  53.0460199  46.7056742  73.1287441  54.0662324  47.3625764
  73.1599210  53.3228122  47.1172103  77.0200849  64.1597631  51.0550879
  77.7758364  64.5929146  51.0939788  77.1263173  63.5102401  51.6285515
  77.1471019  64.1275115  51.1448905  62.9997109  64.7006922  56.0140277
  62.7335524  63.8846038  56.1731267  63.0135673  64.7460077  55.1435792
  62.9621831  64.5863826  55.9093759  66.9054856  59.4992006  42.6292035
  66.1913033  59.2130185  43.0414467  67.3898824  59.8388632  43.2698422
  66.8714219  59.5073656  42.7847670  67.7495715  58.2385300  58.6607284
  67.0567512  57.7682280  58.9068016  68.3656042  58.0123604  59.2348991
  67.7380245  58.1352432  58.7816437  74.0802174  68.0021960  43.0053843
  74.4953322  67.6706984  42.3138339  73.2494103  67.7690862  42.8773979
  74.0190182  67.9193216  42.8844690  63.4090522  65.4865701  53.2952021
  63.2266096  65.4612587  52.4424313  64.1440191  65.9564639  53.3340930
  63.4904586  65.5527063  53.1749939  66.4736274  62.2050704  59.8034129
  67.1976246  62.1903734  60.2899024  66.5752411  62.9146059  59.3056098
  66.5954483  62.3075407  59.8012916  76.5212542  62.4083780  48.9578092
  76.6159397  63.1473074  49.4117718  75.8971386  61.9801255  49.3912657
  76.4421573  62.4545100  49.0886240  63.3761433  62.3659202  53.4451087
  63.9534935  62.2295652  54.0843333  62.6775494  61.9094986  53.6996672
  63.3582454  62.2781468  53.5773377  70.1328735  64.0193257  51.6589571
  69.8747979  63.1864992  51.6320870  70.1877218  64.2450870  50.8182071
  70.1028513  63.9291029  51.5309707  75.2129785  56.1221708  51.7593663
  74.5086112  55.6330893  51.9177582  75.2614759  56.1344182  50.8882108
  75.1159837  56.0511356  51.6533003  69.1063447  61.5731020  52.1454465
  68.5313038  61.7323188  52.7818426  68.7299123  60.9366429  51.6822916
  68.9666259  61.5028833  52.1709024  72.7736736  60.0454369  57.0046844
  72.3851168  59.6208587  56.3499035  72.1091434  60.2936519  57.5123870
  72.6183663  60.0193090  56.9834712  58.8520266  61.2171095  50.1598906
  58.9380518  60.8402963  50.9412436  59.4796063  60.8431540  49.6818864
  58.9576817  61.1056577  50.2044383  76.5963097  53.7428998  54.5170828
  76.9773609  53.0607169  54.9038702  75.7926382  53.4538600  54.3346492
  76.5339559  53.5996046  54.5474884  73.8775674  64.2752974  45.2023651
  74.6916313  64.5667866  45.0906422  73.8134815  63.6212836  44.6281944
  73.9878413  64.2218168  45.1012488  69.7483582  67.7474491  50.3295963
  70.3857529  67.5086239  50.8747756  70.1738654  67.9511650  49.5949123
  69.9059748  67.7425501  50.3013120  64.4396225  69.9862828  54.2130267
  64.4800370  70.2577679  53.3850046  64.9990749  70.5104736  54.6288054
  64.5279571  70.1038583  54.1522155  70.3886397  62.9676781  44.6670852
  70.7731550  62.7484488  45.4187397  70.1398018  63.7939726  44.7971929
  70.4088470  63.0574927  44.7971929  70.5554938  56.2483196  64.3833436
  70.2408379  57.0182759  64.1202999  70.2344870  55.6853452  63.7985663
  70.4613857  56.2793465  64.2574786  72.1305054  68.2246914  52.0089749
  72.2044062  68.0622086  52.8631599  72.9474560  68.4137103  51.7650231
  72.2621413  68.2283656  52.0987775  65.8910811  68.5704777  49.0384193
  65.0648929  68.8166514  48.9118471  65.9522802  68.4916857  49.9046251
  65.7784978  68.5949726  49.1473137  68.1086835  54.6373718  49.9979633
  67.2409260  54.7096317  50.0637242  68.3962039  55.4395796  50.1867608
  68.0226583  54.7667865  50.0354399  77.2319723  54.7851577  58.3290955
  77.9773315  54.5961387  57.9154380  76.8157028  55.3109815  57.7704811
  77.2804698  54.8353722  58.1855528  70.6709640  71.1881657  46.7403222
  70.9607938  70.7970638  46.0162449  71.4013121  71.3698362  47.1808498
  70.8216524  71.1575471  46.6986029  71.2604385  65.9899403  57.8256353
  70.7616079  66.7015170  57.9041241  72.0704609  66.3100069  57.7874515
  71.3060492  66.1426251  57.8312922  68.6115555  73.1649039  49.8063372
  68.3915851  72.8746394  50.5990039  68.3910077  72.5063994  49.2781285
  68.5463150  73.0248748  49.8452281  67.5232503  65.2522356  52.0719074
  67.2345751  64.6259827  52.6064801  68.3915851  65.1942643  52.1383754
  67.6092755  65.1509900  52.1610028  78.3110400  60.3957139  52.3901056
  77.9675166  59.6747474  52.7408305  78.4103443  60.1870990  51.5479414
  78.2752443  60.2581342  52.3172736  67.7264776  66.8917607  47.9961439
  68.4810744  67.2730646  48.2096901  67.1335389  67.3428750  48.4508135
  67.7501490  67.0146434  48.0944317  70.1871443  58.8480447  63.1218651
  69.3771219  59.1538227  63.0108494  70.6646130  59.5686029  63.2371235
  70.1374922  58.9995048  63.1225722  69.0463003  68.0626168  53.3701554
  68.5243756  68.2026460  54.0553419  69.4337023  67.3036832  53.5603672
  69.0266704  67.9711692  53.5002631  66.0354187  58.1131977  47.4396509
  65.7478982  57.7433247  46.7028456  66.7224655  58.5826832  47.1780214
  66.0943084  58.1278946  47.2911585  70.4729328  65.0930187  48.7683045
  70.2772111  65.7004922  48.1743348  70.6963674  64.3998131  48.2874719
  70.4763969  65.0807713  48.6099126  68.8707858  61.9784925  48.8863914
  69.5930510  62.1426083  48.4267720  68.3915851  62.6994590  48.7803253
  68.9071589  62.1083155  48.8029528  76.8301366  58.3148724  54.2660599
  75.9912466  58.3410003  54.0298862  76.9005733  58.9619459  54.8465945
  76.7169759  58.4144850  54.3169716  66.5215475  64.3842997  57.9918054
  67.0336572  64.6627251  57.3426813  66.2351818  65.1232292  58.3580867
  66.5550338  64.5345351  57.9507932  75.2770644  55.2134101  48.9988215
  75.9796997  55.0141849  48.5208173  75.0114833  54.4410043  49.3057058
  75.3417276  55.0697067  48.9733656  63.6082381  58.8913189  48.2881790
  63.7098518  59.6939351  48.6162765  64.4038268  58.6900525  47.9904871
  63.7410287  58.9799088  48.2917145  70.0399200  56.4769386  58.0519095
  69.8482397  56.4924520  58.9018519  70.8897796  56.6733060  58.0285750
  70.1374922  56.5083737  58.1742390  64.4246113  59.0060368  56.0302912
  64.2831605  58.1544308  56.1547420  64.7086677  59.0489028  55.2065118
  64.4453959  58.8860118  55.9270536  74.5784706  60.8427458  50.1747400
  74.3319420  60.7623209  51.0084189  74.9069829  60.0580926  49.9809927
  74.5905949  60.7153723  50.2694923  70.5381733  63.5784176  59.5870383
  70.6825109  64.1585384  58.9513493  70.8857382  63.9560473  60.2920238
  70.6109194  63.7204880  59.5969378  72.7101650  62.7774345  57.3695515
  71.9624964  62.9705359  56.9643793  72.8643176  61.9519564  57.1319636
  72.6224078  62.6839456  57.2740920  72.9503427  56.6724895  58.2590918
  73.4076042  57.4048870  58.3863711  73.0259756  56.2491361  59.0178174
  73.0294397  56.7182133  58.3891995  65.1936419  56.9190715  59.3480362
  64.6578608  56.3071073  59.6641129  65.2554183  57.4938851  60.0014029
  65.1232051  56.9137643  59.4915789  77.4230753  49.8514771  52.1284761
  77.5414321  50.3091234  51.3952064  77.2492929  49.0460032  51.8420979
  77.4149924  49.8008543  51.9785695  72.7933036  70.4602590  48.5639507
  73.5582927  70.1912234  48.2422171  72.6911126  69.9752600  49.2809569
  72.8914531  70.3492155  48.6219334  70.8285805  58.6626999  55.1032742
  70.0381880  58.4818459  55.4250078  71.2246428  57.8853952  55.0863037
  70.7702682  58.5214460  55.1485291  75.3151696  67.4914774  40.5439456
  76.0824681  67.5514899  40.1345308  74.8683005  66.9195215  40.0595774
  75.3625123  67.4151349  40.4117166  76.2129492  66.2969429  52.8292188
  75.5374493  66.0654662  53.3305575  76.2221868  65.6890612  52.2034293
  76.1147996  66.1728355  52.8108340  73.3423636  61.1387258  59.5856241
  73.2782777  61.9997215  59.4576378  73.4820823  60.8219252  58.7851793
  73.3539106  61.2187425  59.4484454  72.0242730  63.8319398  53.7272444
  71.6004979  64.0323897  52.9911462  71.8487585  62.9848246  53.8396744
  71.9353610  63.7368179  53.6346134  67.3125174  64.3271449  49.1600417
  67.4689794  64.2618252  50.0156409  67.6525768  65.1020002  48.9479096
  67.3858409  64.4320647  49.2555011  73.8504319  63.7029333  48.0293780
  74.3919865  63.1999714  48.4932400  74.1650878  63.6494527  47.2183265
  73.9768716  63.6208754  47.9777592  72.0190769  69.0946684  45.3133808
  72.0883589  68.2361223  45.4526808  72.7979224  69.3118565  44.9852832
  72.1443619  68.9999548  45.2850965  74.9993588  58.5965637  58.0816080
  75.2135558  57.9576552  57.5279434  74.3827488  59.0411461  57.6523942
  74.9398918  58.5675781  57.9366511  63.8859436  61.5106400  49.4761184
  64.2658401  61.9290945  48.8121451  63.3114801  62.0919855  49.7830027
  63.8570761  61.6584259  49.4237925  77.1632676  60.2054702  59.0199387
  76.3509358  59.8980593  59.1012560  77.6222611  59.7253703  59.5842100
  77.1113061  60.0891195  59.1153982  76.5737931  68.0834374  49.4676332
  76.2152586  68.2549017  50.2440364  76.0876642  68.5447580  48.9104330
  76.4496628  68.1773346  49.5001601  74.3908317  51.7065573  53.0703423
  73.5201875  51.6804294  53.0236733  74.6448658  51.5342765  52.2529269
  74.3001877  51.6775717  52.9423560  71.3626297  63.7633540  42.0076566
  71.6518821  64.5398422  42.2820140  71.4498095  63.2522271  42.7091065
  71.4180553  63.8025458  42.1519064  71.4157458  53.7171801  54.5276894
  70.8995946  53.0251993  54.6528473  70.8551386  54.3842578  54.4739492
  71.2563971  53.7135059  54.5382960  73.4849691  54.2564761  56.3569746
  73.0981444  54.2813793  57.1383276  72.9982628  53.6906440  55.9044263
  73.3562200  54.1760512  56.4057650  73.1506833  51.1431747  58.6480006
  73.7799951  51.6792047  58.3701076  73.3192695  51.0509106  59.4993572
  73.2684627  51.2093109  58.7328534  72.9520748  55.9302942  60.9206418
  73.7794177  55.6588091  60.9765032  72.9728594  56.7263783  61.2770236
  73.0773598  56.0082696  60.9821601  67.5290238  63.0766804  54.1076678
  66.6878244  62.9770679  54.3155572  67.7380245  63.8462285  54.4590999
  67.4354930  63.1758848  54.1903993  65.0065804  60.6986341  51.9361429
  64.6122502  60.7729353  51.1611539  64.4505921  61.0844288  52.4869791
  64.8668617  60.7668116  51.9029089  76.6430751  53.6767635  51.6165308
  76.8480345  53.6089943  52.4622305  76.3157175  54.4826457  51.5486485
  76.6245999  53.7853576  51.7324963  71.3406902  61.0048204  53.3574276
  71.0370040  60.4504192  53.9584683  70.6386323  61.1840414  52.8702310
  71.1923112  60.9492986  53.3743981  70.3972999  58.3148723  47.9218978
  70.6732734  57.5967636  47.5096545  70.9971669  58.9133643  47.7140084
  70.5266264  58.2969094  47.8299739  69.4025253  68.2197924  58.0646374
  69.2945608  68.2299986  58.9308432  69.6121035  69.0452705  57.8751327
  69.4175364  68.3438999  58.1650465  73.8983520  55.9862241  46.1965573
  74.3527267  56.1572801  46.9213417  74.3723566  55.3730351  45.7963348
  74.0351840  55.9213126  46.2439334  67.4199045  65.4710567  55.5268311
  66.8286979  66.1120065  55.4971326  68.1820069  65.8948184  55.4999611
  67.4447306  65.6286405  55.5183458  67.8159668  56.6312564  56.1936329
  68.2761150  56.7051494  56.9311453  67.8615775  57.4293819  55.8436150
  67.8910223  56.7606712  56.2509085  69.4643018  57.2979259  60.7608356
  69.0728583  56.6512606  61.1964134  69.6328881  57.8890695  61.3802611
  69.4313928  57.2893527  60.9171062  71.2396540  62.6904775  47.3010580
  71.9838585  63.0779051  47.5393530  71.3857236  61.8462201  47.4651068
  71.3707125  62.6235248  47.3604550  73.1576115  54.4855034  52.3342441
  72.3112160  54.6577842  52.2083791  73.1547248  53.6804378  52.6708270
  73.0323265  54.3916063  52.3653568  74.2274416  58.2630248  53.2004499
  73.7534370  57.7372010  53.7109810  74.5992552  57.7159721  52.6319361
  74.2124305  58.1046245  53.1919646  64.6047446  60.2601755  58.5688045
  65.4673059  60.1597464  58.4825375  64.2739229  59.6796464  58.0073617
  64.6832642  60.1593382  58.4733451  76.1557915  59.1566803  46.2630253
  75.6280934  59.2395547  45.5735962  76.6153624  59.8984674  46.2594898
  76.1459766  59.2787465  46.1604948  67.9649232  59.0844204  55.2298463
  67.3402302  59.0962596  54.6224416  67.6294827  59.5604379  55.8789703
  67.8234724  59.1562721  55.2355032  68.1490981  57.4269323  41.2871148
  67.8003785  58.0789048  41.7502698  67.6687426  57.4126436  40.5595019
  68.0261225  57.5212376  41.2482239  64.6774907  67.1444664  56.6702227
  64.1474832  66.4537103  56.7197202  64.9500001  67.1354850  55.8414936
  64.6399630  67.0411796  56.5549643  75.7094998  67.7270367  45.3939910
  76.4329197  68.1928480  45.2504483  75.2695589  67.7943976  44.6437507
  75.7510690  67.8054203  45.2624691  74.8781153  64.5867909  56.6440599
  74.2638146  64.0425959  56.9389234  75.3948438  64.0732145  56.1646415
  74.8636815  64.4304318  56.6164827  74.1177450  65.6572179  54.3784898
  73.6905058  65.0321898  53.9450333  74.1102395  65.3747101  55.2043905
  74.0536591  65.5224960  54.4364725  67.2339977  60.6937352  57.4473332
  67.3933464  59.9380676  57.8525054  67.0532871  61.2428291  58.1014069
  67.2305336  60.6631166  57.6036038  75.1760280  52.8598588  58.0024121
  74.6800842  53.0562262  57.3115688  75.9329342  53.2591256  57.8312923
  75.2147105  52.9476321  57.8744258  72.4463160  56.5340933  54.5927432
  72.4705647  56.0001046  53.9040212  72.6974634  56.0258242  55.2553022
  72.4873079  56.3801837  54.5892076  59.9570750  63.8172428  54.0270576
  59.8514199  63.7719273  53.1622660  59.2070970  64.1626209  54.3084861
  59.8306353  63.8613337  53.9407905  68.7264482  55.2611752  53.9733176
  68.7662854  55.7620958  54.6867883  67.9014147  55.3522145  53.7039099
  68.6104008  55.3493568  54.0383714  70.1478846  61.7772261  56.2707075
  69.3170775  61.9446079  56.0642323  70.0930363  61.4008212  57.0555960
  70.0168260  61.7461993  56.3555603  67.9562629  55.2681154  61.9063486
  68.5815332  54.7243287  62.1792918  67.5013109  54.7876072  61.3371276
  67.9810889  55.1170636  61.8625080  68.5214889  60.0527853  46.7997193
  68.6617850  60.5500317  47.5025834  69.0197422  59.3514147  46.9411406
  68.6155970  60.0229832  46.9248772  68.5515112  60.9194964  44.1289770
  69.1860191  61.5155389  44.0639231  68.6340723  60.6198422  44.9435640
  68.6571663  60.9635872  44.2392856  70.1294095  56.8508939  44.1035212
  70.4509936  56.3712022  43.4494474  70.3921038  57.6608586  43.9126023
  70.2160120  56.8998837  43.9790704  75.5253250  56.2381133  56.4658691
  75.9508321  55.7853660  55.8542217  74.9110243  55.6841204  56.7423478
  75.4981895  56.0895110  56.4163716  65.0568100  63.1162805  47.3979316
  65.5660329  63.7127312  47.7790621  65.5302372  62.8488778  46.7155735
  65.2011475  63.1648620  47.3533838  73.9647472  52.7096233  49.8749268
  73.3215790  52.5593880  50.4434406  73.6246879  52.4638579  49.1098372
  73.8192550  52.6508356  49.8452283  67.4158631  59.7519063  50.2652496
  66.6970620  60.1683196  50.5325360  67.7870994  60.3173302  49.7144134
  67.3650563  59.8968345  50.2235303  76.7158212  60.3846912  56.1554492
  76.6956139  60.2030207  57.0089271  76.7637413  61.2558931  56.1314075
  76.7192853  60.4863451  56.2777786  73.1905206  58.7917063  45.6025875
  72.5970045  59.1134060  45.0510442  73.2280483  57.9458159  45.3946982
  73.1079595  58.7141392  45.4908647  76.0663022  58.7496568  49.0327626
  75.8376715  58.7729269  48.1905984  76.3261098  57.9254035  49.1522636
  76.0709210  58.6312648  48.9252823  70.3482251  60.6031041  58.6352726
  69.8361154  59.9952224  58.9937757  70.1761747  61.3187633  59.1026702
  70.2471888  60.6194340  58.7568950  65.1947965  59.0468616  61.2855088
  65.0250556  59.7069991  60.7403294  64.7513915  59.2575177  62.0067577
  65.1047299  59.1754598  61.3116717  69.1207785  57.2873114  50.3281821
  69.5965151  57.6490194  49.6932002  68.6196384  57.9429582  50.6081964
  69.1173144  57.4367303  50.2758562  74.2251321  58.5255285  61.0754981
  74.7822751  58.2969095  60.4433447  73.9012386  59.2860951  60.7990194
  74.2597731  58.6039122  60.9411479  62.0950030  61.9515482  56.5443577
  61.5476749  61.2816127  56.6624446  62.8842408  61.5845330  56.6087045
  62.1302214  61.7980468  56.5712278  71.1634438  59.4314314  43.6955205
  71.5433403  59.4493943  42.9106320  70.4227034  59.8768303  43.5746053
  71.1103276  59.4996089  43.5618773  78.7919728  57.7396505  49.2830784
  78.7913955  57.5845162  50.1415060  78.5875909  58.5859492  49.2272170
  78.7619506  57.8417126  49.4018723  60.8536999  61.1636290  53.6989601
  60.6758761  60.7112899  54.4244516  60.5656022  61.9662451  53.8828078
  60.7849953  61.2158847  53.8333103  76.5160581  62.4194007  52.9366991
  77.0114246  61.7017002  52.8971011  75.7060356  62.1164805  52.8221478
  76.4704474  62.2691653  52.9140717  71.9619192  66.2691820  45.0863995
  71.1530515  65.9458494  45.0397305  72.4694101  65.5625042  45.0192244
  71.9168859  66.1173136  45.0694290  62.5909469  63.6964013  50.8111360
  61.7254989  63.6849704  50.6994131  62.6908285  63.5094236  51.6582499
  62.4783636  63.6670074  50.9200304  68.2166479  73.4661912  54.3841465
  68.5313038  74.2798300  54.3919247  68.6259893  73.0812131  55.0523624
  68.3234577  73.5290614  54.4845557  75.1690999  68.8831959  51.9545277
  75.6402177  69.5972221  52.1235262  75.5051177  68.2830709  52.4905147
  75.2886114  68.9003423  52.0577653  72.0860494  53.6559429  58.9103372
  72.2188399  52.8590423  59.2384347  72.4705647  54.1825832  59.4901648
  72.1616823  53.6159346  59.0446875  75.1592849  50.5789755  55.5084465
  74.3538813  50.4687485  55.8252303  75.0299584  50.6802211  54.6514331
  75.0212982  50.5773425  55.4292506  78.6158810  56.7435247  56.1024162
  78.0321798  57.2444454  55.6901729  78.9363104  56.2364803  55.4688485
  78.5771985  56.7427082  55.9482669  71.1553609  55.6575842  46.3782837
  71.9769303  55.8274155  46.1364532  70.6923260  55.8123103  45.6549134
  71.2084771  55.7057575  46.2354481  69.7448941  53.6518604  57.1581266
  70.2893354  53.3109731  57.7485607  69.7985876  54.5104066  57.3002550
  69.8338060  53.7273864  57.2663139  65.5579499  67.4135020  54.0320074
  66.1624357  67.3730854  53.4033894  65.3506812  68.2606172  54.0624129
  65.6168397  67.5323023  53.9436190  60.7930782  66.3969638  53.9018997
  60.6955060  65.5865909  54.2109053  61.5759651  66.3761431  53.5165265
  60.8946918  66.2736728  53.8905860  35.2298236   0.8241086  35.6655396
  34.4781136   0.4456624  35.4371441  35.6784248   0.8559519  34.9174206
  35.1847903   0.7726693  35.5212898  40.6823196   1.2466455  31.0940943
  40.3474564   1.9243377  30.6585165  41.1950066   0.8571766  30.5057815
  40.7088777   1.2891033  30.9427735  40.2227487   3.1980724  37.0352055
  40.6066867   3.7667622  36.4956830  40.1586628   2.4730234  36.5557871
  40.2700914   3.1756187  36.8845917  36.8082992   0.8359478  37.9318169
  36.9093355   0.0259832  38.2415296  36.2124737   0.7416424  37.3017847
  36.7355531   0.7024506  37.8844407  36.6483732   5.7537067  39.3333025
  37.2921187   6.1950231  39.7229183  36.9739987   4.9490493  39.2463283
  36.7915560   5.7002262  39.3778502  30.0048037  -3.1420236  37.5570502
  29.7698221  -3.9752583  37.4502771  30.1433677  -2.8615570  36.7431703
  29.9903699  -3.2236732  37.4212857  37.3504312  -1.2350958  34.7052886
  37.6720153  -0.6945751  34.1014194  37.9976408  -1.8054187  34.8375176
  37.4930367  -1.2391783  34.6359922  31.5665361   1.7365435  38.8326708
  31.0832939   2.4615925  38.8086292  32.3788679   2.0341565  38.9436866
  31.6156109   1.8867789  38.8453988  37.6379515   0.5297616  41.4376523
  37.1206457   0.1705031  40.8337831  38.3353906   0.0059790  41.4482589
  37.6645096   0.3995304  41.3506782  41.2943107   0.9792430  47.3992696
  41.3826453   0.7918570  48.2470906  41.7232820   0.3329859  46.9997543
  41.3705210   0.8555438  47.4664447  38.8613567   0.2623590  46.3810358
  38.2984402  -0.1503800  46.9050019  39.6234590   0.1876495  46.8003501
  38.8908016   0.1900990  46.5203358  34.4209558   2.2521611  38.9846988
  35.1230138   1.7373600  39.0419745  34.3407042   2.5795762  39.7893863
  34.5133319   2.2235837  39.1119780  33.7460334  -1.5572037  38.4932596
  34.5849233  -1.3249104  38.5406358  33.7772103  -2.4267726  38.4239632
  33.8742051  -1.6515091  38.4897241  34.3713037  -1.1371162  42.7945902
  34.9111262  -1.2800031  43.4649274  33.6882983  -0.7374411  43.1629928
  34.3505191  -1.0991491  42.9480324  41.4063166   0.4101449  50.0636479
  42.1903583   0.5232297  50.4292222  41.2059761  -0.4157414  50.2595165
  41.4929192   0.3048168  50.1470866  41.5633560   2.3211551  43.7102935
  40.7648806   2.0811051  43.9676804  42.0119571   2.3725944  44.4569983
  41.5108171   2.2933942  43.8587859  30.1843596  -4.1312092  40.2292068
  30.0019169  -4.1565206  39.3764360  30.9193265  -3.6613154  40.2680976
  30.2657659  -4.0650729  40.1089986  36.5236655  -1.8703302  37.2636010
  37.1610602  -2.1091554  37.8087803  36.9491727  -1.6666143  36.5289170
  36.6812822  -1.8752291  37.2353167  31.2149298   0.3685035  41.1470313
  31.2553443   0.6399886  40.3190093  31.7743822   0.8926943  41.5628101
  31.3032644   0.4860790  41.0862202  38.9058127  -1.3930879  38.9429796
  38.9797136  -1.5555707  39.7971646  39.7227634  -1.2040689  38.6990278
  39.0374486  -1.3894137  39.0327822  32.6663884  -1.0473016  35.9724239
  31.8402002  -0.8011279  35.8458518  32.7275875  -1.1260935  36.8386297
  32.5538051  -1.0228067  36.0813184  37.4462713   1.5703864  33.6743269
  37.7361011   1.1792845  32.9502496  38.1766194   1.7520569  34.1148545
  37.5969597   1.5397678  33.6326076  35.3868629   3.5471247  36.7403419
  35.1668924   3.2568601  37.5330086  35.1663151   2.8886202  36.2121331
  35.3216223   3.4070955  36.7792328  37.5536584   4.9200637  35.5234111
  38.2060642   4.3877079  35.7525137  36.8562193   4.5669289  35.9101985
  37.5467302   4.7890160  35.6146279  34.5017849  -2.7260186  34.9301486
  35.2563817  -2.3447147  35.1436948  33.9088462  -2.2749042  35.3848182
  34.5254563  -2.6031358  35.0284364  35.8216076  -1.5551625  40.3041601
  35.2996829  -1.4151333  40.9893466  36.2090096  -2.3140960  40.4943718
  35.8019777  -1.6466101  40.4342678  42.0183081   0.1843835  34.2902170
  41.7769757  -0.5488305  33.8829235  42.1984414   0.7330692  33.6368503
  42.0090705   0.1566226  34.1332393  36.3862561   2.1509156  43.3871457
  36.5352125   1.5912071  42.7344861  37.1662563   2.2301157  43.7703975
  36.5236655   2.0794721  43.3468406  38.9115862   2.3223798  44.6655947
  38.8359533   1.6532609  45.2206736  38.8405721   3.0241587  45.1796614
  38.8896469   2.3268706  44.8232796  39.5686109   0.8424797  35.4979553
  40.3336000   0.5734441  35.1762218  39.4664199   0.3574808  36.2149616
  39.6667604   0.7314362  35.5559381  38.3007496   5.7292118  43.1233948
  38.7903426   5.0302907  42.9409613  37.7291728   5.4315988  43.7110006
  38.2892026   5.5818342  43.1834989  38.7943842  -0.5231108  32.2473855
  38.8636662  -1.3816570  32.3866855  39.5732297  -0.3059227  31.9192879
  38.9196692  -0.6178244  32.2191012  43.1851330   1.9006593  36.4610348
  42.7931121   1.5973308  35.7433214  43.3404402   2.7375683  36.2715302
  43.1504919   1.9790430  36.3266845  36.1778327  -1.3979868  44.9986420
  36.0698681  -1.3877806  45.8648478  36.3874108  -0.5725088  44.8091374
  36.1928438  -1.2738793  45.0990512  43.9541635   1.3042086  39.8940382
  43.7561323   1.7932900  39.1996594  43.3329346   1.5083327  40.4724516
  43.8329199   1.4058624  39.8763606  31.4527981  -2.4733128  43.6042274
  30.9227905  -3.1640689  43.6537249  31.7253074  -2.4822943  42.7754983
  31.4152703  -2.5765997  43.4889690  26.7323823  -5.8005364  40.9610623
  26.6267272  -5.8458520  40.0962707  25.9824043  -5.4551584  41.2424907
  26.6059426  -5.7564456  40.8747952  40.1344141  -1.7449979  44.5574074
  39.6269232  -1.1914132  45.0014705  39.8370787  -1.6841689  43.7392849
  40.0149026  -1.6543668  44.5022531  42.7451921   2.1713279  32.4878018
  42.0281231   1.9974141  32.0225255  43.3958658   1.9365851  31.9553504
  42.7353771   2.1109071  32.3407236  39.3786626   3.1874579  41.4631081
  39.1552280   2.4293409  41.8315108  38.8896469   3.2172601  40.7411521
  39.2730075   3.0796804  41.4107822  38.0265083   3.4075038  38.9168166
  37.6125481   2.7449168  38.5272008  38.7112457   3.5552896  38.3963860
  38.0663454   3.3315696  38.7824663  41.3930377   2.5665123  39.6691783
  40.9946660   2.6767393  38.9012603  40.7781596   2.7747189  40.2518342
  41.2429266   2.6138691  39.6423082  34.9919552   3.8484119  41.3181512
  35.3066111   4.6620508  41.3259294  35.4012966   3.4634338  41.9863671
  35.0987650   3.9112822  41.4185604  44.0321057   0.8755479  51.0677396
  44.1418022   0.0864040  51.4234143  44.3611953   0.7861416  50.2651734
  44.0973462   0.7461332  51.0019787  32.3332573  -2.2042772  40.9660120
  32.9377430  -2.2446938  40.3373941  32.1259885  -1.3571620  40.9964176
  32.3921470  -2.0854770  40.8776237  42.1476345   0.0623173  42.1822358
  42.9674718  -0.0813861  42.4438653  41.8670422   0.6869372  42.7238796
  42.2273088   0.1333525  42.3010297  27.5683855  -3.2208155  40.8359043
  27.4708133  -4.0311883  41.1449100  28.3512725  -3.2416361  40.4505312
  27.6699991  -3.3441065  40.8245906  58.6189995   7.7188025  35.1465234
  58.5883999   8.5732661  35.3183503  59.2171344   7.4183317  35.7051378
  58.7027153   7.8004521  35.2540036  51.8189680   6.8063676  39.9018165
  50.9627575   6.9672174  39.9527281  51.8657334   5.9355740  39.9223226
  51.6988791   6.7014477  39.9124231  55.1283396  13.0750201  49.5078621
  55.8350164  12.5802232  49.6365555  55.3171332  13.5159283  48.7781279
  55.2611302  13.0668552  49.4187666  51.6555779  16.7651763  31.0940943
  51.3207148  17.4428685  30.6585165  52.1682650  16.3757074  30.5057815
  51.6821361  16.8076341  30.9427735  51.1960071  18.7166032  37.0352055
  51.5799450  19.2852930  36.4956830  51.1319212  17.9915542  36.5557871
  51.2433498  18.6941495  36.8845917  54.6641501   8.8655720  42.5449816
  55.2097461   9.5440806  42.6043786  54.6058377   8.7243180  41.6851398
  54.7357415   8.9447721  42.4261877  56.4406570  10.2940327  33.4183544
  56.3246095  11.0448013  33.8475682  57.2362456  10.0364280  33.6679631
  56.5411159  10.3675174  33.5187636  40.9780620  12.3765072  37.5570502
  40.7430804  11.5432725  37.4502771  41.1166261  12.6569738  36.7431703
  40.9636283  12.2948576  37.4212857  43.2770708   4.5450803  40.4554810
  42.6575739   3.9543450  40.2864825  43.1754571   5.1362238  39.8219133
  43.1708383   4.5454885  40.3359799  50.3738603   6.2850345  34.7887273
  51.0718768   6.4638472  35.2808736  50.6890936   5.7620684  34.1657662
  50.5233940   6.2344117  34.7689283  43.0039841   8.0903085  42.6998379
  42.8798537   8.6765530  43.3348198  43.6558125   7.5963280  43.0010654
  43.0813490   8.1041889  42.8384308  48.0298182  11.2664801  41.9785890
  48.6747184  10.7737245  41.6596839  48.2699959  11.4089588  42.8051968
  48.1608767  11.2142244  42.0535423  50.5684273  14.1119707  41.6292783
  50.8507516  13.3171113  41.4079538  51.2970433  14.5900295  41.6497844
  50.7173837  14.0654304  41.5995798  48.5465467   1.6542741  38.8708548
  48.2168797   2.1053885  38.2012246  47.8710469   1.5758905  39.4181554
  48.3975903   1.7093876  38.8531771  54.1635875  11.0247971  31.7297834
  54.0787170  11.8808938  31.8747403  54.6520258  10.7492295  32.3979993
  54.2224772  11.1105292  31.8499915  55.0954308   7.6432765  33.2295569
  54.5665780   7.8592399  33.8892875  55.6179328   8.3368904  33.1496538
  55.0942761   7.7775902  33.3151168  60.5502361  13.2179070  38.6028613
  59.7200064  13.4289713  38.7662030  60.5011614  12.3916124  38.3270897
  60.4209097  13.1268676  38.5865979  46.9853916  11.5395982  32.0303037
  46.4011131  12.0446013  32.4368901  46.5824011  11.3138369  31.2899629
  46.8393220  11.5804230  31.9808062  52.2675691  16.4977738  47.3992696
  52.3559037  16.3103878  48.2470906  52.6965403  15.8515167  46.9997543
  52.3437793  16.3740745  47.4664447  51.4431131   7.7861634  30.5071957
  51.6827134   7.9939618  29.6947301  51.7646972   6.9819143  30.6160902
  51.5268288   7.6975735  30.4032511  60.0456320   5.8649470  42.3979035
  59.2084741   5.9351657  42.6326629  60.0144550   5.8673965  41.5253337
  59.9174602   5.8759697  42.3038583  46.4421049   8.0082506  48.1127403
  46.6141552   7.8988400  48.9612685  46.9790406   8.6536911  47.8758596
  46.5466053   8.0874507  48.2032500  45.1078485   2.1225349  31.0509608
  44.9254059   2.3397229  30.2250601  45.9704098   2.2364361  31.1068223
  45.2083075   2.1715247  30.9364095  54.7686505  10.0605147  37.9890926
  55.5244020  10.4936661  38.0279835  54.8748830   9.4109916  38.5625562
  54.8956676  10.0282631  38.0788952  57.8066676  13.8878424  38.7393329
  57.3701908  13.8915166  39.4952301  57.4729592  14.5683923  38.3072907
  57.6929296  13.9890880  38.7874162  52.3795750  15.9286757  50.0636479
  53.1636167  16.0417605  50.4292222  52.1792345  15.1027894  50.2595165
  52.4661775  15.8233476  50.1470866  40.7482766  10.6014437  42.9480323
  40.4821181   9.7853554  43.1071314  40.7621330  10.6467592  42.0775839
  40.7107488  10.4871342  42.8433805  44.6540512   5.3999521  29.5632081
  43.9398690   5.1137701  29.9754514  45.1384481   5.7396147  30.2038469
  44.6199876   5.4081171  29.7187716  45.4981372   4.1392815  45.5947331
  44.8053169   3.6689795  45.8408063  46.1141699   3.9131120  46.1689038
  45.4865902   4.0359947  45.7156484  60.9411023  10.6059344  37.6312966
  61.6027457  10.0450012  37.5308875  60.3002435  10.1111375  37.9565658
  60.9439890  10.4495753  37.6645307  51.8287830  13.9029475  29.9393890
  52.2438979  13.5714499  29.2478385  50.9979760  13.6698378  29.8114026
  51.7675839  13.8200731  29.8184737  41.1576179  11.3873216  40.2292068
  40.9751752  11.3620102  39.3764360  41.8925848  11.8572154  40.2680976
  41.2390243  11.4534579  40.1089986  57.2275853  11.6224726  37.3724955
  57.4631443  11.7669925  36.5451806  57.3765417  12.3867134  37.7656469
  57.2841657  11.7563781  37.3088559  44.2221931   8.1058219  46.7374176
  44.9461903   8.0911250  47.2239071  44.3238067   8.8153574  46.2396144
  44.3440140   8.2082922  46.7352963  59.0566310  10.4626392  35.2094559
  59.3874527  10.9954032  34.6034654  59.6299398  10.5165280  35.8656510
  59.1899989  10.5495961  35.2172341  51.5966880  11.5857304  51.6023123
  50.8039861  11.9000816  51.7875743  51.7115807  11.8008772  50.7643908
  51.4962291  11.6641140  51.5061458  54.2698199   8.3091295  35.8918139
  54.3645054   9.0480589  36.3457765  53.6457043   7.8808770  36.3252704
  54.1907229   8.3552615  36.0226287  52.5250673  11.4877507  46.5408420
  53.0989535  10.8504752  46.6956984  52.4465477  11.4881590  45.6718078
  52.5983908  11.3942619  46.4354831  41.1247090   8.2666717  40.3791134
  41.7020592   8.1303168  41.0183380  40.4261151   7.8102501  40.6336719
  41.1068111   8.1788983  40.5113424  54.5221221  10.1540035  29.1255091
  54.4401383  10.2242222  29.9910078  55.1600941  10.7169779  28.9338832
  54.6041058  10.2479006  29.2245041  47.8814392   9.9200773  38.5929617
  47.6233636   9.0872507  38.5660917  47.9362875  10.1458386  37.7522118
  47.8514170   9.8298544  38.4649754  46.8549104   7.4738535  39.0794512
  46.2798695   7.6330703  39.7158473  46.4784780   6.8373944  38.6162963
  46.7151916   7.4036348  39.1049071  50.5222392   5.9461884  43.9386891
  50.1336825   5.5216102  43.2839082  49.8577091   6.1944034  44.4463917
  50.3669320   5.9200605  43.9174759  36.6005923   7.1178610  37.0938953
  36.6866175   6.7410478  37.8752483  37.2281720   6.7439055  36.6158911
  36.7062474   7.0064092  37.1384430  51.6261331  10.1760489  32.1363698
  52.4401970  10.4675382  32.0246469  51.5620472   9.5220351  31.5621991
  51.7364070  10.1225684  32.0352535  57.8470821  12.8586485  46.5493273
  57.6109458  12.0274550  46.4305334  58.4914050  12.8072092  47.1348117
  57.9065492  12.7284173  46.6179167  48.1372054   8.8684296  31.6010899
  48.5217207   8.6492003  32.3527444  47.8883674   9.6947242  31.7311975
  48.1574127   8.9582442  31.7311975  48.3040594   2.1490711  51.3173483
  47.9894035   2.9190274  51.0543046  47.9830527   1.5860967  50.7325710
  48.2099514   2.1800980  51.1914833  58.8707242  12.6430934  42.6121568
  58.5653059  13.3758991  42.9734883  58.1513457  12.2368863  42.3314354
  58.7194584  12.6912667  42.6234705  64.5709034   9.2823935  41.9389912
  64.5033534   9.3019894  41.0692499  64.5564696  10.1254262  42.1645583
  64.5587790   9.4097669  41.8442389  43.6396468  14.4712292  35.9724239
  42.8134585  14.7174029  35.8458518  43.7008459  14.3924373  36.8386297
  43.5270635  14.4957241  36.0813184  45.8572491   0.5381233  36.9319680
  44.9894917   0.6103832  36.9977289  46.1447696   1.3403312  37.1207655
  45.7712239   0.6675380  36.9694446  62.3567651   8.0568321  40.2136506
  62.9075573   7.4236390  40.4533598  62.3411766   8.5883714  40.9052011
  62.4352847   8.0417269  40.3515365  49.0090042  11.8906918  44.7596400
  48.5101736  12.6022686  44.8381288  49.8190266  12.2107585  44.7214562
  49.0546149  12.0433767  44.7652968  45.2718159  11.1529871  39.0059121
  44.9831408  10.5267342  39.5404848  46.1401508  11.0950158  39.0723801
  45.3578411  11.0517415  39.0950075  56.0596057   6.2964654  39.3241103
  55.7160823   5.5754990  39.6748352  56.1589100   6.0878506  38.4819461
  56.0238100   6.1588858  39.2512783  56.5209086  12.7590358  34.8665091
  57.0867119  13.4183568  34.7823634  55.8736990  13.1040057  35.3381493
  56.5087843  12.9072300  34.9237847  47.9357100   4.7487962  50.0558698
  47.1256876   5.0545742  49.9448540  48.4131787   5.4693545  50.1711282
  47.8860579   4.9002564  50.0565769  43.7839843   4.0139492  34.3736556
  43.4964639   3.6440763  33.6368503  44.4710312   4.4834347  34.1120261
  43.8428741   4.0286462  34.2251632  52.9915664  15.7029143  34.2902170
  52.7502340  14.9697003  33.8829235  53.1716997  16.2516000  33.6368503
  52.9823288  15.6751534  34.1332393  46.6193515   7.8792440  35.8203961
  47.3416167   8.0433598  35.3607767  46.1401508   8.6002105  35.7143300
  46.6557246   8.0090670  35.7369575  54.5787023   4.2156239  41.2000645
  53.7398123   4.2417518  40.9638909  54.6491390   4.8626975  41.7805992
  54.4655416   4.3152365  41.2509762  44.2701132  10.2850513  44.9258100
  44.7822229  10.5634766  44.2766860  43.9837474  11.0239807  45.2920913
  44.3035995  10.4352866  44.8847978  41.3568038   4.7920705  35.2221837
  41.4584175   5.5946866  35.5502812  42.1523925   4.5908041  34.9244917
  41.4895944   4.8806603  35.2257192  47.7884857   2.3776901  44.9859142
  47.5968054   2.3932036  45.8358565  48.6383453   2.5740576  44.9625797
  47.8860579   2.4091253  45.1082437  42.1731770   4.9067883  42.9642958
  42.0317262   4.0551824  43.0887466  42.4572334   4.9496543  42.1405164
  42.1939616   4.7867633  42.8610583  52.3270363   6.7434973  37.1087447
  52.0805077   6.6630724  37.9424236  52.6555486   5.9588441  36.9149974
  52.3391606   6.6161238  37.2034970  56.2218411  13.4518332  40.8974228
  56.0832771  14.1499378  41.4022970  55.4418409  13.2966989  40.5410410
  56.0861638  13.5318499  40.9200502  54.5596497   9.7514708  47.1496610
  54.5544535   8.8794524  47.1539036  55.2657490   9.9502877  46.6766065
  54.6641500   9.6518582  47.0803645  48.2867390   9.4791692  46.5210430
  48.4310766  10.0592900  45.8853540  48.6343038   9.8567988  47.2260284
  48.3594851   9.6212396  46.5309425  50.4587307   8.6781860  44.3035561
  49.7110621   8.8712874  43.8983839  50.6128832   7.8527080  44.0659683
  50.3709735   8.5846971  44.2080967  57.7171784  12.8096586  31.6590727
  57.3378593  12.0233724  31.6520017  57.0538030  13.3583443  31.5162371
  57.5630259  12.7741410  31.6371524  50.6989084   2.5732411  45.1930965
  51.1561698   3.3056385  45.3203757  50.7745413   2.1498876  45.9518221
  50.7780054   2.6189649  45.3232042  42.9422075   2.8198230  46.2820409
  42.4064265   2.2078589  46.5981176  43.0039840   3.3946366  46.9354075
  42.8717708   2.8145158  46.4255836  48.5771462   4.5634515  42.0372789
  47.7867537   4.3825975  42.3590125  48.9732085   3.7861467  42.0203084
  48.5188338   4.4221976  42.0825337  53.0637353  13.3922289  27.4779503
  53.8310338  13.4522414  27.0685355  52.6168662  12.8202730  26.9935821
  53.1110780  13.3158865  27.3457213  53.9615148  12.1976945  39.7632235
  53.2860150  11.9662177  40.2645622  53.9707525  11.5898128  39.1374340
  53.8633653  12.0735870  39.7448387  51.0909292   7.0394774  46.5196288
  51.0268434   7.9004730  46.3916425  51.2306480   6.7226767  45.7191839
  51.1024762   7.1194940  46.3824501  55.9631883  15.0542077  31.9942413
  56.0451720  15.8609063  31.6703864  56.4481625  15.0738036  32.7183187
  56.0469041  15.1762740  32.0529312  49.7728386   9.7326913  40.6612491
  49.3490635   9.9331412  39.9251509  49.5973241   8.8855761  40.7736791
  49.6839267   9.6375695  40.5686181  45.0610831  10.2278965  36.0940463
  45.2175450  10.1625767  36.9496456  45.4011424  11.0027517  35.8819143
  45.1344066  10.3328163  36.1895058  51.5989976   9.6036848  34.9633827
  52.1405521   9.1007229  35.4272447  51.9136535   9.5502043  34.1523312
  51.7254373   9.5216269  34.9117639  55.4707083  13.8139495  52.0760739
  56.2841949  13.5424644  52.2365871  55.3102050  13.5147035  51.2720935
  55.5677032  13.7294421  51.9806145  52.7479245   4.4973153  45.0156127
  52.9621215   3.8584067  44.4619481  52.1313144   4.9418976  44.5863989
  52.6884574   4.4683296  44.8706558  54.1583913  17.4191901  36.4610348
  53.7663705  17.1158616  35.7433214  54.3136985  18.2560991  36.2715302
  54.1237503  17.4975738  36.3266845  41.6345093   7.4113915  36.4101231
  42.0144058   7.8298460  35.7461498  41.0600458   7.9927371  36.7170074
  41.6056418   7.5591774  36.3577972  54.9118333   6.1062218  45.9539434
  54.0995015   5.7988108  46.0352607  55.3708268   5.6261218  46.5182146
  54.8598718   5.9898710  46.0494028  54.3223588  13.9841890  36.4016379
  53.9638243  14.1556533  37.1780411  53.8362299  14.4455095  35.8444377
  54.1982285  14.0780861  36.4341648  49.1111953   9.6641055  28.9416613
  49.4004478  10.4405938  29.2160187  49.1983752   9.1529787  29.6431112
  49.1666210   9.7032974  29.0859111  52.0071841   7.5122289  50.7368137
  52.4771472   8.1364406  51.1236011  52.0533721   6.8439265  51.2961351
  52.0839717   7.5056970  50.8768208  55.4828327  14.8745786  47.3483579
  56.1208048  14.3805981  47.0146036  54.8402419  14.8023186  46.7635806
  55.4822554  14.7904794  47.2125934  57.2085327   6.7234932  41.9149495
  56.7812935   6.6361280  41.1597595  56.5711380   6.8312707  42.5004339
  57.0514935   6.7267592  41.8894937  55.5382584  15.5665594  43.9888936
  56.3274962  15.2154659  44.1091018  55.7126182  16.3801982  43.7265570
  55.6802866  15.6351451  43.9676804  45.2775894   8.9774320  41.0416725
  44.4363901   8.8778194  41.2495619  45.4865902   9.7469800  41.3931046
  45.1840587   9.0766363  41.1244040  42.7551461   6.5993857  38.8701476
  42.3608159   6.6736869  38.0951585  42.1991578   6.9851803  39.4209837
  42.6154274   6.6675631  38.8369136  49.0892559   6.9055719  40.2914323
  48.7855697   6.3511707  40.8924730  48.3871980   7.0847929  39.8042357
  48.9408769   6.8500501  40.3084028  48.1458656   4.2156239  34.8559024
  48.4218391   3.4975151  34.4436592  48.7457326   4.8141159  34.6480131
  48.2751921   4.1976609  34.7639786  45.1684702  11.3718082  42.4608358
  44.5772635  12.0127580  42.4311373  45.9305726  11.7955699  42.4339657
  45.1932963  11.5293920  42.4523505  45.5645325   2.5320080  43.1276376
  46.0246807   2.6059009  43.8651499  45.6101432   3.3301334  42.7776197
  45.6395880   2.6614227  43.1849132  47.2128675   3.1986775  47.6948403
  46.8214240   2.5520122  48.1304180  47.3814537   3.7898210  48.3142658
  47.1799585   3.1901043  47.8511109  61.2875124  11.2023852  43.4585636
  61.3458247  11.6510501  44.2045613  60.6541591  11.6122665  43.0215716
  61.2026419  11.3297586  43.5038185  54.9274218  16.8227394  39.8940382
  54.7293907  17.3118208  39.1996594  54.3061929  17.0268635  40.4724516
  54.8061783  16.9243932  39.8763606  48.9882197   8.5912290  34.2350627
  49.7324242   8.9786567  34.4733577  49.1342893   7.7469716  34.3991114
  49.1192782   8.5242763  34.2944596  51.9760073   4.1637764  40.1344546
  51.5020027   3.6379526  40.6449857  52.3478208   3.6167237  39.5659408
  51.9609962   4.0053760  40.1259693  42.3533103   6.1609270  45.5028092
  43.2158716   6.0604980  45.4165422  42.0224886   5.5803980  44.9413664
  42.4318299   6.0600897  45.4073498  58.2396803   9.2240139  41.5451327
  57.9995026   8.3846555  41.5493753  58.7188810   9.3040306  42.2692100
  58.2748987   9.1121539  41.6526129  53.9043572   5.0574318  33.1970300
  53.3766591   5.1403062  32.5076009  54.3639280   5.7992190  33.1934944
  53.8945423   5.1794981  33.0944995  60.2401990   6.0041597  39.4980586
  60.0011760   5.9637431  38.6601370  60.4035891   6.8512749  39.6246307
  60.2292294   6.1233682  39.3934068  56.8448020  10.3891546  45.4285631
  57.5682219   9.9364072  45.2496651  56.5797983  10.6696212  44.6457959
  56.9129294  10.3642514  45.2864346  45.7134889   4.9851720  42.1638510
  45.0887959   4.9970111  41.5564463  45.3780484   5.4611895  42.8129750
  45.5720381   5.0570236  42.1695079  45.8976637   3.3276838  28.2211195
  45.5489442   3.9796563  28.6842744  45.4173083   3.3133951  27.4935066
  45.7746881   3.4219892  28.1822286  42.4260564  13.0452180  43.6042274
  41.8960489  12.3544619  43.6537249  42.6985658  13.0362365  42.7754983
  42.3885287  12.9419311  43.4889690  53.4580655  13.6277882  32.3279957
  54.1814854  14.0935995  32.1844530  53.0181246  13.6951492  31.5777554
  53.4996347  13.7061719  32.1964738  52.6266810  10.4875424  43.5780646
  52.0123803   9.9433474  43.8729281  53.1434095   9.9739661  43.0986462
  52.6122472  10.3311833  43.5504874  51.8663107  11.5579694  41.3124944
  51.4390715  10.9329413  40.8790380  51.8588051  11.2754616  42.1383952
  51.8022248  11.4232475  41.3704772  44.9825634   6.5944867  44.3813378
  45.1419121   5.8388191  44.7865100  44.8018528   7.1435807  45.0354116
  44.9790993   6.5638681  44.5376084  50.1948817   2.4348449  41.5267478
  50.2191304   1.9008561  40.8380258  50.4460290   1.9265758  42.1893069
  50.2358735   2.2809353  41.5232123  37.7056407   9.7179944  40.9610623
  37.5999856   9.6726788  40.0962707  36.9556626  10.0633724  41.2424907
  37.5792009   9.7620852  40.8747952  46.4750139   1.1619267  40.9073223
  46.5148511   1.6628474  41.6207930  45.6499804   1.2529661  40.6379146
  46.3589665   1.2501083  40.9723761  48.6579752  10.7280007  49.0093517
  47.8075382  10.8651721  49.1451162  48.8207880   9.9943785  49.4541219
  48.5563615  10.6394108  49.0949117  47.8964502   7.6779777  43.2047122
  47.0656432   7.8453595  42.9982370  47.8416019   7.3015728  43.9896007
  47.7653917   7.6469508  43.2895650  45.7048286   1.1688670  48.8403533
  46.3300989   0.6250803  49.1132965  45.2498765   0.6883587  48.2711323
  45.7296546   1.0178151  48.7965126  46.2700546   5.9535368  33.7337240
  46.4103507   6.4507833  34.4365881  46.7683079   5.2521663  33.8751453
  46.3641627   5.9237347  33.8588819  46.3000769   6.8202479  31.0629816
  46.9345848   7.4162904  30.9979278  46.3826379   6.5205937  31.8775686
  46.4057319   6.8643388  31.1732903  59.2783334   9.3517957  43.9316181
  59.8701175   9.9915207  43.9634379  59.7142329   8.6540994  44.2208247
  59.4301766   9.3436307  43.9797013  47.8779751   2.7516455  31.0375258
  48.1995592   2.2719537  30.3834521  48.1406695   3.5616101  30.8466070
  47.9645777   2.8006353  30.9130750  51.1076724  13.7735329  44.5574074
  50.6001815  14.3271176  45.0014705  50.8103370  13.8343619  43.7392849
  50.9881609  13.8641640  44.5022531  42.8053756   9.0170320  34.3319362
  43.3145986   9.6134828  34.7130668  43.2788029   8.7496294  33.6495782
  42.9497132   9.0656136  34.2873885  53.7184504  17.6898587  32.4878018
  53.0013814  17.5159449  32.0225255  54.3691242  17.4551159  31.9553504
  53.7086355  17.6294379  32.3407236  56.3032476   6.5663175  36.2319323
  55.6323666   7.1092878  36.1032389  56.9972226   7.0358031  35.9901018
  56.3061343   6.7161447  36.1774851  45.1644288   5.6526579  37.1992543
  44.4456277   6.0690711  37.4665406  45.5356650   6.2180818  36.6484181
  45.1136220   5.7975860  37.1575350  54.4643869   6.2854428  43.0894538
  54.4441796   6.1037723  43.9429317  54.5123070   7.1566446  43.0654122
  54.4678510   6.3870966  43.2117833  52.4090199  12.8741620  49.0143015
  52.3686054  12.2291297  48.4288171  53.2213517  12.8178237  49.3268427
  52.5233352  12.7700586  48.9739964  52.3662960  18.0850431  39.6691783
  51.9679244  18.1952701  38.9012603  51.7514180  18.2932497  40.2518342
  52.2161850  18.1323999  39.6423082  50.9390863   4.6924579  32.5365922
  50.3455702   5.0141575  31.9850489  50.9766140   3.8465674  32.3287028
  50.8565252   4.6148907  32.4248694  53.8148679   4.6504083  35.9667672
  53.5862372   4.6736785  35.1246031  54.0746755   3.8261550  36.0862683
  53.8194867   4.5320163  35.8592870  48.0967908   6.5038556  45.5692773
  47.5846811   5.8959739  45.9277804  47.9247404   7.2195149  46.0366748
  47.9957545   6.5201855  45.6908996  42.9433622   4.9476131  48.2195134
  42.7736212   5.6077506  47.6743341  42.4999572   5.1582693  48.9407624
  42.8532956   5.0762114  48.2456764  46.8693442   3.1880629  37.2621868
  47.3450808   3.5497709  36.6272049  46.3682041   3.8437097  37.5422011
  46.8658801   3.3374818  37.2098609  60.1004803  12.6602397  33.0534873
  60.4838409  13.4093754  33.2832970  59.3048916  12.9068217  32.7946862
  60.0398585  12.8072091  33.0492447  51.9736978   4.4262801  48.0095028
  52.5308408   4.1976610  47.3773494  51.6498043   5.1868466  47.7330241
  52.0083388   4.5046638  47.8751525  39.8435687   7.8522997  43.4783624
  39.2962406   7.1823643  43.5964493  40.6328065   7.4852845  43.5427092
  39.8787870   7.6987983  43.5052325  49.6920095   7.5130454  48.9747035
  50.4431422   7.8282131  49.2886590  49.8842672   7.3109625  48.1480957
  49.8311509   7.5297836  48.8990431  48.9120095   5.3321829  30.6295252
  49.2919060   5.3501458  29.8446367  48.1712691   5.7775818  30.5086099
  48.8588932   5.4003604  30.4958820  38.6022656   7.0643805  40.6329647
  38.4244417   6.6120414  41.3584563  38.3141678   7.8669966  40.8168125
  38.5335609   7.1166363  40.7673150  54.2646237   8.3201522  39.8707038
  54.7599903   7.6024517  39.8311058  53.4546013   8.0172320  39.7561525
  54.2190131   8.1699168  39.8480764  49.7104849  12.1699335  32.0204042
  48.9016172  11.8466009  31.9737352  50.2179758  11.4632558  31.9532291
  49.6654516  12.0180652  32.0034337  40.3395126   9.5971529  37.7451406
  39.4740646   9.5857219  37.6334178  40.4393942   9.4101751  38.5922546
  40.2269293   9.5677590  37.8540351  56.3298056  11.0705210  42.5584166
  56.7553128  10.5479632  42.0054591  55.9654976  11.6686047  42.0372789
  56.3384659  11.0815437  42.3993176  52.9176656  14.7839474  38.8885324
  53.3887834  15.4979737  39.0575309  53.2536834  14.1838224  39.4245193
  53.0371771  14.8010938  38.9917700  55.0053640  16.3940787  51.0677396
  55.1150606  15.6049348  51.4234143  55.3344537  16.3046724  50.2651734
  55.0706046  16.2646640  51.0019787  53.5550602  14.5757408  45.6513017
  53.0071548  13.9515292  45.3833082  54.0163631  14.7651680  44.9357096
  53.5417811  14.5116458  45.5063448  48.9039265   1.5583357  33.3122884
  49.7254960   1.7281670  33.0704579  48.4408916   1.7130618  32.5889181
  48.9570428   1.6065090  33.1694528  43.3065156  13.3142536  40.9660120
  43.9110013  13.2738370  40.3373941  43.0992469  14.1613688  40.9964176
  43.3654053  13.4330538  40.8776237  53.1208928  15.5808481  42.1822358
  53.9407302  15.4371447  42.4438653  52.8403006  16.2054680  42.7238796
  53.2005672  15.6518833  42.3010297  38.5416438  12.2977153  40.8359043
  38.4440716  11.4873425  41.1449100  39.3245308  12.2768947  40.4505312
  38.6432575  12.1744243  40.8245906  69.5922579  23.2373332  35.1465234
  69.5616583  24.0917969  35.3183503  70.1903927  22.9368625  35.7051378
  69.6759737  23.3189829  35.2540036  62.7922263  22.3248984  39.9018165
  61.9360159  22.4857482  39.9527281  62.8389917  21.4541047  39.9223226
  62.6721375  22.2199785  39.9124231  66.1015980  28.5935509  49.5078621
  66.8082747  28.0987540  49.6365555  66.2903915  29.0344591  48.7781279
  66.2343886  28.5853859  49.4187666  62.6288363  32.2837071  31.0940943
  62.2939732  32.9613992  30.6585165  63.1415234  31.8942382  30.5057815
  62.6553944  32.3261649  30.9427735  62.1692654  34.2351340  37.0352055
  62.5532034  34.8038238  36.4956830  62.1051796  33.5100850  36.5557871
  62.2166082  34.2126803  36.8845917  65.6374085  24.3841027  42.5449816
  66.1830045  25.0626114  42.6043786  65.5790961  24.2428488  41.6851398
  65.7089999  24.4633029  42.4261877  58.7548159  31.8730094  37.9318169
  58.8558522  31.0630447  38.2415296  58.1589905  31.7787040  37.3017847
  58.6820698  31.7395122  37.8844407  67.4139153  25.8125635  33.4183544
  67.2978679  26.5633321  33.8475682  68.2095040  25.5549588  33.6679631
  67.5143743  25.8860481  33.5187636  54.2503291  20.0636111  40.4554810
  53.6308323  19.4728758  40.2864825  54.1487155  20.6547546  39.8219133
  54.1440967  20.0640193  40.3359799  59.2969479  29.8019658  34.7052886
  59.6185320  30.3424865  34.1014194  59.9441575  29.2316429  34.8375176
  59.4395534  29.7978833  34.6359922  61.3471187  21.8035653  34.7887273
  62.0451351  21.9823780  35.2808736  61.6623519  21.2805992  34.1657662
  61.4966524  21.7529425  34.7689283  53.9772424  23.6088392  42.6998379
  53.8531121  24.1950838  43.3348198  54.6290709  23.1148588  43.0010654
  54.0546073  23.6227197  42.8384308  61.5359122  28.1906098  34.7767065
  61.9752758  27.5823198  35.2221837  61.3863785  27.8113471  34.0052530
  61.5780588  28.0444569  34.7286232  59.0030765  26.7850109  41.9785890
  59.6479768  26.2922553  41.6596839  59.2432542  26.9274896  42.8051968
  59.1341350  26.7327552  42.0535423  61.5416856  29.6305015  41.6292783
  61.8240099  28.8356421  41.4079538  62.2703017  30.1085603  41.6497844
  61.6906420  29.5839612  41.5995798  59.5198050  17.1728049  38.8708548
  59.1901380  17.6239193  38.2012246  58.8443052  17.0944213  39.4181554
  59.3708487  17.2279184  38.8531771  65.1368459  26.5433279  31.7297834
  65.0519754  27.3994245  31.8747403  65.6252842  26.2677603  32.3979993
  65.1957356  26.6290600  31.8499915  66.7274458  13.1613572  37.1158158
  66.4127899  13.8517051  37.5478581  66.2101400  13.1058354  36.4143659
  66.6038929  13.2548461  37.0755107  66.0686892  23.1618073  33.2295569
  65.5398363  23.3777707  33.8892875  66.5911912  23.8554211  33.1496538
  66.0675345  23.2961210  33.3151168  71.5234945  28.7364377  38.6028613
  70.6932648  28.9475021  38.7662030  71.4744197  27.9101432  38.3270897
  71.3941680  28.6453984  38.5865979  57.9586500  27.0581290  32.0303037
  57.3743715  27.5631321  32.4368901  57.5556595  26.8323677  31.2899629
  57.8125804  27.0989538  31.9808062  59.5844682  31.5668232  41.4376523
  59.0671624  31.2075647  40.8337831  60.2819074  31.0430406  41.4482589
  59.6110264  31.4365920  41.3506782  63.2408274  32.0163046  47.3992696
  63.3291620  31.8289186  48.2470906  63.6697987  31.3700475  46.9997543
  63.3170377  31.8926053  47.4664447  60.8078734  31.2994206  46.3810358
  60.2449569  30.8866815  46.9050019  61.5699758  31.2247111  46.8003501
  60.8373183  31.2271606  46.5203358  62.4163714  23.3046942  30.5071957
  62.6559718  23.5124926  29.6947301  62.7379555  22.5004451  30.6160902
  62.5000872  23.2161043  30.4032511  57.7254004  15.2340338  34.3531495
  58.4799972  15.6018655  34.1148546  57.5481539  15.6079892  35.1210675
  57.8108483  15.3438525  34.4316384  71.0188903  21.3834778  42.3979035
  70.1817324  21.4536965  42.6326629  70.9877134  21.3859273  41.5253337
  70.8907186  21.3945005  42.3038583  57.4153632  23.5267814  48.1127403
  57.5874136  23.4173708  48.9612685  57.9522990  24.1722219  47.8758596
  57.5198636  23.6059815  48.2032500  56.0811069  17.6410657  31.0509608
  55.8986642  17.8582537  30.2250601  56.9436682  17.7549669  31.1068223
  56.1815659  17.6900554  30.9364095  55.6925501  29.4798579  38.4932596
  56.5314400  29.7121512  38.5406358  55.7237270  28.6102890  38.4239632
  55.8207219  29.3855525  38.4897241  56.3178204  29.8999454  42.7945902
  56.8576429  29.7570585  43.4649274  55.6348150  30.2996205  43.1629928
  56.2970358  29.9379125  42.9480324  61.7610788  14.6437067  34.0858632
  62.4896949  14.4653022  33.6396788  61.8505681  15.4855147  34.2965810
  61.8817450  14.7420946  34.0512150  65.7419089  25.5790455  37.9890926
  66.4976604  26.0121969  38.0279835  65.8481413  24.9295224  38.5625562
  65.8689260  25.5467938  38.0788952  68.7799260  29.4063732  38.7393329
  68.3434492  29.4100474  39.4952301  68.4462175  30.0869231  38.3072907
  68.6661880  29.5076188  38.7874162  63.3528334  31.4472065  50.0636479
  64.1368750  31.5602912  50.4292222  63.1524928  30.6213202  50.2595165
  63.4394359  31.3418784  50.1470866  51.7215349  26.1199745  42.9480323
  51.4553764  25.3038861  43.1071314  51.7353913  26.1652900  42.0775839
  51.6840071  26.0056650  42.8433805  68.6996743  16.4477560  40.9822757
  69.3422651  16.5175664  41.5684672  68.9519764  15.7806783  40.4802299
  68.8318875  16.3603908  40.9950036  55.6273096  20.9184829  29.5632081
  54.9131273  20.6323009  29.9754514  56.1117065  21.2581455  30.2038469
  55.5932459  20.9266479  29.7187716  56.4713955  19.6578123  45.5947331
  55.7785752  19.1875103  45.8408063  57.0874283  19.4316428  46.1689038
  56.4598485  19.5545255  45.7156484  63.5098727  33.3582167  43.7102935
  62.7113973  33.1181667  43.9676804  63.9584738  33.4096560  44.4569983
  63.4573338  33.3304558  43.8587859  71.9143606  26.1244652  37.6312966
  72.5760040  25.5635320  37.5308875  71.2735018  25.6296682  37.9565658
  71.9172474  25.9681061  37.6645307  62.8020414  29.4214783  29.9393890
  63.2171562  29.0899807  29.2478385  61.9712344  29.1883685  29.8114026
  62.7408423  29.3386039  29.8184737  68.2008437  27.1410034  37.3724955
  68.4364026  27.2855233  36.5451806  68.3498001  27.9052442  37.7656469
  68.2574240  27.2749089  37.3088559  55.1954514  23.6243527  46.7374176
  55.9194487  23.6096558  47.2239071  55.2970651  24.3338882  46.2396144
  55.3172723  23.7268230  46.7352963  70.0298894  25.9811700  35.2094559
  70.3607111  26.5139340  34.6034654  70.6031982  26.0350588  35.8656510
  70.1632573  26.0681269  35.2172341  62.5699464  27.1042612  51.6023123
  61.7772445  27.4186124  51.7875743  62.6848391  27.3194080  50.7643908
  62.4694874  27.1826448  51.5061458  65.2430783  23.8276603  35.8918139
  65.3377637  24.5665897  36.3457765  64.6189626  23.3994078  36.3252704
  65.1639813  23.8737923  36.0226287  63.4983257  27.0062815  46.5408420
  64.0722118  26.3690060  46.6956984  63.4198060  27.0066898  45.6718078
  63.5716491  26.9127927  46.4354831  65.4953804  25.6725343  29.1255091
  65.4133967  25.7427530  29.9910078  66.1333525  26.2355087  28.9338832
  65.5773641  25.7664314  29.2245041  58.8546975  25.4386081  38.5929617
  58.5966220  24.6057815  38.5660917  58.9095458  25.6643694  37.7522118
  58.8246753  25.3483852  38.4649754  63.9348025  17.5414531  38.6933710
  63.2304352  17.0523717  38.8517629  63.9833000  17.5537006  37.8222155
  63.8378077  17.4704179  38.5873050  57.8281687  22.9923843  39.0794512
  57.2531279  23.1516011  39.7158473  57.4517364  22.3559252  38.6162963
  57.6884500  22.9221656  39.1049071  61.4954976  21.4647192  43.9386891
  61.1069409  21.0401410  43.2839082  60.8309674  21.7129342  44.4463917
  61.3401904  21.4385913  43.9174759  71.1378245  21.2222197  36.7134721
  70.8814810  20.4102138  36.5232603  71.9807559  21.2299764  36.4864908
  71.2244271  21.1034194  36.6519538  65.3181338  15.1621821  41.4510875
  65.6991849  14.4799992  41.8378749  64.5144622  14.8731423  41.2686539
  65.2557799  15.0188870  41.4814931  62.5993914  25.6945797  32.1363698
  63.4134553  25.9860690  32.0246469  62.5353056  25.0405659  31.5621991
  62.7096653  25.6410992  32.0352535  68.8203404  28.3771793  46.5493273
  68.5842042  27.5459858  46.4305334  69.4646633  28.3257400  47.1348117
  68.8798075  28.2469481  46.6179167  58.4701823  29.1667314  37.2636010
  59.1075770  28.9279062  37.8087803  58.8956894  29.3704473  36.5289170
  58.6277989  29.1618325  37.2353167  59.1104638  24.3869604  31.6010899
  59.4949790  24.1677311  32.3527444  58.8616258  25.2132550  31.7311975
  59.1306710  24.4767750  31.7311975  59.2773178  17.6676019  51.3173483
  58.9626619  18.4375582  51.0543046  58.9563111  17.1046275  50.7325710
  59.1832097  17.6986288  51.1914833  69.8439825  28.1616242  42.6121568
  69.5385642  28.8944299  42.9734883  69.1246041  27.7554171  42.3314354
  69.6927167  28.2097975  42.6234705  60.8523295  29.6439737  38.9429796
  60.9262303  29.4814909  39.7971646  61.6692801  29.8329927  38.6990278
  60.9839653  29.6476479  39.0327822  75.5441617  24.8009242  41.9389912
  75.4766118  24.8205202  41.0692499  75.5297280  25.6439570  42.1645583
  75.5320374  24.9282977  41.8442389  56.8305075  16.0566541  36.9319680
  55.9627500  16.1289140  36.9977289  57.1180279  16.8588620  37.1207655
  56.7444823  16.1860688  36.9694446  65.9537964  16.2044400  45.2631001
  66.6991556  16.0154211  44.8494427  65.5375268  16.7302638  44.7044858
  66.0022938  16.2546546  45.1195575  59.3927880  32.6074480  33.6743269
  59.6826179  32.2163461  32.9502496  60.1231361  32.7891185  34.1148545
  59.5434764  32.5768294  33.6326076  73.3300235  23.5753629  40.2136506
  73.8808156  22.9421698  40.4533598  73.3144350  24.1069021  40.9052011
  73.4085431  23.5602577  40.3515365  59.9822625  27.4092226  44.7596400
  59.4834319  28.1207994  44.8381288  60.7922850  27.7292893  44.7214562
  60.0278732  27.5619075  44.7652968  56.2450743  26.6715179  39.0059121
  55.9563992  26.0452650  39.5404848  57.1134091  26.6135466  39.0723801
  56.3310995  26.5702723  39.0950075  67.0328641  21.8149962  39.3241103
  66.6893407  21.0940298  39.6748352  67.1321683  21.6063814  38.4819461
  66.9970684  21.6774166  39.2512783  59.5001752  35.9571252  35.5234111
  60.1525810  35.4247695  35.7525137  58.8027360  35.6039905  35.9101985
  59.4932470  35.8260775  35.6146279  56.4483016  28.3110430  34.9301486
  57.2028984  28.6923469  35.1436948  55.8553629  28.7621574  35.3848182
  56.4719730  28.4339257  35.0284364  67.4941670  28.2775666  34.8665091
  68.0599703  28.9368876  34.7823634  66.8469573  28.6225364  35.3381493
  67.4820426  28.4257608  34.9237847  58.9089683  20.2673270  50.0558698
  58.0989459  20.5731050  49.9448540  59.3864370  20.9878853  50.1711282
  58.8593162  20.4187872  50.0565769  57.7681243  29.4818991  40.3041601
  57.2461997  29.6219283  40.9893466  58.1555263  28.7229656  40.4943718
  57.7484944  29.3904515  40.4342678  54.7572427  19.5324800  34.3736556
  54.4697223  19.1626071  33.6368503  55.4442895  20.0019655  34.1120261
  54.8161324  19.5471769  34.2251632  63.9648248  31.2214451  34.2902170
  63.7234924  30.4882311  33.8829235  64.1449581  31.7701308  33.6368503
  63.9555872  31.1936842  34.1332393  59.1947569  26.5123010  35.7023092
  58.9990351  27.1197745  35.1083395  59.4181914  25.8190954  35.2214766
  59.1982210  26.5000536  35.5439173  57.5926099  23.3977748  35.8203961
  58.3148751  23.5618906  35.3607767  57.1134091  24.1187413  35.7143300
  57.6289829  23.5275978  35.7369575  65.5519606  19.7341547  41.2000645
  64.7130707  19.7602826  40.9638909  65.6223974  20.3812283  41.7805992
  65.4388000  19.8337673  41.2509762  55.2433715  25.8035821  44.9258100
  55.7554812  26.0820074  44.2766860  54.9570058  26.5425115  45.2920913
  55.2768578  25.9538174  44.8847978  63.9988884  16.6326924  35.9328261
  64.7015237  16.4334672  35.4548220  63.7333073  15.8602866  36.2397105
  64.0635517  16.4889890  35.9073703  69.4277130  24.9409534  38.4861887
  69.3411105  25.0964960  39.3396666  68.9727610  25.5847609  38.1121292
  69.3480387  25.0585289  38.5568994  52.3300622  20.3106013  35.2221837
  52.4316758  21.1132174  35.5502812  53.1256508  20.1093348  34.9244917
  52.4628527  20.3991911  35.2257192  58.7617441  17.8962209  44.9859142
  58.5700638  17.9117344  45.8358565  59.6116037  18.0925884  44.9625797
  58.8593163  17.9276560  45.1082437  53.1464354  20.4253191  42.9642958
  53.0049846  19.5737131  43.0887466  53.4304917  20.4681851  42.1405164
  53.1672200  20.3052941  42.8610583  63.3002946  22.2620281  37.1087447
  63.0537660  22.1816032  37.9424236  63.6288069  21.4773749  36.9149974
  63.3124190  22.1346546  37.2034970  67.1950995  28.9703640  40.8974228
  67.0565354  29.6684686  41.4022970  66.4150993  28.8152297  40.5410410
  67.0594222  29.0503807  40.9200502  65.5329080  25.2700016  47.1496610
  65.5277119  24.3979832  47.1539036  66.2390074  25.4688185  46.6766065
  65.6374084  25.1703890  47.0803645  59.2599973  24.9977000  46.5210430
  59.4043349  25.5778208  45.8853540  59.6075622  25.3753296  47.2260284
  59.3327435  25.1397704  46.5309425  61.4319891  24.1967168  44.3035561
  60.6843205  24.3898182  43.8983839  61.5861416  23.3712387  44.0659683
  61.3442318  24.1032279  44.2080967  58.3327728  33.1879771  43.3871457
  58.4817292  32.6282687  42.7344861  59.1127730  33.2671773  43.7703975
  58.4701822  33.1165337  43.3468406  68.6904368  28.3281894  31.6590727
  68.3111176  27.5419032  31.6520017  68.0270613  28.8768751  31.5162371
  68.5362843  28.2926718  31.6371524  60.8581029  33.3594414  44.6655947
  60.7824700  32.6903225  45.2206736  60.7870888  34.0612202  45.1796614
  60.8361636  33.3639322  44.8232796  61.6721668  18.0917719  45.1930965
  62.1294282  18.8241693  45.3203757  61.7477997  17.6684184  45.9518221
  61.7512638  18.1374957  45.3232042  53.9154659  18.3383538  46.2820409
  53.3796848  17.7263897  46.5981176  53.9772424  18.9131674  46.9354075
  53.8450292  18.3330466  46.4255836  66.1448994  11.2707594  39.0624808
  66.2632562  11.7284057  38.3292111  65.9711169  10.4652855  38.7761026
  66.1368165  11.2201366  38.9125742  61.5151276  31.8795413  35.4979553
  62.2801167  31.6105057  35.1762218  61.4129366  31.3945423  36.2149616
  61.6132771  31.7684978  35.5559381  59.5504046  20.0819823  42.0372789
  58.7600120  19.9011283  42.3590125  59.9464669  19.3046775  42.0203084
  59.4920922  19.9407283  42.0825337  64.0369936  28.9107597  27.4779503
  64.8042922  28.9707722  27.0685355  63.5901245  28.3388038  26.9935821
  64.0843364  28.8344173  27.3457213  64.9347732  27.7162253  39.7632235
  64.2592734  27.4847485  40.2645622  64.9440108  27.1083436  39.1374340
  64.8366237  27.5921178  39.7448387  62.0641876  22.5580082  46.5196288
  62.0001017  23.4190038  46.3916425  62.2039064  22.2412075  45.7191839
  62.0757346  22.6380248  46.3824501  66.9364467  30.5727385  31.9942413
  67.0184304  31.3794371  31.6703864  67.4214209  30.5923344  32.7183187
  67.0201624  30.6948048  32.0529312  60.7460970  25.2512221  40.6612491
  60.3223219  25.4516720  39.9251509  60.5705825  24.4041069  40.7736791
  60.6571850  25.1561003  40.5686181  56.0343415  25.7464272  36.0940463
  56.1908034  25.6811075  36.9496456  56.3744008  26.5212825  35.8819143
  56.1076650  25.8513471  36.1895058  62.5722559  25.1222156  34.9633827
  63.1138105  24.6192537  35.4272447  62.8869118  25.0687351  34.1523312
  62.6986957  25.0401577  34.9117639  66.4439667  29.3324803  52.0760739
  67.2574532  29.0609952  52.2365871  66.2834633  29.0332343  51.2720935
  66.5409615  29.2479729  51.9806145  60.7409009  30.5139508  32.2473855
  60.8101829  29.6554046  32.3866855  61.5197464  30.7311388  31.9192879
  60.8661859  30.4192372  32.2191012  63.7211829  20.0158461  45.0156127
  63.9353798  19.3769375  44.4619481  63.1045728  20.4604284  44.5863989
  63.6617158  19.9868604  44.8706558  65.1316497  32.9377209  36.4610348
  64.7396288  32.6343924  35.7433214  65.2869569  33.7746299  36.2715302
  65.0970087  33.0161046  36.3266845  52.6077676  22.9299223  36.4101231
  52.9876641  23.3483768  35.7461498  52.0333041  23.5112679  36.7170074
  52.5789001  23.0777082  36.3577972  65.8850917  21.6247526  45.9539434
  65.0727599  21.3173416  46.0352607  66.3440851  21.1446526  46.5182146
  65.8331302  21.5084018  46.0494028  65.2956171  29.5027198  36.4016379
  64.9370826  29.6741841  37.1780411  64.8094882  29.9640403  35.8444377
  65.1714868  29.5966169  36.4341648  63.1126557  13.1258396  40.0043470
  62.2420115  13.0997117  39.9576779  63.3666899  12.9535588  39.1869316
  63.0220118  13.0968540  39.8763607  60.0844537  25.1826363  28.9416613
  60.3737062  25.9591246  29.2160187  60.1716336  24.6715095  29.6431112
  60.1398793  25.2218281  29.0859111  62.9804424  23.0307597  50.7368137
  63.4504055  23.6549714  51.1236011  63.0266304  22.3624573  51.2961351
  63.0572300  23.0242277  50.8768208  60.1375698  15.1364625  41.4616940
  59.6214187  14.4444816  41.5868519  59.5769627  15.8035402  41.4079539
  59.9782211  15.1327882  41.4723006  62.2067931  15.6757585  43.2909793
  61.8199685  15.7006616  44.0723323  61.7200869  15.1099263  42.8384310
  62.0780440  15.5953336  43.3397697  66.4560911  30.3931094  47.3483579
  67.0940631  29.8991289  47.0146036  65.8135002  30.3208494  46.7635806
  66.4555137  30.3090102  47.2125934  68.1817911  22.2420240  41.9149495
  67.7545519  22.1546588  41.1597595  67.5443964  22.3498015  42.5004339
  68.0247518  22.2452899  41.8894937  61.8725073  12.5624570  45.5820053
  62.5018191  13.0984870  45.3041123  62.0410936  12.4701929  46.4333618
  61.9902868  12.6285932  45.6668581  61.6738988  17.3495765  47.8546464
  62.5012417  17.0780914  47.9105079  61.6946834  18.1456607  48.2110283
  61.7991838  17.4275519  47.9161647  66.5115167  31.0850902  43.9888936
  67.3007546  30.7339967  44.1091018  66.6858765  31.8987290  43.7265570
  66.6535449  31.1536759  43.9676804  56.2508478  24.4959628  41.0416725
  55.4096484  24.3963502  41.2495619  56.4598486  25.2655108  41.3931046
  56.1573170  24.5951671  41.1244040  53.7284045  22.1179165  38.8701476
  53.3340743  22.1922176  38.0951585  53.1724162  22.5037111  39.4209837
  53.5886857  22.1860939  38.8369136  65.3648992  15.0960459  38.5505355
  65.5698585  15.0282767  39.3962352  65.0375416  15.9019280  38.4826532
  65.3464240  15.2046399  38.6665010  60.0625143  22.4241027  40.2914323
  59.7588280  21.8697015  40.8924730  59.3604563  22.6033237  39.8042357
  59.9141353  22.3685809  40.3084028  59.1191240  19.7341547  34.8559024
  59.3950974  19.0160459  34.4436592  59.7189909  20.3326467  34.6480131
  59.2484504  19.7161917  34.7639786  58.1243494  29.6390748  44.9986420
  58.0163849  29.6492810  45.8648478  58.3339275  30.4645528  44.8091374
  58.1393605  29.7631822  45.0990512  68.6182679  15.6492223  38.0308120
  68.0056993  16.1362625  38.4161852  68.7146854  14.9735714  38.5745771
  68.5420577  15.6210532  38.1686978  62.6201760  17.4055064  33.1305619
  63.0745507  17.5765624  33.8553464  63.0941806  16.7923175  32.7303395
  62.7570080  17.3405949  33.1779381  56.1417286  26.8903390  42.4608358
  55.5505219  27.5312888  42.4311373  56.9038309  27.3141007  42.4339657
  56.1665546  27.0479228  42.4523505  56.5377909  18.0505388  43.1276376
  56.9979390  18.1244317  43.8651499  56.5834015  18.8486642  42.7776197
  56.6128464  18.1799535  43.1849132  58.1861258  18.7172083  47.6948403
  57.7946823  18.0705430  48.1304180  58.3547121  19.3083518  48.3142658
  58.1532169  18.7086350  47.8511109  72.2607707  26.7209160  43.4585636
  72.3190831  27.1695808  44.2045613  71.6274175  27.1307972  43.0215716
  72.1759002  26.8482894  43.5038185  65.9006802  32.3412702  39.8940382
  65.7026491  32.8303516  39.1996594  65.2794513  32.5453943  40.4724516
  65.7794366  32.4429240  39.8763606  59.9614780  24.1097598  34.2350627
  60.7056825  24.4971875  34.4733577  60.1075476  23.2655024  34.3991114
  60.0925365  24.0428071  34.2944596  61.8794356  15.9047857  39.2682488
  61.0330401  16.0770665  39.1423838  61.8765488  15.0997201  39.6048316
  61.7541506  15.8108886  39.2993615  62.9492656  19.6823072  40.1344546
  62.4752610  19.1564834  40.6449857  63.3210792  19.1352545  39.5659408
  62.9342545  19.5239068  40.1259693  53.3265686  21.6794578  45.5028092
  54.1891299  21.5790288  45.4165422  52.9957469  21.0989288  44.9413664
  53.4050883  21.5786205  45.4073498  69.2129387  24.7425447  41.5451327
  68.9727610  23.9031863  41.5493753  69.6921394  24.8225614  42.2692100
  69.2481570  24.6306847  41.6526129  64.8776156  20.5759626  33.1970300
  64.3499174  20.6588370  32.5076009  65.3371864  21.3177498  33.1934944
  64.8678006  20.6980289  33.0944995  71.2134574  21.5226905  39.4980586
  70.9744344  21.4822739  38.6601370  71.3768475  22.3698057  39.6246307
  71.2024877  21.6418990  39.3934068  67.8180604  25.9076854  45.4285631
  68.5414803  25.4549380  45.2496651  67.5530566  26.1881520  44.6457959
  67.8861877  25.8827822  45.2864346  56.6867472  20.5037027  42.1638510
  56.0620542  20.5155419  41.5564463  56.3513067  20.9797203  42.8129750
  56.5452964  20.5755544  42.1695079  56.8709221  18.8462146  28.2211195
  56.5222025  19.4981871  28.6842744  56.3905667  18.8319259  27.4935066
  56.7479465  18.9405199  28.1822286  53.3993148  28.5637488  43.6042274
  52.8693072  27.8729926  43.6537249  53.6718241  28.5547673  42.7754983
  53.3617870  28.4604619  43.4889690  64.4313238  29.1463190  32.3279957
  65.1547437  29.6121303  32.1844530  63.9913829  29.2136799  31.5777554
  64.4728931  29.2247027  32.1964738  63.5999393  26.0060732  43.5780646
  62.9856387  25.4618782  43.8729281  64.1166678  25.4924969  43.0986462
  63.5855056  25.8497141  43.5504874  62.8395691  27.0765002  41.3124944
  62.4123299  26.4514721  40.8790380  62.8320635  26.7939924  42.1383952
  62.7754832  26.9417783  41.3704772  55.9558218  22.1130175  44.3813378
  56.1151704  21.3573499  44.7865100  55.7751111  22.6621115  45.0354116
  55.9523577  22.0823989  44.5376084  63.8978521  14.2791411  44.9364168
  63.4019082  14.4755085  44.2455735  64.6547583  14.6784079  44.7652970
  63.9365345  14.3669145  44.8084305  61.1681400  17.9533757  41.5267478
  61.1923887  17.4193869  40.8380258  61.4192874  17.4451066  42.1893069
  61.2091319  17.7994661  41.5232123  57.4482722  16.6804575  40.9073223
  57.4881094  17.1813782  41.6207930  56.6232387  16.7714969  40.6379146
  57.3322248  16.7686391  40.9723761  59.6312335  26.2465315  49.0093517
  58.7807966  26.3837029  49.1451162  59.7940463  25.5129093  49.4541219
  59.5296199  26.1579416  49.0949117  58.8697086  23.1965085  43.2047122
  58.0389016  23.3638903  42.9982370  58.8148603  22.8201036  43.9896007
  58.7386501  23.1654816  43.2895650  56.6780869  16.6873978  48.8403533
  57.3033573  16.1436110  49.1132965  56.2231349  16.2068895  48.2711323
  56.7029130  16.5363459  48.7965126  57.2433130  21.4720676  33.7337240
  57.3836091  21.9693141  34.4365881  57.7415663  20.7706971  33.8751453
  57.3374211  21.4422655  33.8588819  57.2733352  22.3387787  31.0629816
  57.9078432  22.9348212  30.9979278  57.3558963  22.0391245  31.8775686
  57.3789903  22.3828696  31.1732903  70.2515918  24.8703265  43.9316181
  70.8433758  25.5100515  43.9634379  70.6874912  24.1726301  44.2208247
  70.4034349  24.8621615  43.9797013  58.8512335  18.2701763  31.0375258
  59.1728176  17.7904845  30.3834521  59.1139279  19.0801409  30.8466070
  58.9378360  18.3191661  30.9130750  62.0809308  29.2920637  44.5574074
  61.5734399  29.8456484  45.0014705  61.7835954  29.3528927  43.7392849
  61.9614193  29.3826948  44.5022531  64.2471490  17.6573957  43.3998737
  64.6726561  17.2046483  42.7882264  63.6328483  17.1034027  43.6763525
  64.2200135  17.5087933  43.3503763  53.7786340  24.5355628  34.3319362
  54.2878569  25.1320136  34.7130668  54.2520612  24.2681602  33.6495782
  53.9229716  24.5841444  34.2873885  64.6917088  33.2083895  32.4878018
  63.9746398  33.0344757  32.0225255  65.3423826  32.9736467  31.9553504
  64.6818939  33.1479687  32.3407236  62.6865713  14.1289057  36.8089314
  62.0434031  13.9786703  37.3774453  62.3465120  13.8831402  36.0438419
  62.5410790  14.0701179  36.7792330  67.2765059  22.0848483  36.2319323
  66.6056249  22.6278186  36.1032389  67.9704809  22.5543339  35.9901018
  67.2793927  22.2346755  36.1774851  61.3251793  34.2245195  41.4631081
  61.1017447  33.4664025  41.8315108  60.8361636  34.2543217  40.7411521
  61.2195242  34.1167420  41.4107822  67.4393187  18.5404367  39.1409696
  67.7920797  18.1134090  39.8155495  66.5807988  18.4555211  39.2710773
  67.3642631  18.4649108  39.2604707  56.1376872  21.1711887  37.1992543
  55.4188861  21.5876019  37.4665406  56.5089234  21.7366125  36.6484181
  56.0868803  21.3161168  37.1575350  65.4376453  21.8039736  43.0894538
  65.4174380  21.6223031  43.9429317  65.4855653  22.6751754  43.0654122
  65.4411094  21.9056274  43.2117833  63.3822782  28.3926928  49.0143015
  63.3418637  27.7476605  48.4288171  64.1946101  28.3363545  49.3268427
  63.4965936  28.2885894  48.9739964  59.9730250  34.4445653  38.9168166
  59.5590649  33.7819784  38.5272008  60.6577624  34.5923512  38.3963860
  60.0128622  34.3686312  38.7824663  63.3395544  33.6035739  39.6691783
  62.9411827  33.7138009  38.9012603  62.7246764  33.8117805  40.2518342
  63.1894433  33.6509307  39.6423082  61.9123446  20.2109887  32.5365922
  61.3188285  20.5326883  31.9850489  61.9498724  19.3650982  32.3287028
  61.8297835  20.1334215  32.4248694  68.8717247  13.6622779  40.0694009
  68.3648111  12.9551918  40.0015186  69.6684681  13.3315968  40.1995085
  68.9144486  13.5095930  40.0793004  64.7881263  20.1689391  35.9667672
  64.5594956  20.1922093  35.1246031  65.0479339  19.3446858  36.0862683
  64.7927451  20.0505471  35.8592870  59.0700491  22.0223864  45.5692773
  58.5579394  21.4145047  45.9277804  58.8979987  22.7380457  46.0366748
  58.9690128  22.0387163  45.6908996  53.9166206  20.4661439  48.2195134
  53.7468796  21.1262814  47.6743341  53.4732156  20.6768001  48.9407624
  53.8265539  20.5947422  48.2456764  57.8426025  18.7065937  37.2621868
  58.3183391  19.0683017  36.6272049  57.3414625  19.3622405  37.5422011
  57.8391384  18.8560126  37.2098609  71.0737387  28.1787705  33.0534873
  71.4570993  28.9279062  33.2832970  70.2781500  28.4253525  32.7946862
  71.0131169  28.3257399  33.0492447  62.9469561  19.9448109  48.0095028
  63.5040992  19.7161918  47.3773494  62.6230626  20.7053774  47.7330241
  62.9815972  20.0231945  47.8751525  60.6652679  23.0315762  48.9747035
  61.4164006  23.3467439  49.2886590  60.8575255  22.8294933  48.1480957
  60.8044093  23.0483144  48.8990431  59.8852678  20.8507137  30.6295252
  60.2651643  20.8686766  29.8446367  59.1445274  21.2961126  30.5086099
  59.8321516  20.9188912  30.4958820  67.5137969  19.1589328  36.2170831
  67.5132195  19.0037985  37.0755107  67.3094149  20.0052315  36.1612216
  67.4837747  19.2609949  36.3358770  65.2378821  23.8386830  39.8707038
  65.7332486  23.1209825  39.8311058  64.4278597  23.5357628  39.7561525
  65.1922714  23.6884476  39.8480764  60.6837432  27.6884643  32.0204042
  59.8748755  27.3651317  31.9737352  61.1912341  26.9817865  31.9532291
  60.6387099  27.5365960  32.0034337  67.3030640  26.5890518  42.5584166
  67.7285711  26.0664939  42.0054591  66.9387560  27.1871355  42.0372789
  67.3117242  26.6000745  42.3993176  63.8909239  30.3024782  38.8885324
  64.3620417  31.0165044  39.0575309  64.2269418  29.7023532  39.4245193
  64.0104354  30.3196246  38.9917700  65.9786224  31.9126095  51.0677396
  66.0883189  31.1234656  51.4234143  66.3077120  31.8232031  50.2651734
  66.0438630  31.7831948  51.0019787  60.8078734  15.0752252  45.8443419
  60.9406640  14.2783246  46.1724394  61.1923887  15.6018655  46.4241694
  60.8835063  15.0352169  45.9786922  64.5283186  30.0942716  45.6513017
  63.9804132  29.4700600  45.3833082  64.9896214  30.2836988  44.9357096
  64.5150395  30.0301766  45.5063448  63.8811089  11.9982579  42.4424512
  63.0757053  11.8880308  42.7592350  63.7517825  12.0995034  41.5854378
  63.7431222  11.9966249  42.3632552  67.3377050  18.1628071  43.0364209
  66.7540039  18.6637277  42.6241776  67.6581344  17.6557627  42.4028532
  67.2990225  18.1619906  42.8822716  59.8771849  17.0768665  33.3122884
  60.6987543  17.2466978  33.0704579  59.4141500  17.2315926  32.5889181
  59.9303011  17.1250398  33.1694528  58.4667181  15.0711428  44.0921312
  59.0111594  14.7302554  44.6825654  58.5204117  15.9296889  44.2342597
  58.5556300  15.1466687  44.2003186  54.2797740  28.8327844  40.9660120
  54.8842597  28.7923678  40.3373941  54.0725052  29.6798996  40.9964176
  54.3386637  28.9515846  40.8776237  64.0941512  31.0993789  42.1822358
  64.9139886  30.9556755  42.4438653  63.8135589  31.7239988  42.7238796
  64.1738255  31.1704141  42.3010297  73.7654847  37.8434291  39.9018165
  72.9092743  38.0042790  39.9527281  73.8122501  36.9726355  39.9223226
  73.6453959  37.7385093  39.9124231  68.1495987  47.3797009  35.6655396
  67.3978886  47.0012548  35.4371441  68.5981998  47.4115443  34.9174206
  68.1045654  47.3282616  35.5212898  77.0748564  44.1120817  49.5078621
  77.7815331  43.6172848  49.6365555  77.2636499  44.5529899  48.7781279
  77.2076469  44.1039167  49.4187666  73.6020947  47.8022379  31.0940943
  73.2672315  48.4799300  30.6585165  74.1147817  47.4127690  30.5057815
  73.6286528  47.8446957  30.9427735  73.1425238  49.7536648  37.0352055
  73.5264617  50.3223546  36.4956830  73.0784379  49.0286158  36.5557871
  73.1898665  49.7312111  36.8845917  76.6106668  39.9026335  42.5449816
  77.1562628  40.5811422  42.6043786  76.5523544  39.7613796  41.6851398
  76.6822582  39.9818337  42.4261877  69.7280743  47.3915401  37.9318169
  69.8291106  46.5815755  38.2415296  69.1322488  47.2972348  37.3017847
  69.6553282  47.2580430  37.8844407  69.5681483  52.3092991  39.3333025
  70.2118938  52.7506155  39.7229183  69.8937738  51.5046417  39.2463283
  69.7113311  52.2558185  39.3778502  65.2235875  35.5821419  40.4554810
  64.6040906  34.9914066  40.2864825  65.1219738  36.1732854  39.8219133
  65.1173550  35.5825501  40.3359799  70.2702062  45.3204965  34.7052886
  70.5917903  45.8610173  34.1014194  70.9174159  44.7501737  34.8375176
  70.4128117  45.3164141  34.6359922  72.3203770  37.3220960  34.7887273
  73.0183935  37.5009088  35.2808736  72.6356103  36.7991300  34.1657662
  72.4699108  37.2714733  34.7689283  64.9505008  39.1273700  42.6998379
  64.8263705  39.7136146  43.3348198  65.6023292  38.6333896  43.0010654
  65.0278657  39.1412505  42.8384308  72.5091706  43.7091405  34.7767065
  72.9485341  43.1008506  35.2221837  72.3596369  43.3298779  34.0052530
  72.5513171  43.5629877  34.7286232  69.9763349  42.3035417  41.9785890
  70.6212351  41.8107860  41.6596839  70.2165126  42.4460204  42.8051968
  70.1073934  42.2512860  42.0535423  72.5149440  45.1490323  41.6292783
  72.7972683  44.3541729  41.4079538  73.2435600  45.6270911  41.6497844
  72.6639004  45.1024920  41.5995798  70.4930634  32.6913357  38.8708548
  70.1633964  33.1424501  38.2012246  69.8175636  32.6129520  39.4181554
  70.3441070  32.7464492  38.8531771  76.1101042  42.0618587  31.7297834
  76.0252337  42.9179553  31.8747403  76.5985425  41.7862911  32.3979993
  76.1689940  42.1475908  31.8499915  77.7007042  28.6798880  37.1158158
  77.3860483  29.3702359  37.5478581  77.1833983  28.6243662  36.4143659
  77.5771512  28.7733769  37.0755107  77.0419475  38.6803381  33.2295569
  76.5130947  38.8963014  33.8892875  77.5644495  39.3739519  33.1496538
  77.0407928  38.8146518  33.3151168  68.9319083  42.5766598  32.0303037
  68.3476299  43.0816629  32.4368901  68.5289178  42.3508985  31.2899629
  68.7858387  42.6174846  31.9808062  64.4863112  48.2921359  38.8326708
  64.0030690  49.0171848  38.8086292  65.2986430  48.5897489  38.9436866
  64.5353860  48.4423713  38.8453988  70.5577266  47.0853540  41.4376523
  70.0404208  46.7260955  40.8337831  71.2551657  46.5615714  41.4482589
  70.5842847  46.9551227  41.3506782  74.2140858  47.5348354  47.3992696
  74.3024204  47.3474494  48.2470906  74.6430570  46.8885783  46.9997543
  74.2902960  47.4111361  47.4664447  71.7811318  46.8179514  46.3810358
  71.2182153  46.4052123  46.9050019  72.5432341  46.7432419  46.8003501
  71.8105766  46.7456914  46.5203358  73.3896298  38.8232250  30.5071957
  73.6292301  39.0310234  29.6947301  73.7112139  38.0189758  30.6160902
  73.4733456  38.7346351  30.4032511  68.6986588  30.7525646  34.3531495
  69.4532556  31.1203963  34.1148546  68.5214123  31.1265200  35.1210675
  68.7841066  30.8623833  34.4316384  67.3407309  48.8077535  38.9846988
  68.0427888  48.2929524  39.0419745  67.2604792  49.1351686  39.7893863
  67.4331070  48.7791761  39.1119780  68.3886216  39.0453122  48.1127403
  68.5606719  38.9359016  48.9612685  68.9255573  39.6907527  47.8758596
  68.4931220  39.1245123  48.2032500  67.0543653  33.1595964  31.0509608
  66.8719226  33.3767845  30.2250601  67.9169266  33.2734977  31.1068223
  67.1548242  33.2085862  30.9364095  67.2910788  45.4184762  42.7945902
  67.8309013  45.2755893  43.4649274  66.6080734  45.8181513  43.1629928
  67.2702941  45.4564433  42.9480324  72.7343372  30.1622375  34.0858632
  73.4629532  29.9838330  33.6396788  72.8238265  31.0040455  34.2965810
  72.8550034  30.2606254  34.0512150  76.7151672  41.0975763  37.9890926
  77.4709188  41.5307277  38.0279835  76.8213997  40.4480532  38.5625562
  76.8421843  41.0653246  38.0788952  74.3260917  46.9657373  50.0636479
  75.1101334  47.0788220  50.4292222  74.1257512  46.1398510  50.2595165
  74.4126943  46.8604092  50.1470866  66.6005680  36.4370137  29.5632081
  65.8863857  36.1508317  29.9754514  67.0849648  36.7766763  30.2038469
  66.5665043  36.4451787  29.7187716  67.4446539  35.1763431  45.5947331
  66.7518336  34.7060411  45.8408063  68.0606866  34.9501736  46.1689038
  67.4331069  35.0730563  45.7156484  74.4831311  48.8767475  43.7102935
  73.6846556  48.6366975  43.9676804  74.9317322  48.9281868  44.4569983
  74.4305922  48.8489866  43.8587859  73.7752998  44.9400091  29.9393890
  74.1904146  44.6085115  29.2478385  72.9444927  44.7068993  29.8114026
  73.7141006  44.8571347  29.8184737  66.1687098  39.1428835  46.7374176
  66.8927070  39.1281866  47.2239071  66.2703235  39.8524190  46.2396144
  66.2905307  39.2453538  46.7352963  73.5432047  42.6227920  51.6023123
  72.7505028  42.9371431  51.7875743  73.6580975  42.8379388  50.7643908
  73.4427458  42.7011756  51.5061458  74.4715840  42.5248123  46.5408420
  75.0454702  41.8875368  46.6956984  74.3930644  42.5252206  45.6718078
  74.5449075  42.4313235  46.4354831  76.4686388  41.1910651  29.1255091
  76.3866550  41.2612838  29.9910078  77.1066108  41.7540394  28.9338832
  76.5506225  41.2849622  29.2245041  69.8279559  40.9571388  38.5929617
  69.5698803  40.1243123  38.5660917  69.8828042  41.1829001  37.7522118
  69.7979337  40.8669160  38.4649754  74.9080609  33.0599839  38.6933710
  74.2036936  32.5709025  38.8517629  74.9565583  33.0722314  37.8222155
  74.8110661  32.9889487  38.5873050  68.8014271  38.5109151  39.0794512
  68.2263862  38.6701319  39.7158473  68.4249947  37.8744560  38.6162963
  68.6617083  38.4406964  39.1049071  72.4687560  36.9832500  43.9386891
  72.0801992  36.5586718  43.2839082  71.8042258  37.2314650  44.4463917
  72.3134487  36.9571221  43.9174759  76.2913921  30.6807129  41.4510875
  76.6724433  29.9985300  41.8378749  75.4877205  30.3916731  41.2686539
  76.2290383  30.5374177  41.4814931  73.5726498  41.2131105  32.1363698
  74.3867137  41.5045998  32.0246469  73.5085639  40.5590967  31.5621991
  73.6829237  41.1596300  32.0352535  69.4434406  44.6852622  37.2636010
  70.0808353  44.4464370  37.8087803  69.8689478  44.8889781  36.5289170
  69.6010572  44.6803632  37.2353167  70.0837221  39.9054912  31.6010899
  70.4682374  39.6862619  32.3527444  69.8348842  40.7317857  31.7311975
  70.1039294  39.9953058  31.7311975  70.2505762  33.1861327  51.3173483
  69.9359203  33.9560890  51.0543046  69.9295694  32.6231583  50.7325710
  70.1564681  33.2171596  51.1914833  71.8255878  45.1625045  38.9429796
  71.8994886  45.0000217  39.7971646  72.6425384  45.3515234  38.6990278
  71.9572237  45.1661787  39.0327822  67.8037659  31.5751849  36.9319680
  66.9360084  31.6474448  36.9977289  68.0912863  32.3773928  37.1207655
  67.7177407  31.7045996  36.9694446  76.9270547  31.7229708  45.2631001
  77.6724139  31.5339518  44.8494427  76.5107852  32.2487946  44.7044858
  76.9755522  31.7731853  45.1195575  70.3660464  48.1259788  33.6743269
  70.6558762  47.7348769  32.9502496  71.0963945  48.3076493  34.1148545
  70.5167348  48.0953602  33.6326076  70.9555209  42.9277534  44.7596400
  70.4566903  43.6393302  44.8381288  71.7655433  43.2478200  44.7214562
  71.0011316  43.0804382  44.7652968  68.3066379  50.1027170  36.7403419
  68.0866675  49.8124525  37.5330086  68.0860901  49.4442125  36.2121331
  68.2413974  49.9626879  36.7792328  78.0061224  37.3335270  39.3241103
  77.6625990  36.6125605  39.6748352  78.1054267  37.1249121  38.4819461
  77.9703267  37.1959474  39.2512783  70.4734335  51.4756560  35.5234111
  71.1258393  50.9433003  35.7525137  69.7759944  51.1225213  35.9101985
  70.4665053  51.3446083  35.6146279  69.8822267  35.7858578  50.0558698
  69.0722043  36.0916358  49.9448540  70.3596954  36.5064161  50.1711282
  69.8325746  35.9373179  50.0565769  68.7413827  45.0004299  40.3041601
  68.2194580  45.1404591  40.9893466  69.1287847  44.2414964  40.4943718
  68.7217527  44.9089823  40.4342678  65.7305011  35.0510108  34.3736556
  65.4429806  34.6811378  33.6368503  66.4175479  35.5204963  34.1120261
  65.7893908  35.0657077  34.2251632  74.9380832  46.7399759  34.2902170
  74.6967507  46.0067619  33.8829235  75.1182164  47.2886616  33.6368503
  74.9288456  46.7122150  34.1332393  70.1680152  42.0308318  35.7023092
  69.9722935  42.6383053  35.1083395  70.3914498  41.3376262  35.2214766
  70.1714793  42.0185844  35.5439173  68.5658682  38.9163056  35.8203961
  69.2881334  39.0804214  35.3607767  68.0866675  39.6372721  35.7143300
  68.6022413  39.0461286  35.7369575  76.5252190  35.2526855  41.2000645
  75.6863290  35.2788134  40.9638909  76.5956557  35.8997590  41.7805992
  76.4120583  35.3522981  41.2509762  66.2166299  41.3221129  44.9258100
  66.7287396  41.6005382  44.2766860  65.9302642  42.0610423  45.2920913
  66.2501162  41.4723482  44.8847978  74.9721468  32.1512232  35.9328261
  75.6747821  31.9519980  35.4548220  74.7065657  31.3788174  36.2397105
  75.0368100  32.0075198  35.9073703  63.3033205  35.8291320  35.2221837
  63.4049342  36.6317482  35.5502812  64.0989092  35.6278656  34.9244917
  63.4361111  35.9177219  35.2257192  69.7350024  33.4147517  44.9859142
  69.5433221  33.4302652  45.8358565  70.5848620  33.6111192  44.9625797
  69.8325746  33.4461868  45.1082437  64.1196937  35.9438499  42.9642958
  63.9782429  35.0922439  43.0887466  64.4037501  35.9867159  42.1405164
  64.1404783  35.8238249  42.8610583  74.2735530  37.7805589  37.1087447
  74.0270244  37.7001340  37.9424236  74.6020653  36.9959057  36.9149974
  74.2856773  37.6531854  37.2034970  78.1683578  44.4888948  40.8974228
  78.0297938  45.1869994  41.4022970  77.3883576  44.3337605  40.5410410
  78.0326805  44.5689115  40.9200502  76.5061664  40.7885324  47.1496610
  76.5009702  39.9165140  47.1539036  77.2122657  40.9873493  46.6766065
  76.6106668  40.6889198  47.0803645  70.2332557  40.5162307  46.5210430
  70.3775933  41.0963516  45.8853540  70.5808206  40.8938604  47.2260284
  70.3060018  40.6583012  46.5309425  72.4052474  39.7152476  44.3035561
  71.6575788  39.9083490  43.8983839  72.5594000  38.8897695  44.0659683
  72.3174902  39.6217587  44.2080967  71.8313613  48.8779722  44.6655947
  71.7557284  48.2088533  45.2206736  71.7603472  49.5797510  45.1796614
  71.8094219  48.8824630  44.8232796  72.6454251  33.6103027  45.1930965
  73.1026865  34.3427001  45.3203757  72.7210580  33.1869492  45.9518221
  72.7245221  33.6560265  45.3232042  64.8887243  33.8568846  46.2820409
  64.3529432  33.2449204  46.5981176  64.9505007  34.4316982  46.9354075
  64.8182875  33.8515774  46.4255836  77.1181577  26.7892902  39.0624808
  77.2365145  27.2469365  38.3292111  76.9443753  25.9838163  38.7761026
  77.1100748  26.7386674  38.9125742  72.4883860  47.3980721  35.4979553
  73.2533751  47.1290365  35.1762218  72.3861949  46.9130731  36.2149616
  72.5865355  47.2870286  35.5559381  70.5236629  35.6005131  42.0372789
  69.7332704  35.4196591  42.3590125  70.9197252  34.8232083  42.0203084
  70.4653505  35.4592591  42.0825337  75.0102520  44.4292905  27.4779503
  75.7775505  44.4893030  27.0685355  74.5633829  43.8573346  26.9935821
  75.0575947  44.3529481  27.3457213  75.9080316  43.2347561  39.7632235
  75.2325317  43.0032793  40.2645622  75.9172692  42.6268744  39.1374340
  75.8098820  43.1106486  39.7448387  73.0374460  38.0765390  46.5196288
  72.9733601  38.9375346  46.3916425  73.1771647  37.7597383  45.7191839
  73.0489930  38.1565556  46.3824501  77.9097050  46.0912693  31.9942413
  77.9916888  46.8979679  31.6703864  78.3946792  46.1108652  32.7183187
  77.9934208  46.2133355  32.0529312  71.7193553  40.7697529  40.6612491
  71.2955803  40.9702028  39.9251509  71.5438409  39.9226377  40.7736791
  71.6304434  40.6746310  40.5686181  71.2205247  52.2848042  43.1233948
  71.7101177  51.5858831  42.9409613  70.6489479  51.9871912  43.7110006
  71.2089777  52.1374266  43.1834989  67.0075998  41.2649580  36.0940463
  67.1640618  41.1996383  36.9496456  67.3476592  42.0398133  35.8819143
  67.0809233  41.3698779  36.1895058  73.5455143  40.6407464  34.9633827
  74.0870688  40.1377845  35.4272447  73.8601702  40.5872659  34.1523312
  73.6719540  40.5586885  34.9117639  77.4172250  44.8510111  52.0760739
  78.2307116  44.5795260  52.2365871  77.2567217  44.5517651  51.2720935
  77.5142199  44.7665037  51.9806145  71.7141593  46.0324816  32.2473855
  71.7834413  45.1739354  32.3866855  72.4930048  46.2496696  31.9192879
  71.8394443  45.9377679  32.2191012  74.6944412  35.5343768  45.0156127
  74.9086382  34.8954683  44.4619481  74.0778312  35.9789592  44.5863989
  74.6349742  35.5053912  44.8706558  76.1049080  48.4562517  36.4610348
  75.7128872  48.1529232  35.7433214  76.2602153  49.2931607  36.2715302
  76.0702670  48.5346354  36.3266845  63.5810260  38.4484531  36.4101231
  63.9609225  38.8669076  35.7461498  63.0065625  39.0297987  36.7170074
  63.5521585  38.5962390  36.3577972  76.8583500  37.1432834  45.9539434
  76.0460182  36.8358724  46.0352607  77.3173435  36.6631834  46.5182146
  76.8063885  37.0269326  46.0494028  76.2688755  45.0212506  36.4016379
  75.9103410  45.1927149  37.1780411  75.7827466  45.4825711  35.8444377
  76.1447452  45.1151477  36.4341648  74.0859141  28.6443704  40.0043470
  73.2152699  28.6182425  39.9576779  74.3399482  28.4720896  39.1869316
  73.9952701  28.6153848  39.8763607  71.0577120  40.7011671  28.9416613
  71.3469645  41.4776554  29.2160187  71.1448919  40.1900402  29.6431112
  71.1131377  40.7403589  29.0859111  73.9537008  38.5492905  50.7368137
  74.4236639  39.1735021  51.1236011  73.9998888  37.8809881  51.2961351
  74.0304884  38.5427585  50.8768208  71.1108282  30.6549933  41.4616940
  70.5946770  29.9630124  41.5868519  70.5502210  31.3220710  41.4079539
  70.9514795  30.6513190  41.4723006  73.1800515  31.1942893  43.2909793
  72.7932268  31.2191924  44.0723323  72.6933452  30.6284571  42.8384310
  73.0513024  31.1138643  43.3397697  77.4293494  45.9116402  47.3483579
  78.0673215  45.4176597  47.0146036  76.7867586  45.8393802  46.7635806
  77.4287721  45.8275410  47.2125934  72.8457657  28.0809878  45.5820053
  73.4750775  28.6170178  45.3041123  73.0143519  27.9887237  46.4333618
  72.9635451  28.1471240  45.6668581  72.6471572  32.8681073  47.8546464
  73.4745001  32.5966222  47.9105079  72.6679418  33.6641915  48.2110283
  72.7724422  32.9460827  47.9161647  77.4847751  46.6036210  43.9888936
  78.2740129  46.2525275  44.1091018  77.6591349  47.4172598  43.7265570
  77.6268033  46.6722067  43.9676804  67.2241061  40.0144936  41.0416725
  66.3829068  39.9148810  41.2495619  67.4331069  40.7840416  41.3931046
  67.1305754  40.1136979  41.1244040  64.7016628  37.6364473  38.8701476
  64.3073326  37.7107484  38.0951585  64.1456745  38.0222419  39.4209837
  64.5619441  37.7046247  38.8369136  76.3381575  30.6145767  38.5505355
  76.5431169  30.5468074  39.3962352  76.0107999  31.4204588  38.4826532
  76.3196823  30.7231707  38.6665010  71.0357726  37.9426335  40.2914323
  70.7320864  37.3882323  40.8924730  70.3337147  38.1218545  39.8042357
  70.8873936  37.8871117  40.3084028  70.0923823  35.2526855  34.8559024
  70.3683558  34.5345767  34.4436592  70.6922493  35.8511775  34.6480131
  70.2217088  35.2347225  34.7639786  69.0976077  45.1576056  44.9986420
  68.9896432  45.1678118  45.8648478  69.3071859  45.9830836  44.8091374
  69.1126188  45.2817130  45.0990512  73.5934344  32.9240372  33.1305619
  74.0478090  33.0950932  33.8553464  74.0674390  32.3108483  32.7303395
  73.7302664  32.8591257  33.1779381  67.1149869  42.4088698  42.4608358
  66.5237803  43.0498196  42.4311373  67.8770893  42.8326315  42.4339657
  67.1398130  42.5664536  42.4523505  67.5110492  33.5690696  43.1276376
  67.9711974  33.6429625  43.8651499  67.5566599  34.3671950  42.7776197
  67.5861047  33.6984843  43.1849132  69.1593842  34.2357391  47.6948403
  68.7679407  33.5890738  48.1304180  69.3279705  34.8268826  48.3142658
  69.1264752  34.2271658  47.8511109  76.8739386  47.8598010  39.8940382
  76.6759074  48.3488824  39.1996594  76.2527097  48.0639251  40.4724516
  76.7526950  47.9614548  39.8763606  70.9347364  39.6282906  34.2350627
  71.6789409  40.0157183  34.4733577  71.0808060  38.7840332  34.3991114
  71.0657949  39.5613379  34.2944596  72.8526939  31.4233165  39.2682488
  72.0062984  31.5955973  39.1423838  72.8498072  30.6182509  39.6048316
  72.7274089  31.3294194  39.2993615  73.9225240  35.2008380  40.1344546
  73.4485194  34.6750142  40.6449857  74.2943376  34.6537852  39.5659408
  73.9075129  35.0424376  40.1259693  64.2998270  37.1979886  45.5028092
  65.1623883  37.0975596  45.4165422  63.9690053  36.6174596  44.9413664
  64.3783466  37.0971513  45.4073498  75.8508739  36.0944934  33.1970300
  75.3231758  36.1773678  32.5076009  76.3104448  36.8362806  33.1934944
  75.8410590  36.2165597  33.0944995  67.6600056  36.0222335  42.1638510
  67.0353126  36.0340727  41.5564463  67.3245651  36.4982510  42.8129750
  67.5185548  36.0940852  42.1695079  67.8441805  34.3647454  28.2211195
  67.4954609  35.0167179  28.6842744  67.3638250  34.3504567  27.4935066
  67.7212048  34.4590507  28.1822286  75.4045822  44.6648498  32.3279957
  76.1280021  45.1306611  32.1844530  74.9646413  44.7322107  31.5777554
  75.4461514  44.7432334  32.1964738  74.5731977  41.5246040  43.5780646
  73.9588970  40.9804090  43.8729281  75.0899262  41.0110277  43.0986462
  74.5587639  41.3682449  43.5504874  73.8128274  42.5950310  41.3124944
  73.3855882  41.9700029  40.8790380  73.8053219  42.3125232  42.1383952
  73.7487415  42.4603091  41.3704772  66.9290801  37.6315483  44.3813378
  67.0884288  36.8758807  44.7865100  66.7483695  38.1806423  45.0354116
  66.9256160  37.6009297  44.5376084  74.8711104  29.7976719  44.9364168
  74.3751665  29.9940393  44.2455735  75.6280166  30.1969387  44.7652970
  74.9097929  29.8854453  44.8084305  72.1413984  33.4719065  41.5267478
  72.1656471  32.9379177  40.8380258  72.3925457  32.9636373  42.1893069
  72.1823903  33.3179969  41.5232123  68.4215306  32.1989883  40.9073223
  68.4613678  32.6999089  41.6207930  67.5964971  32.2900277  40.6379146
  68.3054832  32.2871699  40.9723761  70.6044919  41.7650623  49.0093517
  69.7540549  41.9022337  49.1451162  70.7673047  41.0314401  49.4541219
  70.5028782  41.6764724  49.0949117  69.8429669  38.7150393  43.2047122
  69.0121599  38.8824211  42.9982370  69.7881187  38.3386343  43.9896007
  69.7119084  38.6840124  43.2895650  67.6513453  32.2059286  48.8403533
  68.2766156  31.6621418  49.1132965  67.1963933  31.7254203  48.2711323
  67.6761713  32.0548767  48.7965126  68.2165713  36.9905984  33.7337240
  68.3568674  37.4878448  34.4365881  68.7148246  36.2892279  33.8751453
  68.3106794  36.9607963  33.8588819  68.2465936  37.8573095  31.0629816
  68.8811015  38.4533520  30.9979278  68.3291546  37.5576553  31.8775686
  68.3522487  37.9014003  31.1732903  69.8244919  33.7887071  31.0375258
  70.1460760  33.3090153  30.3834521  70.0871862  34.5986717  30.8466070
  69.9110944  33.8376969  30.9130750  73.0541891  44.8105945  44.5574074
  72.5466982  45.3641792  45.0014705  72.7568537  44.8714235  43.7392849
  72.9346776  44.9012256  44.5022531  75.2204074  33.1759265  43.3998737
  75.6459145  32.7231791  42.7882264  74.6061067  32.6219335  43.6763525
  75.1932719  33.0273241  43.3503763  75.6649672  48.7269203  32.4878018
  74.9478981  48.5530065  32.0225255  76.3156409  48.4921775  31.9553504
  75.6551522  48.6664995  32.3407236  73.6598296  29.6474364  36.8089314
  73.0166614  29.4972011  37.3774453  73.3197703  29.4016710  36.0438419
  73.5143374  29.5886487  36.7792330  78.2497643  37.6033791  36.2319323
  77.5788833  38.1463494  36.1032389  78.9437393  38.0728647  35.9901018
  78.2526510  37.7532062  36.1774851  72.2984377  49.7430503  41.4631081
  72.0750031  48.9849333  41.8315108  71.8094220  49.7728524  40.7411521
  72.1927826  49.6352728  41.4107822  78.4125770  34.0589675  39.1409696
  78.7653380  33.6319398  39.8155495  77.5540572  33.9740518  39.2710773
  78.3375215  33.9834416  39.2604707  67.1109455  36.6897195  37.1992543
  66.3921444  37.1061327  37.4665406  67.4821818  37.2551433  36.6484181
  67.0601387  36.8346476  37.1575350  76.4109036  37.3225043  43.0894538
  76.3906963  37.1408339  43.9429317  76.4588237  38.1937062  43.0654122
  76.4143677  37.4241582  43.2117833  74.3555366  43.9112235  49.0143015
  74.3151221  43.2661912  48.4288171  75.1678684  43.8548853  49.3268427
  74.4698519  43.8071202  48.9739964  70.9462834  49.9630961  38.9168166
  70.5323232  49.3005092  38.5272008  71.6310208  50.1108820  38.3963860
  70.9861205  49.8871620  38.7824663  74.3128128  49.1221047  39.6691783
  73.9144411  49.2323317  38.9012603  73.6979347  49.3303113  40.2518342
  74.1627017  49.1694615  39.6423082  72.8856030  35.7295194  32.5365922
  72.2920869  36.0512191  31.9850489  72.9231307  34.8836290  32.3287028
  72.8030419  35.6519523  32.4248694  75.7613846  35.6874699  35.9667672
  75.5327539  35.7107400  35.1246031  76.0211922  34.8632166  36.0862683
  75.7660034  35.5690779  35.8592870  70.0433075  37.5409172  45.5692773
  69.5311978  36.9330355  45.9277804  69.8712571  38.2565765  46.0366748
  69.9422712  37.5572471  45.6908996  64.8898789  35.9846747  48.2195134
  64.7201380  36.6448122  47.6743341  64.4464739  36.1953309  48.9407624
  64.7998123  36.1132729  48.2456764  68.8158609  34.2251245  37.2621868
  69.2915975  34.5868325  36.6272049  68.3147208  34.8807713  37.5422011
  68.8123968  34.3745434  37.2098609  73.9202145  35.4633417  48.0095028
  74.4773575  35.2347226  47.3773494  73.5963210  36.2239082  47.7330241
  73.9548555  35.5417253  47.8751525  71.6385262  38.5501070  48.9747035
  72.3896589  38.8652747  49.2886590  71.8307839  38.3480241  48.1480957
  71.7776676  38.5668452  48.8990431  70.8585262  36.3692445  30.6295252
  71.2384227  36.3872074  29.8446367  70.1177858  36.8146434  30.5086099
  70.8054100  36.4374220  30.4958820  78.4870552  34.6774636  36.2170831
  78.4864779  34.5223293  37.0755107  78.2826732  35.5237623  36.1612216
  78.4570330  34.7795257  36.3358770  76.2111404  39.3572138  39.8707038
  76.7065070  38.6395133  39.8311058  75.4011180  39.0542936  39.7561525
  76.1655298  39.2069784  39.8480764  71.6570016  43.2069951  32.0204042
  70.8481339  42.8836625  31.9737352  72.1644925  42.5003173  31.9532291
  71.6119683  43.0551268  32.0034337  78.2763223  42.1075826  42.5584166
  78.7018295  41.5850247  42.0054591  77.9120143  42.7056663  42.0372789
  78.2849826  42.1186053  42.3993176  67.9117303  50.4040043  41.3181512
  68.2263862  51.2176431  41.3259294  68.3210716  50.0190262  41.9863671
  68.0185401  50.4668745  41.4185604  74.8641823  45.8210090  38.8885324
  75.3353001  46.5350352  39.0575309  75.2002001  45.2208840  39.4245193
  74.9836938  45.8381554  38.9917700  76.9518807  47.4311403  51.0677396
  77.0615773  46.6419964  51.4234143  77.2809704  47.3417339  50.2651734
  77.0171213  47.3017256  51.0019787  71.7811318  30.5937560  45.8443419
  71.9139223  29.7968554  46.1724394  72.1656470  31.1203963  46.4241694
  71.8567647  30.5537477  45.9786922  75.5015769  45.6128024  45.6513017
  74.9536715  44.9885908  45.3833082  75.9628798  45.8022296  44.9357096
  75.4882979  45.5487074  45.5063448  74.8543673  27.5167887  42.4424512
  74.0489637  27.4065616  42.7592350  74.7250408  27.6180342  41.5854378
  74.7163806  27.5151557  42.3632552  78.3109633  33.6813378  43.0364209
  77.7272622  34.1822585  42.6241776  78.6313928  33.1742935  42.4028532
  78.2722809  33.6805213  42.8822716  70.8504433  32.5953973  33.3122884
  71.6720127  32.7652286  33.0704579  70.3874084  32.7501234  32.5889181
  70.9035595  32.6435706  33.1694528  69.4399764  30.5896735  44.0921312
  69.9844177  30.2487862  44.6825654  69.4936700  31.4482197  44.2342597
  69.5288884  30.6651995  44.2003186  75.0674095  46.6179097  42.1822358
  75.8872469  46.4742063  42.4438653  74.7868173  47.2425296  42.7238796
  75.1470839  46.6889449  42.3010297  73.8978371  58.9320996  37.5570502
  73.6628555  58.0988648  37.4502771  74.0364012  59.2125662  36.7431703
  73.8834033  58.8504499  37.4212857  76.1968458  51.1006727  40.4554810
  75.5773490  50.5099374  40.2864825  76.0952322  51.6918162  39.8219133
  76.0906134  51.1010809  40.3359799  75.9237591  54.6459008  42.6998379
  75.7996288  55.2321454  43.3348198  76.5755876  54.1519204  43.0010654
  76.0011241  54.6597813  42.8384308  75.4595695  63.8106667  38.8326708
  74.9763274  64.5357156  38.8086292  76.2719014  64.1082797  38.9436866
  75.5086443  63.9609020  38.8453988  78.0276236  48.6781272  31.0509608
  77.8451809  48.8953153  30.2250601  78.8901849  48.7920285  31.1068223
  78.1280826  48.7271170  30.9364095  77.6390668  60.5169195  38.4932596
  78.4779568  60.7492127  38.5406358  77.6702437  59.6473506  38.4239632
  77.7672386  60.4226141  38.4897241  78.2643371  60.9370070  42.7945902
  78.8041596  60.7941201  43.4649274  77.5813317  61.3366821  43.1629928
  78.2435525  60.9749741  42.9480324  73.6680516  57.1570361  42.9480323
  73.4018931  56.3409477  43.1071314  73.6819080  57.2023516  42.0775839
  73.6305239  57.0427265  42.8433805  77.5738263  51.9555445  29.5632081
  76.8596440  51.6693625  29.9754514  78.0582232  52.2952071  30.2038469
  77.5397627  51.9637095  29.7187716  74.0773930  57.9429140  40.2292068
  73.8949503  57.9176026  39.3764360  74.8123599  58.4128078  40.2680976
  74.1587994  58.0090502  40.1089986  77.1419682  54.6614143  46.7374176
  77.8659654  54.6467174  47.2239071  77.2435818  55.3709498  46.2396144
  77.2637891  54.7638846  46.7352963  74.0444840  54.8222641  40.3791134
  74.6218343  54.6859092  41.0183380  73.3458902  54.3658425  40.6336719
  74.0265862  54.7344907  40.5113424  69.5203673  53.6734534  37.0938953
  69.6063925  53.2966402  37.8752483  70.1479471  53.2994979  36.6158911
  69.6260224  53.5620016  37.1384430  75.1079632  62.4426267  41.1470313
  75.1483777  62.7141118  40.3190093  75.6674156  62.9668175  41.5628101
  75.1962978  62.5602022  41.0862202  76.5594218  61.0268216  35.9724239
  75.7332336  61.2729953  35.8458518  76.6206210  60.9480296  36.8386297
  76.4468385  61.0513165  36.0813184  76.7037594  50.5695416  34.3736556
  76.4162390  50.1996686  33.6368503  77.3908062  51.0390271  34.1120261
  76.7626491  50.5842385  34.2251632  77.1898882  56.8406437  44.9258100
  77.7019979  57.1190690  44.2766860  76.9035225  57.5795731  45.2920913
  77.2233746  56.9908790  44.8847978  74.2765789  51.3476628  35.2221837
  74.3781925  52.1502790  35.5502812  75.0721676  51.1463964  34.9244917
  74.4093694  51.4362527  35.2257192  75.0929521  51.4623807  42.9642958
  74.9515013  50.6107747  43.0887466  75.3770084  51.5052467  42.1405164
  75.1137367  51.3423557  42.8610583  75.8619826  49.3754154  46.2820409
  75.3262016  48.7634512  46.5981176  75.9237591  49.9502290  46.9354075
  75.7915459  49.3701082  46.4255836  77.9808582  56.7834888  36.0940463
  78.1373201  56.7181691  36.9496456  78.3209175  57.5583441  35.8819143
  78.0541817  56.8884086  36.1895058  74.5542843  53.9669839  36.4101231
  74.9341808  54.3854384  35.7461498  73.9798208  54.5483294  36.7170074
  74.5254168  54.1147698  36.3577972  78.1973645  55.5330244  41.0416725
  77.3561652  55.4334118  41.2495619  78.4063653  56.3025724  41.3931046
  78.1038338  55.6322287  41.1244040  75.6749212  53.1549780  38.8701476
  75.2805910  53.2292792  38.0951585  75.1189329  53.5407727  39.4209837
  75.5352024  53.2231555  38.8369136  78.0882453  57.9274006  42.4608358
  77.4970386  58.5683504  42.4311373  78.8503476  58.3511623  42.4339657
  78.1130714  58.0849844  42.4523505  78.4843076  49.0876004  43.1276376
  78.9444557  49.1614933  43.8651499  78.5299182  49.8857258  42.7776197
  78.5593631  49.2170151  43.1849132  75.2730853  52.7165194  45.5028092
  76.1356467  52.6160903  45.4165422  74.9422636  52.1359904  44.9413664
  75.3516050  52.6156821  45.4073498  78.6332639  51.5407643  42.1638510
  78.0085710  51.5526035  41.5564463  78.2978234  52.0167818  42.8129750
  78.4918131  51.6126160  42.1695079  78.8174388  49.8832762  28.2211195
  78.4687192  50.5352487  28.6842744  78.3370834  49.8689875  27.4935066
  78.6944632  49.9775815  28.1822286  75.3458315  59.6008103  43.6042274
  74.8158240  58.9100542  43.6537249  75.6183408  59.5918289  42.7754983
  75.3083037  59.4975235  43.4889690  77.9023385  53.1500791  44.3813378
  78.0616872  52.3944115  44.7865100  77.7216278  53.6991731  45.0354116
  77.8988744  53.1194605  44.5376084  70.6254157  56.2735868  40.9610623
  70.5197606  56.2282712  40.0962707  69.8754377  56.6189648  41.2424907
  70.4989760  56.3176776  40.8747952  75.7251507  55.5726244  34.3319362
  76.2343736  56.1690751  34.7130668  76.1985779  55.3052218  33.6495782
  75.8694883  55.6212059  34.2873885  78.0842039  52.2082503  37.1992543
  77.3654028  52.6246635  37.4665406  78.4554401  52.7736741  36.6484181
  78.0333971  52.3531784  37.1575350  75.8631373  51.5032055  48.2195134
  75.6933963  52.1633430  47.6743341  75.4197323  51.7138616  48.9407624
  75.7730707  51.6318037  48.2456764  72.7633437  54.4078921  43.4783624
  72.2160157  53.7379566  43.5964493  73.5525816  54.0408769  43.5427092
  72.7985621  54.2543907  43.5052325  71.5220407  53.6199729  40.6329647
  71.3442168  53.1676338  41.3584563  71.2339429  54.4225890  40.8168125
  71.4533360  53.6722286  40.7673150  73.2592877  56.1527452  37.7451406
  72.3938396  56.1413143  37.6334178  73.3591693  55.9657675  38.5922546
  73.1467044  56.1233514  37.8540351  76.2262907  59.8698459  40.9660120
  76.8307764  59.8294294  40.3373941  76.0190219  60.7169611  40.9964176
  76.2851804  59.9886462  40.8776237  71.4614189  58.8533077  40.8359043
  71.3638467  58.0429348  41.1449100  72.2443059  58.8324870  40.4505312
  71.5630326  58.7300167  40.8245906  56.8714227   8.7989833  22.5995443
  56.1197127   8.4205371  22.3711488  57.3200239   8.8308266  21.8514253
  56.8263894   8.7475440  22.4552945  62.3239187   9.2215202  18.0280990
  61.9890555   9.8992124  17.5925212  62.8366057   8.8320513  17.4397862
  62.3504768   9.2639780  17.8767781  61.8643478  11.1729471  23.9692102
  62.2482858  11.7416369  23.4296877  61.8002620  10.4478981  23.4897918
  61.9116906  11.1504934  23.8185964  58.4498983   8.8108225  24.8658215
  58.5509346   8.0008579  25.1755343  57.8540729   8.7165171  24.2357894
  58.3771522   8.6773253  24.8184454  58.2899723  13.7285814  26.2673071
  58.9337178  14.1698978  26.6569230  58.6155978  12.9239240  26.1803330
  58.4331552  13.6751009  26.3118549  51.6464028   4.8328511  24.4910549
  51.4114212   3.9996164  24.3842818  51.7849668   5.1133177  23.6771750
  51.6319690   4.7512015  24.3552904  58.9920303   6.7397789  21.6392933
  59.3136144   7.2802996  21.0354241  59.6392399   6.1694560  21.7715223
  59.1346358   6.7356964  21.5699969  61.2367680   6.5683146  28.5632829
  61.5190923   5.7734552  28.3419585  61.9653841   7.0463734  28.5837890
  61.3857244   6.5217743  28.5335845  53.2081352   9.7114182  25.7666755
  52.7248931  10.4364672  25.7426339  54.0204671  10.0090312  25.8776913
  53.2572100   9.8616536  25.7794034  59.2795506   8.5046363  28.3716570
  58.7622448   8.1453778  27.7677878  59.9769898   7.9808537  28.3822636
  59.3061087   8.3744051  28.2846828  62.9359098   8.9541177  34.3332743
  63.0242444   8.7667317  35.1810953  63.3648811   8.3078606  33.9337590
  63.0121201   8.8304185  34.4004494  60.5029558   8.2372337  33.3150405
  59.9400393   7.8244947  33.8390066  61.2650582   8.1625242  33.7343548
  60.5324007   8.1649737  33.4543405  56.0625550  10.2270358  25.9187035
  56.7646129   9.7122347  25.9759792  55.9823033  10.5544509  26.7233910
  56.1549310  10.1984584  26.0459827  55.3876325   6.4176710  25.4272643
  56.2265224   6.6499643  25.4746405  55.4188094   5.5481021  25.3579679
  55.5158043   6.3233656  25.4237288  56.0129028   6.8377585  29.7285949
  56.5527253   6.6948716  30.3989321  55.3298974   7.2374336  30.0969975
  55.9921182   6.8757256  29.8820370  63.0479158   8.3850196  36.9976526
  63.8319574   8.4981044  37.3632268  62.8475752   7.5591333  37.1935212
  63.1345183   8.2796915  37.0810912  51.4166173   3.0577876  29.8820370
  51.1504588   2.2416993  30.0411360  51.4304737   3.1031032  29.0115886
  51.3790895   2.9434781  29.7773852  63.2049551  10.2960298  30.6442982
  62.4064797  10.0559798  30.9016851  63.6535562  10.3474691  31.3910030
  63.1524162  10.2682689  30.7927906  51.8259587   3.8436655  27.1632114
  51.6435160   3.8183541  26.3104407  52.5609256   4.3135593  27.2021023
  51.9073651   3.9098018  27.0430033  58.1652647   6.1045446  24.1976056
  58.8026593   5.8657193  24.7427850  58.5907718   6.3082604  23.4629217
  58.3228813   6.0996456  24.1693214  52.8565289   8.3433782  28.0810360
  52.8969434   8.6148633  27.2530140  53.4159813   8.8675690  28.4968148
  52.9448635   8.4609537  28.0202248  60.5474118   6.5817868  25.8769843
  60.6213127   6.4193040  26.7311693  61.3643625   6.7708058  25.6330324
  60.6790477   6.5854610  25.9667868  54.3079875   6.9275731  22.9064286
  53.4817993   7.1737468  22.7798565  54.3691866   6.8487812  23.7726344
  54.1954042   6.9520680  23.0153231  59.0878704   9.5452611  20.6083316
  59.3777003   9.1541593  19.8842543  59.8182185   9.7269316  21.0488591
  59.2385588   9.5146425  20.5666123  57.0284620  11.5219994  23.6743466
  56.8084915  11.2317348  24.4670133  56.8079142  10.8634949  23.1461378
  56.9632214  11.3819702  23.7132375  59.1952575  12.8949384  22.4574158
  59.8476634  12.3625826  22.6865184  58.4978184  12.5418036  22.8442032
  59.1883293  12.7638907  22.5486326  56.1433840   5.2488561  21.8641533
  56.8979808   5.6301600  22.0776995  55.5504453   5.6999705  22.3188229
  56.1670554   5.3717389  21.9624411  57.4632067   6.4197123  27.2381648
  56.9412820   6.5597414  27.9233513  57.8506087   5.6607787  27.4283765
  57.4435768   6.3282646  27.3682724  63.6599072   8.1592582  21.2242217
  63.4185748   7.4260442  20.8169282  63.8400405   8.7079439  20.5708550
  63.6506696   8.1314973  21.0672440  58.0278552  10.1257903  30.3211503
  58.1768116   9.5660818  29.6684908  58.8078554  10.2049904  30.7044022
  58.1652646  10.0543468  30.2808453  60.5531853  10.2972545  31.5995994
  60.4775524   9.6281356  32.1546783  60.4821712  10.9990334  32.1136661
  60.5312460  10.3017453  31.7572842  61.2102100   8.8173544  22.4319600
  61.9751991   8.5483188  22.1102264  61.1080190   8.3323555  23.1489663
  61.3083595   8.7063109  22.4899428  59.9423487  13.7040865  30.0573995
  60.4319418  13.0051654  29.8749660  59.3707720  13.4064735  30.6450052
  59.9308017  13.5567089  30.1175036  60.4359833   7.4517639  19.1813902
  60.5052653   6.5932177  19.3206902  61.2148288   7.6689520  18.8532926
  60.5612683   7.3570503  19.1531059  64.8267321   9.8755340  23.3950395
  64.4347112   9.5722055  22.6773261  64.9820393  10.7124430  23.2055349
  64.7920911   9.9539177  23.2606892  57.8194318   6.5768879  31.9326467
  57.7114673   6.5870941  32.7988525  58.0290099   7.4023659  31.7431421
  57.8344429   6.7009954  32.0330559  55.8368110   3.8281521  29.3948405
  55.2456043   4.4691019  29.3651420  56.5989133   4.2519138  29.3679704
  55.8616370   3.9857360  29.3863552  65.5957626   9.2790833  26.8280429
  65.3977315   9.7681647  26.1336641  64.9745337   9.4832074  27.4064563
  65.4745190   9.3807371  26.8103652  53.0943972   5.5015619  30.5382321
  52.5643896   4.8108058  30.5877296  53.3669065   5.4925804  29.7095030
  53.0568694   5.3982751  30.4229737  48.3739814   2.1743383  27.8950669
  48.2683263   2.1290227  27.0302753  47.6240034   2.5197163  28.1764954
  48.2475417   2.2184291  27.8087999  61.7760132   6.2298768  31.4914121
  61.2685223   6.7834615  31.9354752  61.4786778   6.2907058  30.6732896
  61.6565017   6.3205079  31.4362578  64.3867912  10.1462026  19.4218065
  63.6697222   9.9722888  18.9565302  65.0374650   9.9114598  18.8893551
  64.3769762  10.0857818  19.2747283  61.0202617  11.1623327  28.3971128
  60.7968271  10.4042156  28.7655154  60.5312460  11.1921348  27.6751568
  60.9146066  11.0545551  28.3447869  59.6681074  11.3823785  25.8508213
  59.2541472  10.7197915  25.4612054  60.3528448  11.5301643  25.3303907
  59.7079446  11.3064443  25.7164710  63.0346368  10.5413870  26.6031829
  62.6362651  10.6516140  25.8352650  62.4197588  10.7495936  27.1858389
  62.8845257  10.5887438  26.5763129  63.5860063   7.2402913  25.8225371
  64.0571241   7.9543176  25.9915356  63.9220242   6.6401663  26.3585240
  63.7055178   7.2574377  25.9257747  65.6737048   8.8504226  38.0017443
  65.7834013   8.0612787  38.3574190  66.0027944   8.7610163  37.1991781
  65.7389454   8.7210079  37.9359834  53.9748564   5.7705975  27.9000167
  54.5793421   5.7301809  27.2713988  53.7675876   6.6177127  27.9304223
  54.0337461   5.8893977  27.8116284  63.7892336   8.0371920  29.1162405
  64.6090710   7.8934886  29.3778700  63.5086413   8.6618119  29.6578842
  63.8689079   8.1082272  29.2350344  49.2099846   4.7540592  27.7699090
  49.1124124   3.9436864  28.0789147  49.9928716   4.7332386  27.3845358
  49.3115982   4.6307682  27.7585953  73.4605671  14.7812423  26.8358211
  72.6043567  14.9420921  26.8867328  73.5073325  13.9104487  26.8563272
  73.3404782  14.6763225  26.8464277  67.8446811  24.3175141  22.5995443
  67.0929710  23.9390679  22.3711488  68.2932822  24.3493574  21.8514253
  67.7996478  24.2660748  22.4552945  76.7699388  21.0498948  36.4418667
  77.4766155  20.5550979  36.5705602  76.9587323  21.4908030  35.7121325
  76.9027293  21.0417299  36.3527713  73.2971771  24.7400510  18.0280990
  72.9623139  25.4177432  17.5925212  73.8098641  24.3505821  17.4397862
  73.3237352  24.7825088  17.8767781  72.8376062  26.6914779  23.9692102
  73.2215441  27.2601677  23.4296877  72.7735203  25.9664289  23.4897918
  72.8849489  26.6690242  23.8185964  76.3057492  16.8404467  29.4789863
  76.8513452  17.5189553  29.5383833  76.2474368  16.6991927  28.6191444
  76.3773406  16.9196468  29.3601924  69.4231567  24.3293533  24.8658215
  69.5241930  23.5193887  25.1755343  68.8273312  24.2350479  24.2357894
  69.3504106  24.1958561  24.8184454  78.0822561  18.2689074  20.3523591
  77.9662087  19.0196760  20.7815729  78.8778447  18.0113027  20.6019678
  78.1827150  18.3423921  20.4527682  69.2632306  29.2471122  26.2673071
  69.9069762  29.6884286  26.6569230  69.5888562  28.4424548  26.1803330
  69.4064135  29.1936317  26.3118549  62.6196611  20.3513819  24.4910549
  62.3846796  19.5181472  24.3842818  62.7582252  20.6318485  23.6771750
  62.6052274  20.2697323  24.3552904  64.9186699  12.5199550  27.3894857
  64.2991730  11.9292197  27.2204872  64.8170562  13.1110985  26.7559180
  64.8124374  12.5203632  27.2699846  69.9652886  22.2583097  21.6392933
  70.2868727  22.7988304  21.0354241  70.6124983  21.6879868  21.7715223
  70.1078941  22.2542272  21.5699969  72.0154594  14.2599092  21.7227320
  72.7134759  14.4387219  22.2148783  72.3306927  13.7369431  21.0997709
  72.1649931  14.2092864  21.7029330  64.6455832  16.0651832  29.6338426
  64.5214528  16.6514277  30.2688245  65.2974116  15.5712027  29.9350701
  64.7229481  16.0790636  29.7724355  72.2042530  20.6469537  21.7107111
  72.6436165  20.0386637  22.1561884  72.0547193  20.2676910  20.9392576
  72.2463995  20.5008008  21.6626279  69.6714173  19.2413548  28.9125937
  70.3163175  18.7485992  28.5936885  69.9115950  19.3838335  29.7392015
  69.8024758  19.1890991  28.9875470  72.2100264  22.0868454  28.5632829
  72.4923507  21.2919860  28.3419585  72.9386424  22.5649042  28.5837890
  72.3589828  22.0403051  28.5335845  70.1881458   9.6291488  25.8048594
  69.8584788  10.0802632  25.1352293  69.5126460   9.5507652  26.3521601
  70.0391894   9.6842623  25.7871818  75.8051866  18.9996718  18.6637881
  75.7203161  19.8557685  18.8087449  76.2936249  18.7241042  19.3320040
  75.8640763  19.0854039  18.7839962  76.7370299  15.6181512  20.1635616
  76.2081771  15.8341146  20.8232922  77.2595319  16.3117651  20.0836585
  76.7358752  15.7524649  20.2491215  68.6269907  19.5144729  18.9643084
  68.0427122  20.0194760  19.3708948  68.2240002  19.2887116  18.2239676
  68.4809211  19.5552977  18.9148109  64.1813936  25.2299490  25.7666755
  63.6981514  25.9549980  25.7426339  64.9937254  25.5275620  25.8776913
  64.2304684  25.3801844  25.7794034  70.2528090  24.0231671  28.3716570
  69.7355032  23.6639086  27.7677878  70.9502481  23.4993845  28.3822636
  70.2793671  23.8929359  28.2846828  73.9091682  24.4726485  34.3332743
  73.9975028  24.2852625  35.1810953  74.3381394  23.8263914  33.9337590
  73.9853784  24.3489492  34.4004494  71.4762142  23.7557645  33.3150405
  70.9132976  23.3430255  33.8390066  72.2383165  23.6810550  33.7343548
  71.5056590  23.6835045  33.4543405  67.0358133  25.7455666  25.9187035
  67.7378712  25.2307655  25.9759792  66.9555616  26.0729817  26.7233910
  67.1281894  25.7169892  26.0459827  68.0837040  15.9831253  35.0467450
  68.2557543  15.8737147  35.8952732  68.6206397  16.6285658  34.8098642
  68.1882044  16.0623255  35.1372547  66.7494477  10.0974096  17.9849655
  66.5670050  10.3145977  17.1590648  67.6120090  10.2113108  18.0408270
  66.8499066  10.1463994  17.8704142  66.3608909  21.9362018  25.4272643
  67.1997808  22.1684951  25.4746405  66.3920678  21.0666329  25.3579679
  66.4890626  21.8418964  25.4237288  66.9861612  22.3562893  29.7285949
  67.5259836  22.2134024  30.3989321  66.3031558  22.7559644  30.0969975
  66.9653765  22.3942564  29.8820370  76.4102496  18.0353894  24.9230973
  77.1660011  18.4685408  24.9619882  76.5164821  17.3858663  25.4965609
  76.5372667  18.0031378  25.0128999  74.0211741  23.9035504  36.9976526
  74.8052158  24.0166352  37.3632268  73.8208336  23.0776641  37.1935212
  74.1077767  23.7982223  37.0810912  62.3898757  18.5763184  29.8820370
  62.1237172  17.7602301  30.0411360  62.4037321  18.6216339  29.0115886
  62.3523479  18.4620089  29.7773852  66.2956504  13.3748268  16.4972128
  65.5814681  13.0886448  16.9094561  66.7800472  13.7144894  17.1378516
  66.2615867  13.3829918  16.6527763  67.1397363  12.1141562  32.5287378
  66.4469160  11.6438542  32.7748109  67.7557690  11.8879867  33.1029085
  67.1281893  12.0108694  32.6496530  74.1782134  25.8145606  30.6442982
  73.3797380  25.5745106  30.9016851  74.6268146  25.8659999  31.3910030
  74.1256746  25.7867997  30.7927906  73.4703821  21.8778222  16.8733936
  73.8854970  21.5463246  16.1818432  72.6395751  21.6447125  16.7454073
  73.4091830  21.7949478  16.7524784  62.7992170  19.3621963  27.1632114
  62.6167743  19.3368849  26.3104407  63.5341839  19.8320901  27.2021023
  62.8806234  19.4283326  27.0430033  65.8637922  16.0806966  33.6714223
  66.5877894  16.0659997  34.1579118  65.9654058  16.7902321  33.1736191
  65.9856131  16.1831669  33.6693010  73.2382871  19.5606051  38.5363170
  72.4455852  19.8749563  38.7215790  73.3531798  19.7757519  37.6983955
  73.1378282  19.6389887  38.4401505  75.9114190  16.2840042  22.8258186
  76.0061045  17.0229336  23.2797811  75.2873034  15.8557517  23.2592750
  75.8323220  16.3301363  22.9566333  74.1666664  19.4626255  33.4748467
  74.7405526  18.8253499  33.6297031  74.0881468  19.4630337  32.6058124
  74.2399899  19.3691366  33.3694878  62.7663081  16.2415464  27.3131181
  63.3436583  16.1051915  27.9523426  62.0677142  15.7851248  27.5676765
  62.7484102  16.1537730  27.4453471  69.5230383  17.8949520  25.5269664
  69.2649627  17.0621255  25.5000964  69.5778866  18.1207133  24.6862165
  69.4930161  17.8047291  25.3989801  68.4965095  15.4487282  26.0134559
  67.9214686  15.6079450  26.6498520  68.1200771  14.8122691  25.5503010
  68.3567907  15.3785095  26.0389117  72.1638384  13.9210631  30.8726937
  71.7752816  13.4964849  30.2179129  71.4993082  14.1692781  31.3803964
  72.0085311  13.8949353  30.8514805  58.2421914  15.0927357  24.0279000
  58.3282166  14.7159225  24.8092530  58.8697711  14.7187803  23.5498958
  58.3478465  14.9812839  24.0724477  73.2677322  18.1509236  19.0703744
  74.0817961  18.4424129  18.9586516  73.2036463  17.4969098  18.4962037
  73.3780061  18.0974431  18.9692582  69.1385230  21.6230753  24.1976056
  69.7759177  21.3842501  24.7427850  69.5640302  21.8267912  23.4629217
  69.2961396  21.6181764  24.1693214  63.8297872  23.8619090  28.0810360
  63.8702018  24.1333941  27.2530140  64.3892397  24.3860998  28.4968148
  63.9181218  23.9794845  28.0202248  69.7788045  16.8433043  18.5350946
  70.1633198  16.6240750  19.2867491  69.5299665  17.6695989  18.6652022
  69.7990118  16.9331189  18.6652022  69.9456586  10.1239458  38.2513530
  69.6310027  10.8939021  37.9883093  69.6246518   9.5609714  37.6665757
  69.8515505  10.1549727  38.1254880  71.5206702  22.1003176  25.8769843
  71.5945710  21.9378348  26.7311693  72.3376208  22.2893366  25.6330324
  71.6523061  22.1039918  25.9667868  65.2812459  22.4461039  22.9064286
  64.4550576  22.6922776  22.7798565  65.3424450  22.3673120  23.7726344
  65.1686626  22.4705988  23.0153231  67.4988482   8.5129980  23.8659726
  66.6310908   8.5852579  23.9317336  67.7863687   9.3152059  24.0547701
  67.4128231   8.6424127  23.9034493  70.0611288  25.0637919  20.6083316
  70.3509586  24.6726900  19.8842543  70.7914769  25.2454624  21.0488591
  70.2118172  25.0331733  20.5666123  70.6506033  19.8655665  31.6936447
  70.1517727  20.5771433  31.7721335  71.4606257  20.1856332  31.6554609
  70.6962140  20.0182514  31.6993015  68.0017203  27.0405302  23.6743466
  67.7817499  26.7502656  24.4670133  67.7811725  26.3820257  23.1461378
  67.9364798  26.9005010  23.7132375  66.9134151  19.1278618  25.9399168
  66.6247399  18.5016089  26.4744895  67.7817499  19.0698905  26.0063848
  66.9994402  19.0266162  26.0290122  77.7012048  14.2713401  26.2581149
  77.3576814  13.5503737  26.6088399  77.8005091  14.0627253  25.4159508
  77.6654091  14.1337605  26.1852829  70.1685159  28.4134691  22.4574158
  70.8209217  27.8811134  22.6865184  69.4710768  28.0603344  22.8442032
  70.1615877  28.2824214  22.5486326  67.1166424  20.7673869  21.8641533
  67.8712392  21.1486908  22.0776995  66.5237037  21.2185013  22.3188229
  67.1403137  20.8902696  21.9624411  78.1625077  20.7339106  21.8005137
  78.7283110  21.3932315  21.7163680  77.5152981  21.0788804  22.2721540
  78.1503834  20.8821047  21.8577894  69.5773091  12.7236709  36.9898745
  68.7672867  13.0294489  36.8788587  70.0547778  13.4442292  37.1051329
  69.5276570  12.8751311  36.9905816  68.4364651  21.9382430  27.2381648
  67.9145404  22.0782722  27.9233513  68.8238671  21.1793095  27.4283765
  68.4168351  21.8467954  27.3682724  65.4255835  11.9888239  21.3076603
  65.1380630  11.6189510  20.5708550  66.1126303  12.4583095  21.0460308
  65.4844732  12.0035209  21.1591678  74.6331656  23.6777890  21.2242217
  74.3918331  22.9445750  20.8169282  74.8132988  24.2264747  20.5708550
  74.6239279  23.6500281  21.0672440  69.8630976  18.9686449  22.6363139
  69.6673759  19.5761184  22.0423442  70.0865322  18.2754393  22.1554813
  69.8665617  18.9563975  22.4779220  68.2609506  15.8541187  22.7544007
  68.9832158  16.0182346  22.2947813  67.7817499  16.5750852  22.6483347
  68.2973237  15.9839417  22.6709621  76.2203014  12.1904986  28.1340692
  75.3814114  12.2166265  27.8978956  76.2907381  12.8375722  28.7146039
  76.1071407  12.2901112  28.1849809  65.9117123  18.2599260  31.8598147
  66.4238220  18.5383513  31.2106907  65.6253465  18.9988554  32.2260960
  65.9451986  18.4101613  31.8188025  62.9984029  12.7669452  22.1561884
  63.1000166  13.5695613  22.4842859  63.7939916  12.5656788  21.8584964
  63.1311935  12.8555350  22.1597239  69.4300848  10.3525648  31.9199189
  69.2384045  10.3680783  32.7698612  70.2799444  10.5489323  31.8965844
  69.5276570  10.3840000  32.0422484  63.8147761  12.8816630  29.8983005
  63.6733253  12.0300571  30.0227513  64.0988325  12.9245291  29.0745211
  63.8355607  12.7616380  29.7950629  73.9686354  14.7183720  24.0427494
  73.7221068  14.6379471  24.8764282  74.2971477  13.9337188  23.8490021
  73.9807597  14.5909985  24.1375017  77.8634402  21.4267079  27.8314275
  77.7248762  22.1248125  28.3363017  77.0834400  21.2715736  27.4750457
  77.7277629  21.5067246  27.8540549  76.2012488  17.7263455  34.0836656
  76.1960526  16.8543271  34.0879083  76.9073481  17.9251624  33.6106112
  76.3057492  17.6267329  34.0143692  69.9283381  17.4540439  33.4550477
  70.0726757  18.0341647  32.8193587  70.2759029  17.8316735  34.1600331
  70.0010842  17.5961143  33.4649472  72.1003298  16.6530607  31.2375608
  71.3526612  16.8461621  30.8323886  72.2544823  15.8275827  30.9999729
  72.0125726  16.5595718  31.1421014  69.0011136  25.6443210  30.3211503
  69.1500700  25.0846126  29.6684908  69.7811138  25.7235212  30.7044022
  69.1385230  25.5728776  30.2808453  71.5264437  25.8157853  31.5995994
  71.4508108  25.1466664  32.1546783  71.4554296  26.5175642  32.1136661
  71.5045043  25.8202761  31.7572842  72.3405075  10.5481158  32.1271012
  72.7977689  11.2805132  32.2543804  72.4161404  10.1247623  32.8858268
  72.4196045  10.5938396  32.2572088  64.5838067  10.7946977  33.2160456
  64.0480256  10.1827336  33.5321223  64.6455831  11.3695113  33.8694122
  64.5133699  10.7893905  33.3595882  72.1834683  24.3358852  22.4319600
  72.9484575  24.0668496  22.1102264  72.0812773  23.8508863  23.1489663
  72.2816179  24.2248417  22.4899428  70.2187453  12.5383262  28.9712836
  69.4283528  12.3574722  29.2930172  70.6148076  11.7610214  28.9543130
  70.1604329  12.3970723  29.0165384  75.6031140  20.1725692  26.6972282
  74.9276141  19.9410924  27.1985669  75.6123516  19.5646875  26.0714387
  75.5049644  20.0484617  26.6788434  72.7325283  15.0143521  33.4536335
  72.6684425  15.8753477  33.3256472  72.8722471  14.6975514  32.6531886
  72.7440754  15.0943687  33.3164548  77.6047874  23.0290824  18.9282460
  77.6867711  23.8357810  18.6043911  78.0897616  23.0486783  19.6523233
  77.6885032  23.1511487  18.9869358  71.4144377  17.7075660  27.5952538
  70.9906626  17.9080159  26.8591556  71.2389233  16.8604508  27.7076838
  71.3255258  17.6124442  27.5026228  70.9156071  29.2226173  30.0573995
  71.4052001  28.5236962  29.8749660  70.3440303  28.9250043  30.6450052
  70.9040601  29.0752397  30.1175036  66.7026822  18.2027712  23.0280510
  66.8591442  18.1374514  23.8836502  67.0427415  18.9776264  22.8159190
  66.7760057  18.3076910  23.1235104  73.2405967  17.5785595  21.8973874
  73.7821512  17.0755976  22.3612494  73.5552526  17.5250790  21.0863359
  73.3670364  17.4965016  21.8457686  77.1123074  21.7888242  39.0100786
  77.9257940  21.5173391  39.1705918  76.9518041  21.4895782  38.2060982
  77.2093023  21.7043169  38.9146192  71.4092417  22.9702947  19.1813902
  71.4785237  22.1117485  19.3206902  72.1880872  23.1874828  18.8532926
  71.5345267  22.8755811  19.1531059  74.3895236  12.4721900  31.9496174
  74.6037206  11.8332814  31.3959528  73.7729136  12.9167724  31.5204036
  74.3300566  12.4432043  31.8046605  75.7999904  25.3940648  23.3950395
  75.4079696  25.0907363  22.6773261  75.9552976  26.2309738  23.2055349
  75.7653494  25.4724485  23.2606892  63.2761084  15.3862662  23.3441277
  63.6560049  15.8047207  22.6801545  62.7016449  15.9676118  23.6510121
  63.2472409  15.5340521  23.2918018  76.5534324  14.0810965  32.8879481
  75.7411006  13.7736855  32.9692654  77.0124259  13.6009965  33.4522193
  76.5014709  13.9647457  32.9834075  75.9639579  21.9590637  23.3356425
  75.6054234  22.1305280  24.1120458  75.4778290  22.4203842  22.7784424
  75.8398276  22.0529608  23.3681695  70.7527944  17.6389802  15.8756660
  71.0420469  18.4154685  16.1500234  70.8399743  17.1278534  16.5771159
  70.8082201  17.6781721  16.0199158  73.6487832  15.4871036  37.6708183
  74.1187463  16.1113153  38.0576057  73.6949712  14.8188012  38.2301398
  73.7255708  15.4805717  37.8108255  77.1244318  22.8494533  34.2823626
  77.7624039  22.3554728  33.9486082  76.4818410  22.7771933  33.6975853
  77.1238545  22.7653541  34.1465981  78.8501318  14.6983679  28.8489542
  78.4228927  14.6110027  28.0937641  78.2127371  14.8061454  29.4344386
  78.6930926  14.7016339  28.8234983  77.1798575  23.5414341  30.9228983
  77.9690953  23.1903406  31.0431065  77.3542173  24.3550729  30.6605617
  77.3218857  23.6100198  30.9016851  66.9191885  16.9523067  27.9756772
  66.0779892  16.8526941  28.1835666  67.1281893  17.7218547  28.3271093
  66.8256578  17.0515110  28.0584087  64.3967452  14.5742604  25.8041523
  64.0024150  14.6485616  25.0291632  63.8407569  14.9600550  26.3549884
  64.2570265  14.6424378  25.7709182  70.7308550  14.8804466  27.2254369
  70.4271688  14.3260454  27.8264777  70.0287971  15.0596676  26.7382404
  70.5824760  14.8249248  27.2424075  69.7874647  12.1904986  21.7899071
  70.0634382  11.4723898  21.3776639  70.3873317  12.7889906  21.5820177
  69.9167912  12.1725357  21.6979832  68.7926901  22.0954187  31.9326467
  68.6847256  22.1056249  32.7988525  69.0022683  22.9208967  31.7431421
  68.8077012  22.2195261  32.0330559  66.8100693  19.3466829  29.3948405
  66.2188626  19.9876327  29.3651420  67.5721717  19.7704446  29.3679704
  66.8348954  19.5042668  29.3863552  67.2061316  10.5068827  30.0616422
  67.6662798  10.5807756  30.7991546  67.2517423  11.3050081  29.7116244
  67.2811871  10.6362974  30.1189179  68.8544666  11.1735522  34.6288449
  68.4630231  10.5268869  35.0644227  69.0230529  11.7646957  35.2482705
  68.8215576  11.1649790  34.7851155  76.5690209  24.7976141  26.8280429
  76.3709898  25.2866955  26.1336641  75.9477921  25.0017382  27.4064563
  76.4477774  24.8992679  26.8103652  70.6298188  16.5661037  21.1690673
  71.3740233  16.9535314  21.4073623  70.7758884  15.7218463  21.3331161
  70.7608773  16.4991510  21.2284643  73.6176064  12.1386511  27.0684593
  73.1436018  11.6128273  27.5789904  73.9894199  11.5915984  26.4999454
  73.6025953  11.9802507  27.0599740  63.9949094  14.1358018  32.4368139
  64.8574707  14.0353727  32.3505468  63.6640877  13.5552727  31.8753711
  64.0734290  14.0349644  32.3413544  67.3550880  12.9600467  29.0978557
  66.7303950  12.9718858  28.4904509  67.0196475  13.4360642  29.7469797
  67.2136372  13.0318984  29.1035125  67.5392629  11.3025585  15.1551242
  67.1905433  11.9545310  15.6182791  67.0589074  11.2882698  14.4275113
  67.4162872  11.3968639  15.1162333  64.0676555  21.0200927  30.5382321
  63.5376480  20.3293366  30.5877296  64.3401649  21.0111112  29.7095030
  64.0301278  20.9168058  30.4229737  75.0996646  21.6026629  19.2620004
  75.8230845  22.0684742  19.1184577  74.6597237  21.6700239  18.5117601
  75.1412338  21.6810466  19.1304785  74.2682801  18.4624171  30.5120693
  73.6539794  17.9182222  30.8069328  74.7850086  17.9488408  30.0326509
  74.2538463  18.3060580  30.4844921  73.5079098  19.5328441  28.2464991
  73.0806706  18.9078160  27.8130427  73.5004042  19.2503363  29.0723999
  73.4438239  19.3981222  28.3044819  66.6241625  14.5693614  31.3153425
  66.7835112  13.8136938  31.7205147  66.4434519  15.1184554  31.9694163
  66.6206984  14.5387428  31.4716131  71.8364808  10.4097196  28.4607525
  71.8607295   9.8757308  27.7720305  72.0876281   9.9014505  29.1233116
  71.8774726  10.2558100  28.4572170  59.3472398  17.6928691  27.8950669
  59.2415847  17.6475535  27.0302753  58.5972618  18.0382471  28.1764954
  59.2208001  17.7369599  27.8087999  68.1166130   9.1368014  27.8413270
  68.1564502   9.6377221  28.5547977  67.2915795   9.2278408  27.5719193
  68.0005656   9.2249830  27.9063808  70.2995743  18.7028754  35.9433564
  69.4491373  18.8400468  36.0791209  70.4623871  17.9692532  36.3881266
  70.1979606  18.6142855  36.0289163  69.5380493  15.6528524  30.1387169
  68.7072423  15.8202342  29.9322417  69.4832011  15.2764475  30.9236054
  69.4069908  15.6218255  30.2235697  67.3464277   9.1437417  35.7743579
  67.9716980   8.5999550  36.0473012  66.8914757   8.6632334  35.2051370
  67.3712537   8.9926898  35.7305173  67.9116537  13.9284115  20.6677286
  68.0519498  14.4256580  21.3705928  68.4099070  13.2270410  20.8091500
  68.0057618  13.8986094  20.7928865  67.9416760  14.7951226  17.9969863
  68.5761839  15.3911651  17.9319325  68.0242370  14.4954684  18.8115733
  68.0473311  14.8392135  18.1072950  69.5195742  10.7265202  17.9715305
  69.8411584  10.2468284  17.3174567  69.7822686  11.5364848  17.7806117
  69.6061768  10.7755100  17.8470797  72.7492715  21.7484076  31.4914121
  72.2417806  22.3019923  31.9354752  72.4519361  21.8092366  30.6732896
  72.6297600  21.8390387  31.4362578  64.4469748  16.9919067  21.2659409
  64.9561977  17.5883575  21.6470715  64.9204020  16.7245041  20.5835829
  64.5913123  17.0404883  21.2213932  75.3600496  25.6647334  19.4218065
  74.6429805  25.4908196  18.9565302  76.0107233  25.4299906  18.8893551
  75.3502346  25.6043126  19.2747283  77.9448467  14.5411922  23.1659370
  77.2739657  15.0841625  23.0372435  78.6388217  15.0106778  22.9241065
  77.9477334  14.6910194  23.1114898  71.9935201  26.6808634  28.3971128
  71.7700855  25.9227464  28.7655154  71.5045044  26.7106656  27.6751568
  71.8878650  26.5730859  28.3447869  66.8060279  13.6275326  24.1332590
  66.0872268  14.0439458  24.4005453  67.1772642  14.1929565  23.5824228
  66.7552211  13.7724607  24.0915397  76.1059860  14.2603175  30.0234585
  76.0857787  14.0786470  30.8769364  76.1539061  15.1315193  29.9994169
  76.1094501  14.3619713  30.1457880  74.0506190  20.8490367  35.9483062
  74.0102045  20.2040044  35.3628218  74.8629508  20.7926984  36.2608474
  74.1649343  20.7449333  35.9080011  70.6413657  26.9009093  25.8508213
  70.2274056  26.2383223  25.4612054  71.3261032  27.0486951  25.3303907
  70.6812029  26.8249751  25.7164710  74.0078952  26.0599178  26.6031829
  73.6095235  26.1701448  25.8352650  73.3930171  26.2681244  27.1858389
  73.8577841  26.1072746  26.5763129  72.5806854  12.6673326  19.4705969
  71.9871693  12.9890322  18.9190536  72.6182131  11.8214421  19.2627075
  72.4981243  12.5897654  19.3588740  75.4564670  12.6252830  22.9007719
  75.2278363  12.6485532  22.0586078  75.7162746  11.8010297  23.0202730
  75.4610858  12.5068910  22.7932917  69.7383899  14.4787303  32.5032820
  69.2262802  13.8708486  32.8617851  69.5663395  15.1943896  32.9706795
  69.6373536  14.4950602  32.6249043  64.5849613  12.9224879  35.1535181
  64.4152204  13.5826253  34.6083388  64.1415563  13.1331440  35.8747670
  64.4948947  13.0510861  35.1796811  68.5109433  11.1629376  24.1961915
  68.9866799  11.5246456  23.5612096  68.0098032  11.8185844  24.4762058
  68.5074792  11.3123565  24.1438656  73.6152969  12.4011548  34.9435075
  74.1724399  12.1725357  34.3113540  73.2914034  13.1617213  34.6670287
  73.6499379  12.4795385  34.8091572  61.4851678  15.8271744  30.4123671
  60.9378397  15.1572390  30.5304539  62.2744056  15.4601592  30.4767138
  61.5203861  15.6736730  30.4392372  71.3336086  15.4879201  35.9087082
  72.0847413  15.8030878  36.2226636  71.5258663  15.2858372  35.0821004
  71.4727500  15.5046583  35.8330478  70.5536086  13.3070576  17.5635299
  70.9335051  13.3250205  16.7786414  69.8128682  13.7524565  17.4426146
  70.5004924  13.3752351  17.4298867  60.2438647  15.0392552  27.5669694
  60.0660408  14.5869161  28.2924610  59.9557669  15.8418713  27.7508172
  60.1751600  15.0915110  27.7013197  75.9062228  16.2950269  26.8047084
  76.4015894  15.5773264  26.7651105  75.0962004  15.9921067  26.6901571
  75.8606122  16.1447916  26.7820810  71.3520840  20.1448082  18.9544089
  70.5432163  19.8214756  18.9077398  71.8595749  19.4381305  18.8872338
  71.3070507  19.9929399  18.9374383  61.9811117  17.5720276  24.6791453
  61.1156637  17.5605966  24.5674224  62.0809933  17.3850498  25.5262592
  61.8685284  17.5426337  24.7880398  77.9714047  19.0453957  29.4924213
  78.3969119  18.5228379  28.9394638  77.6070967  19.6434794  28.9712836
  77.9800650  19.0564184  29.3333223  67.6068127  27.3418174  28.2521559
  67.9214686  28.1554563  28.2599340  68.0161540  26.9568393  28.9203718
  67.7136225  27.4046877  28.3525650  74.5592647  22.7588221  25.8225371
  75.0303825  23.4728484  25.9915356  74.8952825  22.1586971  26.3585240
  74.6787762  22.7759685  25.9257747  76.6469631  24.3689534  38.0017443
  76.7566597  23.5798095  38.3574190  76.9760528  24.2795471  37.1991781
  76.7122037  24.2395387  37.9359834  75.1966593  22.5506155  32.5853063
  74.6487539  21.9264039  32.3173129  75.6579622  22.7400427  31.8697143
  75.1833803  22.4865205  32.4403494  70.5455257   9.5332104  20.2462930
  71.3670951   9.7030417  20.0044625  70.0824907   9.6879365  19.5229228
  70.5986419   9.5813837  20.1034575  64.9481147  21.2891283  27.9000167
  65.5526005  21.2487117  27.2713988  64.7408460  22.1362435  27.9304223
  65.0070044  21.4079285  27.8116284  74.7624919  23.5557228  29.1162405
  75.5823293  23.4120194  29.3778700  74.4818997  24.1803427  29.6578842
  74.8421663  23.6267580  29.2350344  60.1832430  20.2725900  27.7699090
  60.0856708  19.4622172  28.0789147  60.9661299  20.2517694  27.3845358
  60.2848566  20.1492990  27.7585953  73.5929195  35.8699127  24.4910549
  73.3579379  35.0366780  24.3842818  73.7314835  36.1503793  23.6771750
  73.5784857  35.7882631  24.3552904  75.8919282  28.0384858  27.3894857
  75.2724314  27.4477505  27.2204872  75.7903146  28.6296293  26.7559180
  75.7856958  28.0388940  27.2699846  75.6188415  31.5837139  29.6338426
  75.4947112  32.1699585  30.2688245  76.2706700  31.0897335  29.9350701
  75.6962065  31.5975944  29.7724355  75.1546519  40.7484798  25.7666755
  74.6714098  41.4735288  25.7426339  75.9669838  41.0460928  25.8776913
  75.2037267  40.8987152  25.7794034  78.0090717  41.2640974  25.9187035
  78.7111296  40.7492963  25.9759792  77.9288200  41.5915125  26.7233910
  78.1014477  41.2355200  26.0459827  77.7227060  25.6159404  17.9849655
  77.5402633  25.8331284  17.1590648  78.5852673  25.7298416  18.0408270
  77.8231650  25.6649302  17.8704142  77.3341492  37.4547326  25.4272643
  78.1730392  37.6870259  25.4746405  77.3653261  36.5851637  25.3579679
  77.4623210  37.3604272  25.4237288  77.9594195  37.8748201  29.7285949
  78.4992420  37.7319332  30.3989321  77.2764141  38.2744952  30.0969975
  77.9386349  37.9127872  29.8820370  73.3631340  34.0948492  29.8820370
  73.0969755  33.2787609  30.0411360  73.3769904  34.1401647  29.0115886
  73.3256063  33.9805397  29.7773852  77.2689087  28.8933576  16.4972128
  76.5547264  28.6071756  16.9094561  77.7533056  29.2330202  17.1378516
  77.2348450  28.9015226  16.6527763  78.1129947  27.6326870  32.5287378
  77.4201743  27.1623850  32.7748109  78.7290274  27.4065175  33.1029085
  78.1014477  27.5294002  32.6496530  73.7724754  34.8807271  27.1632114
  73.5900327  34.8554157  26.3104407  74.5074423  35.3506209  27.2021023
  73.8538818  34.9468633  27.0430033  76.8370506  31.5992274  33.6714223
  77.5610478  31.5845305  34.1579118  76.9386642  32.3087629  33.1736191
  76.9588715  31.7016977  33.6693010  73.7395664  31.7600772  27.3131181
  74.3169167  31.6237223  27.9523426  73.0409726  31.3036556  27.5676765
  73.7216686  31.6723038  27.4453471  69.2154497  30.6112665  24.0279000
  69.3014749  30.2344533  24.8092530  69.8430295  30.2373110  23.5498958
  69.3211048  30.4998147  24.0724477  74.8030456  39.3804398  28.0810360
  74.8434601  39.6519249  27.2530140  75.3624980  39.9046306  28.4968148
  74.8913802  39.4980153  28.0202248  76.2545042  37.9646347  22.9064286
  75.4283160  38.2108084  22.7798565  76.3157034  37.8858428  23.7726344
  76.1419209  37.9891296  23.0153231  78.4721066  24.0315288  23.8659726
  77.6043492  24.1037887  23.9317336  78.7596270  24.8337367  24.0547701
  78.3860814  24.1609435  23.9034493  77.8866734  34.6463926  25.9399168
  77.5979983  34.0201397  26.4744895  78.7550082  34.5884213  26.0063848
  77.9726986  34.5451470  26.0290122  78.0899007  36.2859177  21.8641533
  78.8444975  36.6672216  22.0776995  77.4969620  36.7370321  22.3188229
  78.1135721  36.4088004  21.9624411  76.3988418  27.5073547  21.3076603
  76.1113214  27.1374818  20.5708550  77.0858886  27.9768402  21.0460308
  76.4577315  27.5220516  21.1591678  76.8849706  33.7784568  31.8598147
  77.3970803  34.0568821  31.2106907  76.5986049  34.5173862  32.2260960
  76.9184570  33.9286921  31.8188025  73.9716613  28.2854760  22.1561884
  74.0732749  29.0880921  22.4842859  74.7672499  28.0842095  21.8584964
  74.1044518  28.3740658  22.1597239  74.7880345  28.4001938  29.8983005
  74.6465837  27.5485878  30.0227513  75.0720908  28.4430598  29.0745211
  74.8088191  28.2801688  29.7950629  75.5570650  26.3132285  33.2160456
  75.0212840  25.7012644  33.5321223  75.6188415  26.8880421  33.8694122
  75.4866283  26.3079213  33.3595882  77.6759406  33.7213020  23.0280510
  77.8324025  33.6559822  23.8836502  78.0159999  34.4961572  22.8159190
  77.7492641  33.8262218  23.1235104  74.2493667  30.9047970  23.3441277
  74.6292632  31.3232515  22.6801545  73.6749032  31.4861426  23.6510121
  74.2204992  31.0525829  23.2918018  77.8924469  32.4708375  27.9756772
  77.0512476  32.3712249  28.1835666  78.1014477  33.2403855  28.3271093
  77.7989162  32.5700418  28.0584087  75.3700036  30.0927912  25.8041523
  74.9756734  30.1670923  25.0291632  74.8140153  30.4785858  26.3549884
  75.2302848  30.1609686  25.7709182  77.7833277  34.8652137  29.3948405
  77.1921210  35.5061635  29.3651420  78.5454300  35.2889754  29.3679704
  77.8081537  35.0227975  29.3863552  78.1793900  26.0254135  30.0616422
  78.6395381  26.0993064  30.7991546  78.2250006  26.8235389  29.7116244
  78.2544455  26.1548282  30.1189179  74.9681677  29.6543325  32.4368139
  75.8307290  29.5539035  32.3505468  74.6373460  29.0738035  31.8753711
  75.0466874  29.5534952  32.3413544  78.3283463  28.4785774  29.0978557
  77.7036534  28.4904166  28.4904509  77.9929058  28.9545950  29.7469797
  78.1868955  28.5504291  29.1035125  78.5125212  26.8210893  15.1551242
  78.1638016  27.4730618  15.6182791  78.0321658  26.8068006  14.4275113
  78.3895456  26.9153946  15.1162333  75.0409139  36.5386235  30.5382321
  74.5109063  35.8478673  30.5877296  75.3134232  36.5296420  29.7095030
  75.0033861  36.4353366  30.4229737  77.5974209  30.0878922  31.3153425
  77.7567695  29.3322246  31.7205147  77.4167102  30.6369862  31.9694163
  77.5939568  30.0572736  31.4716131  70.3204981  33.2113999  27.8950669
  70.2148430  33.1660843  27.0302753  69.5705201  33.5567779  28.1764954
  70.1940584  33.2554907  27.8087999  78.3196860  24.6622725  35.7743579
  78.9449564  24.1184858  36.0473012  77.8647340  24.1817642  35.2051370
  78.3445121  24.5112206  35.7305173  75.4202331  32.5104375  21.2659409
  75.9294560  33.1068883  21.6470715  75.8936603  32.2430349  20.5835829
  75.5645707  32.5590191  21.2213932  77.7792863  29.1460634  24.1332590
  77.0604852  29.5624766  24.4005453  78.1505225  29.7114872  23.5824228
  77.7284795  29.2909915  24.0915397  75.5582197  28.4410186  35.1535181
  75.3884787  29.1011561  34.6083388  75.1148147  28.6516748  35.8747670
  75.4681530  28.5696169  35.1796811  72.4584261  31.3457052  30.4123671
  71.9110981  30.6757698  30.5304539  73.2476640  30.9786900  30.4767138
  72.4936445  31.1922038  30.4392372  71.2171231  30.5577860  27.5669694
  71.0392992  30.1054469  28.2924610  70.9290253  31.3604021  27.7508172
  71.1484184  30.6100418  27.7013197  72.9543701  33.0905584  24.6791453
  72.0889220  33.0791274  24.5674224  73.0542517  32.9035806  25.5262592
  72.8417868  33.0611645  24.7880398  75.9213731  36.8076591  27.9000167
  76.5258588  36.7672425  27.2713988  75.7141043  37.6547743  27.9304223
  75.9802628  36.9264593  27.8116284  71.1565013  35.7911208  27.7699090
  71.0589291  34.9807480  28.0789147  71.9393883  35.7703002  27.3845358
  71.2581150  35.6678298  27.7585953   4.7490963  22.5327802  61.0050501
   4.7184967  23.3872438  61.1768770   5.3472311  22.2323094  61.5636645
   4.8328120  22.6144298  61.1125303   2.5707537  25.1080104  59.2768811
   2.4547063  25.8587790  59.7060949   3.3663424  24.8504057  59.5264898
   2.6712127  25.1814951  59.3772902   1.2255276  22.4572542  59.0880836
   0.6966747  22.6732176  59.7478142   1.7480296  23.1508681  59.0081805
   1.2243729  22.5915679  59.1736435   6.6803329  28.0318847  64.4613880
   5.8501032  28.2429490  64.6247297   6.6312581  27.2055901  64.1856164
   6.5510064  27.9408453  64.4451246   3.9367644  28.7018201  64.5978596
   3.5002876  28.7054943  65.3537567   3.6030559  29.3823700  64.1658173
   3.8230264  28.8030657  64.6459429   7.0711990  25.4199121  63.4898233
   7.7328424  24.8589789  63.3894142   6.4303402  24.9251152  63.8150924
   7.0740858  25.2635530  63.5230573   3.3576821  26.4364503  63.2310222
   3.5932410  26.5809702  62.4037073   3.5066385  27.2006911  63.6241736
   3.4142624  26.5703558  63.1673826   5.1867278  25.2766169  61.0679826
   5.5175495  25.8093809  60.4619921   5.7600366  25.3305057  61.7241777
   5.3200957  25.3635738  61.0757608   2.6510054  27.5730135  60.7250358
   3.2168086  28.2323345  60.6408900   2.0037957  27.9179834  61.1966760
   2.6388810  27.7212077  60.7823114   3.8472752  27.6236363  57.5175994
   3.4679560  26.8373501  57.5105283   3.1838997  28.1723220  57.3747638
   3.6931226  27.5881187  57.4956791   2.0932851  29.8681854  57.8527680
   2.1752688  30.6748840  57.5289131   2.5782593  29.8877813  58.5768453
   2.1770008  29.9902517  57.9114578   6.2305771  27.4742174  58.9120140
   6.6139376  28.2233531  59.1418237   5.4349884  27.7207994  58.6532129
   6.1699553  27.6211868  58.9077714  15.7223546  38.0513109  61.0050501
  15.6917551  38.9057746  61.1768770  16.3204895  37.7508402  61.5636645
  15.8060704  38.1329606  61.1125303   8.9223231  37.1388761  65.7603431
   8.0661127  37.2997259  65.8112548   8.9690885  36.2680824  65.7808492
   8.8022342  37.0339562  65.7709497   3.3064371  46.6751478  61.5240663
   2.5547270  46.2967017  61.2956708   3.7550382  46.7069912  60.7759473
   3.2614038  46.6237086  61.3798165  12.2316948  43.4075286  75.3663887
  12.9383715  42.9127317  75.4950822  12.4204883  43.8484368  74.6366545
  12.3644853  43.3993636  75.2772933   8.7589331  47.0976848  56.9526210
   8.4240699  47.7753769  56.5170432   9.2716201  46.7082159  56.3643082
   8.7854912  47.1401426  56.8013001   8.2993622  49.0491117  62.8937322
   8.6833001  49.6178015  62.3542097   8.2352763  48.3240627  62.4143138
   8.3467049  49.0266580  62.7431184  11.7675052  39.1980804  68.4035083
  12.3131012  39.8765891  68.4629053  11.7091928  39.0568265  67.5436665
  11.8390966  39.2772806  68.2847144   4.8849127  46.6869871  63.7903435
   4.9859490  45.8770224  64.1000563   4.2890872  46.5926817  63.1603114
   4.8121666  46.5534899  63.7429674  13.5440121  40.6265412  59.2768811
  13.4279647  41.3773098  59.7060949  14.3396007  40.3689365  59.5264898
  13.6444710  40.7000258  59.3772902   4.7249866  51.6047460  65.1918291
   5.3687322  52.0460624  65.5814450   5.0506122  50.8000886  65.1048550
   4.8681695  51.5512654  65.2363769   5.4270446  44.6159435  60.5638153
   5.7486287  45.1564642  59.9599461   6.0742543  44.0456206  60.6960443
   5.5696501  44.6118610  60.4945189   7.4772154  36.6175429  60.6472540
   8.1752319  36.7963557  61.1394003   7.7924487  36.0945769  60.0242929
   7.6267491  36.5669202  60.6274550   7.6660090  43.0045875  60.6352331
   8.1053725  42.3962975  61.0807104   7.5164753  42.6253248  59.8637796
   7.7081555  42.8584346  60.5871499   5.1331733  41.5989886  67.8371157
   5.7780735  41.1062329  67.5182105   5.3733510  41.7414673  68.6637235
   5.2642318  41.5467329  67.9120690   7.6717824  44.4444792  67.4878049
   7.9541067  43.6496198  67.2664805   8.4003984  44.9225380  67.5083110
   7.8207388  44.3979389  67.4581065   5.6499018  31.9867826  64.7293815
   5.3202348  32.4378970  64.0597513   4.9744020  31.9083990  65.2766821
   5.5009454  32.0418961  64.7117038  11.2669426  41.3573056  57.5883101
  11.1820721  42.2134022  57.7332669  11.7553809  41.0817380  58.2565260
  11.3258323  41.4430377  57.7085182  12.8575426  27.9753349  62.9743425
  12.5428867  28.6656828  63.4063848  12.3402367  27.9198131  62.2728926
  12.7339896  28.0688238  62.9340374  12.1987859  37.9757850  59.0880836
  11.6699331  38.1917484  59.7478142  12.7212879  38.6693988  59.0081805
  12.1976312  38.1100987  59.1736435  17.6535912  43.5504154  64.4613880
  16.8233615  43.7614798  64.6247297  17.6045165  42.7241209  64.1856164
  17.5242648  43.4593761  64.4451246   4.0887467  41.8721067  57.8888304
   3.5044682  42.3771098  58.2954168   3.6857562  41.6463454  57.1484896
   3.9426771  41.9129315  57.8393329   5.7145650  46.3808009  67.2961790
   5.1972592  46.0215424  66.6923098   6.4120041  45.8570183  67.3067856
   5.7411231  46.2505697  67.2092048   9.3709242  46.8302823  73.2577963
   9.4592588  46.6428963  74.1056173   9.7998954  46.1840252  72.8582810
   9.4471344  46.7065830  73.3249714   8.5464682  38.1186719  56.3657224
   8.7860685  38.3264703  55.5532567   8.8680523  37.3144228  56.4746169
   8.6301840  38.0300820  56.2617777   3.8554972  30.0480115  60.2116762
   4.6100940  30.4158432  59.9733812   3.6782507  30.4219669  60.9795942
   3.9409450  30.1578302  60.2901651   2.4975693  48.1032004  64.8432255
   3.1996272  47.5883993  64.9005012   2.4173176  48.4306155  65.6479130
   2.5899454  48.0746230  64.9705047  17.1489871  36.1974555  68.2564302
  16.3118292  36.2676742  68.4911896  17.1178102  36.1999050  67.3838604
  17.0208153  36.2084782  68.1623850   2.2112037  32.4550434  56.9094875
   2.0287610  32.6722314  56.0835868   3.0737650  32.5689446  56.9653490
   2.3116626  32.5040331  56.7949362   1.8226469  44.2938356  64.3517863
   2.6615368  44.5261289  64.3991625   1.8538238  43.4242667  64.2824899
   1.9508186  44.1995302  64.3482508   2.4479172  44.7139231  68.6531169
   2.9877396  44.5710362  69.3234541   1.7649118  45.1135982  69.0215195
   2.4271325  44.7518902  68.8065590   7.8911756  29.4576844  59.9443899
   8.6197916  29.2792799  59.4982055   7.9806649  30.2994924  60.1551077
   8.0118418  29.5560723  59.9097417  11.8720056  40.3930232  63.8476193
  12.6277571  40.8261746  63.8865102  11.9782381  39.7435001  64.4210829
  11.9990227  40.3607715  63.9374219  14.9100228  44.2203509  64.5978596
  14.4735459  44.2240251  65.3537567  14.5763143  44.9009008  64.1658173
  14.7962847  44.3215965  64.6459429  14.8297710  31.2617337  66.8408024
  15.4723619  31.3315441  67.4269939  15.0820731  30.5946560  66.3387566
  14.9619843  31.1743685  66.8535303   1.7574064  35.7324606  55.4217348
   1.0432241  35.4462786  55.8339781   2.2418032  36.0721232  56.0623736
   1.7233427  35.7406256  55.5772983   9.6399694  48.1721944  69.5688202
   8.8414940  47.9321444  69.8262071  10.0885706  48.2236337  70.3155250
   9.5874306  48.1444335  69.7173126  18.0444574  40.9384429  63.4898233
  18.7061008  40.3775097  63.3894142  17.4035986  40.4436459  63.8150924
  18.0473441  40.7820838  63.5230573   8.9321381  44.2354560  55.7979156
   9.3472530  43.9039584  55.1063652   8.1013311  44.0023462  55.6699293
   8.8709390  44.1525816  55.6770004  14.3309404  41.9549811  63.2310222
  14.5664994  42.0995010  62.4037073  14.4798968  42.7192219  63.6241736
  14.3875208  42.0888866  63.1673826  16.1599861  40.7951477  61.0679826
  16.4908078  41.3279117  60.4619921  16.7332949  40.8490365  61.7241777
  16.2933540  40.8821046  61.0757608  11.3731750  38.6416380  61.7503406
  11.4678605  39.3805674  62.2043031  10.7490594  38.2133855  62.1837970
  11.2940780  38.6877700  61.8811553   9.6284224  41.8202592  72.3993687
  10.2023086  41.1829837  72.5542251   9.5499028  41.8206675  71.5303344
   9.7017459  41.7267704  72.2940098   4.9847943  40.2525858  64.4514884
   4.7267187  39.4197592  64.4246184   5.0396426  40.4783471  63.6107385
   4.9547721  40.1623629  64.3235021  10.0648993  32.3554308  64.5518977
   9.3605320  31.8663494  64.7102896  10.1133967  32.3676783  63.6807421
   9.9679045  32.2843956  64.4458317   3.9582655  37.8063620  64.9379779
   3.3832246  37.9655788  65.5743740   3.5818331  37.1699029  64.4748230
   3.8185467  37.7361433  64.9634337   7.6255944  36.2786969  69.7972157
   7.2370376  35.8541187  69.1424349   6.9610642  36.5269119  70.3049184
   7.4702871  36.2525690  69.7760025  17.2679213  36.0361974  62.5719987
  17.0115778  35.2241915  62.3817870  18.1108527  36.0439541  62.3450175
  17.3545238  35.9173971  62.5104805  11.4482305  29.9761598  67.3096142
  11.8292817  29.2939769  67.6964016  10.6445589  29.6871200  67.1271806
  11.3858767  29.8328647  67.3400198   8.7294882  40.5085574  57.9948964
   9.5435521  40.8000467  57.8831736   8.6654023  39.8545436  57.4207257
   8.8397621  40.4550769  57.8937802  14.9504372  43.1911570  72.4078540
  14.7143009  42.3599635  72.2890601  15.5947601  43.1397177  72.9933384
  15.0099043  43.0609258  72.4764434   4.6002790  43.9807091  63.1221276
   5.2376737  43.7418839  63.6673070   5.0257862  44.1844250  62.3874437
   4.7578956  43.9758102  63.0938434   5.2405605  39.2009381  57.4596166
   5.6250758  38.9817088  58.2112711   4.9917225  40.0272327  57.5897242
   5.2607678  39.2907527  57.5897242  15.9740793  42.9756019  68.4706835
  15.6686610  43.7084076  68.8320150  15.2547008  42.5693948  68.1899621
  15.8228135  43.0237752  68.4819972   6.9824262  44.4579514  64.8015063
   7.0563270  44.2954686  65.6556913   7.7993768  44.6469704  64.5575544
   7.1140621  44.4616256  64.8913088  21.6742585  39.6149019  67.7975179
  21.6067085  39.6344979  66.9277765  21.6598247  40.4579347  68.0230849
  21.6621341  39.7422754  67.7027656   2.9606042  30.8706318  62.7904946
   2.0928468  30.9428917  62.8562556   3.2481247  31.6728397  62.9792921
   2.8745791  31.0000465  62.8279713  12.0838931  31.0184177  71.1216268
  12.8292523  30.8293988  70.7079694  11.6676236  31.5442415  70.5630125
  12.1323905  31.0686323  70.9780841   5.5228848  47.4214257  59.5328536
   5.8127146  47.0303238  58.8087763   6.2532329  47.6030962  59.9733811
   5.6735732  47.3908071  59.4911343  19.4601202  38.3893406  66.0721773
  20.0109124  37.7561475  66.3118865  19.4445317  38.9208798  66.7637277
  19.5386398  38.3742354  66.2100631   6.1123593  42.2232003  70.6181667
   5.6135287  42.9347771  70.6966555   6.9223817  42.5432670  70.5799829
   6.1579700  42.3758852  70.6238235   3.4634763  49.3981639  62.5988686
   3.2435059  49.1078994  63.3915353   3.2429285  48.7396594  62.0706598
   3.3982358  49.2581348  62.6377595   2.3751711  41.4854956  64.8644388
   2.0864959  40.8592427  65.3990115   3.2435059  41.4275243  64.9309068
   2.4611962  41.3842500  64.9535342  13.1629608  36.6289739  65.1826369
  12.8194374  35.9080075  65.5333619  13.2622651  36.4203591  64.3404728
  13.1271651  36.4913943  65.1098049   5.6302719  50.7711029  61.3819378
   6.2826777  50.2387472  61.6110404   4.9328328  50.4179682  61.7687252
   5.6233437  50.6400552  61.4731546   2.5783984  43.1250207  60.7886753
   3.3329952  43.5063246  61.0022215   1.9854597  43.5761351  61.2433449
   2.6020697  43.2479034  60.8869631  13.6242637  43.0915443  60.7250358
  14.1900670  43.7508653  60.6408900  12.9770541  43.4365141  61.1966760
  13.6121394  43.2397385  60.7823114   3.8982211  44.2958768  66.1626868
   3.3762964  44.4359060  66.8478733   4.2856231  43.5369433  66.3528985
   3.8785911  44.2044292  66.2927944  10.0949216  46.0354228  60.1487437
   9.8535891  45.3022088  59.7414502  10.2750548  46.5841085  59.4953770
  10.0856839  46.0076619  59.9917660   5.3248536  41.3262787  61.5608359
   5.1291319  41.9337522  60.9668662   5.5482882  40.6330731  61.0800033
   5.3283177  41.3140313  61.4024440   3.7227066  38.2117525  61.6789227
   4.4449718  38.3758683  61.2193033   3.2435059  38.9327190  61.5728567
   3.7590797  38.3415755  61.5954841  11.6820574  34.5481324  67.0585912
  10.8431674  34.5742603  66.8224176  11.7524941  35.1952060  67.6391259
  11.5688967  34.6477450  67.1095029  10.1289852  31.4466701  61.7913528
  10.8316205  31.2474449  61.3133486   9.8634041  30.6742643  62.0982372
  10.1936484  31.3029667  61.7658970  15.5578098  39.7549311  64.3447154
  15.4712072  39.9104737  65.1981933  15.1028577  40.3987386  63.9706559
  15.4781354  39.8725066  64.4154261   9.4303914  37.0760058  62.9672714
   9.1838628  36.9955809  63.8009502   9.7589037  36.2913526  62.7735241
   9.4425157  36.9486323  63.0620237  13.3251962  43.7843417  66.7559495
  13.1866322  44.4824463  67.2608237  12.5451960  43.6292074  66.3995677
  13.1895189  43.8643584  66.7785769  11.6630048  40.0839793  73.0081876
  11.6578086  39.2119609  73.0124303  12.3691041  40.2827962  72.5351332
  11.7675052  39.9843667  72.9388912   5.3900941  39.8116777  72.3795697
   5.5344317  40.3917985  71.7438807   5.7376589  40.1893073  73.0845551
   5.4628402  39.9537481  72.3894692   7.5620858  39.0106945  70.1620828
   6.8144172  39.2037959  69.7569106   7.7162383  38.1852164  69.9244950
   7.4743286  38.9172056  70.0666234   4.4628696  48.0019548  69.2456723
   4.6118260  47.4422464  68.5930128   5.2428698  48.0811550  69.6289242
   4.6002790  47.9305114  69.2053673  14.8205335  43.1421671  57.5175994
  14.4412144  42.3558809  57.5105283  14.1571581  43.6908528  57.3747638
  14.6663810  43.1066495  57.4956791   6.9881997  48.1734191  70.5241214
   6.9125668  47.5043002  71.0792003   6.9171856  48.8751979  71.0381881
   6.9662603  48.1779099  70.6818062  12.2749961  26.0847371  64.9210075
  12.3933529  26.5423834  64.1877378  12.1012137  25.2792632  64.6346292
  12.2669132  26.0341143  64.7711009   7.6452243  46.6935190  61.3564820
   8.4102135  46.4244834  61.0347484   7.5430333  46.2085200  62.0734883
   7.7433739  46.5824755  61.4144648   5.6805013  34.8959600  67.8958056
   4.8901088  34.7151060  68.2175392   6.0765636  34.1186552  67.8788350
   5.6221889  34.7547060  67.9410604  10.1670904  43.7247374  53.3364770
  10.9343889  43.7847499  52.9270621   9.7202213  43.1527815  52.8521088
  10.2144331  43.6483950  53.2042480  11.0648700  42.5302030  65.6217502
  10.3893701  42.2987262  66.1230889  11.0741076  41.9223213  64.9959607
  10.9667204  42.4060955  65.6033654   8.1942843  37.3719859  72.3781555
   8.1301985  38.2329815  72.2501692   8.3340031  37.0551852  71.5777106
   8.2058314  37.4520025  72.2409768  13.0665434  45.3867162  57.8527680
  13.1485271  46.1934148  57.5289131  13.5515176  45.4063121  58.5768453
  13.1502592  45.5087824  57.9114578   6.8761937  40.0651998  66.5197758
   6.4524186  40.2656497  65.7836776   6.7006793  39.2180846  66.6322058
   6.7872818  39.9700779  66.4271448   2.1644382  40.5604049  61.9525730
   2.3209002  40.4950852  62.8081722   2.5044975  41.3352602  61.7404410
   2.2377617  40.6653248  62.0480324   8.7023527  39.9361933  60.8219094
   9.2439072  39.4332314  61.2857714   9.0170086  39.8827128  60.0108579
   8.8287924  39.8541354  60.7702906  12.5740634  44.1464580  77.9346006
  13.3875500  43.8749729  78.0951138  12.4135601  43.8472120  77.1306202
  12.6710583  44.0619506  77.8391412   6.8709977  45.3279285  58.1059122
   6.9402797  44.4693823  58.2452122   7.6498432  45.5451165  57.7778146
   6.9962827  45.2332149  58.0776279   9.8512796  34.8298238  70.8741394
  10.0654766  34.1909152  70.3204748   9.2346696  35.2744061  70.4449256
   9.7918126  34.8008381  70.7291825  11.2617464  47.7516986  62.3195615
  10.8697256  47.4483701  61.6018481  11.4170536  48.5886076  62.1300569
  11.2271054  47.8300823  62.1852112  12.0151884  36.4387303  71.8124701
  11.2028566  36.1313193  71.8937874  12.4741819  35.9586303  72.3767413
  11.9632269  36.3223795  71.9079295  11.4257139  44.3166975  62.2601645
  11.0671794  44.4881618  63.0365678  10.9395850  44.7780180  61.7029644
  11.3015836  44.4105946  62.2926915   9.2427525  27.9398173  65.8628737
   8.3721083  27.9136894  65.8162046   9.4967866  27.7675365  65.0454582
   9.1521085  27.9108317  65.7348874   6.2145504  39.9966140  54.8001880
   6.5038029  40.7731023  55.0745454   6.3017303  39.4854872  55.5016379
   6.2699761  40.0358058  54.9444378   6.2676665  29.9504402  67.3202207
   5.7515154  29.2584593  67.4453786   5.7070594  30.6175179  67.2664806
   6.1083179  29.9467659  67.3308273  12.5861878  45.2070871  73.2068846
  13.2241599  44.7131066  72.8731302  11.9435970  45.1348271  72.6221073
  12.5856105  45.1229879  73.0711201  14.3118878  37.0560017  67.7734762
  13.8846487  36.9686365  67.0182861  13.6744931  37.1637792  68.3589606
  14.1548486  37.0592676  67.7480203  12.6416135  45.8990679  69.8474203
  13.4308513  45.5479744  69.9676285  12.8159733  46.7127067  69.5850837
  12.7836417  45.9676536  69.8262071   2.3809445  39.3099405  66.9001992
   1.5397452  39.2103279  67.1080886   2.5899453  40.0794885  67.2516313
   2.2874138  39.4091448  66.9829307  11.4949959  29.9100236  64.4090621
  11.6999553  29.8422544  65.2547619  11.1676383  30.7159057  64.3411799
  11.4765207  30.0186176  64.5250277   6.1926110  37.2380804  66.1499589
   5.8889248  36.6836792  66.7509997   5.4905531  37.4173014  65.6627624
   6.0442320  37.1825586  66.1669295   5.2492207  34.5481324  60.7144291
   5.5251942  33.8300236  60.3021859   5.8490877  35.1466244  60.5065397
   5.3785472  34.5301694  60.6225052  14.7483647  30.4632000  63.8893387
  14.1357960  30.9502402  64.2747119  14.8447822  29.7875491  64.4331038
  14.6721544  30.4350309  64.0272245   8.7502728  32.2194841  58.9890886
   9.2046474  32.3905401  59.7138731   9.2242774  31.6062952  58.5888662
   8.8871048  32.1545726  59.0364648   2.2718253  41.7043167  68.3193625
   1.6806187  42.3452665  68.2896640   3.0339277  42.1280784  68.2924924
   2.2966514  41.8619005  68.3108772  18.3908675  41.5348937  69.3170903
  18.4491799  41.9835585  70.0630880  17.7575142  41.9447749  68.8800983
  18.3059970  41.6622671  69.3623451  12.0307769  47.1552479  65.7525649
  11.8327458  47.6443293  65.0581861  11.4095481  47.3593720  66.3309783
  11.9095334  47.2569017  65.7348873   6.0915748  38.9237375  60.0935894
   6.8357793  39.3111652  60.3318843   6.2376444  38.0794801  60.2576381
   6.2226333  38.8567848  60.1529863   8.0095323  30.7187634  65.1267755
   7.1631368  30.8910442  65.0009105   8.0066456  29.9136978  65.4633583
   7.8842473  30.6248663  65.1578882   9.0793624  34.4962849  65.9929813
   8.6053578  33.9704611  66.5035124   9.4511760  33.9492322  65.4244674
   9.0643513  34.3378845  65.9844960  15.3430354  39.5565224  67.4036593
  15.1028577  38.7171640  67.4079020  15.8222361  39.6365391  68.1277367
  15.3782538  39.4446624  67.5111396  11.0077123  35.3899403  59.0555567
  10.4800142  35.4728147  58.3661275  11.4672832  36.1317275  59.0520211
  10.9978974  35.5120066  58.9530262  17.3435541  36.3366682  65.3565852
  17.1045311  36.2962516  64.5186637  17.5069443  37.1837834  65.4831574
  17.3325845  36.4558767  65.2519334  13.9481571  40.7216631  71.2870898
  14.6715770  40.2689157  71.1081918  13.6831534  41.0021297  70.5043225
  14.0162845  40.6967599  71.1449613   2.8168440  35.3176804  68.0223777
   2.1921510  35.3295196  67.4149730   2.4814035  35.7936980  68.6715017
   2.6753932  35.3895321  68.0280345   3.0010189  33.6601923  54.0796462
   2.6522993  34.3121648  54.5428011   2.5206634  33.6459036  53.3520333
   2.8780432  33.7544976  54.0407553  10.5614206  43.9602967  58.1865224
  11.2848405  44.4261080  58.0429797  10.1214797  44.0276576  57.4362821
  10.6029898  44.0386804  58.0550005   9.7300361  40.8200509  69.4365913
   9.1157354  40.2758559  69.7314548  10.2467646  40.3064746  68.9571729
   9.7156023  40.6636918  69.4090141   8.9696658  41.8904779  67.1710211
   8.5424266  41.2654498  66.7375647   8.9621602  41.6079701  67.9969219
   8.9055799  41.7557560  67.2290039   7.2982368  32.7673534  67.3852745
   7.3224855  32.2333646  66.6965525   7.5493841  32.2590843  68.0478336
   7.3392286  32.6134438  67.3817390   3.5783690  31.4944352  66.7658490
   3.6182062  31.9953559  67.4793197   2.7533355  31.5854746  66.4964413
   3.4623216  31.5826168  66.8309028   4.9998053  38.0104862  69.0632389
   4.1689983  38.1778680  68.8567637   4.9449571  37.6340813  69.8481274
   4.8687468  37.9794593  69.1480917   3.3734097  36.2860453  59.5922506
   3.5137058  36.7832918  60.2951148   3.8716630  35.5846748  59.7336720
   3.4675178  36.2562432  59.7174085   3.4034320  37.1527564  56.9215083
   4.0379399  37.7487989  56.8564545   3.4859930  36.8531022  57.7360953
   3.5090871  37.1968472  57.0318170  16.3816885  39.6843042  69.7901447
  16.9734726  40.3240292  69.8219645  16.8175880  38.9866078  70.0793514
  16.5335317  39.6761392  69.8382280   4.9813302  33.0841540  56.8960525
   5.3029144  32.6044622  56.2419787   5.2440246  33.8941186  56.7051337
   5.0679328  33.1331438  56.7716017   8.2110275  44.1060414  70.4159341
   7.7035366  44.6596261  70.8599972   7.9136921  44.1668704  69.5978116
   8.0915160  44.1966725  70.3607798  10.3772457  32.4713734  69.2584004
  10.8027529  32.0186260  68.6467531   9.7629451  31.9173804  69.5348792
  10.3501103  32.3227710  69.2089030  10.8218056  48.0223672  58.3463285
  10.1047365  47.8484534  57.8810522  11.4724793  47.7876244  57.8138771
  10.8119906  47.9619464  58.1992503   8.8166680  28.9428834  62.6674581
   8.1734998  28.7926480  63.2359720   8.4766087  28.6971179  61.9023686
   8.6711758  28.8840956  62.6377596  13.4066027  36.8988260  62.0904590
  12.7357217  37.4417963  61.9617655  14.1005777  37.3683116  61.8486285
  13.4094894  37.0486532  62.0360118   7.4552761  49.0384972  67.3216348
   7.2318415  48.2803802  67.6900374   6.9662604  49.0682994  66.5996788
   7.3496210  48.9307197  67.2693089   2.2677839  35.9851664  63.0577810
   1.5489828  36.4015796  63.3250673   2.6390202  36.5505902  62.5069448
   2.2169771  36.1300945  63.0160617  11.5677420  36.6179513  68.9479805
  11.5475347  36.4362808  69.8014584  11.6156621  37.4891531  68.9239389
  11.5712061  36.7196051  69.0703100   9.5123750  43.2066705  74.8728282
   9.4719605  42.5616382  74.2873438  10.3247068  43.1503322  75.1853694
   9.6266903  43.1025671  74.8325231   6.1031217  49.2585430  64.7753433
   5.6891616  48.5959561  64.3857274   6.7878592  49.4063289  64.2549127
   6.1429589  49.1826089  64.6409930   9.4696512  48.4175516  65.5277049
   9.0712795  48.5277786  64.7597870   8.8547731  48.6257582  66.1103609
   9.3195401  48.4649084  65.5008349   8.0424414  35.0249664  58.3951189
   7.4489253  35.3466660  57.8435756   8.0799691  34.1790759  58.1872295
   7.9598803  34.9473992  58.2833960  15.0018214  28.4762556  65.9279276
  14.4949079  27.7691695  65.8600453  15.7985648  28.1455745  66.0580352
  15.0445454  28.3235707  65.9378271  10.9182230  34.9829168  61.8252939
  10.6895923  35.0061869  60.9831298  11.1780306  34.1586635  61.9447950
  10.9228418  34.8645248  61.7178137   3.9726993  33.5205714  63.1207135
   4.4484359  33.8822794  62.4857316   3.4715592  34.1762182  63.4007278
   3.9692352  33.6699903  63.0683876  17.2038354  42.9927482  58.9120140
  17.5871960  43.7418839  59.1418237  16.4082468  43.2393302  58.6532129
  17.1432136  43.1397176  58.9077714   6.0153646  35.6646914  56.4880519
   6.3952611  35.6826543  55.7031634   5.2746242  36.1100903  56.3671366
   5.9622484  35.7328689  56.3544087  13.6438936  33.9729105  62.0756098
  13.6433163  33.8177762  62.9340374  13.4395116  34.8192092  62.0197483
  13.6138714  34.0749726  62.1944037  11.3679788  38.6526607  65.7292304
  11.8633454  37.9349602  65.6896325  10.5579564  38.3497405  65.6146791
  11.3223682  38.5024253  65.7066030   6.8138400  42.5024420  57.8789309
   6.0049723  42.1791094  57.8322618   7.3213309  41.7957642  57.8117558
   6.7688067  42.3505737  57.8619603  13.4331607  41.4030295  68.4169433
  13.8586679  40.8804716  67.8639858  13.0688527  42.0011132  67.8958056
  13.4418210  41.4140522  68.2578443   3.0685687  49.6994512  67.1766779
   3.3832246  50.5130901  67.1844560   3.4779100  49.3144731  67.8448938
   3.1753785  49.7623215  67.2770870  10.0210207  45.1164559  64.7470591
  10.4921385  45.8304821  64.9160576  10.3570385  44.5163309  65.2830460
  10.1405322  45.1336023  64.8502967  10.6584153  44.9082493  71.5098283
  10.1105099  44.2840377  71.2418349  11.1197182  45.0976765  70.7942363
  10.6451363  44.8441543  71.3648714  13.4678017  32.9767848  68.8949476
  12.8841006  33.4777054  68.4827043  13.7882311  32.4697404  68.2613799
  13.4291193  32.9759683  68.7407983   6.0072817  31.8908442  59.1708150
   6.8288511  32.0606755  58.9289845   5.5442467  32.0455703  58.4474448
   6.0603979  31.9390175  59.0279795  10.2242479  45.9133566  68.0407625
  11.0440853  45.7696532  68.3023920   9.9436557  46.5379765  68.5824062
  10.3039223  45.9843918  68.1595564  26.6956130  53.5698417  61.0050501
  26.6650134  54.4243054  61.1768770  27.2937478  53.2693710  61.5636645
  26.7793288  53.6514914  61.1125303  19.8955815  52.6574068  65.7603431
  19.0393710  52.8182567  65.8112548  19.9423468  51.7866132  65.7808492
  19.7754926  52.5524870  65.7709497  14.2796954  62.1936786  61.5240663
  13.5279854  61.8152325  61.2956708  14.7282966  62.2255220  60.7759473
  14.2346621  62.1422393  61.3798165  23.2049531  58.9260594  75.3663887
  23.9116298  58.4312625  75.4950822  23.3937467  59.3669676  74.6366545
  23.3377437  58.9178944  75.2772933  19.7321914  62.6162156  56.9526210
  19.3973283  63.2939077  56.5170432  20.2448785  62.2267467  56.3643082
  19.7587495  62.6586734  56.8013001  19.2726205  64.5676425  62.8937322
  19.6565585  65.1363323  62.3542097  19.2085347  63.8425935  62.4143138
  19.3199633  64.5451888  62.7431184  22.7407636  54.7166112  68.4035083
  23.2863596  55.3951199  68.4629053  22.6824512  54.5753573  67.5436665
  22.8123550  54.7958114  68.2847144  15.8581710  62.2055178  63.7903435
  15.9592073  61.3955532  64.1000563  15.2623456  62.1112125  63.1603114
  15.7854249  62.0720207  63.7429674  24.5172704  56.1450719  59.2768811
  24.4012230  56.8958406  59.7060949  25.3128591  55.8874673  59.5264898
  24.6177294  56.2185566  59.3772902  15.6982450  67.1232768  65.1918291
  16.3419906  67.5645932  65.5814450  16.0238706  66.3186194  65.1048550
  15.8414279  67.0697962  65.2363769   9.0546755  58.2275465  63.4155769
   8.8196939  57.3943117  63.3088038   9.1932395  58.5080131  62.6016970
   9.0402417  58.1458968  63.2798124  11.3536842  50.3961196  66.3140077
  10.7341874  49.8053843  66.1450092  11.2520706  50.9872631  65.6804400
  11.2474518  50.3965278  66.1945066  16.4003030  60.1344742  60.5638153
  16.7218871  60.6749950  59.9599461  17.0475126  59.5641514  60.6960443
  16.5429085  60.1303918  60.4945189  18.4504738  52.1360737  60.6472540
  19.1484903  52.3148865  61.1394003  18.7657070  51.6131077  60.0242929
  18.6000075  52.0854510  60.6274550  11.0805975  53.9413477  68.5583646
  10.9564672  54.5275923  69.1933465  11.7324260  53.4473673  68.8595921
  11.1579625  53.9552282  68.6969575  18.6392673  58.5231182  60.6352331
  19.0786309  57.9148283  61.0807104  18.4897336  58.1438556  59.8637796
  18.6814139  58.3769654  60.5871499  16.1064316  57.1175194  67.8371157
  16.7513319  56.6247637  67.5182105  16.3466093  57.2599981  68.6637235
  16.2374901  57.0652637  67.9120690  18.6450408  59.9630100  67.4878049
  18.9273650  59.1681506  67.2664805  19.3736568  60.4410688  67.5083110
  18.7939971  59.9164697  67.4581065  16.6231601  47.5053134  64.7293815
  16.2934931  47.9564278  64.0597513  15.9476603  47.4269297  65.2766821
  16.4742038  47.5604269  64.7117038  22.2402010  56.8758364  57.5883101
  22.1553305  57.7319330  57.7332669  22.7286393  56.6002688  58.2565260
  22.2990907  56.9615685  57.7085182  23.8308009  43.4938657  62.9743425
  23.5161450  44.1842136  63.4063848  23.3134951  43.4383439  62.2728926
  23.7072480  43.5873546  62.9340374  23.1720443  53.4943158  59.0880836
  22.6431914  53.7102791  59.7478142  23.6945463  54.1879296  59.0081805
  23.1708896  53.6286295  59.1736435  28.6268496  59.0689462  64.4613880
  27.7966199  59.2800106  64.6247297  28.5777748  58.2426517  64.1856164
  28.4975231  58.9779069  64.4451246  15.0620051  57.3906375  57.8888304
  14.4777266  57.8956406  58.2954168  14.6590146  57.1648762  57.1484896
  14.9159355  57.4314623  57.8393329  10.6164079  63.1061136  64.6911975
  10.1331658  63.8311625  64.6671559  11.4287398  63.4037266  64.8022133
  10.6654827  63.2563490  64.7039254  16.6878233  61.8993317  67.2961790
  16.1705175  61.5400732  66.6923098  17.3852625  61.3755491  67.3067856
  16.7143815  61.7691004  67.2092048  20.3441825  62.3488131  73.2577963
  20.4325171  62.1614271  74.1056173  20.7731538  61.7025560  72.8582810
  20.4203928  62.2251138  73.3249714  19.5197265  53.6372027  56.3657224
  19.7593269  53.8450011  55.5532567  19.8413106  52.8329535  56.4746169
  19.6034423  53.5486128  56.2617777  14.8287555  45.5665422  60.2116762
  15.5833524  45.9343740  59.9733812  14.6515090  45.9404977  60.9795942
  14.9142034  45.6763610  60.2901651  13.4708277  63.6217312  64.8432255
  14.1728856  63.1069301  64.9005012  13.3905760  63.9491463  65.6479130
  13.5632037  63.5931538  64.9705047  28.1222454  51.7159863  68.2564302
  27.2850875  51.7862050  68.4911896  28.0910685  51.7184358  67.3838604
  27.9940737  51.7270090  68.1623850  14.5187183  53.8592899  73.9712670
  14.6907687  53.7498793  74.8197952  15.0556541  54.5047304  73.7343862
  14.6232187  53.9384900  74.0617767  13.1844620  47.9735741  56.9094875
  13.0020193  48.1907622  56.0835868  14.0470233  48.0874754  56.9653490
  13.2849210  48.0225639  56.7949362  12.7959052  59.8123664  64.3517863
  13.6347952  60.0446597  64.3991625  12.8270821  58.9427975  64.2824899
  12.9240770  59.7180610  64.3482508  13.4211755  60.2324539  68.6531169
  13.9609980  60.0895670  69.3234541  12.7381701  60.6321290  69.0215195
  13.4003909  60.2704210  68.8065590  18.8644339  44.9762152  59.9443899
  19.5930500  44.7978107  59.4982055  18.9539232  45.8180232  60.1551077
  18.9851001  45.0746031  59.9097417  22.8452640  55.9115540  63.8476193
  23.6010155  56.3447054  63.8865102  22.9514964  55.2620309  64.4210829
  22.9722811  55.8793023  63.9374219  25.8832811  59.7388817  64.5978596
  25.4468043  59.7425559  65.3537567  25.5495727  60.4194316  64.1658173
  25.7695431  59.8401273  64.6459429  25.8030294  46.7802645  66.8408024
  26.4456202  46.8500749  67.4269939  26.0553315  46.1131868  66.3387566
  25.9352426  46.6928993  66.8535303  12.7306647  51.2509914  55.4217348
  12.0164824  50.9648094  55.8339781  13.2150616  51.5906540  56.0623736
  12.6966010  51.2591564  55.5772983  13.5747507  49.9903208  71.4532598
  12.8819303  49.5200188  71.6993329  14.1907834  49.7641513  72.0274305
  13.5632037  49.8870340  71.5741750  20.6132278  63.6907252  69.5688202
  19.8147524  63.4506752  69.8262071  21.0618290  63.7421645  70.3155250
  20.5606889  63.6629643  69.7173126  29.0177157  56.4569737  63.4898233
  29.6793591  55.8960405  63.3894142  28.3768569  55.9621767  63.8150924
  29.0206025  56.3006146  63.5230573  19.9053965  59.7539868  55.7979156
  20.3205114  59.4224892  55.1063652  19.0745895  59.5208770  55.6699293
  19.8441974  59.6711124  55.6770004   9.2342314  57.2383609  66.0877334
   9.0517887  57.2130495  65.2349627   9.9691983  57.7082547  66.1266243
   9.3156378  57.3044971  65.9675253  25.3041988  57.4735119  63.2310222
  25.5397577  57.6180318  62.4037073  25.4531552  58.2377527  63.6241736
  25.3607791  57.6074173  63.1673826  12.2988066  53.9568612  72.5959443
  13.0228038  53.9421643  73.0824338  12.4004202  54.6663967  72.0981411
  12.4206275  54.0593315  72.5938230  27.1332445  56.3136785  61.0679826
  27.4640662  56.8464425  60.4619921  27.7065533  56.3675673  61.7241777
  27.2666124  56.4006354  61.0757608  22.3464334  54.1601688  61.7503406
  22.4411188  54.8990982  62.2043031  21.7223177  53.7319163  62.1837970
  22.2673364  54.2063008  61.8811553  20.6016808  57.3387900  72.3993687
  21.1755669  56.7015145  72.5542251  20.5231611  57.3391983  71.5303344
  20.6750043  57.2453012  72.2940098   9.2013224  54.1177110  66.2376401
   9.7786727  53.9813561  66.8768646   8.5027286  53.6612894  66.4921985
   9.1834246  54.0299376  66.3698691  22.5987355  56.0050428  54.9840358
  22.5167518  56.0752615  55.8495345  23.2367076  56.5680171  54.7924099
  22.6807193  56.0989399  55.0830307  15.9580526  55.7711165  64.4514884
  15.6999771  54.9382900  64.4246184  16.0129009  55.9968778  63.6107385
  15.9280304  55.6808937  64.3235021  21.0381577  47.8739616  64.5518977
  20.3337903  47.3848802  64.7102896  21.0866551  47.8862091  63.6807421
  20.9411628  47.8029264  64.4458317  14.9315239  53.3248928  64.9379779
  14.3564830  53.4841096  65.5743740  14.5550915  52.6884337  64.4748230
  14.7918051  53.2546741  64.9634337  18.5988527  51.7972277  69.7972157
  18.2102960  51.3726495  69.1424349  17.9343226  52.0454427  70.3049184
  18.4435455  51.7710998  69.7760025  28.2411796  51.5547282  62.5719987
  27.9848361  50.7427223  62.3817870  29.0841110  51.5624849  62.3450175
  28.3277822  51.4359279  62.5104805   4.6772057  52.9689003  62.9524220
   4.7632309  52.5920871  63.7337750   5.3047855  52.5949448  62.4744178
   4.7828608  52.8574485  62.9969697  22.4214889  45.4946906  67.3096142
  22.8025400  44.8125077  67.6964016  21.6178173  45.2056508  67.1271806
  22.3591350  45.3513954  67.3400198  19.7027465  56.0270882  57.9948964
  20.5168104  56.3185775  57.8831736  19.6386607  55.3730744  57.4207257
  19.8130204  55.9736077  57.8937802  25.9236956  58.7096878  72.4078540
  25.6875593  57.8784943  72.2890601  26.5680185  58.6582485  72.9933384
  25.9831626  58.5794566  72.4764434  15.5735374  59.4992399  63.1221276
  16.2109321  59.2604147  63.6673070  15.9990445  59.7029558  62.3874437
  15.7311540  59.4943409  63.0938434  16.2138189  54.7194689  57.4596166
  16.5983341  54.5002396  58.2112711  15.9649809  55.5457634  57.5897242
  16.2340261  54.8092835  57.5897242  16.3806729  48.0001104  77.1758750
  16.0660170  48.7700667  76.9128313  16.0596662  47.4371360  76.5910977
  16.2865648  48.0311373  77.0500100  26.9473376  58.4941327  68.4706835
  26.6419193  59.2269384  68.8320150  26.2279592  58.0879256  68.1899621
  26.7960718  58.5423060  68.4819972  17.9556846  59.9764822  64.8015063
  18.0295854  59.8139994  65.6556913  18.7726352  60.1655011  64.5575544
  18.0873204  59.9801564  64.8913088  32.6475168  55.1334327  67.7975179
  32.5799669  55.1530287  66.9277765  32.6330831  55.9764655  68.0230849
  32.6353925  55.2608062  67.7027656  11.7162602  60.3222685  61.8309506
  10.8900720  60.5684422  61.7043785  11.7774594  60.2434766  62.6971564
  11.6036769  60.3467634  61.9398451  13.9338626  46.3891626  62.7904946
  13.0661052  46.4614225  62.8562556  14.2213830  47.1913705  62.9792921
  13.8478374  46.5185773  62.8279713  23.0571515  46.5369485  71.1216268
  23.8025107  46.3479295  70.7079694  22.6408819  47.0627723  70.5630125
  23.1056489  46.5871630  70.9780841  16.4961431  62.9399565  59.5328536
  16.7859730  62.5488546  58.8087763  17.2264912  63.1216270  59.9733811
  16.6468316  62.9093379  59.4911343  30.4333786  53.9078714  66.0721773
  30.9841707  53.2746783  66.3118865  30.4177901  54.4394106  66.7637277
  30.5118982  53.8927662  66.2100631  17.0856177  57.7417311  70.6181667
  16.5867870  58.4533079  70.6966555  17.8956401  58.0617977  70.5799829
  17.1312283  57.8944159  70.6238235  14.4367347  64.9166947  62.5988686
  14.2167642  64.6264302  63.3915353  14.2161869  64.2581902  62.0706598
  14.3714941  64.7766656  62.6377595  13.3484294  57.0040264  64.8644388
  13.0597543  56.3777735  65.3990115  14.2167642  56.9460551  64.9309068
  13.4344546  56.9027808  64.9535342  24.1362192  52.1475047  65.1826369
  23.7926958  51.4265382  65.5333619  24.2355234  51.9388898  64.3404728
  24.1004235  52.0099251  65.1098049  16.6035303  66.2896337  61.3819378
  17.2559361  65.7572780  61.6110404  15.9060911  65.9364990  61.7687252
  16.5966021  66.1585860  61.4731546  13.5516567  58.6435515  60.7886753
  14.3062535  59.0248554  61.0022215  12.9587180  59.0946659  61.2433449
  13.5753281  58.7664342  60.8869631  24.5975221  58.6100751  60.7250358
  25.1633254  59.2693961  60.6408900  23.9503124  58.9550449  61.1966760
  24.5853977  58.7582693  60.7823114  16.0123235  50.5998355  75.9143965
  15.2023010  50.9056135  75.8033807  16.4897921  51.3203938  76.0296549
  15.9626713  50.7512956  75.9151036  14.8714794  59.8144076  66.1626868
  14.3495548  59.9544368  66.8478733  15.2588814  59.0554741  66.3528985
  14.8518495  59.7229600  66.2927944  11.8605978  49.8649885  60.2321823
  11.5730774  49.4951155  59.4953770  12.5476446  50.3344740  59.9705528
  11.9194875  49.8796854  60.0836898  21.0681799  61.5539536  60.1487437
  20.8268475  60.8207396  59.7414502  21.2483132  62.1026392  59.4953770
  21.0589423  61.5261927  59.9917660  16.2981120  56.8448095  61.5608359
  16.1023902  57.4522830  60.9668662  16.5215465  56.1516039  61.0800033
  16.3015761  56.8325621  61.4024440  14.6959650  53.7302833  61.6789227
  15.4182302  53.8943991  61.2193033  14.2167643  54.4512498  61.5728567
  14.7323380  53.8601063  61.5954841  22.6553157  50.0666632  67.0585912
  21.8164258  50.0927911  66.8224176  22.7257525  50.7137367  67.6391259
  22.5421551  50.1662758  67.1095029  21.1022436  46.9652009  61.7913528
  21.8048788  46.7659757  61.3133486  20.8366624  46.1927951  62.0982372
  21.1669068  46.8214975  61.7658970  26.5310681  55.2734619  64.3447154
  26.4444656  55.4290045  65.1981933  26.0761161  55.9172694  63.9706559
  26.4513938  55.3910374  64.4154261   9.4334173  50.6431097  61.0807104
   9.5350309  51.4457259  61.4088079  10.2290059  50.4418433  60.7830184
   9.5662078  50.7316996  61.0842459  15.8650992  48.2287294  70.8444409
  15.6734189  48.2442429  71.6943832  16.7149588  48.4250969  70.8211064
  15.9626714  48.2601645  70.9667704  10.2497905  50.7578276  68.8228225
  10.1083397  49.9062216  68.9472733  10.5338468  50.8006936  67.9990431
  10.2705751  50.6378026  68.7195849  20.4036497  52.5945366  62.9672714
  20.1571211  52.5141117  63.8009502  20.7321620  51.8098834  62.7735241
  20.4157741  52.4671631  63.0620237  24.2984546  59.3028725  66.7559495
  24.1598905  60.0009771  67.2608237  23.5184544  59.1477382  66.3995677
  24.1627773  59.3828892  66.7785769  22.6362631  55.6025101  73.0081876
  22.6310670  54.7304917  73.0124303  23.3423625  55.8013270  72.5351332
  22.7407635  55.5028975  72.9388912  16.3633524  55.3302084  72.3795697
  16.5076900  55.9103293  71.7438807  16.7109173  55.7078381  73.0845551
  16.4360986  55.4722789  72.3894692  18.5353442  54.5292253  70.1620828
  17.7876756  54.7223267  69.7569106  18.6894967  53.7037472  69.9244950
  18.4475869  54.4357364  70.0666234  15.4361279  63.5204856  69.2456723
  15.5850843  62.9607772  68.5930128  16.2161282  63.5996858  69.6289242
  15.5735373  63.4490422  69.2053673  25.7937919  58.6606979  57.5175994
  25.4144728  57.8744117  57.5105283  25.1304164  59.2093836  57.3747638
  25.6396394  58.6251803  57.4956791  17.9614580  63.6919499  70.5241214
  17.8858251  63.0228310  71.0792003  17.8904439  64.3937287  71.0381881
  17.9395187  63.6964407  70.6818062  18.7755219  48.4242804  71.0516232
  19.2327833  49.1566778  71.1789024  18.8511548  48.0009269  71.8103488
  18.8546189  48.4700042  71.1817308  11.0188210  48.6708623  72.1405676
  10.4830400  48.0588981  72.4566443  11.0805975  49.2456759  72.7939342
  10.9483843  48.6655551  72.2841102  23.2482545  41.6032679  64.9210075
  23.3666113  42.0609142  64.1877378  23.0744721  40.7977940  64.6346292
  23.2401716  41.5526451  64.7711009  18.6184827  62.2120498  61.3564820
  19.3834718  61.9430142  61.0347484  18.5162917  61.7270508  62.0734883
  18.7166322  62.1010063  61.4144648  16.6537597  50.4144908  67.8958056
  15.8633672  50.2336368  68.2175392  17.0498220  49.6371860  67.8788350
  16.5954473  50.2732368  67.9410604  21.1403488  59.2432682  53.3364770
  21.9076473  59.3032807  52.9270621  20.6934797  58.6713123  52.8521088
  21.1876915  59.1669258  53.2042480  22.0381283  58.0487338  65.6217502
  21.3626285  57.8172570  66.1230889  22.0473659  57.4408521  64.9959607
  21.9399788  57.9246263  65.6033654  19.1675427  52.8905167  72.3781555
  19.1034568  53.7515123  72.2501692  19.3072615  52.5737160  71.5777106
  19.1790897  52.9705333  72.2409768  24.0398018  60.9052470  57.8527680
  24.1217855  61.7119456  57.5289131  24.5247760  60.9248429  58.5768453
  24.1235176  61.0273132  57.9114578  17.8494521  55.5837306  66.5197758
  17.4256770  55.7841805  65.7836776  17.6739376  54.7366154  66.6322058
  17.7605402  55.4886087  66.4271448  13.1376966  56.0789357  61.9525730
  13.2941585  56.0136160  62.8081722  13.4777559  56.8537910  61.7404410
  13.2110201  56.1838556  62.0480324  19.6756111  55.4547241  60.8219094
  20.2171656  54.9517622  61.2857714  19.9902670  55.4012436  60.0108579
  19.8020508  55.3726662  60.7702906  23.5473218  59.6649888  77.9346006
  24.3608083  59.3935037  78.0951138  23.3868184  59.3657428  77.1306202
  23.6443166  59.5804814  77.8391412  17.8442560  60.8464593  58.1059122
  17.9135381  59.9879131  58.2452122  18.6231015  61.0636473  57.7778146
  17.9695410  60.7517456  58.0776279  20.8245380  50.3483545  70.8741394
  21.0387349  49.7094460  70.3204748  20.2079279  50.7929369  70.4449256
  20.7650709  50.3193689  70.7291825  22.2350048  63.2702294  62.3195615
  21.8429840  62.9669009  61.6018481  22.3903120  64.1071384  62.1300569
  22.2003638  63.3486131  62.1852112   9.7111227  53.2624308  62.2686497
  10.0910192  53.6808853  61.6046765   9.1366592  53.8437764  62.5755341
   9.6822552  53.4102167  62.2163238  22.9884468  51.9572611  71.8124701
  22.1761150  51.6498501  71.8937874  23.4474403  51.4771611  72.3767413
  22.9364853  51.8409103  71.9079295  22.3989723  59.8352283  62.2601645
  22.0404377  60.0066926  63.0365678  21.9128433  60.2965488  61.7029644
  22.2748420  59.9291254  62.2926915  20.2160109  43.4583481  65.8628737
  19.3453667  43.4322202  65.8162046  20.4700450  43.2860673  65.0454582
  20.1253669  43.4293625  65.7348874  17.1878088  55.5151448  54.8001880
  17.4770613  56.2916331  55.0745454  17.2749887  55.0040179  55.5016379
  17.2432344  55.5543366  54.9444378  20.0837975  53.3632682  76.5953403
  20.5537607  53.9874798  76.9821277  20.1299856  52.6949658  77.1546618
  20.1605851  53.3567362  76.7353475  17.2409249  45.4689710  67.3202207
  16.7247738  44.7769901  67.4453786  16.6803178  46.1360487  67.2664806
  17.0815762  45.4652967  67.3308273  19.3101483  46.0082670  69.1495060
  18.9233236  46.0331701  69.9308590  18.8234420  45.4424348  68.6969576
  19.1813991  45.9278420  69.1982963  23.5594462  60.7256179  73.2068846
  24.1974182  60.2316374  72.8731302  22.9168554  60.6533579  72.6221073
  23.5588688  60.6415187  73.0711201  25.2851462  52.5745325  67.7734762
  24.8579070  52.4871673  67.0182861  24.6477515  52.6823100  68.3589606
  25.1281069  52.5777984  67.7480203  18.9758624  42.8949655  71.4405320
  19.6051742  43.4309955  71.1626390  19.1444487  42.8027014  72.2918885
  19.0936419  42.9611017  71.5253848  18.7772539  47.6820850  73.7131731
  19.6045968  47.4105999  73.7690346  18.7980385  48.4781691  74.0695549
  18.9025389  47.7600604  73.7746914  23.6148719  61.4175987  69.8474203
  24.4041097  61.0665052  69.9676285  23.7892316  62.2312375  69.5850837
  23.7569000  61.4861844  69.8262071  13.3542029  54.8284713  66.9001992
  12.5130036  54.7288587  67.1080886  13.5632037  55.5980193  67.2516313
  13.2606722  54.9276756  66.9829307  10.8317596  52.4504250  64.7286743
  10.4374294  52.5247261  63.9536852  10.2757713  52.8362196  65.2795104
  10.6920408  52.5186024  64.6954402  22.4682543  45.4285544  64.4090621
  22.6732136  45.3607851  65.2547619  22.1408967  46.2344365  64.3411799
  22.4497791  45.5371484  64.5250277  17.1658694  52.7566112  66.1499589
  16.8621831  52.2022100  66.7509997  16.4638115  52.9358322  65.6627624
  17.0174904  52.7010894  66.1669295  16.2224791  50.0666632  60.7144291
  16.4984525  49.3485544  60.3021859  16.8223460  50.6651552  60.5065397
  16.3518056  50.0487002  60.6225052  25.7216230  45.9817308  63.8893387
  25.1090544  46.4687710  64.2747119  25.8180405  45.3060799  64.4331038
  25.6454128  45.9535617  64.0272245  19.7235311  47.7380149  58.9890886
  20.1779058  47.9090709  59.7138731  20.1975357  47.1248260  58.5888662
  19.8603632  47.6731034  59.0364648  13.2450837  57.2228475  68.3193625
  12.6538770  57.8637973  68.2896640  14.0071860  57.6466092  68.2924924
  13.2699097  57.3804313  68.3108772  13.6411460  48.3830473  68.9861642
  14.1012941  48.4569402  69.7236766  13.6867566  49.1811727  68.6361464
  13.7162015  48.5124620  69.0434399  15.2894809  49.0497168  73.5533670
  14.8980375  48.4030515  73.9889447  15.4580672  49.6408603  74.1727925
  15.2565720  49.0411435  73.7096375  29.3641258  57.0534245  69.3170903
  29.4224382  57.5020893  70.0630880  28.7307726  57.4633057  68.8800983
  29.2792553  57.1807979  69.3623451  23.0040353  62.6737787  65.7525649
  22.8060042  63.1628601  65.0581861  22.3828064  62.8779028  66.3309783
  22.8827918  62.7754325  65.7348873  17.0648331  54.4422683  60.0935894
  17.8090376  54.8296960  60.3318843  17.2109028  53.5980109  60.2576381
  17.1958917  54.3753156  60.1529863  18.9827907  46.2372942  65.1267755
  18.1363952  46.4095750  65.0009105  18.9799039  45.4322286  65.4633583
  18.8575057  46.1433971  65.1578882  20.0526207  50.0148157  65.9929813
  19.5786162  49.4889919  66.5035124  20.4244343  49.4677629  65.4244674
  20.0376096  49.8564153  65.9844960  10.4299237  52.0119663  71.3613359
  11.2924850  51.9115373  71.2750688  10.0991020  51.4314373  70.7998931
  10.5084434  51.9111290  71.2658764  26.3162938  55.0750532  67.4036593
  26.0761161  54.2356947  67.4079020  26.7954945  55.1550699  68.1277367
  26.3515122  54.9631932  67.5111396  21.9809707  50.9084711  59.0555567
  21.4532726  50.9913455  58.3661275  22.4405415  51.6502583  59.0520211
  21.9711557  51.0305374  58.9530262  28.3168125  51.8551990  65.3565852
  28.0777895  51.8147824  64.5186637  28.4802026  52.7023142  65.4831574
  28.3058428  51.9744075  65.2519334  24.9214155  56.2401939  71.2870898
  25.6448354  55.7874465  71.1081918  24.6564117  56.5206604  70.5043225
  24.9895428  56.2152907  71.1449613  13.7901023  50.8362112  68.0223777
  13.1654094  50.8480504  67.4149730  13.4546618  51.3122287  68.6715017
  13.6486515  50.9080629  68.0280345  13.9742772  49.1787231  54.0796462
  13.6255576  49.8306956  54.5428011  13.4939218  49.1644344  53.3520333
  13.8513016  49.2730284  54.0407553  21.5346789  59.4788275  58.1865224
  22.2580988  59.9446388  58.0429797  21.0947380  59.5461884  57.4362821
  21.5762482  59.5572111  58.0550005  20.7032944  56.3385817  69.4365913
  20.0889938  55.7943867  69.7314548  21.2200229  55.8250054  68.9571729
  20.6888607  56.1822226  69.4090141  19.9429242  57.4090087  67.1710211
  19.5156850  56.7839806  66.7375647  19.9354186  57.1265009  67.9969219
  19.8788383  57.2742868  67.2290039  13.0591769  52.4455260  70.2398645
  13.2185255  51.6898584  70.6450367  12.8784662  52.9946200  70.8939383
  13.0557128  52.4149074  70.3961351  21.0012072  44.6116496  70.7949435
  20.5052633  44.8080170  70.1041001  21.7581134  45.0109164  70.6238236
  21.0398896  44.6994230  70.6669572  18.2714951  48.2858842  67.3852745
  18.2957439  47.7518954  66.6965525  18.5226425  47.7776150  68.0478336
  18.3124870  48.1319746  67.3817390  14.5516274  47.0129660  66.7658490
  14.5914645  47.5138866  67.4793197  13.7265938  47.1040054  66.4964413
  14.4355800  47.1011476  66.8309028  15.9730637  53.5290170  69.0632389
  15.1422567  53.6963988  68.8567637  15.9182154  53.1526120  69.8481274
  15.8420052  53.4979901  69.1480917  13.7814420  47.0199063  74.6988799
  14.4067124  46.4761195  74.9718232  13.3264900  46.5393980  74.1296590
  13.8062681  46.8688544  74.6550393  14.3466681  51.8045761  59.5922506
  14.4869642  52.3018225  60.2951148  14.8449214  51.1032056  59.7336720
  14.4407762  51.7747740  59.7174085  14.3766903  52.6712872  56.9215083
  15.0111983  53.2673297  56.8564545  14.4592514  52.3716330  57.7360953
  14.4823454  52.7153780  57.0318170  27.3549469  55.2028350  69.7901447
  27.9467309  55.8425600  69.8219645  27.7908463  54.5051386  70.0793514
  27.5067900  55.1946700  69.8382280  15.9545886  48.6026848  56.8960525
  16.2761727  48.1229930  56.2419787  16.2172830  49.4126494  56.7051337
  16.0411911  48.6516746  56.7716017  19.1842859  59.6245722  70.4159341
  18.6767950  60.1781569  70.8599972  18.8869505  59.6854012  69.5978116
  19.0647744  59.7152033  70.3607798  21.3505041  47.9899042  69.2584004
  21.7760113  47.5371568  68.6467531  20.7362034  47.4359112  69.5348792
  21.3233686  47.8413018  69.2089030  10.8819891  54.8680713  60.1904629
  11.3912120  55.4645221  60.5715935  11.3554163  54.6006687  59.5081049
  11.0263267  54.9166528  60.1459152  21.7950639  63.5408980  58.3463285
  21.0779949  63.3669842  57.8810522  22.4457377  63.3061552  57.8138771
  21.7852490  63.4804772  58.1992503  19.7899264  44.4614141  62.6674581
  19.1467582  44.3111788  63.2359720  19.4498671  44.2156487  61.9023686
  19.6444341  44.4026264  62.6377596  24.3798610  52.4173568  62.0904590
  23.7089800  52.9603270  61.9617655  25.0738361  52.8868424  61.8486285
  24.3827478  52.5671839  62.0360118  18.4285344  64.5570280  67.3216348
  18.2050999  63.7989110  67.6900374  17.9395187  64.5868301  66.5996788
  18.3228793  64.4492505  67.2693089  24.5426738  48.8729452  64.9994963
  24.8954348  48.4459175  65.6740762  23.6841539  48.7880295  65.1296039
  24.4676182  48.7974193  65.1189974  13.2410423  51.5036972  63.0577810
  12.5222412  51.9201104  63.3250673  13.6122785  52.0691210  62.5069448
  13.1902355  51.6486253  63.0160617  22.5410004  52.1364820  68.9479805
  22.5207931  51.9548116  69.8014584  22.5889204  53.0076839  68.9239389
  22.5444645  52.2381359  69.0703100  20.4856333  58.7252012  74.8728282
  20.4452188  58.0801689  74.2873438  21.2979652  58.6688630  75.1853694
  20.5999487  58.6210979  74.8325231  17.0763801  64.7770738  64.7753433
  16.6624200  64.1144869  64.3857274  17.7611175  64.9248597  64.2549127
  17.1162173  64.7011397  64.6409930  20.4429095  63.9360824  65.5277049
  20.0445378  64.0463094  64.7597870  19.8280315  64.1442890  66.1103609
  20.2927984  63.9834392  65.5008349  19.0156997  50.5434971  58.3951189
  18.4221836  50.8651968  57.8435756  19.0532275  49.6976067  58.1872295
  18.9331386  50.4659300  58.2833960  25.9750798  43.9947864  65.9279276
  25.4681663  43.2877003  65.8600453  26.7718232  43.6641053  66.0580352
  26.0178037  43.8421015  65.9378271  21.8914814  50.5014476  61.8252939
  21.6628507  50.5247177  60.9831298  22.1512890  49.6771943  61.9447950
  21.8961002  50.3830556  61.7178137  16.1734042  52.3548949  71.4278040
  15.6612945  51.7470132  71.7863071  16.0013538  53.0705542  71.8952015
  16.0723679  52.3712248  71.5494263  14.9459576  49.0391022  63.1207135
  15.4216943  49.4008102  62.4857316  14.4448176  49.6947490  63.4007278
  14.9424935  49.1885211  63.0683876  28.1770938  58.5112790  58.9120140
  28.5604544  59.2604146  59.1418237  27.3815051  58.7578610  58.6532129
  28.1164720  58.6582484  58.9077714  20.0503113  50.2773194  73.8680295
  20.6074543  50.0487003  73.2358760  19.7264178  51.0378859  73.5915507
  20.0849523  50.3557030  73.7336792  17.7686230  53.3640847  74.8332302
  18.5197557  53.6792524  75.1471856  17.9608806  53.1620018  74.0066224
  17.9077644  53.3808229  74.7575698  16.9886229  51.1832222  56.4880519
  17.3685194  51.2011851  55.7031634  16.2478825  51.6286211  56.3671366
  16.9355067  51.2513997  56.3544087  24.6171520  49.4914413  62.0756098
  24.6165746  49.3363070  62.9340374  24.4127700  50.3377400  62.0197483
  24.5871298  49.5935034  62.1944037   6.6788791  52.9154198  66.4914914
   6.5010552  52.4630807  67.2169830   6.3907813  53.7180359  66.6753392
   6.6101744  52.9676756  66.6258417  22.3412372  54.1711915  65.7292304
  22.8366037  53.4534910  65.6896325  21.5312148  53.8682713  65.6146791
  22.2956265  54.0209561  65.7066030  17.7870983  58.0209728  57.8789309
  16.9782306  57.6976402  57.8322618  18.2945892  57.3142950  57.8117558
  17.7420650  57.8691045  57.8619603   8.4161261  55.4481921  63.6036673
   7.5506780  55.4367612  63.4919444   8.5160077  55.2612144  64.4507813
   8.3035428  55.4187983  63.7125618  24.4064191  56.9215603  68.4169433
  24.8319262  56.3990024  67.8639858  24.0421111  57.5196440  67.8958056
  24.4150793  56.9325830  68.2578443  14.0418271  65.2179820  67.1766779
  14.3564830  66.0316208  67.1844560  14.4511684  64.8330039  67.8448938
  14.1486369  65.2808522  67.2770870  20.9942790  60.6349867  64.7470591
  21.4653968  61.3490129  64.9160576  21.3302969  60.0348617  65.2830460
  21.1137905  60.6521331  64.8502967  17.9112285  45.4077337  71.7028686
  18.0440191  44.6108331  72.0309661  18.2957438  45.9343740  72.2826961
  17.9868614  45.3677254  71.8372188  21.6316737  60.4267801  71.5098283
  21.0837683  59.8025685  71.2418349  22.0929765  60.6162073  70.7942363
  21.6183946  60.3626851  71.3648714  20.9844640  42.3307664  68.3009779
  20.1790604  42.2205393  68.6177617  20.8551376  42.4320119  67.4439645
  20.8464773  42.3291334  68.2217819  24.4410601  48.4953155  68.8949476
  23.8573590  48.9962362  68.4827043  24.7614895  47.9882712  68.2613799
  24.4023776  48.4944990  68.7407983  16.9805400  47.4093750  59.1708150
  17.8021094  47.5792063  58.9289845  16.5175051  47.5641011  58.4474448
  17.0336562  47.4575483  59.0279795  15.5700732  45.4036512  69.9506579
  16.1145145  45.0627639  70.5410921  15.6237668  46.2621974  70.0927864
  15.6589851  45.4791772  70.0588453  11.3831291  59.1652928  66.8245387
  11.9876148  59.1248763  66.1959208  11.1758603  60.0124081  66.8549443
  11.4420188  59.2840931  66.7361504  21.1975063  61.4318874  68.0407625
  22.0173437  61.2881840  68.3023920  20.9169141  62.0565073  68.5824062
  21.2771806  61.5029226  68.1595564  37.6688713  69.0883725  61.0050501
  37.6382718  69.9428362  61.1768770  38.2670062  68.7879018  61.5636645
  37.7525871  69.1700222  61.1125303  30.8688398  68.1759376  65.7603431
  30.0126294  68.3367875  65.8112548  30.9156052  67.3051440  65.7808492
  30.7487510  68.0710178  65.7709497  33.7140219  70.2351420  68.4035083
  34.2596179  70.9136507  68.4629053  33.6557095  70.0938881  67.5436665
  33.7856134  70.3143422  68.2847144  35.4905288  71.6636027  59.2768811
  35.3744814  72.4143713  59.7060949  36.2861175  71.4059981  59.5264898
  35.5909877  71.7370874  59.3772902  20.0279338  73.7460773  63.4155769
  19.7929523  72.9128425  63.3088038  20.1664979  74.0265439  62.6016970
  20.0135001  73.6644276  63.2798124  22.3269426  65.9146504  66.3140077
  21.7074457  65.3239151  66.1450092  22.2253289  66.5057939  65.6804400
  22.2207101  65.9150586  66.1945066  27.3735613  75.6530050  60.5638153
  27.6951454  76.1935258  59.9599461  28.0207710  75.0826822  60.6960443
  27.5161669  75.6489226  60.4945189  29.4237321  67.6546045  60.6472540
  30.1217486  67.8334173  61.1394003  29.7389654  67.1316385  60.0242929
  29.5732659  67.6039817  60.6274550  22.0538559  69.4598785  68.5583646
  21.9297256  70.0461231  69.1933465  22.7056843  68.9658981  68.8595921
  22.1312208  69.4737590  68.6969575  29.6125257  74.0416490  60.6352331
  30.0518892  73.4333591  61.0807104  29.4629920  73.6623864  59.8637796
  29.6546722  73.8954962  60.5871499  27.0796900  72.6360502  67.8371157
  27.7245902  72.1432945  67.5182105  27.3198677  72.7785289  68.6637235
  27.2107485  72.5837944  67.9120690  29.6182991  75.4815408  67.4878049
  29.9006234  74.6866814  67.2664805  30.3469152  75.9595996  67.5083110
  29.7672555  75.4350005  67.4581065  27.5964185  63.0238442  64.7293815
  27.2667515  63.4749586  64.0597513  26.9209187  62.9454605  65.2766821
  27.4474621  63.0789577  64.7117038  33.2134593  72.3943672  57.5883101
  33.1285888  73.2504638  57.7332669  33.7018977  72.1187996  58.2565260
  33.2723491  72.4800993  57.7085182  34.8040593  59.0123965  62.9743425
  34.4894034  59.7027444  63.4063848  34.2867534  58.9568747  62.2728926
  34.6805063  59.1058853  62.9340374  34.1453027  69.0128466  59.0880836
  33.6164498  69.2288099  59.7478142  34.6678047  69.7064604  59.0081805
  34.1441480  69.1471603  59.1736435  39.6001079  74.5874770  64.4613880
  38.7698783  74.7985414  64.6247297  39.5510332  73.7611825  64.1856164
  39.4707815  74.4964377  64.4451246  26.0352634  72.9091683  57.8888304
  25.4509850  73.4141714  58.2954168  25.6322730  72.6834070  57.1484896
  25.8891938  72.9499931  57.8393329  30.4929849  69.1557335  56.3657224
  30.7325852  69.3635318  55.5532567  30.8145690  68.3514843  56.4746169
  30.5767007  69.0671436  56.2617777  25.8020139  61.0850730  60.2116762
  26.5566107  61.4529048  59.9733812  25.6247674  61.4590285  60.9795942
  25.8874617  61.1948918  60.2901651  39.0955038  67.2345171  68.2564302
  38.2583459  67.3047358  68.4911896  39.0643269  67.2369666  67.3838604
  38.9673320  67.2455398  68.1623850  25.4919767  69.3778207  73.9712670
  25.6640271  69.2684101  74.8197952  26.0289124  70.0232612  73.7343862
  25.5964771  69.4570208  74.0617767  24.1577204  63.4921049  56.9094875
  23.9752777  63.7092930  56.0835868  25.0202817  63.6060062  56.9653490
  24.2581793  63.5410947  56.7949362  23.7691636  75.3308972  64.3517863
  24.6080535  75.5631904  64.3991625  23.8003405  74.4613283  64.2824899
  23.8973353  75.2365918  64.3482508  29.8376923  60.4947460  59.9443899
  30.5663083  60.3163415  59.4982055  29.9271816  61.3365540  60.1551077
  29.9583585  60.5931339  59.9097417  33.8185224  71.4300847  63.8476193
  34.5742739  71.8632362  63.8865102  33.9247548  70.7805617  64.4210829
  33.9455394  71.3978331  63.9374219  36.8565395  75.2574125  64.5978596
  36.4200627  75.2610867  65.3537567  36.5228310  75.9379624  64.1658173
  36.7428015  75.3586581  64.6459429  36.7762878  62.2987953  66.8408024
  37.4188786  62.3686057  67.4269939  37.0285898  61.6317175  66.3387566
  36.9085010  62.2114301  66.8535303  24.5480090  65.5088516  71.4532598
  23.8551887  65.0385496  71.6993329  25.1640417  65.2826820  72.0274305
  24.5364620  65.4055648  71.5741750  39.9909741  71.9755045  63.4898233
  40.6526175  71.4145713  63.3894142  39.3501153  71.4807075  63.8150924
  39.9938608  71.8191454  63.5230573  30.8786549  75.2725176  55.7979156
  31.2937697  74.9410200  55.1063652  30.0478478  75.0394078  55.6699293
  30.8174557  75.1896432  55.6770004  20.2074897  72.7568917  66.0877334
  20.0250471  72.7315803  65.2349627  20.9424566  73.2267855  66.1266243
  20.2888961  72.8230279  65.9675253  36.2774572  72.9920427  63.2310222
  36.5130161  73.1365626  62.4037073  36.4264135  73.7562835  63.6241736
  36.3340375  73.1259481  63.1673826  23.2720649  69.4753920  72.5959443
  23.9960621  69.4606951  73.0824338  23.3736786  70.1849275  72.0981411
  23.3938858  69.5778623  72.5938230  38.1065028  71.8322093  61.0679826
  38.4373245  72.3649733  60.4619921  38.6798116  71.8860981  61.7241777
  38.2398707  71.9191662  61.0757608  33.3196917  69.6786996  61.7503406
  33.4143772  70.4176290  62.2043031  32.6955761  69.2504471  62.1837970
  33.2405948  69.7248316  61.8811553  20.1745808  69.6362418  66.2376401
  20.7519310  69.4998868  66.8768646  19.4759869  69.1798202  66.4921985
  20.1566829  69.5484684  66.3698691  33.5719939  71.5235735  54.9840358
  33.4900101  71.5937923  55.8495345  34.2099659  72.0865479  54.7924099
  33.6539776  71.6174707  55.0830307  26.9313110  71.2896473  64.4514884
  26.6732354  70.4568208  64.4246184  26.9861593  71.5154086  63.6107385
  26.9012888  71.1994245  64.3235021  32.0114160  63.3924924  64.5518977
  31.3070487  62.9034110  64.7102896  32.0599134  63.4047399  63.6807421
  31.9144212  63.3214572  64.4458317  25.9047822  68.8434236  64.9379779
  25.3297413  69.0026404  65.5743740  25.5283498  68.2069645  64.4748230
  25.7650634  68.7732049  64.9634337  29.5721111  67.3157585  69.7972157
  29.1835543  66.8911803  69.1424349  28.9075809  67.5639735  70.3049184
  29.4168039  67.2896306  69.7760025  39.2144380  67.0732590  62.5719987
  38.9580945  66.2612531  62.3817870  40.0573694  67.0810157  62.3450175
  39.3010405  66.9544587  62.5104805  15.6504641  68.4874311  62.9524220
  15.7364893  68.1106179  63.7337750  16.2780438  68.1134756  62.4744178
  15.7561192  68.3759793  62.9969697  33.3947472  61.0132214  67.3096142
  33.7757984  60.3310385  67.6964016  32.5910757  60.7241816  67.1271806
  33.3323934  60.8699262  67.3400198  30.6760049  71.5456190  57.9948964
  31.4900688  71.8371083  57.8831736  30.6119190  70.8916052  57.4207257
  30.7862788  71.4921384  57.8937802  26.5467957  75.0177707  63.1221276
  27.1841904  74.7789455  63.6673070  26.9723029  75.2214866  62.3874437
  26.7044123  75.0128717  63.0938434  27.1870772  70.2379997  57.4596166
  27.5715925  70.0187704  58.2112711  26.9382393  71.0642942  57.5897242
  27.2072845  70.3278143  57.5897242  27.3539313  63.5186412  77.1758750
  27.0392754  64.2885975  76.9128313  27.0329245  62.9556668  76.5910977
  27.2598232  63.5496681  77.0500100  28.9289429  75.4950130  64.8015063
  29.0028437  75.3325302  65.6556913  29.7458936  75.6840319  64.5575544
  29.0605788  75.4986872  64.8913088  24.9071210  61.9076934  62.7904946
  24.0393635  61.9799533  62.8562556  25.1946414  62.7099013  62.9792921
  24.8210958  62.0371081  62.8279713  34.0304098  62.0554793  71.1216268
  34.7757690  61.8664603  70.7079694  33.6141403  62.5813031  70.5630125
  34.0789073  62.1056938  70.9780841  41.4066369  69.4264022  66.0721773
  41.9574291  68.7932091  66.3118865  41.3910485  69.9579414  66.7637277
  41.4851566  69.4112970  66.2100631  28.0588760  73.2602619  70.6181667
  27.5600454  73.9718386  70.6966555  28.8688984  73.5803285  70.5799829
  28.1044867  73.4129467  70.6238235  24.3216878  72.5225572  64.8644388
  24.0330126  71.8963043  65.3990115  25.1900226  72.4645859  64.9309068
  24.4077130  72.4213116  64.9535342  35.1094775  67.6660355  65.1826369
  34.7659541  66.9450690  65.5333619  35.2087818  67.4574206  64.3404728
  35.0736818  67.5284558  65.1098049  24.5249151  74.1620823  60.7886753
  25.2795119  74.5433862  61.0022215  23.9319764  74.6131967  61.2433449
  24.5485865  74.2849650  60.8869631  35.5707805  74.1286059  60.7250358
  36.1365837  74.7879269  60.6408900  34.9235708  74.4735757  61.1966760
  35.5586561  74.2768001  60.7823114  26.9855818  66.1183663  75.9143965
  26.1755594  66.4241443  75.8033807  27.4630505  66.8389246  76.0296549
  26.9359297  66.2698264  75.9151036  25.8447378  75.3329384  66.1626868
  25.3228131  75.4729676  66.8478733  26.2321398  74.5740048  66.3528985
  25.8251079  75.2414908  66.2927944  22.8338562  65.3835193  60.2321823
  22.5463357  65.0136463  59.4953770  23.5209030  65.8530048  59.9705528
  22.8927459  65.3982162  60.0836898  32.0414383  77.0724843  60.1487437
  31.8001059  76.3392704  59.7414502  32.2215716  77.6211700  59.4953770
  32.0322007  77.0447235  59.9917660  27.2713703  72.3633403  61.5608359
  27.0756486  72.9708138  60.9668662  27.4948049  71.6701347  61.0800033
  27.2748344  72.3510929  61.4024440  25.6692233  69.2488141  61.6789227
  26.3914885  69.4129299  61.2193033  25.1900226  69.9697806  61.5728567
  25.7055964  69.3786371  61.5954841  33.6285741  65.5851940  67.0585912
  32.7896842  65.6113219  66.8224176  33.6990108  66.2322675  67.6391259
  33.5154134  65.6848066  67.1095029  32.0755019  62.4837317  61.7913528
  32.7781372  62.2845065  61.3133486  31.8099208  61.7113259  62.0982372
  32.1401651  62.3400283  61.7658970  37.5043265  70.7919927  64.3447154
  37.4177239  70.9475353  65.1981933  37.0493745  71.4358002  63.9706559
  37.4246521  70.9095682  64.4154261  20.4066756  66.1616405  61.0807104
  20.5082893  66.9642567  61.4088079  21.2022643  65.9603741  60.7830184
  20.5394662  66.2502304  61.0842459  26.8383575  63.7472602  70.8444409
  26.6466772  63.7627737  71.6943832  27.6882171  63.9436276  70.8211064
  26.9359297  63.7786953  70.9667704  21.2230488  66.2763584  68.8228225
  21.0815980  65.4247524  68.9472733  21.5071052  66.3192244  67.9990431
  21.2438335  66.1563334  68.7195849  31.3769081  68.1130674  62.9672714
  31.1303795  68.0326425  63.8009502  31.7054204  67.3284142  62.7735241
  31.3890324  67.9856939  63.0620237  35.2717130  74.8214033  66.7559495
  35.1331489  75.5195079  67.2608237  34.4917127  74.6662690  66.3995677
  35.1360356  74.9014200  66.7785769  27.3366108  70.8487392  72.3795697
  27.4809484  71.4288601  71.7438807  27.6841757  71.2263689  73.0845551
  27.4093569  70.9908096  72.3894692  29.5086025  70.0477561  70.1620828
  28.7609339  70.2408575  69.7569106  29.6627551  69.2222780  69.9244950
  29.4208453  69.9542672  70.0666234  36.7670502  74.1792287  57.5175994
  36.3877311  73.3929425  57.5105283  36.1036748  74.7279144  57.3747638
  36.6128977  74.1437111  57.4956791  29.7487802  63.9428111  71.0516232
  30.2060417  64.6752086  71.1789024  29.8244131  63.5194577  71.8103488
  29.8278772  63.9885350  71.1817308  21.9920794  64.1893931  72.1405676
  21.4562983  63.5774289  72.4566443  22.0538558  64.7642067  72.7939342
  21.9216426  64.1840859  72.2841102  34.2215128  57.1217987  64.9210075
  34.3398696  57.5794450  64.1877378  34.0477304  56.3163248  64.6346292
  34.2134299  57.0711759  64.7711009  27.6270180  65.9330215  67.8958056
  26.8366255  65.7521676  68.2175392  28.0230803  65.1557168  67.8788350
  27.5687057  65.7917676  67.9410604  32.1136071  74.7617990  53.3364770
  32.8809056  74.8218115  52.9270621  31.6667380  74.1898431  52.8521088
  32.1609498  74.6854565  53.2042480  33.0113867  73.5672646  65.6217502
  32.3358868  73.3357878  66.1230889  33.0206243  72.9593829  64.9959607
  32.9132371  73.4431571  65.6033654  30.1408011  68.4090475  72.3781555
  30.0767152  69.2700431  72.2501692  30.2805198  68.0922468  71.5777106
  30.1523481  68.4890641  72.2409768  35.0130601  76.4237778  57.8527680
  35.0950439  77.2304764  57.5289131  35.4980343  76.4433737  58.5768453
  35.0967759  76.5458440  57.9114578  28.8227105  71.1022614  66.5197758
  28.3989354  71.3027113  65.7836776  28.6471960  70.2551462  66.6322058
  28.7337985  71.0071395  66.4271448  24.1109550  71.5974665  61.9525730
  24.2674169  71.5321468  62.8081722  24.4510143  72.3723218  61.7404410
  24.1842784  71.7023863  62.0480324  30.6488694  70.9732549  60.8219094
  31.1904240  70.4702930  61.2857714  30.9635253  70.9197744  60.0108579
  30.7753091  70.8911970  60.7702906  28.8175144  76.3649900  58.1059122
  28.8867964  75.5064439  58.2452122  29.5963599  76.5821781  57.7778146
  28.9427994  76.2702764  58.0776279  31.7977964  65.8668853  70.8741394
  32.0119933  65.2279768  70.3204748  31.1811863  66.3114677  70.4449256
  31.7383293  65.8378997  70.7291825  20.6843811  68.7809616  62.2686497
  21.0642776  69.1994161  61.6046765  20.1099176  69.3623071  62.5755341
  20.6555136  68.9287475  62.2163238  33.9617052  67.4757919  71.8124701
  33.1493733  67.1683809  71.8937874  34.4206986  66.9956919  72.3767413
  33.9097436  67.3594411  71.9079295  33.3722306  75.3537591  62.2601645
  33.0136961  75.5252233  63.0365678  32.8861017  75.8150796  61.7029644
  33.2481003  75.4476562  62.2926915  31.1892692  58.9768789  65.8628737
  30.3186250  58.9507510  65.8162046  31.4433033  58.8045981  65.0454582
  31.0986252  58.9478933  65.7348874  28.1610672  71.0336756  54.8001880
  28.4503196  71.8101638  55.0745454  28.2482470  70.5225487  55.5016379
  28.2164928  71.0728674  54.9444378  28.2141833  60.9875017  67.3202207
  27.6980321  60.2955209  67.4453786  27.6535762  61.6545795  67.2664806
  28.0548346  60.9838275  67.3308273  30.2834066  61.5267978  69.1495060
  29.8965819  61.5517009  69.9308590  29.7967003  60.9609656  68.6969576
  30.1546575  61.4463728  69.1982963  36.2584046  68.0930632  67.7734762
  35.8311654  68.0056981  67.0182861  35.6210099  68.2008408  68.3589606
  36.1013653  68.0963292  67.7480203  29.9491208  58.4134963  71.4405320
  30.5784326  58.9495263  71.1626390  30.1177071  58.3212322  72.2918885
  30.0669002  58.4796325  71.5253848  29.7505123  63.2006158  73.7131731
  30.5778552  62.9291307  73.7690346  29.7712969  63.9966999  74.0695549
  29.8757973  63.2785912  73.7746914  24.3274613  70.3470021  66.9001992
  23.4862619  70.2473895  67.1080886  24.5364620  71.1165501  67.2516313
  24.2339305  70.4462064  66.9829307  21.8050179  67.9689557  64.7286743
  21.4106877  68.0432569  63.9536852  21.2490296  68.3547504  65.2795104
  21.6652992  68.0371332  64.6954402  33.4415126  60.9470851  64.4090621
  33.6464720  60.8793159  65.2547619  33.1141550  61.7529673  64.3411799
  33.4230374  61.0556792  64.5250277  28.1391277  68.2751420  66.1499589
  27.8354415  67.7207408  66.7509997  27.4370698  68.4543630  65.6627624
  27.9907487  68.2196202  66.1669295  27.1957375  65.5851940  60.7144291
  27.4717109  64.8670852  60.3021859  27.7956044  66.1836859  60.5065397
  27.3250639  65.5672310  60.6225052  36.6948814  61.5002616  63.8893387
  36.0823128  61.9873018  64.2747119  36.7912989  60.8246107  64.4331038
  36.6186712  61.4720924  64.0272245  30.6967895  63.2565457  58.9890886
  31.1511642  63.4276017  59.7138731  31.1707941  62.6433568  58.5888662
  30.8336215  63.1916342  59.0364648  24.2183420  72.7413783  68.3193625
  23.6271354  73.3823281  68.2896640  24.9804444  73.1651400  68.2924924
  24.2431681  72.8989621  68.3108772  24.6144043  63.9015781  68.9861642
  25.0745525  63.9754710  69.7236766  24.6600150  64.6997035  68.6361464
  24.6894599  64.0309928  69.0434399  26.2627393  64.5682475  73.5533670
  25.8712958  63.9215823  73.9889447  26.4313256  65.1593911  74.1727925
  26.2298303  64.5596743  73.7096375  33.9772937  78.1923094  65.7525649
  33.7792625  78.6813909  65.0581861  33.3560648  78.3964336  66.3309783
  33.8560501  78.2939633  65.7348873  28.0380915  69.9607991  60.0935894
  28.7822960  70.3482268  60.3318843  28.1841611  69.1165417  60.2576381
  28.1691500  69.8938464  60.1529863  29.9560490  61.7558250  65.1267755
  29.1096536  61.9281058  65.0009105  29.9531623  60.9507594  65.4633583
  29.8307640  61.6619279  65.1578882  31.0258791  65.5333465  65.9929813
  30.5518745  65.0075227  66.5035124  31.3976927  64.9862937  65.4244674
  31.0108680  65.3749461  65.9844960  21.4031821  67.5304971  71.3613359
  22.2657434  67.4300680  71.2750688  21.0723604  66.9499681  70.7998931
  21.4817017  67.4296598  71.2658764  37.2895521  70.5935840  67.4036593
  37.0493744  69.7542255  67.4079020  37.7687529  70.6736007  68.1277367
  37.3247705  70.4817240  67.5111396  32.9542291  66.4270019  59.0555567
  32.4265309  66.5098763  58.3661275  33.4137999  67.1687891  59.0520211
  32.9444141  66.5490682  58.9530262  39.2900708  67.3737297  65.3565852
  39.0510478  67.3333132  64.5186637  39.4534610  68.2208449  65.4831574
  39.2791012  67.4929382  65.2519334  24.7633607  66.3547420  68.0223777
  24.1386677  66.3665812  67.4149730  24.4279202  66.8307595  68.6715017
  24.6219099  66.4265937  68.0280345  24.9475356  64.6972539  54.0796462
  24.5988160  65.3492264  54.5428011  24.4671801  64.6829652  53.3520333
  24.8245600  64.7915592  54.0407553  32.5079373  74.9973583  58.1865224
  33.2313572  75.4631696  58.0429797  32.0679964  75.0647192  57.4362821
  32.5495065  75.0757419  58.0550005  31.6765528  71.8571125  69.4365913
  31.0622521  71.3129175  69.7314548  32.1932813  71.3435361  68.9571729
  31.6621191  71.7007534  69.4090141  30.9161825  72.9275395  67.1710211
  30.4889433  72.3025114  66.7375647  30.9086770  72.6450317  67.9969219
  30.8520966  72.7928176  67.2290039  24.0324352  67.9640568  70.2398645
  24.1917839  67.2083892  70.6450367  23.8517246  68.5131508  70.8939383
  24.0289711  67.9334382  70.3961351  31.9744655  60.1301804  70.7949435
  31.4785217  60.3265478  70.1041001  32.7313717  60.5294472  70.6238236
  32.0131480  60.2179537  70.6669572  29.2447535  63.8044150  67.3852745
  29.2690022  63.2704262  66.6965525  29.4959009  63.2961458  68.0478336
  29.2857454  63.6505053  67.3817390  25.5248857  62.5314968  66.7658490
  25.5647229  63.0324174  67.4793197  24.6998522  62.6225361  66.4964413
  25.4088383  62.6196784  66.8309028  26.9463221  69.0475478  69.0632389
  26.1155150  69.2149296  68.8567637  26.8914738  68.6711428  69.8481274
  26.8152635  69.0165209  69.1480917  24.7547004  62.5384371  74.6988799
  25.3799707  61.9946503  74.9718232  24.2997484  62.0579288  74.1296590
  24.7795264  62.3873852  74.6550393  25.3199264  67.3231069  59.5922506
  25.4602225  67.8203533  60.2951148  25.8181797  66.6217364  59.7336720
  25.4140345  67.2933048  59.7174085  25.3499487  68.1898180  56.9215083
  25.9844566  68.7858605  56.8564545  25.4325098  67.8901638  57.7360953
  25.4556038  68.2339088  57.0318170  26.9278470  64.1212156  56.8960525
  27.2494311  63.6415238  56.2419787  27.1905413  64.9311802  56.7051337
  27.0144495  64.1702054  56.7716017  30.1575442  75.1431030  70.4159341
  29.6500533  75.6966877  70.8599972  29.8602089  75.2039320  69.5978116
  30.0380327  75.2337341  70.3607798  32.3237625  63.5084350  69.2584004
  32.7492696  63.0556876  68.6467531  31.7094618  62.9544420  69.5348792
  32.2966270  63.3598326  69.2089030  21.8552475  70.3866021  60.1904629
  22.3644704  70.9830528  60.5715935  22.3286747  70.1191995  59.5081049
  21.9995850  70.4351836  60.1459152  30.7631847  59.9799449  62.6674581
  30.1200165  59.8297096  63.2359720  30.4231254  59.7341795  61.9023686
  30.6176925  59.9211572  62.6377596  35.3531194  67.9358876  62.0904590
  34.6822384  68.4788578  61.9617655  36.0470944  68.4053731  61.8486285
  35.3560061  68.0857147  62.0360118  35.5159321  64.3914760  64.9994963
  35.8686931  63.9644483  65.6740762  34.6574123  64.3065603  65.1296039
  35.4408766  64.3159500  65.1189974  24.2143006  67.0222279  63.0577810
  23.4954996  67.4386412  63.3250673  24.5855369  67.5876518  62.5069448
  24.1634938  67.1671561  63.0160617  33.5142587  67.6550128  68.9479805
  33.4940515  67.4733424  69.8014584  33.5621788  68.5262147  68.9239389
  33.5177228  67.7566667  69.0703100  29.9889581  66.0620279  58.3951189
  29.3954420  66.3837276  57.8435756  30.0264858  65.2161375  58.1872295
  29.9063970  65.9844608  58.2833960  36.9483381  59.5133172  65.9279276
  36.4414246  58.8062311  65.8600453  37.7450815  59.1826360  66.0580352
  36.9910621  59.3606323  65.9378271  32.8647397  66.0199784  61.8252939
  32.6361090  66.0432485  60.9831298  33.1245474  65.1957251  61.9447950
  32.8693585  65.9015864  61.7178137  27.1466626  67.8734257  71.4278040
  26.6345529  67.2655440  71.7863071  26.9746122  68.5890849  71.8952015
  27.0456263  67.8897556  71.5494263  25.9192160  64.5576330  63.1207135
  26.3949526  64.9193410  62.4857316  25.4180759  65.2132798  63.4007278
  25.9157519  64.7070519  63.0683876  39.1503521  74.0298098  58.9120140
  39.5337127  74.7789454  59.1418237  38.3547635  74.2763918  58.6532129
  39.0897304  74.1767792  58.9077714  31.0235696  65.7958502  73.8680295
  31.5807126  65.5672311  73.2358760  30.6996761  66.5564167  73.5915507
  31.0582106  65.8742338  73.7336792  27.9618813  66.7017530  56.4880519
  28.3417778  66.7197159  55.7031634  27.2211409  67.1471519  56.3671366
  27.9087651  66.7699305  56.3544087  35.5904104  65.0099721  62.0756098
  35.5898330  64.8548378  62.9340374  35.3860284  65.8562708  62.0197483
  35.5603881  65.1120342  62.1944037  17.6521374  68.4339506  66.4914914
  17.4743136  67.9816115  67.2169830  17.3640397  69.2365667  66.6753392
  17.5834328  68.4862063  66.6258417  33.3144956  69.6897223  65.7292304
  33.8098621  68.9720218  65.6896325  32.5044731  69.3868021  65.6146791
  33.2688849  69.5394869  65.7066030  28.7603567  73.5395036  57.8789309
  27.9514890  73.2161710  57.8322618  29.2678476  72.8328258  57.8117558
  28.7153234  73.3876353  57.8619603  19.3893844  70.9667229  63.6036673
  18.5239364  70.9552920  63.4919444  19.4892660  70.7797452  64.4507813
  19.2768011  70.9373291  63.7125618  35.3796774  72.4400910  68.4169433
  35.8051846  71.9175332  67.8639858  35.0153694  73.0381748  67.8958056
  35.3883377  72.4511138  68.2578443  31.9675374  76.1535175  64.7470591
  32.4386552  76.8675437  64.9160576  32.3035552  75.5533925  65.2830460
  32.0870489  76.1706639  64.8502967  28.8844869  60.9262645  71.7028686
  29.0172774  60.1293639  72.0309661  29.2690022  61.4529048  72.2826961
  28.9601198  60.8862562  71.8372188  31.9577224  57.8492971  68.3009779
  31.1523188  57.7390701  68.6177617  31.8283959  57.9505427  67.4439645
  31.8197357  57.8476642  68.2217819  35.4143185  64.0138463  68.8949476
  34.8306173  64.5147670  68.4827043  35.7347479  63.5068020  68.2613799
  35.3756360  64.0130298  68.7407983  27.9537984  62.9279058  59.1708150
  28.7753678  63.0977371  58.9289845  27.4907635  63.0826319  58.4474448
  28.0069146  62.9760791  59.0279795  26.5433316  60.9221820  69.9506579
  27.0877729  60.5812947  70.5410921  26.5970251  61.7807282  70.0927864
  26.6322435  60.9977080  70.0588453  32.1707647  76.9504182  68.0407625
  32.9906020  76.8067148  68.3023920  31.8901724  77.5750380  68.5824062
  32.2504390  77.0214534  68.1595564  38.5696769  78.5423750  64.7293815
  38.2400099  78.9934894  64.0597513  37.8941770  78.4639913  65.2766821
  38.4207205  78.5974885  64.7117038  45.7773176  74.5309273  62.9743425
  45.4626617  75.2212751  63.4063848  45.2600118  74.4754055  62.2728926
  45.6537647  74.6244161  62.9340374  36.7752723  76.6036038  60.2116762
  37.5298691  76.9714355  59.9733812  36.5980257  76.9775593  60.9795942
  36.8607201  76.7134226  60.2901651  35.1309787  79.0106357  56.9094875
  34.9485361  79.2278238  56.0835868  35.9935400  79.1245370  56.9653490
  35.2314377  79.0596255  56.7949362  40.8109506  76.0132768  59.9443899
  41.5395667  75.8348723  59.4982055  40.9004399  76.8550848  60.1551077
  40.9316169  76.1116646  59.9097417  35.8803793  77.4262242  62.7904946
  35.0126219  77.4984841  62.8562556  36.1678998  78.2284320  62.9792921
  35.7943541  77.5556389  62.8279713  43.0487603  78.0022625  61.7913528
  43.7513956  77.8030373  61.3133486  42.7831791  77.2298567  62.0982372
  43.1134235  77.8585591  61.7658970  45.1947712  72.6403295  64.9210075
  45.3131280  73.0979758  64.1877378  45.0209888  71.8348556  64.6346292
  45.1866883  72.5897067  64.7711009  42.1625276  74.4954097  65.8628737
  41.2918834  74.4692818  65.8162046  42.4165617  74.3231289  65.0454582
  42.0718836  74.4664241  65.7348874  41.6700479  78.7750765  58.9890886
  42.1244225  78.9461325  59.7138731  42.1440524  78.1618875  58.5888662
  41.8068799  78.7101650  59.0364648  40.9293074  77.2743558  65.1267755
  40.0829119  77.4466366  65.0009105  40.9264206  76.4692902  65.4633583
  40.8040224  77.1804587  65.1578882  43.9274874  81.9455327  59.0555567
  43.3997893  82.0284071  58.3661275  44.3870582  82.6873199  59.0520211
  43.9176725  82.0675989  58.9530262  37.9011053  79.6397463  56.8960525
  38.2226894  79.1600546  56.2419787  38.1637997  80.4497110  56.7051337
  37.9877079  79.6887361  56.7716017  41.7364431  75.4984757  62.6674581
  41.0932749  75.3482404  63.2359720  41.3963838  75.2527103  61.9023686
  41.5909508  75.4396880  62.6377596  38.9270567  78.4464366  59.1708150
  39.7486262  78.6162679  58.9289845  38.4640218  78.6011627  58.4474448
  38.9801730  78.4946099  59.0279795  15.4174370  14.9891241  47.9390548
  15.3868374  15.8435877  48.1108817  16.0155719  14.6886533  48.4976691
  15.5011528  15.0707737  48.0465350   8.6174055  14.0766892  52.6943478
   7.7611950  14.2375390  52.7452595   8.6641709  13.2058956  52.7148539
   8.4973166  13.9717694  52.7049544   3.0015195  23.6129610  48.4580710
   2.2498094  23.2345148  48.2296755   3.4501206  23.6448043  47.7099520
   2.9564861  23.5615217  48.3138212  11.9267771  20.3453417  62.3003934
  12.6334539  19.8505448  62.4290869  12.1155707  20.7862499  61.5706592
  12.0595677  20.3371768  62.2112980   8.4540155  24.0354979  43.8866257
   8.1191523  24.7131901  43.4510479   8.9667025  23.6460290  43.2983128
   8.4805736  24.0779557  43.7353048   7.9944446  25.9869248  49.8277368
   8.3783825  26.5556146  49.2882144   7.9303587  25.2618758  49.3483184
   8.0417873  25.9644711  49.6771231  11.4625876  16.1358936  55.3375130
  12.0081836  16.8144022  55.3969099  11.4042752  15.9946396  54.4776711
  11.5341790  16.2150937  55.2187190   4.5799951  23.6248002  50.7243482
   4.6810314  22.8148356  51.0340610   3.9841696  23.5304948  50.0943161
   4.5072489  23.4913030  50.6769721  13.2390945  17.5643543  46.2108858
  13.1230471  18.3151229  46.6400996  14.0346831  17.3067496  46.4604945
  13.3395534  17.6378390  46.3112949   4.4200690  28.5425591  52.1258338
   5.0638146  28.9838755  52.5154497   4.7456946  27.7379017  52.0388597
   4.5632519  28.4890786  52.1703816   5.1221270  21.5537566  47.4978200
   5.4437111  22.0942773  46.8939508   5.7693367  20.9834337  47.6300490
   5.2647325  21.5496741  47.4285235   7.1722978  13.5553561  47.5812587
   7.8703143  13.7341688  48.0734050   7.4875311  13.0323900  46.9582976
   7.3218315  13.5047333  47.5614597   7.3610914  19.9424006  47.5692378
   7.8004549  19.3341106  48.0147151   7.2115576  19.5631379  46.7977843
   7.4032379  19.7962477  47.5211546   4.8282557  18.5368018  54.7711204
   5.4731559  18.0440461  54.4522152   5.0684334  18.6792804  55.5977282
   4.9593142  18.4845460  54.8460737   7.3668648  21.3822923  54.4218096
   7.6491891  20.5874329  54.2004852   8.0954808  21.8603511  54.4423157
   7.5158212  21.3357520  54.3921111  10.9620250  18.2951187  44.5223147
  10.8771545  19.1512154  44.6672716  11.4504633  18.0195511  45.1905307
  11.0209147  18.3808508  44.6425229  12.5526250   4.9131480  49.9083472
  12.2379691   5.6034959  50.3403894  12.0353191   4.8576262  49.2068973
  12.4290720   5.0066369  49.8680421  11.8938683  14.9135981  46.0220883
  11.3650155  15.1295615  46.6818189  12.4163703  15.6072120  45.9421852
  11.8927136  15.0479118  46.1076482  17.3486736  20.4882286  51.3953927
  16.5184439  20.6992929  51.5587344  17.2995989  19.6619340  51.1196211
  17.2193472  20.3971892  51.3791292   3.7838291  18.8099198  44.8228351
   3.1995506  19.3149229  45.2294214   3.3808386  18.5841585  44.0824942
   3.6377595  18.8507446  44.7733376   5.4096474  23.3186140  54.2301837
   4.8923415  22.9593555  53.6263145   6.1070865  22.7948314  54.2407903
   5.4362055  23.1883828  54.1432095   9.0660066  23.7680954  60.1918010
   9.1543412  23.5807094  61.0396220   9.4949778  23.1218383  59.7922856
   9.1422168  23.6443962  60.2589761   6.6330526  23.0512114  59.1735672
   6.0701360  22.6384724  59.6975333   7.3951549  22.9765019  59.5928815
   6.6624974  22.9789514  59.3128672   8.2415506  15.0564850  43.2997271
   8.4811509  15.2642834  42.4872614   8.5631347  14.2522359  43.4086216
   8.3252663  14.9678951  43.1957824   2.1926517  25.0410135  51.7772302
   2.8947096  24.5262124  51.8345058   2.1124000  25.3684286  52.5819177
   2.2850277  25.0124361  51.9045094  16.8440695  13.1352686  55.1904348
  16.0069116  13.2054873  55.4251943  16.8128926  13.1377181  54.3178651
  16.7158977  13.1462913  55.0963896   1.5177292  21.2316487  51.2857910
   2.3566192  21.4639420  51.3331672   1.5489062  20.3620798  51.2164945
   1.6459010  21.1373433  51.2822555   2.1429995  21.6517362  55.5871215
   2.6828220  21.5088493  56.2574588   1.4599942  22.0514113  55.9555242
   2.1222149  21.6897033  55.7405637  11.5670880  17.3308363  50.7816240
  12.3228395  17.7639877  50.8205149  11.6733205  16.6813133  51.3550876
  11.6941051  17.2985847  50.8714265  14.6051051  21.1581640  51.5318643
  14.1686283  21.1618382  52.2877614  14.2713967  21.8387139  51.0998220
  14.4913671  21.2594096  51.5799475   9.1780125  23.1989973  62.8561793
   9.9620542  23.3120821  63.2217535   8.9776720  22.3731110  63.0520479
   9.2646150  23.0936692  62.9396179  14.5248534   8.1995468  53.7748071
  15.1674443   8.2693572  54.3609986  14.7771555   7.5324691  53.2727613
  14.6570667   8.1121817  53.7875350   1.4524888  12.6702737  42.3557395
   0.7383065  12.3840917  42.7679828   1.9368856  13.0099363  42.9963783
   1.4184251  12.6784387  42.5113030   9.3350518  25.1100075  56.5028249
   8.5365764  24.8699575  56.7602117   9.7836530  25.1614468  57.2495296
   9.2825130  25.0822466  56.6513173  17.7395398  17.8762560  50.4238280
  18.4011832  17.3153228  50.3234188  17.0986810  17.3814591  50.7490971
  17.7424265  17.7198969  50.4570620   8.6272205  21.1732691  42.7319203
   9.0423354  20.8417715  42.0403699   7.7964135  20.9401594  42.6039340
   8.5660214  21.0903947  42.6110051  14.0260228  18.8927942  50.1650269
  14.2615818  19.0373141  49.3377119  14.1749792  19.6570350  50.5581782
  14.0826032  19.0266997  50.1013873  15.8550685  17.7329608  48.0019873
  16.1858902  18.2657248  47.3959967  16.4283773  17.7868496  48.6581824
  15.9884364  17.8199177  48.0097654  11.0682574  15.5794511  48.6843453
  11.1629429  16.3183805  49.1383078  10.4441418  15.1511986  49.1178017
  10.9891604  15.6255832  48.8151600   9.3235048  18.7580724  59.3333734
   9.8973910  18.1207968  59.4882298   9.2449852  18.7584806  58.4643391
   9.3968283  18.6645835  59.2280145  11.3205596  17.4243251  41.9180405
  11.2385758  17.4945438  42.7835392  11.9585316  17.9872995  41.7264145
  11.4025433  17.5182222  42.0170354   4.6798767  17.1903989  51.3854931
   4.4218011  16.3575724  51.3586231   4.7347250  17.4161602  50.5447431
   4.6498545  17.1001760  51.2575068   9.7599817   9.2932439  51.4859024
   9.0556144   8.8041625  51.6442943   9.8084791   9.3054914  50.6147468
   9.6629868   9.2222087  51.3798364   3.6533479  14.7441751  51.8719826
   3.0783070  14.9033920  52.5083787   3.2769155  14.1077160  51.4088276
   3.5136291  14.6739564  51.8974384  16.9630037  12.9740105  49.5060034
  16.7066601  12.1620047  49.3157917  17.8059351  12.9817672  49.2790222
  17.0496062  12.8552103  49.4444851  11.1433129   6.9139729  54.2436188
  11.5243641   6.2317900  54.6304063  10.3396413   6.6249331  54.0611853
  11.0809591   6.7706778  54.2740244   8.4245706  17.4463705  44.9289011
   9.2386345  17.7378598  44.8171783   8.3604847  16.7923567  44.3547304
   8.5348445  17.3928900  44.8277849  14.6455196  20.1289701  59.3418587
  14.4093833  19.2977766  59.2230647  15.2898425  20.0775308  59.9273431
  14.7049867  19.9987389  59.4104480   4.2953614  20.9185223  50.0561323
   4.9327561  20.6796970  50.6013117   4.7208686  21.1222381  49.3214484
   4.4529780  20.9136233  50.0278481   4.9356429  16.1387512  44.3936213
   5.3201582  15.9195219  45.1452758   4.6868049  16.9650458  44.5237289
   4.9558502  16.2285659  44.5237289  15.6691617  19.9134150  55.4046881
  15.3637434  20.6462207  55.7660197  14.9497832  19.5072079  55.1239667
  15.5178959  19.9615883  55.4160018   6.6775086  21.3957645  51.7355110
   6.7514094  21.2332817  52.5896959   7.4944592  21.5847835  51.4915591
   6.8091445  21.3994387  51.8253135  21.3693409  16.5527151  54.7315226
  21.3017909  16.5723110  53.8617812  21.3549071  17.3957478  54.9570896
  21.3572165  16.6800885  54.6367702   5.2179672  24.3592388  46.4668583
   5.5077970  23.9681370  45.7427810   5.9483153  24.5409093  46.9073858
   5.3686556  24.3286202  46.4251390  19.1552026  15.3271537  53.0061820
  19.7059948  14.6939606  53.2458912  19.1396141  15.8586930  53.6977324
  19.2337222  15.3120485  53.1440678   5.8074417  19.1610134  57.5521713
   5.3086111  19.8725902  57.6306602   6.6174641  19.4810801  57.5139876
   5.8530524  19.3136983  57.5578282   3.1585587  26.3359771  49.5328733
   2.9385883  26.0457125  50.3255400   2.9380109  25.6774726  49.0046645
   3.0933181  26.1959479  49.5717641   2.0702535  18.4233087  51.7984434
   1.7815783  17.7970558  52.3330162   2.9385883  18.3653375  51.8649115
   2.1562786  18.3220631  51.8875389  12.8580432  13.5667870  52.1166416
  12.5145198  12.8458206  52.4673666  12.9573475  13.3581722  51.2744774
  12.8222475  13.4292074  52.0438096   5.3253543  27.7089161  48.3159425
   5.9777601  27.1765603  48.5450451   4.6279152  27.3557813  48.7027299
   5.3184261  27.5778684  48.4071593   2.2734808  20.0628338  47.7226799
   3.0280776  20.4441377  47.9362262   1.6805421  20.5139482  48.1773496
   2.2971521  20.1857166  47.8209678  13.3193461  20.0293575  47.6590404
  13.8851494  20.6886784  47.5748947  12.6721365  20.3743273  48.1306806
  13.3072218  20.1775516  47.7163161   3.5933034  21.2336900  53.0966915
   3.0713788  21.3737191  53.7818779   3.9807055  20.4747564  53.2869032
   3.5736735  21.1422423  53.2267991   9.7900039  22.9732359  47.0827484
   9.5486715  22.2400219  46.6754548   9.9701372  23.5219216  46.4293817
   9.7807663  22.9454750  46.9257706   5.0199360  18.2640919  48.4948406
   4.8242143  18.8715653  47.9008709   5.2433706  17.5708863  48.0140080
   5.0234001  18.2518444  48.3364487   3.4177890  15.1495656  48.6129274
   4.1400542  15.3136815  48.1533080   2.9385883  15.8705321  48.5068614
   3.4541621  15.2793886  48.5294888  11.3771398  11.4859455  53.9925959
  10.5382498  11.5120734  53.7564222  11.4475765  12.1330191  54.5731306
  11.2639791  11.5855581  54.0435076   1.0685507  17.5553729  57.7183414
   1.5806604  17.8337982  57.0692174   0.7821849  18.2943023  58.0846227
   1.1020370  17.7056083  57.6773292   9.8240676   8.3844832  48.7253575
  10.5267029   8.1852581  48.2473533   9.5584865   7.6120775  49.0322418
   9.8887308   8.2407798  48.6999017  15.2528922  16.6927442  51.2787201
  15.1662896  16.8482868  52.1321980  14.7979401  17.3365518  50.9046606
  15.1732178  16.8103197  51.3494308   9.1254738  14.0138189  49.9012760
   8.8789452  13.9333940  50.7349549   9.4539861  13.2291657  49.7075288
   9.1375981  13.8864454  49.9960283  13.0202786  20.7221548  53.6899542
  12.8817146  21.4202594  54.1948284  12.2402784  20.5670205  53.3335723
  12.8846013  20.8021715  53.7125816  11.3580872  17.0217924  59.9421923
  11.3528910  16.1497740  59.9464350  12.0641865  17.2206093  59.4691379
  11.4625876  16.9221798  59.8728959   5.0851765  16.7494908  59.3135743
   5.2295141  17.3296116  58.6778853   5.4327413  17.1271204  60.0185598
   5.1579226  16.8915612  59.3234738   7.2571682  15.9485076  57.0960875
   6.5094996  16.1416090  56.6909153   7.4113207  15.1230296  56.8584996
   7.1694110  15.8550188  57.0006281   4.1579520  24.9397680  56.1796770
   4.3069084  24.3800595  55.5270175   4.9379522  25.0189681  56.5629289
   4.2953613  24.8683245  56.1393719  14.5156159  20.0799802  44.4516041
  14.1362968  19.2936940  44.4445330  13.8522405  20.6286659  44.3087685
  14.3614634  20.0444626  44.4296838   6.6832820  25.1112322  57.4581261
   6.6076492  24.4421133  58.0132049   6.6122680  25.8130111  57.9721927
   6.6613427  25.1157230  57.6158109   7.3403067  23.6313321  48.2904867
   8.1052959  23.3622965  47.9687531   7.2381157  23.1463332  49.0074930
   7.4384563  23.5202886  48.3484695   5.3755837  11.8337731  54.8298103
   4.5851912  11.6529191  55.1515439   5.7716460  11.0564683  54.8128397
   5.3172713  11.6925192  54.8750651   9.8621728  20.6625505  40.2704816
  10.6294713  20.7225630  39.8610668   9.4153037  20.0905946  39.7861135
   9.9095155  20.5862081  40.1382527  10.7599523  19.4680161  52.5557549
  10.0844525  19.2365393  53.0570936  10.7691900  18.8601344  51.9299654
  10.6618028  19.3439086  52.5373701   7.8893667  14.3097990  59.3121602
   7.8252809  15.1707946  59.1841738   8.0290855  13.9929983  58.5117153
   7.9009137  14.3898157  59.1749815  12.7616258  22.3245293  44.7867727
  12.8436095  23.1312279  44.4629178  13.2466000  22.3441253  45.5108500
  12.8453416  22.4465956  44.8454625   6.5712761  17.0030129  53.4537805
   6.1475010  17.2034628  52.7176823   6.3957617  16.1558977  53.5662104
   6.4823642  16.9078911  53.3611495   6.0724455  28.5180642  55.9159262
   6.5620385  27.8191431  55.7334927   5.5008687  28.2204512  56.5035319
   6.0608985  28.3706866  55.9760303   1.8595206  17.4982181  48.8865777
   2.0159825  17.4328983  49.7421769   2.1995799  18.2730733  48.6744457
   1.9328441  17.6031379  48.9820371   8.3974351  16.8740064  47.7559140
   8.9389896  16.3710445  48.2197761   8.7120910  16.8205259  46.9448626
   8.5238748  16.7919485  47.7042952  12.2691458  21.0842712  64.8686053
  13.0826324  20.8127860  65.0291185  12.1086425  20.7850252  64.0646248
  12.3661407  20.9997638  64.7731458   6.5660801  22.2657416  45.0399168
   6.6353621  21.4071954  45.1792169   7.3449256  22.4829297  44.7118193
   6.6913651  22.1710280  45.0116326   9.5463620  11.7676369  57.8081441
   9.7605590  11.1287283  57.2544795   8.9297519  12.2122193  57.3789303
   9.4868950  11.7386512  57.6631872  10.9568288  24.6895117  49.2535662
  10.5648080  24.3861832  48.5358528  11.1121360  25.5264207  49.0640615
  10.9221878  24.7678954  49.1192159  11.7102708  13.3765434  58.7464748
  10.8979390  13.0691324  58.8277921  12.1692643  12.8964434  59.3107460
  11.6583093  13.2601926  58.8419342  11.1207963  21.2545106  49.1941692
  10.7622618  21.4259749  49.9705725  10.6346674  21.7158312  48.6369691
  10.9966660  21.3484077  49.2266961   5.9096328  16.9344271  41.7341927
   6.1988853  17.7109154  42.0085501   5.9968127  16.4233003  42.4356426
   5.9650585  16.9736190  41.8784424  12.2812702  22.1449002  60.1408893
  12.9192423  21.6509197  59.8071349  11.6386794  22.0726402  59.5561120
  12.2806929  22.0608010  60.0051248  14.0069702  13.9938148  54.7074809
  13.5797310  13.9064496  53.9522908  13.3695755  14.1015923  55.2929653
  13.8499310  13.9970808  54.6820250  12.3366959  22.8368810  56.7814250
  13.1259337  22.4857875  56.9016332  12.5110557  23.6505199  56.5190884
  12.4787241  22.9054667  56.7602118   2.0760269  16.2477536  53.8342039
   1.2348276  16.1481410  54.0420933   2.2850277  17.0173016  54.1856359
   1.9824962  16.3469579  53.9169354  11.1900783   6.8478367  51.3430668
  11.3950376   6.7800675  52.1887665  10.8627207   7.6537188  51.2751846
  11.1716031   6.9564307  51.4590323   5.8876934  14.1758935  53.0839636
   5.5840072  13.6214923  53.6850044   5.1856355  14.3551145  52.5967670
   5.7393144  14.1203717  53.1009342   4.9443031  11.4859455  47.6484338
   5.2202766  10.7678367  47.2361906   5.5441701  12.0844375  47.4405444
   5.0736296  11.4679826  47.5565099   3.9495285  21.3908656  57.7911734
   3.8415640  21.4010718  58.6573792   4.1591067  22.2163436  57.6016688
   3.9645396  21.5149731  57.8915826  14.4434471   7.4010131  50.8233434
  13.8308784   7.8880533  51.2087166  14.5398646   6.7253622  51.3671085
  14.3672368   7.3728440  50.9612292   8.4453552   9.1572972  45.9230933
   8.8997298   9.3283533  46.6478778   8.9193598   8.5441083  45.5228709
   8.5821872   9.0923857  45.9704695   1.9669077  18.6421298  55.2533672
   1.3757010  19.2830796  55.2236687   2.7290101  19.0658915  55.2264971
   1.9917338  18.7997137  55.2448819  18.0859499  18.4727068  56.2510950
  18.1442622  18.9213717  56.9970926  17.4525966  18.8825881  55.8141030
  18.0010794  18.6000803  56.2963498  11.7258593  24.0930610  52.6865696
  11.5278282  24.5821424  51.9921907  11.1046304  24.2971851  53.2649829
  11.6046158  24.1947148  52.6688919   5.7866572  15.8615507  47.0275940
   6.5308617  16.2489783  47.2658890   5.9327268  15.0172932  47.1916428
   5.9177157  15.7945979  47.0869910   8.7744448  11.4340980  52.9269860
   8.3004402  10.9082742  53.4375171   9.1462583  10.8870453  52.3584721
   8.7594337  11.2756976  52.9185007  15.0381178  16.4943356  54.3376640
  14.7979401  15.6549771  54.3419067  15.5173185  16.5743522  55.0617414
  15.0733362  16.3824755  54.4451443  10.7027947  12.3277534  45.9895613
  10.1750966  12.4106278  45.3001322  11.1623655  13.0695406  45.9860258
  10.6929798  12.4498197  45.8870309  17.0386365  13.2744813  52.2905899
  16.7996135  13.2340647  51.4526684  17.2020266  14.1215965  52.4171620
  17.0276669  13.3936898  52.1859381  13.6432395  17.6594762  58.2210944
  14.3666594  17.2067288  58.0421964  13.3782358  17.9399428  57.4383272
  13.7113669  17.6345731  58.0789660   2.5119264  12.2554936  54.9563824
   1.8872334  12.2673328  54.3489776   2.1764859  12.7315111  55.6055064
   2.3704756  12.3273453  54.9620392  10.2565030  20.8981098  45.1205271
  10.9799229  21.3639211  44.9769844   9.8165621  20.9654708  44.3702868
  10.2980722  20.9764935  44.9890052   9.4251185  17.7578640  56.3705960
   8.8108178  17.2136691  56.6654595   9.9418470  17.2442877  55.8911776
   9.4106847  17.6015049  56.3430188   8.6647482  18.8282910  54.1050258
   8.2375090  18.2032629  53.6715694   8.6572426  18.5457832  54.9309265
   8.6006623  18.6935691  54.1630086   6.9933192   9.7051665  54.3192792
   7.0175679   9.1711777  53.6305572   7.2444665   9.1968974  54.9818383
   7.0343110   9.5512569  54.3157437   4.6948877  14.9482993  55.9972435
   3.8640807  15.1156811  55.7907684   4.6400395  14.5718944  56.7821321
   4.5638292  14.9172724  56.0820964   3.0684921  13.2238584  46.5262553
   3.2087882  13.7211049  47.2291195   3.5667454  12.5224879  46.6676767
   3.1626002  13.1940563  46.6514132   3.0985144  14.0905696  43.8555130
   3.7330223  14.6866121  43.7904592   3.1810754  13.7909153  44.6701000
   3.2041695  14.1346604  43.9658217  16.0767709  16.6221173  56.7241494
  16.6685550  17.2618424  56.7559692  16.5126704  15.9244210  57.0133561
  16.2286141  16.6139523  56.7722327   4.6764126  10.0219671  43.8300572
   4.9979967   9.5422753  43.1759834   4.9391070  10.8319317  43.6391384
   4.7630152  10.0709569  43.7056064   7.9061099  21.0438545  57.3499388
   7.3986190  21.5974392  57.7940019   7.6087745  21.1046835  56.5318163
   7.7865984  21.1344856  57.2947845  10.0723281   9.4091865  56.1924051
  10.4978353   8.9564391  55.5807577   9.4580275   8.8551936  56.4688839
  10.0451927   9.2605841  56.1429076  10.5168880  24.9601803  45.2803332
   9.7998189  24.7862665  44.8150569  11.1675617  24.7254375  44.7478818
  10.5070730  24.8997595  45.1332550  13.1016851  13.8366391  49.0244637
  12.4308041  14.3796094  48.8957702  13.7956601  14.3061247  48.7826331
  13.1045718  13.9864663  48.9700164   7.1503584  25.9763103  54.2556395
   6.9269239  25.2181933  54.6240421   6.6613428  26.0061125  53.5336835
   7.0447033  25.8685328  54.2033136  13.2644978  10.2922275  51.9335010
  13.6172588   9.8651998  52.6080809  12.4059780  10.2073119  52.0636086
  13.1894423  10.2167016  52.0530020   1.9628663  12.9229795  49.9917856
   1.2440652  13.3393927  50.2590720   2.3341025  13.4884034  49.4409495
   1.9120595  13.0679076  49.9500663  11.2628244  13.5557644  55.8819852
  11.2426171  13.3740939  56.7354631  11.3107445  14.4269662  55.8579436
  11.2662885  13.6574182  56.0043147   9.2074574  20.1444836  61.8068329
   9.1670429  19.4994513  61.2213485  10.0197892  20.0881453  62.1193741
   9.3217727  20.0403803  61.7665278   5.7982041  26.1963562  51.7093480
   5.3842440  25.5337692  51.3197321   6.4829416  26.3441420  51.1889174
   5.8380413  26.1204220  51.5749977   9.1647336  25.3553647  52.4617096
   8.7663619  25.4655917  51.6937916   8.5498555  25.5635713  53.0443656
   9.0146225  25.4027215  52.4348396   7.7375238  11.9627795  45.3291236
   7.1440077  12.2844791  44.7775803   7.7750515  11.1168890  45.1212342
   7.6549627  11.8852123  45.2174007  14.6969038   5.4140687  52.8619322
  14.1899903   4.7069827  52.7940500  15.4936472   5.0833876  52.9920399
  14.7396277   5.2613838  52.8718317  10.6133054  11.9207299  48.7592986
  10.3846747  11.9440001  47.9171344  10.8731130  11.0964766  48.8787997
  10.6179242  11.8023379  48.6518184   3.6677817  10.4583846  50.0547182
   4.1435183  10.8200925  49.4197363   3.1666416  11.1140313  50.3347325
   3.6643176  10.6078034  50.0023923  16.8989178  19.9305614  45.8460187
  17.2822784  20.6796970  46.0758284  16.1033292  20.1771433  45.5872176
  16.8382960  20.0775307  45.8417760   5.7104470  12.6025045  43.4220566
   6.0903435  12.6204674  42.6371681   4.9697066  13.0479034  43.3011413
   5.6573308  12.6706820  43.2884134  13.3389760  10.9107237  49.0096144
  13.3383987  10.7555893  49.8680421  13.1345940  11.7570224  48.9537530
  13.3089538  11.0127857  49.1284084  11.0630612  15.5904738  52.6632351
  11.5584278  14.8727733  52.6236372  10.2530388  15.2875536  52.5486838
  11.0174506  15.4402385  52.6406077   6.5089224  19.4402552  44.8129356
   5.7000547  19.1169225  44.7662665   7.0164133  18.7335774  44.7457604
   6.4638891  19.2883868  44.7959650  13.1282431  18.3408426  55.3509480
  13.5537503  17.8182848  54.7979905  12.7639351  18.9389263  54.8298103
  13.1369034  18.3518653  55.1918490   2.7636511  26.6372643  54.1106826
   3.0783070  27.4509032  54.1184607   3.1729924  26.2522862  54.7788985
   2.8704609  26.7001346  54.2110917   9.7161031  22.0542690  51.6810638
  10.1872209  22.7682953  51.8500623  10.0521209  21.4541440  52.2170507
   9.8356146  22.0714154  51.7843013  11.8038015  23.6644003  63.8602710
  11.9134981  22.8752564  64.2159457  12.1328912  23.5749940  63.0577048
  11.8690421  23.5349856  63.7945100  10.3534977  21.8460624  58.4438330
   9.8055923  21.2218508  58.1758395  10.8148006  22.0354896  57.7282410
  10.3402186  21.7819674  58.2988761  13.1628841   9.9145979  55.8289522
  12.5791830  10.4155185  55.4167090  13.4833135   9.4075535  55.1953846
  13.1242017   9.9137814  55.6748030   5.7023640   8.8286574  46.1048197
   6.5239335   8.9984886  45.8629892   5.2393291   8.9833834  45.3814495
   5.7554803   8.8768306  45.9619842   9.9193303  22.8511697  54.9747671
  10.7391677  22.7074663  55.2363967   9.6387381  23.4757896  55.5164109
   9.9990047  22.9222049  55.0935611  26.3906954  30.5076549  47.9390548
  26.3600958  31.3621185  48.1108817  26.9888302  30.2071841  48.4976691
  26.4744112  30.5893045  48.0465350  19.5906639  29.5952200  52.6943478
  18.7344534  29.7560698  52.7452595  19.6374292  28.7244264  52.7148539
  19.4705750  29.4903002  52.7049544  13.9747778  39.1314917  48.4580710
  13.2230678  38.7530456  48.2296755  14.4233790  39.1633351  47.7099520
  13.9297445  39.0800525  48.3138212  22.9000355  35.8638725  62.3003934
  23.6067122  35.3690756  62.4290869  23.0888290  36.3047807  61.5706592
  23.0328261  35.8557076  62.2112980  19.4272738  39.5540287  43.8866257
  19.0924107  40.2317209  43.4510479  19.9399609  39.1645598  43.2983128
  19.4538319  39.5964865  43.7353048  18.9677029  41.5054556  49.8277368
  19.3516409  42.0741454  49.2882144  18.9036171  40.7804066  49.3483184
  19.0150457  41.4830019  49.6771231  22.4358460  31.6544244  55.3375130
  22.9814420  32.3329330  55.3969099  22.3775336  31.5131704  54.4776711
  22.5074374  31.7336245  55.2187190  15.5532534  39.1433310  50.7243482
  15.6542897  38.3333664  51.0340610  14.9574280  39.0490256  50.0943161
  15.4805073  39.0098338  50.6769721  24.2123528  33.0828851  46.2108858
  24.0963054  33.8336537  46.6400996  25.0079415  32.8252804  46.4604945
  24.3128118  33.1563698  46.3112949  15.3933274  44.0610899  52.1258338
  16.0370729  44.5024063  52.5154497  15.7189530  43.2564325  52.0388597
  15.5365103  44.0076094  52.1703816   8.7497579  35.1653596  50.3495816
   8.5147763  34.3321249  50.2428085   8.8883219  35.4458262  49.5357017
   8.7353241  35.0837100  50.2138171  11.0487666  27.3339327  53.2480124
  10.4292698  26.7431974  53.0790138  10.9471530  27.9250762  52.6144447
  10.9425342  27.3343409  53.1285113  16.0953854  37.0722874  47.4978200
  16.4169695  37.6128081  46.8939508  16.7425950  36.5019645  47.6300490
  16.2379909  37.0682049  47.4285235  18.1455562  29.0738869  47.5812587
  18.8435726  29.2526996  48.0734050  18.4607894  28.5509208  46.9582976
  18.2950899  29.0232641  47.5614597  10.7756799  30.8791609  55.4923693
  10.6515496  31.4654054  56.1273511  11.4275084  30.3851804  55.7935968
  10.8530449  30.8930413  55.6309622  18.3343497  35.4609314  47.5692378
  18.7737133  34.8526414  48.0147151  18.1848160  35.0816687  46.7977843
  18.3764963  35.3147785  47.5211546  15.8015140  34.0553325  54.7711204
  16.4464143  33.5625769  54.4522152  16.0416917  34.1978112  55.5977282
  15.9325725  34.0030768  54.8460737  18.3401232  36.9008231  54.4218096
  18.6224474  36.1059637  54.2004852  19.0687392  37.3788819  54.4423157
  18.4890795  36.8542828  54.3921111  16.3182425  24.4431265  51.6633861
  15.9885755  24.8942409  50.9937560  15.6427427  24.3647429  52.2106868
  16.1692862  24.4982400  51.6457085  21.9352834  33.8136495  44.5223147
  21.8504129  34.6697462  44.6672716  22.4237217  33.5380819  45.1905307
  21.9941731  33.8993816  44.6425229  23.5258833  20.4316788  49.9083472
  23.2112274  21.1220267  50.3403894  23.0085775  20.3761570  49.2068973
  23.4023304  20.5251677  49.8680421  22.8671267  30.4321289  46.0220883
  22.3382738  30.6480923  46.6818189  23.3896287  31.1257428  45.9421852
  22.8659720  30.5664426  46.1076482  14.7570875  34.3284506  44.8228351
  14.1728090  34.8334537  45.2294214  14.3540970  34.1026893  44.0824942
  14.6110179  34.3692754  44.7733376  10.3114903  40.0439267  51.6252022
   9.8282482  40.7689757  51.6011606  11.1238222  40.3415397  51.7362180
  10.3605651  40.1941621  51.6379301  16.3829057  38.8371448  54.2301837
  15.8655999  38.4778863  53.6263145  17.0803449  38.3133622  54.2407903
  16.4094639  38.7069136  54.1432095  20.0392649  39.2866262  60.1918010
  20.1275995  39.0992402  61.0396220  20.4682362  38.6403691  59.7922856
  20.1154752  39.1629269  60.2589761  17.6063109  38.5697422  59.1735672
  17.0433944  38.1570032  59.6975333  18.3684133  38.4950327  59.5928815
  17.6357558  38.4974822  59.3128672  19.2148089  30.5750158  43.2997271
  19.4544093  30.7828142  42.4872614  19.5363930  29.7707667  43.4086216
  19.2985247  30.4864259  43.1957824  14.5238379  22.5043554  47.1456809
  15.2784347  22.8721871  46.9073859  14.3465914  22.8783108  47.9135989
  14.6092858  22.6141742  47.2241698  13.1659101  40.5595443  51.7772302
  13.8679680  40.0447432  51.8345058  13.0856584  40.8869594  52.5819177
  13.2582861  40.5309669  51.9045094  14.2138007  30.7971030  60.9052717
  14.3858511  30.6876924  61.7537998  14.7507365  31.4425435  60.6683909
  14.3183011  30.8763032  60.9957814  12.8795444  24.9113873  43.8434922
  12.6971017  25.1285754  43.0175915  13.7421057  25.0252885  43.8993536
  12.9800034  24.9603771  43.7289409  12.4909876  36.7501795  51.2857910
  13.3298775  36.9824728  51.3331672  12.5221645  35.8806106  51.2164945
  12.6191594  36.6558741  51.2822555  13.1162579  37.1702670  55.5871215
  13.6560804  37.0273801  56.2574588  12.4332525  37.5699421  55.9555242
  13.0954733  37.2082341  55.7405637  18.5595163  21.9140283  46.8783946
  19.2881324  21.7356238  46.4322102  18.6490056  22.7558363  47.0891124
  18.6801825  22.0124162  46.8437464  22.5403464  32.8493671  50.7816240
  23.2960979  33.2825185  50.8205149  22.6465788  32.1998440  51.3550876
  22.6673635  32.8171155  50.8714265  25.5783635  36.6766948  51.5318643
  25.1418867  36.6803690  52.2877614  25.2446551  37.3572447  51.0998220
  25.4646255  36.7779404  51.5799475  20.1512709  38.7175281  62.8561793
  20.9353125  38.8306129  63.2217535  19.9509303  37.8916418  63.0520479
  20.2378734  38.6122000  62.9396179   8.5199724  33.3902961  55.7405637
   8.2538139  32.5742078  55.8996627   8.5338288  33.4356116  54.8701153
   8.4824446  33.2759866  55.6359119  25.4981118  23.7180776  53.7748071
  26.1407026  23.7878880  54.3609986  25.7504139  23.0509999  53.2727613
  25.6303250  23.6307124  53.7875350  12.4257471  28.1888045  42.3557395
  11.7115648  27.9026225  42.7679828  12.9101440  28.5284671  42.9963783
  12.3916834  28.1969695  42.5113030  13.2698331  26.9281339  58.3872645
  12.5770127  26.4578319  58.6333376  13.8858658  26.7019644  58.9614352
  13.2582860  26.8248471  58.5081797  20.3083102  40.6285383  56.5028249
  19.5098348  40.3884883  56.7602117  20.7569114  40.6799776  57.2495296
  20.2557713  40.6007774  56.6513173  19.6004789  36.6917999  42.7319203
  20.0155938  36.3603023  42.0403699  18.7696719  36.4586902  42.6039340
  19.5392798  36.6089255  42.6110051   8.9293138  34.1761740  53.0217381
   8.7468711  34.1508626  52.1689673   9.6642807  34.6460678  53.0606290
   9.0107202  34.2423103  52.9015300  24.9992812  34.4113250  50.1650269
  25.2348401  34.5558449  49.3377119  25.1482376  35.1755658  50.5581782
  25.0558615  34.5452305  50.1013873  11.9938889  30.8946743  59.5299490
  12.7178862  30.8799774  60.0164385  12.0955026  31.6042098  59.0321458
  12.1157099  30.9971446  59.5278277  26.8283269  33.2514916  48.0019873
  27.1591486  33.7842556  47.3959967  27.4016357  33.3053804  48.6581824
  26.9616948  33.3384485  48.0097654  19.3683839  34.3745828  64.3948437
  18.5756820  34.6889340  64.5801057  19.4832766  34.5897296  63.5569222
  19.2679249  34.4529664  64.2986772  22.0415158  31.0979819  48.6843453
  22.1362012  31.8369113  49.1383078  21.4174001  30.6697294  49.1178017
  21.9624188  31.1441139  48.8151600  20.2967632  34.2766032  59.3333734
  20.8706493  33.6393276  59.4882298  20.2182435  34.2770114  58.4643391
  20.3700867  34.1831143  59.2280145   8.8964048  31.0555241  53.1716448
   9.4737551  30.9191692  53.8108693   8.1978110  30.5991025  53.4262032
   8.8785070  30.9677507  53.3038738  22.2938179  32.9428559  41.9180405
  22.2118342  33.0130746  42.7835392  22.9317900  33.5058303  41.7264145
  22.3758017  33.0367530  42.0170354  15.6531350  32.7089297  51.3854931
  15.3950595  31.8761032  51.3586231  15.7079833  32.9346910  50.5447431
  15.6231128  32.6187068  51.2575068  20.7332400  24.8117747  51.4859024
  20.0288727  24.3226933  51.6442943  20.7817375  24.8240222  50.6147468
  20.6362452  24.7407395  51.3798364  14.6266062  30.2627059  51.8719826
  14.0515654  30.4219227  52.5083787  14.2501739  29.6262468  51.4088276
  14.4868875  30.1924872  51.8974384  18.2939351  28.7350408  56.7312204
  17.9053784  28.3104626  56.0764395  17.6294049  28.9832558  57.2389231
  18.1386279  28.7089129  56.7100072  27.9362620  28.4925413  49.5060034
  27.6799185  27.6805355  49.3157917  28.7791934  28.5002980  49.2790222
  28.0228646  28.3737411  49.4444851   4.3722881  29.9067134  49.8864266
   4.4583133  29.5299002  50.6677796   4.9998679  29.5327580  49.4084225
   4.4779432  29.7952616  49.9309744  22.1165713  22.4325037  54.2436188
  22.4976224  21.7503208  54.6304063  21.3128997  22.1434639  54.0611853
  22.0542174  22.2892086  54.2740244  19.3978289  32.9649013  44.9289011
  20.2118928  33.2563906  44.8171783  19.3337431  32.3108875  44.3547304
  19.5081028  32.9114208  44.8277849  25.6187779  35.6475009  59.3418587
  25.3826417  34.8163074  59.2230647  26.2631008  35.5960616  59.9273431
  25.6782450  35.5172697  59.4104480  15.2686198  36.4370530  50.0561323
  15.9060145  36.1982278  50.6013117  15.6941269  36.6407689  49.3214484
  15.4262364  36.4321541  50.0278481   9.9598840  38.6758867  53.9395627
  10.0002985  38.9473718  53.1115407  10.5193364  39.2000775  54.3553415
  10.0482186  38.7934622  53.8787515  15.9089013  31.6572820  44.3936213
  16.2934165  31.4380527  45.1452758  15.6600633  32.4835766  44.5237289
  15.9291085  31.7470966  44.5237289  16.0757553  24.9379235  64.1098797
  15.7610994  25.7078798  63.8468360  15.7547486  24.3749491  63.5251024
  15.9816472  24.9689504  63.9840147  17.6507670  36.9142953  51.7355110
  17.7246678  36.7518125  52.5896959  18.4677176  37.1033143  51.4915591
  17.7824028  36.9179695  51.8253135  11.4113426  37.2600816  48.7649553
  10.5851544  37.5062553  48.6383832  11.4725417  37.1812897  49.6311611
  11.2987593  37.2845765  48.8738497  13.6289450  23.3269757  49.7244993
  12.7611875  23.3992356  49.7902602  13.9164654  24.1291836  49.9132968
  13.5429198  23.4563904  49.7619760  22.7522339  23.4747616  58.0556315
  23.4975931  23.2857427  57.6419740  22.3359643  24.0005854  57.4970171
  22.8007313  23.5249762  57.9120888  16.1912255  39.8777696  46.4668583
  16.4810554  39.4866677  45.7427810  16.9215736  40.0594401  46.9073858
  16.3419139  39.8471510  46.4251390  16.7807000  34.6795442  57.5521713
  16.2818694  35.3911210  57.6306602  17.5907225  34.9996109  57.5139876
  16.8263107  34.8322291  57.5578282  14.1318171  41.8545079  49.5328733
  13.9118466  41.5642433  50.3255400  13.9112693  41.1960034  49.0046645
  14.0665765  41.7144787  49.5717641  13.0435118  33.9418395  51.7984434
  12.7548367  33.3155866  52.3330162  13.9118466  33.8838682  51.8649115
  13.1295370  33.8405939  51.8875389  23.8313016  29.0853178  52.1166416
  23.4877782  28.3643514  52.4673666  23.9306058  28.8767030  51.2744774
  23.7955059  28.9477382  52.0438096  16.2986127  43.2274468  48.3159425
  16.9510185  42.6950911  48.5450451  15.6011735  42.8743121  48.7027299
  16.2916845  43.0963991  48.4071593  13.2467391  35.5813646  47.7226799
  14.0013359  35.9626685  47.9362262  12.6538004  36.0324790  48.1773496
  13.2704105  35.7042473  47.8209678  24.2926045  35.5478883  47.6590404
  24.8584078  36.2072092  47.5748947  23.6453948  35.8928581  48.1306806
  24.2804801  35.6960824  47.7163161  15.7074058  27.5376486  62.8484012
  14.8973834  27.8434266  62.7373854  16.1848745  28.2582069  62.9636596
  15.6577537  27.6891088  62.8491083  14.5665618  36.7522207  53.0966915
  14.0446372  36.8922499  53.7818779  14.9539638  35.9932872  53.2869032
  14.5469319  36.6607731  53.2267991  11.5556802  26.8028016  47.1661869
  11.2681598  26.4329287  46.4293817  12.2427270  27.2722871  46.9045574
  11.6145699  26.8174986  47.0176945  20.7632623  38.4917667  47.0827484
  20.5219299  37.7585527  46.6754548  20.9433956  39.0404524  46.4293817
  20.7540247  38.4640058  46.9257706  15.9931944  33.7826226  48.4948406
  15.7974726  34.3900961  47.9008709  16.2166289  33.0894170  48.0140080
  15.9966585  33.7703752  48.3364487  14.3910474  30.6680964  48.6129274
  15.1133126  30.8322123  48.1533080  13.9118466  31.3890629  48.5068614
  14.4274204  30.7979194  48.5294888  22.3503981  27.0044763  53.9925959
  21.5115082  27.0306042  53.7564222  22.4208349  27.6515499  54.5731306
  22.2372375  27.1040889  54.0435076  12.0418090  33.0739037  57.7183414
  12.5539187  33.3523290  57.0692174  11.7554433  33.8128331  58.0846227
  12.0752954  33.2241390  57.6773292  20.7973260  23.9030140  48.7253575
  21.4999612  23.7037889  48.2473533  20.5317448  23.1306083  49.0322418
  20.8619892  23.7593106  48.6999017   9.1284997  27.5809229  48.0147151
   9.2301133  28.3835390  48.3428126   9.9240883  27.3796565  47.7170231
   9.2612902  27.6695127  48.0182506  15.5601816  25.1665425  57.7784456
  15.3685013  25.1820560  58.6283879  16.4100412  25.3629100  57.7551110
  15.6577538  25.1979777  57.9007750   9.9448729  27.6956407  55.7568272
   9.8034221  26.8440348  55.8812780  10.2289292  27.7385068  54.9330478
   9.9656575  27.5756157  55.6535896  20.0987321  29.5323497  49.9012760
  19.8522035  29.4519248  50.7349549  20.4272444  28.7476965  49.7075288
  20.1108565  29.4049762  49.9960283  23.9935370  36.2406856  53.6899542
  23.8549729  36.9387902  54.1948284  23.2135368  36.0855513  53.3335723
  23.8578597  36.3207023  53.7125816  22.3313455  32.5403232  59.9421923
  22.3261494  31.6683048  59.9464350  23.0374449  32.7391401  59.4691379
  22.4358459  32.4407106  59.8728959  16.0584348  32.2680216  59.3135743
  16.2027724  32.8481424  58.6778853  16.4059997  32.6456512  60.0185598
  16.1311810  32.4100920  59.3234738  18.2304266  31.4670384  57.0960875
  17.4827580  31.6601398  56.6909153  18.3845791  30.6415604  56.8584996
  18.1426693  31.3735495  57.0006281  15.1312103  40.4582987  56.1796770
  15.2801667  39.8985903  55.5270175  15.9112106  40.5374989  56.5629289
  15.2686197  40.3868553  56.1393719  25.4888743  35.5985110  44.4516041
  25.1095552  34.8122248  44.4445330  24.8254988  36.1471967  44.3087685
  25.3347218  35.5629934  44.4296838  17.6565404  40.6297630  57.4581261
  17.5809075  39.9606441  58.0132049  17.5855263  41.3315419  57.9721927
  17.6346011  40.6342538  57.6158109  18.4706043  25.3620935  57.9856279
  18.9278657  26.0944909  58.1129071  18.5462372  24.9387400  58.7443535
  18.5497013  25.4078173  58.1157355  10.7139034  25.6086754  59.0745722
  10.1781224  24.9967113  59.3906490  10.7756799  26.1834890  59.7279389
  10.6434667  25.6033682  59.2181149  22.9433369  18.5410810  51.8550122
  23.0616937  18.9987273  51.1217424  22.7695544  17.7356071  51.5686339
  22.9352540  18.4904582  51.7051055  18.3135651  39.1498629  48.2904867
  19.0785542  38.8808273  47.9687531  18.2113741  38.6648640  49.0074930
  18.4117146  39.0388194  48.3484695  16.3488421  27.3523039  54.8298103
  15.5584495  27.1714499  55.1515439  16.7449044  26.5749991  54.8128397
  16.2905297  27.2110500  54.8750651  21.7332107  34.9865469  52.5557549
  21.0577109  34.7550701  53.0570936  21.7424483  34.3786652  51.9299654
  21.6350612  34.8624394  52.5373701  18.8626251  29.8283298  59.3121602
  18.7985392  30.6893254  59.1841738  19.0023439  29.5115291  58.5117153
  18.8741721  29.9083464  59.1749815  17.5445345  32.5215437  53.4537805
  17.1207594  32.7219936  52.7176823  17.3690200  31.6744285  53.5662104
  17.4556226  32.4264219  53.3611495  17.0457038  44.0365950  55.9159262
  17.5352969  43.3376739  55.7334927  16.4741271  43.7389820  56.5035319
  17.0341568  43.8892174  55.9760303  12.8327790  33.0167489  48.8865777
  12.9892409  32.9514291  49.7421769  13.1728383  33.7916041  48.6744457
  12.9061025  33.1216687  48.9820371  19.3706934  32.3925372  47.7559140
  19.9122480  31.8895753  48.2197761  19.6853494  32.3390567  46.9448626
  19.4971332  32.3104793  47.7042952  23.2424042  36.6028019  64.8686053
  24.0558907  36.3313168  65.0291185  23.0819008  36.3035559  64.0646248
  23.3393990  36.5182946  64.7731458  17.5393384  37.7842724  45.0399168
  17.6086204  36.9257262  45.1792169  18.3181839  38.0014605  44.7118193
  17.6646234  37.6895588  45.0116326  20.5196204  27.2861677  57.8081441
  20.7338173  26.6472591  57.2544795  19.9030103  27.7307501  57.3789303
  20.4601533  27.2571820  57.6631872  21.9300872  40.2080425  49.2535662
  21.5380663  39.9047140  48.5358528  22.0853944  41.0449515  49.0640615
  21.8954462  40.2864262  49.1192159   9.4062051  30.2002439  49.2026544
   9.7861016  30.6186984  48.5386812   8.8317416  30.7815895  49.5095388
   9.3773376  30.3480298  49.1503285  22.6835292  28.8950742  58.7464748
  21.8711974  28.5876632  58.8277921  23.1425226  28.4149742  59.3107460
  22.6315677  28.7787234  58.8419342  22.0940547  36.7730414  49.1941692
  21.7355201  36.9445057  49.9705725  21.6079257  37.2343619  48.6369691
  21.9699243  36.8669385  49.2266961  19.9110933  20.3961612  52.7968784
  19.0404490  20.3700333  52.7502093  20.1651274  20.2238804  51.9794629
  19.8204493  20.3671756  52.6688920  16.8828912  32.4529579  41.7341927
  17.1721437  33.2294462  42.0085501  16.9700711  31.9418311  42.4356426
  16.9383168  32.4921498  41.8784424  19.7788799  30.3010813  63.5293450
  20.2488431  30.9252930  63.9161324  19.8250680  29.6327789  64.0886665
  19.8556675  30.2945494  63.6693522  16.9360073  22.4067841  54.2542254
  16.4198562  21.7148032  54.3793833  16.3754002  23.0738618  54.2004853
  16.7766586  22.4031098  54.2648320  19.0052306  22.9460801  56.0835107
  18.6184060  22.9709832  56.8648636  18.5185244  22.3802479  55.6309623
  18.8764815  22.8656552  56.1323010  23.2545286  37.6634310  60.1408893
  23.8925006  37.1694505  59.8071349  22.6119377  37.5911710  59.5561120
  23.2539512  37.5793318  60.0051248  24.9802286  29.5123456  54.7074809
  24.5529894  29.4249804  53.9522908  24.3428339  29.6201231  55.2929653
  24.8231893  29.5156116  54.6820250  18.6709448  19.8327786  58.3745366
  19.3002566  20.3688086  58.0966437  18.8395311  19.7405145  59.2258932
  18.7887243  19.8989149  58.4593895  18.4723363  24.6198981  60.6471778
  19.2996792  24.3484130  60.7030393  18.4931209  25.4159823  61.0035596
  18.5976213  24.6978735  60.7086961  23.3099542  38.3554118  56.7814250
  24.0991921  38.0043183  56.9016332  23.4843140  39.1690506  56.5190884
  23.4519824  38.4239975  56.7602118  13.0492853  31.7662844  53.8342039
  12.2080859  31.6666718  54.0420933  13.2582861  32.5358324  54.1856359
  12.9557545  31.8654887  53.9169354  10.5268420  29.3882381  51.6626789
  10.1325118  29.4625393  50.8876899   9.9708537  29.7740327  52.2135151
  10.3871232  29.4564155  51.6294449  22.1633367  22.3663675  51.3430668
  22.3682960  22.2985983  52.1887665  21.8359791  23.1722496  51.2751846
  22.1448615  22.4749615  51.4590323  16.8609518  29.6944243  53.0839636
  16.5572655  29.1400231  53.6850044  16.1588939  29.8736453  52.5967670
  16.7125728  29.6389025  53.1009342  15.9175615  27.0044763  47.6484338
  16.1935349  26.2863675  47.2361906  16.5174284  27.6029683  47.4405444
  16.0468879  26.9865134  47.5565099  14.9227869  36.9093964  57.7911734
  14.8148224  36.9196026  58.6573792  15.1323650  37.7348744  57.6016688
  14.9377980  37.0335038  57.8915826  25.4167054  22.9195439  50.8233434
  24.8041368  23.4065841  51.2087166  25.5131229  22.2438930  51.3671085
  25.3404952  22.8913748  50.9612292  19.4186135  24.6758280  45.9230933
  19.8729882  24.8468841  46.6478778  19.8926181  24.0626391  45.5228709
  19.5554455  24.6109165  45.9704695  12.9401661  34.1606606  55.2533672
  12.3489594  34.8016104  55.2236687  13.7022684  34.5844223  55.2264971
  12.9649921  34.3182445  55.2448819  13.3362284  25.3208604  55.9201689
  13.7963765  25.3947533  56.6576813  13.3818390  26.1189858  55.5701511
  13.4112839  25.4502751  55.9774446  14.9845633  25.9875299  60.4873716
  14.5931198  25.3408646  60.9229494  15.1531496  26.5786734  61.1067972
  14.9516544  25.9789567  60.6436422  22.6991177  39.6115918  52.6865696
  22.5010866  40.1006732  51.9921907  22.0778888  39.8157159  53.2649829
  22.5778741  39.7132456  52.6688919  16.7599155  31.3800814  47.0275940
  17.5041200  31.7675091  47.2658890  16.9059852  30.5358240  47.1916428
  16.8909740  31.3131287  47.0869910  18.6778731  23.1751073  52.0607802
  17.8314776  23.3473881  51.9349152  18.6749863  22.3700417  52.3973630
  18.5525881  23.0812102  52.0918929  19.7477031  26.9526288  52.9269860
  19.2736985  26.4268050  53.4375171  20.1195167  26.4055761  52.3584721
  19.7326920  26.7942284  52.9185007  10.1250061  28.9497795  58.2953405
  10.9875674  28.8493504  58.2090735   9.7941844  28.3692504  57.7338978
  10.2035258  28.8489421  58.1998811  21.6760531  27.8462842  45.9895613
  21.1483549  27.9291586  45.3001322  22.1356239  28.5880714  45.9860258
  21.6662381  27.9683505  45.8870309  28.0118949  28.7930121  52.2905899
  27.7728719  28.7525955  51.4526684  28.1752850  29.6401273  52.4171620
  28.0009252  28.9122206  52.1859381  24.6164979  33.1780070  58.2210944
  25.3399178  32.7252596  58.0421964  24.3514941  33.4584736  57.4383272
  24.6846252  33.1531038  58.0789660  13.4851847  27.7740244  54.9563824
  12.8604917  27.7858635  54.3489776  13.1497442  28.2500419  55.6055064
  13.3437339  27.8458761  54.9620392  13.6693596  26.1165362  41.0136509
  13.3206400  26.7685087  41.4768058  13.1890042  26.1022475  40.2860380
  13.5463840  26.2108416  40.9747600  10.1977523  35.8340704  56.3967588
   9.6677447  35.1433143  56.4462563  10.4702616  35.8250889  55.5680296
  10.1602245  35.7307835  56.2815004  21.2297613  36.4166406  45.1205271
  21.9531812  36.8824519  44.9769844  20.7898204  36.4840016  44.3702868
  21.2713306  36.4950243  44.9890052  20.3983768  33.2763948  56.3705960
  19.7840762  32.7321999  56.6654595  20.9151053  32.7628185  55.8911776
  20.3839431  33.1200357  56.3430188  19.6380066  34.3468218  54.1050258
  19.2107674  33.7217937  53.6715694  19.6305010  34.0643140  54.9309265
  19.5739207  34.2120999  54.1630086  12.7542593  29.3833391  57.1738692
  12.9136079  28.6276715  57.5790414  12.5735486  29.9324331  57.8279430
  12.7507952  29.3527205  57.3301398  20.6962896  21.5494627  57.7289482
  20.2003457  21.7458301  57.0381048  21.4531958  21.9487295  57.5578283
  20.7349720  21.6372361  57.6009618  17.9665775  25.2236973  54.3192792
  17.9908262  24.6897085  53.6305572  18.2177249  24.7154282  54.9818383
  18.0075694  25.0697877  54.3157437   5.4773365  32.5068468  53.7535936
   5.3716814  32.4615312  52.8888020   4.7273585  32.8522248  54.0350221
   5.3508968  32.5509376  53.6673266  14.2467098  23.9507791  53.6998536
  14.2865469  24.4516998  54.4133244  13.4216762  24.0418185  53.4304460
  14.1306623  24.0389607  53.7649075  16.4296710  33.5168531  61.8018831
  15.5792341  33.6540245  61.9376476  16.5924838  32.7832309  62.2466533
  16.3280574  33.4282632  61.8874430  15.6681461  30.4668301  55.9972435
  14.8373391  30.6342119  55.7907684  15.6132978  30.0904252  56.7821321
  15.5370876  30.4358032  56.0820964  13.4765244  23.9577194  61.6328846
  14.1017948  23.4139327  61.9058278  13.0215724  23.4772111  61.0636637
  13.5013505  23.8066675  61.5890440  14.0417505  28.7423892  46.5262553
  14.1820466  29.2396357  47.2291195  14.5400038  28.0410187  46.6676767
  14.1358586  28.7125871  46.6514132  14.0717727  29.6091003  43.8555130
  14.7062807  30.2051428  43.7904592  14.1543338  29.3094461  44.6701000
  14.1774278  29.6531912  43.9658217  27.0500293  32.1406481  56.7241494
  27.6418133  32.7803732  56.7559692  27.4859287  31.4429518  57.0133561
  27.2018724  32.1324831  56.7722327  15.6496710  25.5404979  43.8300572
  15.9712551  25.0608061  43.1759834  15.9123654  26.3504625  43.6391384
  15.7362735  25.5894877  43.7056064  18.8793683  36.5623853  57.3499388
  18.3718774  37.1159700  57.7940019  18.5820329  36.6232143  56.5318163
  18.7598568  36.6530164  57.2947845  21.0455865  24.9277173  56.1924051
  21.4710937  24.4749699  55.5807577  20.4312858  24.3737244  56.4688839
  21.0184510  24.7791149  56.1429076  10.5770715  31.8058844  47.1244676
  11.0862944  32.4023352  47.5055982  11.0504987  31.5384818  46.4421096
  10.7214091  31.8544660  47.0799199  21.4901463  40.4787111  45.2803332
  20.7730773  40.3047973  44.8150569  22.1408201  40.2439683  44.7478818
  21.4803314  40.4182903  45.1332550  19.4850088  21.3992273  49.6014628
  18.8418406  21.2489919  50.1699767  19.1449495  21.1534618  48.8363733
  19.3395165  21.3404395  49.5717643  24.0749434  29.3551699  49.0244637
  23.4040624  29.8981402  48.8957702  24.7689185  29.8246555  48.7826331
  24.0778302  29.5049971  48.9700164  18.1236168  41.4948411  54.2556395
  17.9001822  40.7367241  54.6240421  17.6346011  41.5246433  53.5336835
  18.0179617  41.3870636  54.2033136  24.2377562  25.8107583  51.9335010
  24.5905172  25.3837306  52.6080809  23.3792363  25.7258427  52.0636086
  24.1627006  25.7352324  52.0530020  12.9361247  28.4415103  49.9917856
  12.2173236  28.8579235  50.2590720  13.3073609  29.0069342  49.4409495
  12.8853179  28.5864384  49.9500663  22.2360828  29.0742952  55.8819852
  22.2158755  28.8926247  56.7354631  22.2840028  29.9454970  55.8579436
  22.2395469  29.1759490  56.0043147  20.1807157  35.6630144  61.8068329
  20.1403012  35.0179821  61.2213485  20.9930476  35.6066761  62.1193741
  20.2950311  35.5589110  61.7665278  16.7714625  41.7148870  51.7093480
  16.3575024  41.0523000  51.3197321  17.4561999  41.8626728  51.1889174
  16.8112997  41.6389528  51.5749977  20.1379919  40.8738955  52.4617096
  19.7396202  40.9841225  51.6937916  19.5231139  41.0821021  53.0443656
  19.9878808  40.9212523  52.4348396  18.7107821  27.4813103  45.3291236
  18.1172660  27.8030099  44.7775803  18.7483099  26.6354198  45.1212342
  18.6282210  27.4037431  45.2174007  25.6701622  20.9325995  52.8619322
  25.1632486  20.2255134  52.7940500  26.4669056  20.6019184  52.9920399
  25.7128861  20.7799146  52.8718317  21.5865638  27.4392607  48.7592986
  21.3579331  27.4625309  47.9171344  21.8463714  26.6150074  48.8787997
  21.5911826  27.3208687  48.6518184  15.8684866  29.2927080  58.3618086
  15.3563769  28.6848263  58.7203118  15.6964362  30.0083673  58.8292062
  15.7674503  29.3090379  58.4834310  10.7150581  27.7364656  61.0120448
  10.5453171  28.3966030  60.4668655  10.2716531  27.9471217  61.7332937
  10.6249914  27.8650638  61.0382078  14.6410400  25.9769153  50.0547182
  15.1167766  26.3386233  49.4197363  14.1399000  26.6325621  50.3347325
  14.6375759  26.1263342  50.0023923  27.8721762  35.4490922  45.8460187
  28.2555368  36.1982278  46.0758284  27.0765875  35.6956741  45.5872176
  27.8115544  35.5960615  45.8417760  19.7453936  27.2151325  60.8020342
  20.3025367  26.9865134  60.1698807  19.4215001  27.9756990  60.5255554
  19.7800347  27.2935162  60.6676839   7.6152645  30.6411521  56.2708938
   7.0679365  29.9712167  56.3889806   8.4045024  30.2741369  56.3352405
   7.6504829  30.4876507  56.2977639  17.4637054  30.3018978  61.7672349
  18.2148381  30.6170655  62.0811903  17.6559630  30.0998149  60.9406271
  17.6028468  30.3186360  61.6915745  16.6837053  28.1210353  43.4220566
  17.0636018  28.1389982  42.6371681  15.9429649  28.5664342  43.3011413
  16.6305891  28.1892128  43.2884134  24.3122344  26.4292544  49.0096144
  24.3116570  26.2741201  49.8680421  24.1078524  27.2755531  48.9537530
  24.2822122  26.5313165  49.1284084   6.3739615  29.8532329  53.4254961
   6.1961376  29.4008938  54.1509877   6.0858637  30.6558490  53.6093439
   6.3052568  29.9054887  53.5598464  22.0363196  31.1090046  52.6632351
  22.5316861  30.3913041  52.6236372  21.2262972  30.8060844  52.5486838
  21.9907089  30.9587693  52.6406077  17.4821807  34.9587859  44.8129356
  16.6733130  34.6354533  44.7662665  17.9896716  34.2521082  44.7457604
  17.4371474  34.8069176  44.7959650   8.1112085  32.3860053  50.5376720
   7.2457604  32.3745743  50.4259491   8.2110901  32.1990275  51.3847859
   7.9986252  32.3566114  50.6465664  24.1015015  33.8593734  55.3509480
  24.5270086  33.3368156  54.7979905  23.7371935  34.4574571  54.8298103
  24.1101617  33.8703961  55.1918490  13.7369095  42.1557951  54.1106826
  14.0515654  42.9694340  54.1184607  14.1462508  41.7708170  54.7788985
  13.8437193  42.2186654  54.2110917  20.6893614  37.5727998  51.6810638
  21.1604792  38.2868261  51.8500623  21.0253793  36.9726748  52.2170507
  20.8088729  37.5899462  51.7843013  22.7770599  39.1829311  63.8602710
  22.8867564  38.3937872  64.2159457  23.1061495  39.0935248  63.0577048
  22.8423005  39.0535164  63.7945100  17.6063109  22.3455469  58.6368732
  17.7391015  21.5486462  58.9649708  17.9908262  22.8721872  59.2167008
  17.6819438  22.3055385  58.7712235  21.3267561  37.3645932  58.4438330
  20.7788507  36.7403816  58.1758395  21.7880589  37.5540204  57.7282410
  21.3134770  37.3004982  58.2988761  20.6795464  19.2685795  55.2349826
  19.8741428  19.1583524  55.5517664  20.5502200  19.3698250  54.3779691
  20.5415597  19.2669465  55.1557866  24.1361425  25.4331287  55.8289522
  23.5524414  25.9340493  55.4167090  24.4565719  24.9260843  55.1953846
  24.0974600  25.4323122  55.6748030  16.6756224  24.3471881  46.1048197
  17.4971918  24.5170194  45.8629892  16.2125875  24.5019142  45.3814495
  16.7287386  24.3953614  45.9619842  15.2651556  22.3414644  56.8846626
  15.8095969  22.0005770  57.4750968  15.3188492  23.2000105  57.0267911
  15.3540675  22.4169903  56.9928499  11.0782115  36.1031060  53.7585434
  11.6826972  36.0626894  53.1299255  10.8709427  36.9502212  53.7889490
  11.1371012  36.2219062  53.6701550  20.8925887  38.3697005  54.9747671
  21.7124261  38.2259971  55.2363967  20.6119965  38.9943204  55.5164109
  20.9722630  38.4407357  55.0935611   6.3133397  35.0865677  53.6284357
   6.2157675  34.2761949  53.9374414   7.0962267  35.0657471  53.2430625
   6.4149534  34.9632767  53.6171220  30.5639222  45.1137508  52.6943478
  29.7077118  45.2746006  52.7452595  30.6106876  44.2429572  52.7148539
  30.4438334  45.0088309  52.7049544  24.9480362  54.6500225  48.4580710
  24.1963261  54.2715764  48.2296755  25.3966373  54.6818659  47.7099520
  24.9030029  54.5985833  48.3138212  33.8732939  51.3824033  62.3003934
  34.5799706  50.8876064  62.4290869  34.0620874  51.8233115  61.5706592
  34.0060844  51.3742384  62.2112980  30.4005322  55.0725595  43.8866257
  30.0656690  55.7502517  43.4510479  30.9132192  54.6830906  43.2983128
  30.4270903  55.1150173  43.7353048  29.9409613  57.0239864  49.8277368
  30.3248992  57.5926762  49.2882144  29.8768754  56.2989374  49.3483184
  29.9883040  57.0015327  49.6771231  33.4091043  47.1729551  55.3375130
  33.9547003  47.8514638  55.3969099  33.3507919  47.0317012  54.4776711
  33.4806957  47.2521553  55.2187190  26.5265118  54.6618618  50.7243482
  26.6275481  53.8518972  51.0340610  25.9306863  54.5675564  50.0943161
  26.4537657  54.5283646  50.6769721  26.3665858  59.5796207  52.1258338
  27.0103313  60.0209371  52.5154497  26.6922113  58.7749633  52.0388597
  26.5097686  59.5261401  52.1703816  19.7230162  50.6838904  50.3495816
  19.4880347  49.8506557  50.2428085  19.8615803  50.9643570  49.5357017
  19.7085825  50.6022408  50.2138171  22.0220250  42.8524635  53.2480124
  21.4025281  42.2617282  53.0790138  21.9204113  43.4436070  52.6144447
  21.9157925  42.8528717  53.1285113  27.0686437  52.5908182  47.4978200
  27.3902278  53.1313389  46.8939508  27.7158534  52.0204953  47.6300490
  27.2112492  52.5867357  47.4285235  21.7489383  46.3976916  55.4923693
  21.6248080  46.9839362  56.1273511  22.4007667  45.9037112  55.7935968
  21.8263032  46.4115721  55.6309622  29.3076081  50.9794622  47.5692378
  29.7469716  50.3711722  48.0147151  29.1580744  50.6001995  46.7977843
  29.3497546  50.8333093  47.5211546  26.7747724  49.5738633  54.7711204
  27.4196726  49.0811077  54.4522152  27.0149501  49.7163420  55.5977282
  26.9058309  49.5216076  54.8460737  29.3133815  52.4193539  54.4218096
  29.5957058  51.6244945  54.2004852  30.0419975  52.8974127  54.4423157
  29.4623379  52.3728136  54.3921111  32.9085417  49.3321803  44.5223147
  32.8236712  50.1882770  44.6672716  33.3969801  49.0566127  45.1905307
  32.9674315  49.4179124  44.6425229  25.7303458  49.8469814  44.8228351
  25.1460674  50.3519845  45.2294214  25.3273553  49.6212201  44.0824942
  25.5842762  49.8878062  44.7733376  21.2847487  55.5624575  51.6252022
  20.8015065  56.2875065  51.6011606  22.0970805  55.8600705  51.7362180
  21.3338235  55.7126929  51.6379301  27.3561641  54.3556756  54.2301837
  26.8388583  53.9964171  53.6263145  28.0536032  53.8318930  54.2407903
  27.3827222  54.2254444  54.1432095  31.0125233  54.8051570  60.1918010
  31.1008579  54.6177710  61.0396220  31.4414946  54.1588999  59.7922856
  31.0887335  54.6814577  60.2589761  28.5795693  54.0882730  59.1735672
  28.0166528  53.6755339  59.6975333  29.3416716  54.0135635  59.5928815
  28.6090141  54.0160130  59.3128672  24.1391684  56.0780751  51.7772302
  24.8412263  55.5632740  51.8345058  24.0589167  56.4054902  52.5819177
  24.2315445  56.0494977  51.9045094  25.1870591  46.3156338  60.9052717
  25.3591094  46.2062232  61.7537998  25.7239948  46.9610743  60.6683909
  25.2915595  46.3948339  60.9957814  23.4642460  52.2687103  51.2857910
  24.3031359  52.5010036  51.3331672  23.4954229  51.3991414  51.2164945
  23.5924177  52.1744049  51.2822555  24.0895163  52.6887978  55.5871215
  24.6293388  52.5459109  56.2574588  23.4065109  53.0884729  55.9555242
  24.0687317  52.7267649  55.7405637  33.5136048  48.3678979  50.7816240
  34.2693563  48.8010493  50.8205149  33.6198372  47.7183748  51.3550876
  33.6406218  48.3356463  50.8714265  36.5516219  52.1952256  51.5318643
  36.1151451  52.1988998  52.2877614  36.2179134  52.8757755  51.0998220
  36.4378839  52.2964712  51.5799475  31.1245292  54.2360589  62.8561793
  31.9085709  54.3491437  63.2217535  30.9241887  53.4101726  63.0520479
  31.2111318  54.1307308  62.9396179  19.4932308  48.9088269  55.7405637
  19.2270723  48.0927386  55.8996627  19.5070872  48.9541424  54.8701153
  19.4557030  48.7945174  55.6359119  24.2430914  42.4466647  58.3872645
  23.5502711  41.9763627  58.6333376  24.8591241  42.2204952  58.9614352
  24.2315444  42.3433779  58.5081797  31.2815686  56.1470691  56.5028249
  30.4830931  55.9070191  56.7602117  31.7301697  56.1985084  57.2495296
  31.2290297  56.1193082  56.6513173  30.5737373  52.2103307  42.7319203
  30.9888521  51.8788331  42.0403699  29.7429302  51.9772209  42.6039340
  30.5125381  52.1274563  42.6110051  19.9025721  49.6947048  53.0217381
  19.7201295  49.6693934  52.1689673  20.6375390  50.1645986  53.0606290
  19.9839785  49.7608410  52.9015300  22.9671473  46.4132051  59.5299490
  23.6911445  46.3985082  60.0164385  23.0687610  47.1227406  59.0321458
  23.0889682  46.5156754  59.5278277  30.3416422  49.8931136  64.3948437
  29.5489403  50.2074648  64.5801057  30.4565350  50.1082604  63.5569222
  30.2411833  49.9714972  64.2986772  31.2700215  49.7951339  59.3333734
  31.8439077  49.1578584  59.4882298  31.1915019  49.7955422  58.4643391
  31.3433450  49.7016451  59.2280145  19.8696632  46.5740549  53.1716448
  20.4470134  46.4377000  53.8108693  19.1710693  46.1176333  53.4262032
  19.8517653  46.4862815  53.3038738  26.6263934  48.2274605  51.3854931
  26.3683178  47.3946339  51.3586231  26.6812417  48.4532218  50.5447431
  26.5963712  48.1372376  51.2575068  25.5998646  45.7812367  51.8719826
  25.0248237  45.9404535  52.5083787  25.2234322  45.1447776  51.4088276
  25.4601458  45.7110180  51.8974384  29.2671935  44.2535716  56.7312204
  28.8786367  43.8289934  56.0764395  28.6026633  44.5017866  57.2389231
  29.1118862  44.2274437  56.7100072  15.3455465  45.4252442  49.8864266
  15.4315717  45.0484310  50.6677796  15.9731262  45.0512887  49.4084225
  15.4512016  45.3137924  49.9309744  30.3710873  48.4834321  44.9289011
  31.1851512  48.7749214  44.8171783  30.3070014  47.8294183  44.3547304
  30.4813612  48.4299516  44.8277849  36.5920363  51.1660317  59.3418587
  36.3559000  50.3348382  59.2230647  37.2363592  51.1145924  59.9273431
  36.6515034  51.0358005  59.4104480  26.2418781  51.9555838  50.0561323
  26.8792728  51.7167586  50.6013117  26.6673853  52.1592997  49.3214484
  26.3994947  51.9506849  50.0278481  20.9331424  54.1944175  53.9395627
  20.9735569  54.4659026  53.1115407  21.4925948  54.7186083  54.3553415
  21.0214769  54.3119930  53.8787515  27.0490137  40.4564543  64.1098797
  26.7343578  41.2264106  63.8468360  26.7280069  39.8934799  63.5251024
  26.9549056  40.4874812  63.9840147  37.6156784  50.9504766  55.4046881
  37.3102601  51.6832823  55.7660197  36.8962999  50.5442695  55.1239667
  37.4644126  50.9986499  55.4160018  28.6240253  52.4328261  51.7355110
  28.6979261  52.2703433  52.5896959  29.4409759  52.6218451  51.4915591
  28.7556612  52.4365003  51.8253135  22.3846010  52.7786124  48.7649553
  21.5584127  53.0247861  48.6383832  22.4458001  52.6998205  49.6311611
  22.2720177  52.8031073  48.8738497  24.6022034  38.8455065  49.7244993
  23.7344459  38.9177664  49.7902602  24.8897238  39.6477144  49.9132968
  24.5161782  38.9749212  49.7619760  33.7254922  38.9932924  58.0556315
  34.4708514  38.8042735  57.6419740  33.3092227  39.5191162  57.4970171
  33.7739897  39.0435070  57.9120888  27.1644839  55.3963004  46.4668583
  27.4543137  55.0051985  45.7427810  27.8948320  55.5779709  46.9073858
  27.3151723  55.3656818  46.4251390  27.7539584  50.1980750  57.5521713
  27.2551278  50.9096518  57.6306602  28.5639808  50.5181417  57.5139876
  27.7995691  50.3507599  57.5578282  25.1050754  57.3730386  49.5328733
  24.8851050  57.0827741  50.3255400  24.8845276  56.7145342  49.0046645
  25.0398349  57.2330095  49.5717641  24.0167702  49.4603703  51.7984434
  23.7280950  48.8341174  52.3330162  24.8851050  49.4023990  51.8649115
  24.1027954  49.3591247  51.8875389  27.2718710  58.7459776  48.3159425
  27.9242768  58.2136219  48.5450451  26.5744319  58.3928429  48.7027299
  27.2649428  58.6149299  48.4071593  24.2199975  51.0998954  47.7226799
  24.9745943  51.4811993  47.9362262  23.6270588  51.5510098  48.1773496
  24.2436689  51.2227781  47.8209678  35.2658628  51.0664190  47.6590404
  35.8316661  51.7257400  47.5748947  34.6186532  51.4113889  48.1306806
  35.2537385  51.2146132  47.7163161  26.6806642  43.0561794  62.8484012
  25.8706418  43.3619574  62.7373854  27.1581329  43.7767377  62.9636596
  26.6310121  43.2076396  62.8491083  25.5398202  52.2707515  53.0966915
  25.0178955  52.4107807  53.7818779  25.9272222  51.5118180  53.2869032
  25.5201903  52.1793039  53.2267991  22.5289386  42.3213324  47.1661869
  22.2414181  41.9514595  46.4293817  23.2159854  42.7908179  46.9045574
  22.5878283  42.3360293  47.0176945  31.7365207  54.0102975  47.0827484
  31.4951883  53.2770835  46.6754548  31.9166539  54.5589832  46.4293817
  31.7272831  53.9825366  46.9257706  26.9664527  49.3011534  48.4948406
  26.7707310  49.9086269  47.9008709  27.1898873  48.6079478  48.0140080
  26.9699168  49.2889060  48.3364487  25.3643057  46.1866272  48.6129274
  26.0865709  46.3507430  48.1533080  24.8851050  46.9075937  48.5068614
  25.4006788  46.3164502  48.5294888  33.3236565  42.5230071  53.9925959
  32.4847665  42.5491350  53.7564222  33.3940932  43.1700807  54.5731306
  33.2104958  42.6226197  54.0435076  23.0150674  48.5924345  57.7183414
  23.5271771  48.8708598  57.0692174  22.7287017  49.3313639  58.0846227
  23.0485537  48.7426698  57.6773292  20.1017580  43.0994537  48.0147151
  20.2033717  43.9020698  48.3428126  20.8973467  42.8981872  47.7170231
  20.2345486  43.1880435  48.0182506  26.5334399  40.6850733  57.7784456
  26.3417596  40.7005868  58.6283879  27.3832995  40.8814408  57.7551110
  26.6310121  40.7165085  57.9007750  20.9181312  43.2141715  55.7568272
  20.7766804  42.3625655  55.8812780  21.2021876  43.2570375  54.9330478
  20.9389158  43.0941465  55.6535896  34.9667954  51.7592164  53.6899542
  34.8282313  52.4573210  54.1948284  34.1867951  51.6040821  53.3335723
  34.8311180  51.8392331  53.7125816  33.3046039  48.0588540  59.9421923
  33.2994077  47.1868356  59.9464350  34.0107033  48.2576709  59.4691379
  33.4091043  47.9592414  59.8728959  27.0316932  47.7865524  59.3135743
  27.1760308  48.3666732  58.6778853  27.3792581  48.1641820  60.0185598
  27.1044393  47.9286228  59.3234738  29.2036849  46.9855692  57.0960875
  28.4560163  47.1786706  56.6909153  29.3578375  46.1600912  56.8584996
  29.1159277  46.8920803  57.0006281  26.1044687  55.9768295  56.1796770
  26.2534251  55.4171211  55.5270175  26.8844689  56.0560297  56.5629289
  26.2418781  55.9053861  56.1393719  28.6297988  56.1482938  57.4581261
  28.5541659  55.4791749  58.0132049  28.5587847  56.8500726  57.9721927
  28.6078595  56.1527846  57.6158109  29.4438626  40.8806243  57.9856279
  29.9011240  41.6130217  58.1129071  29.5194955  40.4572708  58.7443535
  29.5229596  40.9263481  58.1157355  21.6871618  41.1272062  59.0745722
  21.1513807  40.5152421  59.3906490  21.7489382  41.7020198  59.7279389
  21.6167250  41.1218990  59.2181149  29.2868235  54.6683937  48.2904867
  30.0518126  54.3993581  47.9687531  29.1846325  54.1833948  49.0074930
  29.3849730  54.5573502  48.3484695  27.3221004  42.8708347  54.8298103
  26.5317079  42.6899807  55.1515439  27.7181627  42.0935299  54.8128397
  27.2637881  42.7295808  54.8750651  32.7064691  50.5050777  52.5557549
  32.0309692  50.2736009  53.0570936  32.7157067  49.8971960  51.9299654
  32.6083195  50.3809702  52.5373701  29.8358835  45.3468606  59.3121602
  29.7717976  46.2078562  59.1841738  29.9756022  45.0300599  58.5117153
  29.8474305  45.4268772  59.1749815  34.7081425  53.3615909  44.7867727
  34.7901263  54.1682895  44.4629178  35.1931167  53.3811868  45.5108500
  34.7918583  53.4836572  44.8454625  28.5177928  48.0400745  53.4537805
  28.0940178  48.2405244  52.7176823  28.3422784  47.1929593  53.5662104
  28.4288809  47.9449527  53.3611495  28.0189622  59.5551258  55.9159262
  28.5085552  58.8562047  55.7334927  27.4473854  59.2575128  56.5035319
  28.0074152  59.4077482  55.9760303  23.8060373  48.5352797  48.8865777
  23.9624993  48.4699599  49.7421769  24.1460967  49.3101349  48.6744457
  23.8793608  48.6401995  48.9820371  30.3439518  47.9110680  47.7559140
  30.8855064  47.4081061  48.2197761  30.6586077  47.8575875  46.9448626
  30.4703915  47.8290101  47.7042952  34.2156625  52.1213327  64.8686053
  35.0291491  51.8498476  65.0291185  34.0551592  51.8220867  64.0646248
  34.3126574  52.0368253  64.7731458  28.5125968  53.3028032  45.0399168
  28.5818788  52.4442570  45.1792169  29.2914423  53.5199912  44.7118193
  28.6378818  53.2080896  45.0116326  31.4928787  42.8046985  57.8081441
  31.7070757  42.1657899  57.2544795  30.8762687  43.2492808  57.3789303
  31.4334117  42.7757128  57.6631872  32.9033455  55.7265733  49.2535662
  32.5113247  55.4232448  48.5358528  33.0586528  56.5634823  49.0640615
  32.8687045  55.8049570  49.1192159  20.3794635  45.7187747  49.2026544
  20.7593600  46.1372292  48.5386812  19.8050000  46.3001203  49.5095388
  20.3505960  45.8665606  49.1503285  33.6567875  44.4136050  58.7464748
  32.8444557  44.1061940  58.8277921  34.1157810  43.9335050  59.3107460
  33.6048260  44.2972542  58.8419342  33.0673130  52.2915722  49.1941692
  32.7087785  52.4630365  49.9705725  32.5811841  52.7528927  48.6369691
  32.9431827  52.3854693  49.2266961  30.7521383  45.8196121  63.5293450
  31.2221014  46.4438238  63.9161324  30.7983263  45.1513097  64.0886665
  30.8289259  45.8130801  63.6693522  29.9784890  38.4646109  56.0835107
  29.5916643  38.4895140  56.8648636  29.4917827  37.8987787  55.6309623
  29.8497399  38.3841860  56.1323010  34.2277869  53.1819618  60.1408893
  34.8657590  52.6879813  59.8071349  33.5851961  53.1097018  59.5561120
  34.2272096  53.0978626  60.0051248  29.6442032  35.3513094  58.3745366
  30.2735150  35.8873394  58.0966437  29.8127894  35.2590453  59.2258932
  29.7619826  35.4174456  58.4593895  29.4455947  40.1384289  60.6471778
  30.2729376  39.8669438  60.7030393  29.4663793  40.9345131  61.0035596
  29.5708797  40.2164043  60.7086961  34.2832126  53.8739426  56.7814250
  35.0724504  53.5228491  56.9016332  34.4575724  54.6875814  56.5190884
  34.4252408  53.9425283  56.7602118  24.0225436  47.2848152  53.8342039
  23.1813443  47.1852026  54.0420933  24.2315444  48.0543632  54.1856359
  23.9290129  47.3840195  53.9169354  21.5001003  44.9067689  51.6626789
  21.1057701  44.9810700  50.8876899  20.9441120  45.2925635  52.2135151
  21.3603816  44.9749463  51.6294449  27.8342101  45.2129551  53.0839636
  27.5305239  44.6585539  53.6850044  27.1321522  45.3921761  52.5967670
  27.6858311  45.1574333  53.1009342  25.8960452  52.4279272  57.7911734
  25.7880807  52.4381334  58.6573792  26.1056234  53.2534052  57.6016688
  25.9110563  52.5520346  57.8915826  23.9134244  49.6791914  55.2533672
  23.3222178  50.3201412  55.2236687  24.6755268  50.1029531  55.2264971
  23.9382505  49.8367752  55.2448819  24.3094867  40.8393912  55.9201689
  24.7696349  40.9132841  56.6576813  24.3550974  41.6375166  55.5701511
  24.3845422  40.9688059  55.9774446  25.9578217  41.5060607  60.4873716
  25.5663782  40.8593954  60.9229494  26.1264080  42.0972042  61.1067972
  25.9249127  41.4974875  60.6436422  33.6723761  55.1301226  52.6865696
  33.4743449  55.6192040  51.9921907  33.0511472  55.3342467  53.2649829
  33.5511325  55.2317764  52.6688919  27.7331739  46.8986122  47.0275940
  28.4773784  47.2860399  47.2658890  27.8792435  46.0543548  47.1916428
  27.8642324  46.8316595  47.0869910  21.0982645  44.4683102  58.2953405
  21.9608258  44.3678812  58.2090735  20.7674428  43.8877812  57.7338978
  21.1767841  44.3674729  58.1998811  24.4584431  43.2925551  54.9563824
  23.8337501  43.3043943  54.3489776  24.1230026  43.7685727  55.6055064
  24.3169923  43.3644068  54.9620392  21.1710106  51.3526012  56.3967588
  20.6410031  50.6618450  56.4462563  21.4435200  51.3436197  55.5680296
  21.1334829  51.2493143  56.2815004  32.2030197  51.9351714  45.1205271
  32.9264396  52.4009827  44.9769844  31.7630788  52.0025324  44.3702868
  32.2445889  52.0135551  44.9890052  31.3716352  48.7949256  56.3705960
  30.7573345  48.2507306  56.6654595  31.8883637  48.2813493  55.8911776
  31.3572014  48.6385665  56.3430188  30.6112649  49.8653526  54.1050258
  30.1840257  49.2403245  53.6715694  30.6037594  49.5828448  54.9309265
  30.5471790  49.7306307  54.1630086  23.7275176  44.9018699  57.1738692
  23.8868663  44.1462023  57.5790414  23.5468070  45.4509639  57.8279430
  23.7240535  44.8712513  57.3301398  31.6695479  37.0679935  57.7289482
  31.1736041  37.2643609  57.0381048  32.4264541  37.4672603  57.5578283
  31.7082304  37.1557669  57.6009618  28.9398359  40.7422281  54.3192792
  28.9640846  40.2082393  53.6305572  29.1909832  40.2339590  54.9818383
  28.9808278  40.5883185  54.3157437  16.4505949  48.0253776  53.7535936
  16.3449398  47.9800620  52.8888020  15.7006169  48.3707556  54.0350221
  16.3241552  48.0694684  53.6673266  25.2199681  39.4693099  53.6998536
  25.2598053  39.9702306  54.4133244  24.3949346  39.5603493  53.4304460
  25.1039207  39.5574915  53.7649075  27.4029294  49.0353839  61.8018831
  26.5524925  49.1725553  61.9376476  27.5657422  48.3017617  62.2466533
  27.3013158  48.9467940  61.8874430  26.6414044  45.9853609  55.9972435
  25.8105974  46.1527427  55.7907684  26.5865562  45.6089560  56.7821321
  26.5103459  45.9543340  56.0820964  24.4497828  39.4762502  61.6328846
  25.0750531  38.9324634  61.9058278  23.9948308  38.9957419  61.0636637
  24.4746088  39.3251983  61.5890440  29.8526266  52.0809161  57.3499388
  29.3451357  52.6345008  57.7940019  29.5552913  52.1417451  56.5318163
  29.7331151  52.1715472  57.2947845  32.0188449  40.4462481  56.1924051
  32.4443520  39.9935007  55.5807577  31.4045442  39.8922551  56.4688839
  31.9917094  40.2976457  56.1429076  21.5503299  47.3244152  47.1244676
  22.0595528  47.9208660  47.5055982  22.0237571  47.0570126  46.4421096
  21.6946674  47.3729968  47.0799199  32.4634047  55.9972419  45.2803332
  31.7463356  55.8233281  44.8150569  33.1140784  55.7624991  44.7478818
  32.4535897  55.9368211  45.1332550  29.0968752  57.0133719  54.2556395
  28.8734406  56.2552549  54.6240421  28.6078595  57.0431741  53.5336835
  28.9912201  56.9055944  54.2033136  23.9093830  43.9600411  49.9917856
  23.1905819  44.3764543  50.2590720  24.2806193  44.5254649  49.4409495
  23.8585762  44.1049692  49.9500663  33.2093411  44.5928260  55.8819852
  33.1891338  44.4111555  56.7354631  33.2572612  45.4640278  55.8579436
  33.2128052  44.6944798  56.0043147  31.1539741  51.1815452  61.8068329
  31.1135596  50.5365129  61.2213485  31.9663059  51.1252069  62.1193741
  31.2682895  51.0774418  61.7665278  27.7447209  57.2334177  51.7093480
  27.3307607  56.5708308  51.3197321  28.4294583  57.3812036  51.1889174
  27.7845580  57.1574836  51.5749977  31.1112503  56.3924263  52.4617096
  30.7128786  56.5026533  51.6937916  30.4963722  56.6006329  53.0443656
  30.9611392  56.4397831  52.4348396  26.8417450  44.8112388  58.3618086
  26.3296353  44.2033571  58.7203118  26.6696946  45.5268981  58.8292062
  26.7407087  44.8275687  58.4834310  21.6883164  43.2549963  61.0120448
  21.5185755  43.9151338  60.4668655  21.2449114  43.4656525  61.7332937
  21.5982498  43.3835946  61.0382078  30.7186520  42.7336633  60.8020342
  31.2757950  42.5050442  60.1698807  30.3947585  43.4942298  60.5255554
  30.7532930  42.8120469  60.6676839  18.5885229  46.1596829  56.2708938
  18.0411948  45.4897475  56.3889806  19.3777607  45.7926677  56.3352405
  18.6237413  46.0061815  56.2977639  28.4369637  45.8204286  61.7672349
  29.1880964  46.1355963  62.0811903  28.6292214  45.6183457  60.9406271
  28.5761051  45.8371668  61.6915745  17.3472198  45.3717637  53.4254961
  17.1693960  44.9194246  54.1509877  17.0591221  46.1743798  53.6093439
  17.2785152  45.4240195  53.5598464  33.0095780  46.6275354  52.6632351
  33.5049445  45.9098349  52.6236372  32.1995555  46.3246152  52.5486838
  32.9639673  46.4773000  52.6406077  28.4554391  50.4773167  44.8129356
  27.6465714  50.1539841  44.7662665  28.9629300  49.7706390  44.7457604
  28.4104058  50.3254484  44.7959650  19.0844668  47.9045361  50.5376720
  18.2190188  47.8931051  50.4259491  19.1843484  47.7175583  51.3847859
  18.9718835  47.8751422  50.6465664  35.0747598  49.3779042  55.3509480
  35.5002670  48.8553464  54.7979905  34.7104518  49.9759879  54.8298103
  35.0834201  49.3889269  55.1918490  24.7101678  57.6743259  54.1106826
  25.0248237  58.4879648  54.1184607  25.1195092  57.2893478  54.7788985
  24.8169776  57.7371962  54.2110917  31.6626198  53.0913306  51.6810638
  32.1337376  53.8053569  51.8500623  31.9986376  52.4912056  52.2170507
  31.7821313  53.1084770  51.7843013  33.7503182  54.7014619  63.8602710
  33.8600148  53.9123180  64.2159457  34.0794079  54.6120555  63.0577048
  33.8155588  54.5720472  63.7945100  28.5795693  37.8640777  58.6368732
  28.7123598  37.0671770  58.9649708  28.9640846  38.3907180  59.2167008
  28.6552022  37.8240693  58.7712235  32.3000144  52.8831240  58.4438330
  31.7521090  52.2589124  58.1758395  32.7613173  53.0725512  57.7282410
  32.2867354  52.8190290  58.2988761  35.1094008  40.9516595  55.8289522
  34.5256997  41.4525801  55.4167090  35.4298303  40.4446151  55.1953846
  35.0707184  40.9508430  55.6748030  26.2384140  37.8599952  56.8846626
  26.7828553  37.5191078  57.4750968  26.2921075  38.7185413  57.0267911
  26.3273259  37.9355211  56.9928499  22.0514698  51.6216368  53.7585434
  22.6559556  51.5812202  53.1299255  21.8442011  52.4687520  53.7889490
  22.1103596  51.7404370  53.6701550  31.8658470  53.8882313  54.9747671
  32.6856844  53.7445279  55.2363967  31.5852548  54.5128512  55.5164109
  31.9455214  53.9592665  55.0935611  17.2865981  50.6050985  53.6284357
  17.1890259  49.7947257  53.9374414  18.0694850  50.5842779  53.2430625
  17.3882117  50.4818075  53.6171220  48.3372121  61.5447164  47.9390548
  48.3066125  62.3991801  48.1108817  48.9353470  61.2442457  48.4976691
  48.4209279  61.6263661  48.0465350  41.5371806  60.6322815  52.6943478
  40.6809701  60.7931314  52.7452595  41.5839459  59.7614879  52.7148539
  41.4170917  60.5273617  52.7049544  35.9212945  70.1685533  48.4580710
  35.1695845  69.7901072  48.2296755  36.3698957  70.2003967  47.7099520
  35.8762612  70.1171140  48.3138212  44.8465522  66.9009341  62.3003934
  45.5532289  66.4061372  62.4290869  45.0353458  67.3418423  61.5706592
  44.9793428  66.8927691  62.2112980  41.3737905  70.5910903  43.8866257
  41.0389274  71.2687824  43.4510479  41.8864776  70.2016214  43.2983128
  41.4003486  70.6335481  43.7353048  40.9142197  72.5425172  49.8277368
  41.2981576  73.1112070  49.2882144  40.8501338  71.8174682  49.3483184
  40.9615624  72.5200635  49.6771231  44.3823627  62.6914859  55.3375130
  44.9279587  63.3699946  55.3969099  44.3240503  62.5502320  54.4776711
  44.4539541  62.7706861  55.2187190  37.4997702  70.1803926  50.7243482
  37.6008064  69.3704279  51.0340610  36.9039447  70.0860872  50.0943161
  37.4270240  70.0468954  50.6769721  46.1588695  64.1199466  46.2108858
  46.0428221  64.8707153  46.6400996  46.9544582  63.8623420  46.4604945
  46.2593285  64.1934313  46.3112949  37.3398441  75.0981515  52.1258338
  37.9835897  75.5394679  52.5154497  37.6654697  74.2934941  52.0388597
  37.4830270  75.0446709  52.1703816  30.6962746  66.2024212  50.3495816
  30.4612930  65.3691864  50.2428085  30.8348387  66.4828878  49.5357017
  30.6818408  66.1207715  50.2138171  32.9952833  58.3709943  53.2480124
  32.3757865  57.7802590  53.0790138  32.8936697  58.9621378  52.6144447
  32.8890509  58.3714025  53.1285113  38.0419021  68.1093490  47.4978200
  38.3634862  68.6498697  46.8939508  38.6891117  67.5390261  47.6300490
  38.1845076  68.1052665  47.4285235  40.0920729  60.1109484  47.5812587
  40.7900894  60.2897612  48.0734050  40.4073061  59.5879824  46.9582976
  40.2416066  60.0603257  47.5614597  32.7221966  61.9162224  55.4923693
  32.5980663  62.5024670  56.1273511  33.3740251  61.4222420  55.7935968
  32.7995616  61.9301029  55.6309622  40.2808664  66.4979929  47.5692378
  40.7202300  65.8897030  48.0147151  40.1313327  66.1187303  46.7977843
  40.3230130  66.3518401  47.5211546  37.7480307  65.0923941  54.7711204
  38.3929310  64.5996384  54.4522152  37.9882084  65.2348728  55.5977282
  37.8790892  65.0401384  54.8460737  40.2866399  67.9378847  54.4218096
  40.5689642  67.1430253  54.2004852  41.0152559  68.4159435  54.4423157
  40.4355962  67.8913444  54.3921111  38.2647593  55.4801881  51.6633861
  37.9350923  55.9313025  50.9937560  37.5892594  55.4018044  52.2106868
  38.1158029  55.5353016  51.6457085  43.8818001  64.8507111  44.5223147
  43.7969296  65.7068077  44.6672716  44.3702384  64.5751435  45.1905307
  43.9406898  64.9364432  44.6425229  44.8136434  61.4691905  46.0220883
  44.2847906  61.6851538  46.6818189  45.3361454  62.1628043  45.9421852
  44.8124887  61.6035042  46.1076482  50.2684487  67.0438209  51.3953927
  49.4382190  67.2548853  51.5587344  50.2193739  66.2175264  51.1196211
  50.1391222  66.9527816  51.3791292  36.7036042  65.3655122  44.8228351
  36.1193257  65.8705153  45.2294214  36.3006137  65.1397509  44.0824942
  36.5575346  65.4063370  44.7733376  32.2580071  71.0809883  51.6252022
  31.7747649  71.8060372  51.6011606  33.0703389  71.3786013  51.7362180
  32.3070818  71.2312237  51.6379301  38.3294225  69.8742064  54.2301837
  37.8121166  69.5149479  53.6263145  39.0268616  69.3504238  54.2407903
  38.3559806  69.7439752  54.1432095  41.9857817  70.3236878  60.1918010
  42.0741162  70.1363018  61.0396220  42.4147529  69.6774307  59.7922856
  42.0619919  70.1999885  60.2589761  39.5528276  69.6068038  59.1735672
  38.9899111  69.1940647  59.6975333  40.3149300  69.5320943  59.5928815
  39.5822725  69.5345438  59.3128672  41.1613256  61.6120774  43.2997271
  41.4009260  61.8198758  42.4872614  41.4829097  60.8078282  43.4086216
  41.2450414  61.5234875  43.1957824  36.4703547  53.5414170  47.1456809
  37.2249515  53.9092487  46.9073859  36.2931081  53.9153724  47.9135989
  36.5558025  53.6512357  47.2241698  35.1124268  71.5966059  51.7772302
  35.8144847  71.0818048  51.8345058  35.0321751  71.9240210  52.5819177
  35.2048028  71.5680285  51.9045094  49.7638445  59.6908610  55.1904348
  48.9266866  59.7610797  55.4251943  49.7326676  59.6933105  54.3178651
  49.6356728  59.7018837  55.0963896  36.1603174  61.8341646  60.9052717
  36.3323678  61.7247540  61.7537998  36.6972532  62.4796051  60.6683909
  36.2648178  61.9133647  60.9957814  34.8260611  55.9484489  43.8434922
  34.6436184  56.1656369  43.0175915  35.6886224  56.0623501  43.8993536
  34.9265201  55.9974386  43.7289409  34.4375043  67.7872411  51.2857910
  35.2763943  68.0195344  51.3331672  34.4686812  66.9176722  51.2164945
  34.5656761  67.6929357  51.2822555  35.0627746  68.2073286  55.5871215
  35.6025971  68.0644417  56.2574588  34.3797692  68.6070037  55.9555242
  35.0419900  68.2452957  55.7405637  44.4868631  63.8864287  50.7816240
  45.2426146  64.3195801  50.8205149  44.5930956  63.2369056  51.3550876
  44.6138802  63.8541770  50.8714265  47.5248802  67.7137564  51.5318643
  47.0884034  67.7174306  52.2877614  47.1911718  68.3943063  51.0998220
  47.4111422  67.8150020  51.5799475  42.0977876  69.7545897  62.8561793
  42.8818292  69.8676744  63.2217535  41.8974470  68.9287034  63.0520479
  42.1843901  69.6492616  62.9396179  30.4664891  64.4273577  55.7405637
  30.2003307  63.6112693  55.8996627  30.4803455  64.4726732  54.8701153
  30.4289614  64.3130482  55.6359119  47.4446285  54.7551392  53.7748071
  48.0872194  54.8249496  54.3609986  47.6969306  54.0880615  53.2727613
  47.5768417  54.6677740  53.7875350  34.3722638  59.2258661  42.3557395
  33.6580815  58.9396841  42.7679828  34.8566607  59.5655287  42.9963783
  34.3382002  59.2340311  42.5113030  35.2163498  57.9651955  58.3872645
  34.5235294  57.4948935  58.6333376  35.8323825  57.7390260  58.9614352
  35.2048028  57.8619087  58.5081797  42.2548269  71.6655999  56.5028249
  41.4563515  71.4255499  56.7602117  42.7034281  71.7170392  57.2495296
  42.2022880  71.6378390  56.6513173  50.6593148  64.4318484  50.4238280
  51.3209583  63.8709152  50.3234188  50.0184560  63.9370514  50.7490971
  50.6622016  64.2754893  50.4570620  41.5469956  67.7288615  42.7319203
  41.9621105  67.3973639  42.0403699  40.7161886  67.4957517  42.6039340
  41.4857965  67.6459871  42.6110051  30.8758305  65.2132356  53.0217381
  30.6933878  65.1879242  52.1689673  31.6107974  65.6831294  53.0606290
  30.9572369  65.2793718  52.9015300  46.9457979  65.4483866  50.1650269
  47.1813568  65.5929065  49.3377119  47.0947543  66.2126274  50.5581782
  47.0023782  65.5822921  50.1013873  33.9404057  61.9317359  59.5299490
  34.6644029  61.9170390  60.0164385  34.0420193  62.6412714  59.0321458
  34.0622266  62.0342062  59.5278277  48.7748436  64.2885532  48.0019873
  49.1056653  64.8213172  47.3959967  49.3481524  64.3424420  48.6581824
  48.9082115  64.3755101  48.0097654  41.3149006  65.4116444  64.3948437
  40.5221987  65.7259955  64.5801057  41.4297933  65.6267912  63.5569222
  41.2144417  65.4900280  64.2986772  43.9880325  62.1350435  48.6843453
  44.0827179  62.8739729  49.1383078  43.3639169  61.7067910  49.1178017
  43.9089355  62.1811755  48.8151600  42.2432799  65.3136647  59.3333734
  42.8171660  64.6763892  59.4882298  42.1647603  65.3140730  58.4643391
  42.3166034  65.2201759  59.2280145  30.8429215  62.0925857  53.1716448
  31.4202718  61.9562308  53.8108693  30.1443277  61.6361641  53.4262032
  30.8250237  62.0048123  53.3038738  44.2403346  63.9799175  41.9180405
  44.1583509  64.0501362  42.7835392  44.8783067  64.5428918  41.7264145
  44.3223184  64.0738146  42.0170354  37.5996517  63.7459912  51.3854931
  37.3415762  62.9131647  51.3586231  37.6545000  63.9717525  50.5447431
  37.5696295  63.6557684  51.2575068  36.5731230  61.2997675  51.8719826
  35.9980821  61.4589843  52.5083787  36.1966906  60.6633084  51.4088276
  36.4334042  61.2295488  51.8974384  40.2404518  59.7721024  56.7312204
  39.8518951  59.3475242  56.0764395  39.5759217  60.0203174  57.2389231
  40.0851446  59.7459745  56.7100072  49.8827787  59.5296029  49.5060034
  49.6264352  58.7175970  49.3157917  50.7257101  59.5373596  49.2790222
  49.9693813  59.4108026  49.4444851  26.3188048  60.9437750  49.8864266
  26.4048300  60.5669618  50.6677796  26.9463846  60.5698195  49.4084225
  26.4244599  60.8323232  49.9309744  44.0630880  53.4695653  54.2436188
  44.4441392  52.7873824  54.6304063  43.2594164  53.1805255  54.0611853
  44.0007342  53.3262702  54.2740244  41.3443457  64.0019629  44.9289011
  42.1584095  64.2934522  44.8171783  41.2802598  63.3479491  44.3547304
  41.4546196  63.9484824  44.8277849  47.5652947  66.6845625  59.3418587
  47.3291584  65.8533690  59.2230647  48.2096176  66.6331232  59.9273431
  47.6247617  66.5543313  59.4104480  37.2151365  67.4741146  50.0561323
  37.8525312  67.2352894  50.6013117  37.6406436  67.6778305  49.3214484
  37.3727531  67.4692156  50.0278481  31.9064007  69.7129483  53.9395627
  31.9468152  69.9844334  53.1115407  32.4658531  70.2371391  54.3553415
  31.9947353  69.8305238  53.8787515  37.8554180  62.6943436  44.3936213
  38.2399333  62.4751143  45.1452758  37.6065800  63.5206381  44.5237289
  37.8756252  62.7841582  44.5237289  38.0222720  55.9749851  64.1098797
  37.7076161  56.7449414  63.8468360  37.7012653  55.4120107  63.5251024
  37.9281639  56.0060120  63.9840147  48.5889367  66.4690074  55.4046881
  48.2835184  67.2018131  55.7660197  47.8695583  66.0628003  55.1239667
  48.4376710  66.5171807  55.4160018  39.5972837  67.9513569  51.7355110
  39.6711845  67.7888741  52.5896959  40.4142343  68.1403758  51.4915591
  39.7289195  67.9550311  51.8253135  54.2891159  63.1083074  54.7315226
  54.2215660  63.1279034  53.8617812  54.2746822  63.9513402  54.9570896
  54.2769916  63.2356809  54.6367702  33.3578593  68.2971432  48.7649553
  32.5316711  68.5433169  48.6383832  33.4190585  68.2183513  49.6311611
  33.2452760  68.3216381  48.8738497  35.5754617  54.3640373  49.7244993
  34.7077043  54.4362972  49.7902602  35.8629821  55.1662452  49.9132968
  35.4894365  54.4934520  49.7619760  44.6987506  54.5118232  58.0556315
  45.4441098  54.3228043  57.6419740  44.2824811  55.0376470  57.4970171
  44.7472480  54.5620378  57.9120888  38.1377422  70.9148312  46.4668583
  38.4275721  70.5237293  45.7427810  38.8680903  71.0965017  46.9073858
  38.2884307  70.8842126  46.4251390  52.0749777  61.8827461  53.0061820
  52.6257698  61.2495530  53.2458912  52.0593892  62.4142853  53.6977324
  52.1534973  61.8676409  53.1440678  38.7272168  65.7166058  57.5521713
  38.2283861  66.4281826  57.6306602  39.5372392  66.0366724  57.5139876
  38.7728274  65.8692906  57.5578282  36.0783338  72.8915694  49.5328733
  35.8583633  72.6013049  50.3255400  35.8577860  72.2330649  49.0046645
  36.0130932  72.7515403  49.5717641  34.9900285  64.9789011  51.7984434
  34.7013534  64.3526482  52.3330162  35.8583633  64.9209298  51.8649115
  35.0760537  64.8776555  51.8875389  45.7778183  60.1223794  52.1166416
  45.4342949  59.4014129  52.4673666  45.8771226  59.9137645  51.2744774
  45.7420226  59.9847998  52.0438096  38.2451294  74.2645084  48.3159425
  38.8975352  73.7321527  48.5450451  37.5476902  73.9113737  48.7027299
  38.2382012  74.1334607  48.4071593  35.1932559  66.6184262  47.7226799
  35.9478527  66.9997301  47.9362262  34.6003171  67.0695406  48.1773496
  35.2169272  66.7413089  47.8209678  46.2391212  66.5849498  47.6590404
  46.8049245  67.2442708  47.5748947  45.5919116  66.9299196  48.1306806
  46.2269969  66.7331440  47.7163161  37.6539226  58.5747102  62.8484012
  36.8439001  58.8804882  62.7373854  38.1313912  59.2952685  62.9636596
  37.6042704  58.7261703  62.8491083  36.5130785  67.7892823  53.0966915
  35.9911539  67.9293115  53.7818779  36.9004806  67.0303488  53.2869032
  36.4934486  67.6978347  53.2267991  33.5021969  57.8398632  47.1661869
  33.2146765  57.4699902  46.4293817  34.1892437  58.3093487  46.9045574
  33.5610867  57.8545601  47.0176945  42.7097790  69.5288283  47.0827484
  42.4684466  68.7956143  46.6754548  42.8899123  70.0775140  46.4293817
  42.7005414  69.5010674  46.9257706  37.9397111  64.8196842  48.4948406
  37.7439893  65.4271577  47.9008709  38.1631456  64.1264786  48.0140080
  37.9431752  64.8074368  48.3364487  36.3375641  61.7051580  48.6129274
  37.0598293  61.8692738  48.1533080  35.8583634  62.4261245  48.5068614
  36.3739371  61.8349810  48.5294888  44.2969148  58.0415379  53.9925959
  43.4580249  58.0676658  53.7564222  44.3673516  58.6886114  54.5731306
  44.1837542  58.1411505  54.0435076  33.9883258  64.1109653  57.7183414
  34.5004354  64.3893906  57.0692174  33.7019600  64.8498947  58.0846227
  34.0218121  64.2612006  57.6773292  48.1726672  63.2483366  51.2787201
  48.0860647  63.4038792  52.1321980  47.7177152  63.8921441  50.9046606
  48.0929929  63.3659121  51.3494308  31.0750164  58.6179845  48.0147151
  31.1766300  59.4206006  48.3428126  31.8706051  58.4167180  47.7170231
  31.2078069  58.7065743  48.0182506  37.5066983  56.2036041  57.7784456
  37.3150180  56.2191176  58.6283879  38.3565579  56.3999716  57.7551110
  37.6042705  56.2350392  57.9007750  31.8913896  58.7327023  55.7568272
  31.7499388  57.8810963  55.8812780  32.1754459  58.7755683  54.9330478
  31.9121742  58.6126773  55.6535896  42.0452488  60.5694113  49.9012760
  41.7987203  60.4889864  50.7349549  42.3737611  59.7847581  49.7075288
  42.0573732  60.4420378  49.9960283  45.9400537  67.2777472  53.6899542
  45.8014896  67.9758518  54.1948284  45.1600535  67.1226129  53.3335723
  45.8043764  67.3577639  53.7125816  44.2778622  63.5773848  59.9421923
  44.2726661  62.7053664  59.9464350  44.9839616  63.7762017  59.4691379
  44.3823626  63.4777722  59.8728959  38.0049516  63.3050831  59.3135743
  38.1492891  63.8852040  58.6778853  38.3525164  63.6827128  60.0185598
  38.0776977  63.4471536  59.3234738  40.1769433  62.5041000  57.0960875
  39.4292747  62.6972014  56.6909153  40.3310958  61.6786219  56.8584996
  40.0891861  62.4106111  57.0006281  37.0777271  71.4953603  56.1796770
  37.2266834  70.9356519  55.5270175  37.8577273  71.5745605  56.5629289
  37.2151364  71.4239169  56.1393719  47.4353910  66.6355726  44.4516041
  47.0560719  65.8492864  44.4445330  46.7720155  67.1842583  44.3087685
  47.2812385  66.6000550  44.4296838  39.6030571  71.6668246  57.4581261
  39.5274242  70.9977057  58.0132049  39.5320430  72.3686034  57.9721927
  39.5811178  71.6713154  57.6158109  40.4171210  56.3991551  57.9856279
  40.8743824  57.1315525  58.1129071  40.4927539  55.9758016  58.7443535
  40.4962180  56.4448789  58.1157355  32.6604201  56.6457370  59.0745722
  32.1246391  56.0337728  59.3906490  32.7221966  57.2205506  59.7279389
  32.5899834  56.6404298  59.2181149  40.2600818  70.1869245  48.2904867
  41.0250709  69.9178889  47.9687531  40.1578908  69.7019255  49.0074930
  40.3582314  70.0758810  48.3484695  38.2953588  58.3893655  54.8298103
  37.5049663  58.2085115  55.1515439  38.6914211  57.6120607  54.8128397
  38.2370464  58.2481115  54.8750651  42.7819479  67.2181429  40.2704816
  43.5492464  67.2781554  39.8610668  42.3350788  66.6461870  39.7861135
  42.8292906  67.1418005  40.1382527  43.6797274  66.0236085  52.5557549
  43.0042276  65.7921317  53.0570936  43.6889650  65.4157268  51.9299654
  43.5815779  65.8995010  52.5373701  40.8091418  60.8653914  59.3121602
  40.7450559  61.7263870  59.1841738  40.9488606  60.5485907  58.5117153
  40.8206888  60.9454080  59.1749815  45.6814009  68.8801217  44.7867727
  45.7633846  69.6868203  44.4629178  46.1663751  68.8997176  45.5108500
  45.7651167  69.0021879  44.8454625  39.4910512  63.5586053  53.4537805
  39.0672761  63.7590552  52.7176823  39.3155367  62.7114901  53.5662104
  39.4021393  63.4634834  53.3611495  38.9922206  75.0736566  55.9159262
  39.4818136  74.3747355  55.7334927  38.4206438  74.7760436  56.5035319
  38.9806735  74.9262790  55.9760303  34.7792957  64.0538104  48.8865777
  34.9357576  63.9884907  49.7421769  35.1193550  64.8286657  48.6744457
  34.8526192  64.1587303  48.9820371  41.3172102  63.4295988  47.7559140
  41.8587647  62.9266369  48.2197761  41.6318661  63.3761183  46.9448626
  41.4436499  63.3475409  47.7042952  45.1889209  67.6398635  64.8686053
  46.0024074  67.3683784  65.0291185  45.0284175  67.3406175  64.0646248
  45.2859158  67.5553561  64.7731458  39.4858551  68.8213340  45.0399168
  39.5551372  67.9627878  45.1792169  40.2647006  69.0385220  44.7118193
  39.6111401  68.7266204  45.0116326  42.4661371  58.3232293  57.8081441
  42.6803341  57.6843207  57.2544795  41.8495270  58.7678116  57.3789303
  42.4066700  58.2942436  57.6631872  43.8766039  71.2451041  49.2535662
  43.4845831  70.9417756  48.5358528  44.0319111  72.0820131  49.0640615
  43.8419629  71.3234878  49.1192159  31.3527219  61.2373055  49.2026544
  31.7326183  61.6557600  48.5386812  30.7782583  61.8186511  49.5095388
  31.3238543  61.3850914  49.1503285  44.6300459  59.9321358  58.7464748
  43.8177141  59.6247248  58.8277921  45.0890394  59.4520358  59.3107460
  44.5780844  59.8157850  58.8419342  44.0405714  67.8101030  49.1941692
  43.6820368  67.9815673  49.9705725  43.5544424  68.2714235  48.6369691
  43.9164411  67.9040001  49.2266961  38.8294079  63.4900195  41.7341927
  39.1186604  64.2665078  42.0085501  38.9165878  62.9788927  42.4356426
  38.8848335  63.5292113  41.8784424  41.7253967  61.3381429  63.5293450
  42.1953598  61.9623546  63.9161324  41.7715847  60.6698405  64.0886665
  41.8021842  61.3316109  63.6693522  40.9517474  53.9831417  56.0835107
  40.5649227  54.0080448  56.8648636  40.4650411  53.4173095  55.6309623
  40.8229983  53.9027167  56.1323010  45.2010453  68.7004926  60.1408893
  45.8390174  68.2065121  59.8071349  44.5584545  68.6282326  59.5561120
  45.2004680  68.6163934  60.0051248  46.9267453  60.5494072  54.7074809
  46.4995061  60.4620420  53.9522908  46.2893506  60.6571847  55.2929653
  46.7697060  60.5526731  54.6820250  40.6174615  50.8698402  58.3745366
  41.2467733  51.4058702  58.0966437  40.7860478  50.7775761  59.2258932
  40.7352410  50.9359764  58.4593895  40.4188530  55.6569597  60.6471778
  41.2461960  55.3854746  60.7030393  40.4396376  56.4530439  61.0035596
  40.5441380  55.7349351  60.7086961  45.2564710  69.3924734  56.7814250
  46.0457088  69.0413799  56.9016332  45.4308307  70.2061122  56.5190884
  45.3984991  69.4610591  56.7602118  34.9958020  62.8033460  53.8342039
  34.1546027  62.7037334  54.0420933  35.2048028  63.5728940  54.1856359
  34.9022713  62.9025503  53.9169354  32.4733587  60.4252997  51.6626789
  32.0790285  60.4996008  50.8876899  31.9173704  60.8110943  52.2135151
  32.3336399  60.4934771  51.6294449  38.8074685  60.7314859  53.0839636
  38.5037822  60.1770847  53.6850044  38.1054106  60.9107069  52.5967670
  38.6590895  60.6759641  53.1009342  37.8640782  58.0415379  47.6484338
  38.1400516  57.3234291  47.2361906  38.4639451  58.6400299  47.4405444
  37.9934047  58.0235749  47.5565099  36.8693036  67.9464580  57.7911734
  36.7613391  67.9566642  58.6573792  37.0788817  68.7719360  57.6016688
  36.8843147  68.0705654  57.8915826  41.3651303  55.7128896  45.9230933
  41.8195049  55.8839456  46.6478778  41.8391348  55.0997007  45.5228709
  41.5019623  55.6479781  45.9704695  34.8866828  65.1977222  55.2533672
  34.2954761  65.8386720  55.2236687  35.6487851  65.6214839  55.2264971
  34.9115089  65.3553060  55.2448819  35.2827451  56.3579220  55.9201689
  35.7428932  56.4318149  56.6576813  35.3283557  57.1560474  55.5701511
  35.3578006  56.4873367  55.9774446  36.9310800  57.0245915  60.4873716
  36.5396366  56.3779262  60.9229494  37.0996663  57.6157350  61.1067972
  36.8981711  57.0160182  60.6436422  51.0057249  65.0282992  56.2510950
  51.0640373  65.4769640  56.9970926  50.3723717  65.4381804  55.8141030
  50.9208545  65.1556726  56.2963498  44.6456344  70.6486534  52.6865696
  44.4476033  71.1377348  51.9921907  44.0244055  70.8527775  53.2649829
  44.5243909  70.7503072  52.6688919  38.7064323  62.4171430  47.0275940
  39.4506367  62.8045707  47.2658890  38.8525019  61.5728856  47.1916428
  38.8374908  62.3501903  47.0869910  41.6942198  57.9896904  52.9269860
  41.2202153  57.4638666  53.4375171  42.0660334  57.4426377  52.3584721
  41.6792087  57.8312900  52.9185007  32.0715229  59.9868410  58.2953405
  32.9340842  59.8864120  58.2090735  31.7407012  59.4063120  57.7338978
  32.1500425  59.8860037  58.1998811  47.9578929  63.0499279  54.3376640
  47.7177152  62.2105694  54.3419067  48.4370936  63.1299446  55.0617414
  47.9931113  62.9380679  54.4451443  43.6225698  58.8833458  45.9895613
  43.0948717  58.9662202  45.3001322  44.0821406  59.6251330  45.9860258
  43.6127548  59.0054121  45.8870309  49.9584116  59.8300737  52.2905899
  49.7193886  59.7896571  51.4526684  50.1218017  60.6771889  52.4171620
  49.9474419  59.9492822  52.1859381  46.5630146  64.2150686  58.2210944
  47.2864345  63.7623212  58.0421964  46.2980108  64.4955352  57.4383272
  46.6311419  64.1901654  58.0789660  35.4317014  58.8110859  54.9563824
  34.8070085  58.8229251  54.3489776  35.0962609  59.2871034  55.6055064
  35.2902506  58.8829376  54.9620392  35.6158763  57.1535978  41.0136509
  35.2671568  57.8055703  41.4768058  35.1355209  57.1393091  40.2860380
  35.4929007  57.2479031  40.9747600  32.1442690  66.8711319  56.3967588
  31.6142615  66.1803758  56.4462563  32.4167783  66.8621505  55.5680296
  32.1067412  66.7678451  56.2815004  43.1762781  67.4537022  45.1205271
  43.8996979  67.9195135  44.9769844  42.7363372  67.5210631  44.3702868
  43.2178473  67.5320859  44.9890052  42.3448936  64.3134564  56.3705960
  41.7305929  63.7692614  56.6654595  42.8616221  63.7998801  55.8911776
  42.3304598  64.1570973  56.3430188  41.5845233  65.3838834  54.1050258
  41.1572841  64.7588553  53.6715694  41.5770177  65.1013756  54.9309265
  41.5204374  65.2491615  54.1630086  34.7007760  60.4204007  57.1738692
  34.8601247  59.6647331  57.5790414  34.5200653  60.9694947  57.8279430
  34.6973119  60.3897821  57.3301398  42.6428063  52.5865243  57.7289482
  42.1468624  52.7828917  57.0381048  43.3997125  52.9857911  57.5578283
  42.6814888  52.6742977  57.6009618  39.9130942  56.2607589  54.3192792
  39.9373430  55.7267701  53.6305572  40.1642416  55.7524897  54.9818383
  39.9540861  56.1068493  54.3157437  27.4238532  63.5439084  53.7535936
  27.3181981  63.4985928  52.8888020  26.6738752  63.8892864  54.0350221
  27.2974135  63.5879992  53.6673266  36.1932265  54.9878407  53.6998536
  36.2330636  55.4887613  54.4133244  35.3681929  55.0788801  53.4304460
  36.0771791  55.0760223  53.7649075  38.3761878  64.5539147  61.8018831
  37.5257508  64.6910861  61.9376476  38.5390005  63.8202925  62.2466533
  38.2745741  64.4653248  61.8874430  37.6146628  61.5038917  55.9972435
  36.7838558  61.6712735  55.7907684  37.5598145  61.1274868  56.7821321
  37.4836043  61.4728648  56.0820964  35.4230411  54.9947810  61.6328846
  36.0483115  54.4509942  61.9058278  34.9680891  54.5142727  61.0636637
  35.4478672  54.8437291  61.5890440  35.9882672  59.7794508  46.5262553
  36.1285633  60.2766972  47.2291195  36.4865205  59.0780803  46.6676767
  36.0823753  59.7496487  46.6514132  36.0182894  60.6461619  43.8555130
  36.6527974  61.2422044  43.7904592  36.1008505  60.3465077  44.6701000
  36.1239445  60.6902527  43.9658217  48.9965460  63.1777097  56.7241494
  49.5883300  63.8174347  56.7559692  49.4324455  62.4800133  57.0133561
  49.1483891  63.1695447  56.7722327  37.5961877  56.5775595  43.8300572
  37.9177718  56.0978677  43.1759834  37.8588821  57.3875241  43.6391384
  37.6827903  56.6265493  43.7056064  40.8258850  67.5994469  57.3499388
  40.3183941  68.1530316  57.7940019  40.5285496  67.6602759  56.5318163
  40.7063735  67.6900780  57.2947845  42.9921032  55.9647789  56.1924051
  43.4176104  55.5120315  55.5807577  42.3778025  55.4107859  56.4688839
  42.9649678  55.8161765  56.1429076  32.5235882  62.8429460  47.1244676
  33.0328112  63.4393968  47.5055982  32.9970154  62.5755434  46.4421096
  32.6679258  62.8915275  47.0799199  43.4366630  71.5157727  45.2803332
  42.7195940  71.3418589  44.8150569  44.0873368  71.2810299  44.7478818
  43.4268481  71.4553519  45.1332550  46.0214601  60.3922315  49.0244637
  45.3505791  60.9352018  48.8957702  46.7154352  60.8617171  48.7826331
  46.0243469  60.5420586  48.9700164  40.0701335  72.5319027  54.2556395
  39.8466990  71.7737857  54.6240421  39.5811178  72.5617048  53.5336835
  39.9644784  72.4241252  54.2033136  46.1842729  56.8478199  51.9335010
  46.5370339  56.4207922  52.6080809  45.3257530  56.7629042  52.0636086
  46.1092174  56.7722940  52.0530020  34.8826414  59.4785719  49.9917856
  34.1638403  59.8949851  50.2590720  35.2538776  60.0439957  49.4409495
  34.8318346  59.6235000  49.9500663  44.1825995  60.1113567  55.8819852
  44.1623922  59.9296863  56.7354631  44.2305195  60.9825586  55.8579436
  44.1860636  60.2130106  56.0043147  42.1272325  66.7000759  61.8068329
  42.0868179  66.0550436  61.2213485  42.9395643  66.6437377  62.1193741
  42.2415478  66.5959726  61.7665278  38.7179792  72.7519485  51.7093480
  38.3040191  72.0893616  51.3197321  39.4027166  72.8997344  51.1889174
  38.7578164  72.6760144  51.5749977  42.0845086  71.9109571  52.4617096
  41.6861369  72.0211841  51.6937916  41.4696306  72.1191637  53.0443656
  41.9343976  71.9583139  52.4348396  40.6572988  58.5183718  45.3291236
  40.0637828  58.8400715  44.7775803  40.6948266  57.6724814  45.1212342
  40.5747377  58.4408047  45.2174007  43.5330805  58.4763223  48.7592986
  43.3044498  58.4995924  47.9171344  43.7928881  57.6520690  48.8787997
  43.5376993  58.3579303  48.6518184  37.8150033  60.3297696  58.3618086
  37.3028936  59.7218879  58.7203118  37.6429529  61.0454289  58.8292062
  37.7139670  60.3460995  58.4834310  36.5875567  57.0139769  50.0547182
  37.0632934  57.3756849  49.4197363  36.0864167  57.6696237  50.3347325
  36.5840926  57.1633958  50.0023923  49.8186929  66.4861537  45.8460187
  50.2020535  67.2352894  46.0758284  49.0231042  66.7327357  45.5872176
  49.7580711  66.6331231  45.8417760  41.6919104  58.2521941  60.8020342
  42.2490534  58.0235750  60.1698807  41.3680169  59.0127606  60.5255554
  41.7265514  58.3305777  60.6676839  29.5617813  61.6782137  56.2708938
  29.0144532  61.0082782  56.3889806  30.3510191  61.3111985  56.3352405
  29.5969996  61.5247123  56.2977639  39.4102221  61.3389594  61.7672349
  40.1613548  61.6541271  62.0811903  39.6024797  61.1368765  60.9406271
  39.5493635  61.3556976  61.6915745  38.6302220  59.1580969  43.4220566
  39.0101185  59.1760598  42.6371681  37.8894817  59.6034958  43.3011413
  38.5771058  59.2262744  43.2884134  46.2587511  57.4663160  49.0096144
  46.2581737  57.3111817  49.8680421  46.0543691  58.3126147  48.9537530
  46.2287289  57.5683781  49.1284084  28.3204782  60.8902945  53.4254961
  28.1426543  60.4379554  54.1509877  28.0323804  61.6929106  53.6093439
  28.2517735  60.9425503  53.5598464  43.9828363  62.1460662  52.6632351
  44.4782028  61.4283657  52.6236372  43.1728139  61.8431460  52.5486838
  43.9372256  61.9958308  52.6406077  39.4286975  65.9958475  44.8129356
  38.6198297  65.6725149  44.7662665  39.9361883  65.2891697  44.7457604
  39.3836641  65.8439792  44.7959650  30.0577252  63.4230668  50.5376720
  29.1922771  63.4116359  50.4259491  30.1576068  63.2360891  51.3847859
  29.9451419  63.3936730  50.6465664  46.0480182  64.8964350  55.3509480
  46.4735253  64.3738771  54.7979905  45.6837102  65.4945187  54.8298103
  46.0566785  64.9074577  55.1918490  35.6834262  73.1928567  54.1106826
  35.9980821  74.0064956  54.1184607  36.0927675  72.8078786  54.7788985
  35.7902360  73.2557269  54.2110917  42.6358781  68.6098614  51.6810638
  43.1069960  69.3238876  51.8500623  42.9718960  68.0097364  52.2170507
  42.7553896  68.6270078  51.7843013  44.7235766  70.2199927  63.8602710
  44.8332731  69.4308488  64.2159457  45.0526663  70.1305863  63.0577048
  44.7888172  70.0905780  63.7945100  39.5528276  53.3826084  58.6368732
  39.6856182  52.5857078  58.9649708  39.9373429  53.9092487  59.2167008
  39.6284605  53.3426001  58.7712235  43.2732728  68.4016548  58.4438330
  42.7253674  67.7774432  58.1758395  43.7345756  68.5910820  57.7282410
  43.2599937  68.3375598  58.2988761  46.0826592  56.4701902  55.8289522
  45.4989581  56.9711109  55.4167090  46.4030886  55.9631459  55.1953846
  46.0439767  56.4693737  55.6748030  38.6221391  55.3842497  46.1048197
  39.4437086  55.5540810  45.8629892  38.1591042  55.5389758  45.3814495
  38.6752553  55.4324230  45.9619842  37.2116723  53.3785260  56.8846626
  37.7561136  53.0376386  57.4750968  37.2653659  54.2370721  57.0267911
  37.3005843  53.4540519  56.9928499  33.0247282  67.1401676  53.7585434
  33.6292139  67.0997510  53.1299255  32.8174594  67.9872828  53.7889490
  33.0836179  67.2589678  53.6701550  42.8391054  69.4067621  54.9747671
  43.6589428  69.2630587  55.2363967  42.5585132  70.0313820  55.5164109
  42.9187797  69.4777973  55.0935611  28.2598564  66.1236293  53.6284357
  28.1622842  65.3132565  53.9374414  29.0427434  66.1028086  53.2430625
  28.3614701  66.0003383  53.6171220  59.3104704  77.0632472  47.9390548
  59.2798709  77.9177109  48.1108817  59.9086053  76.7627765  48.4976691
  59.3941862  77.1448969  48.0465350  52.5104389  76.1508123  52.6943478
  51.6542285  76.3116622  52.7452595  52.5572043  75.2800187  52.7148539
  52.3903501  76.0458925  52.7049544  55.3556210  78.2100167  55.3375130
  55.9012170  78.8885254  55.3969099  55.2973087  78.0687628  54.4776711
  55.4272125  78.2892169  55.2187190  57.1321279  79.6384774  46.2108858
  57.0160805  80.3892461  46.6400996  57.9277166  79.3808728  46.4604945
  57.2325868  79.7119621  46.3112949  43.9685417  73.8895251  53.2480124
  43.3490448  73.2987898  53.0790138  43.8669280  74.4806686  52.6144447
  43.8623092  73.8899333  53.1285113  49.0151604  83.6278797  47.4978200
  49.3367446  84.1684005  46.8939508  49.6623701  83.0575569  47.6300490
  49.1577660  83.6237973  47.4285235  51.0653312  75.6294792  47.5812587
  51.7633477  75.8082920  48.0734050  51.3805645  75.1065132  46.9582976
  51.2148650  75.5788565  47.5614597  43.6954550  77.4347532  55.4923693
  43.5713247  78.0209978  56.1273511  44.3472834  76.9407728  55.7935968
  43.7728199  77.4486337  55.6309622  51.2541248  82.0165237  47.5692378
  51.6934883  81.4082338  48.0147151  51.1045911  81.6372611  46.7977843
  51.2962714  81.8703709  47.5211546  48.7212891  80.6109249  54.7711204
  49.3661893  80.1181692  54.4522152  48.9614668  80.7534036  55.5977282
  48.8523476  80.5586691  54.8460737  51.2598982  83.4564155  54.4218096
  51.5422225  82.6615561  54.2004852  51.9885143  83.9344743  54.4423157
  51.4088546  83.4098752  54.3921111  49.2380176  70.9987189  51.6633861
  48.9083506  71.4498333  50.9937560  48.5625178  70.9203352  52.2106868
  49.0890612  71.0538324  51.6457085  54.8550584  80.3692419  44.5223147
  54.7701880  81.2253385  44.6672716  55.3434968  80.0936743  45.1905307
  54.9139482  80.4549740  44.6425229  56.4456584  66.9872712  49.9083472
  56.1310025  67.6776191  50.3403894  55.9283526  66.9317494  49.2068973
  56.3221054  67.0807601  49.8680421  55.7869018  76.9877213  46.0220883
  55.2580489  77.2036846  46.6818189  56.3094038  77.6813351  45.9421852
  55.7857471  77.1220350  46.1076482  47.6768625  80.8840430  44.8228351
  47.0925841  81.3890461  45.2294214  47.2738721  80.6582817  44.0824942
  47.5307929  80.9248678  44.7733376  52.1345840  77.1306082  43.2997271
  52.3741844  77.3384065  42.4872614  52.4561681  76.3263590  43.4086216
  52.2182998  77.0420183  43.1957824  47.4436130  69.0599477  47.1456809
  48.1982098  69.4277795  46.9073859  47.2663665  69.4339032  47.9135989
  47.5290609  69.1697665  47.2241698  60.7371029  75.2093918  55.1904348
  59.8999450  75.2796105  55.4251943  60.7059260  75.2118413  54.3178651
  60.6089311  75.2204145  55.0963896  47.1335758  77.3526954  60.9052717
  47.3056262  77.2432848  61.7537998  47.6705115  77.9981359  60.6683909
  47.2380762  77.4318955  60.9957814  45.7993195  71.4669796  43.8434922
  45.6168768  71.6841677  43.0175915  46.6618808  71.5808809  43.8993536
  45.8997784  71.5159694  43.7289409  51.4792914  68.4696207  46.8783946
  52.2079074  68.2912162  46.4322102  51.5687807  69.3114287  47.0891124
  51.5999576  68.5680086  46.8437464  55.4601215  79.4049595  50.7816240
  56.2158730  79.8381109  50.8205149  55.5663539  78.7554364  51.3550876
  55.5871385  79.3727078  50.8714265  41.4397475  79.9458885  55.7405637
  41.1735890  79.1298001  55.8996627  41.4536039  79.9912040  54.8701153
  41.4022197  79.8315789  55.6359119  58.4178869  70.2736700  53.7748071
  59.0604777  70.3434804  54.3609986  58.6701889  69.6065922  53.2727613
  58.5501001  70.1863048  53.7875350  45.3455222  74.7443969  42.3557395
  44.6313399  74.4582149  42.7679828  45.8299191  75.0840595  42.9963783
  45.3114585  74.7525619  42.5113030  46.1896081  73.4837263  58.3872645
  45.4967878  73.0134243  58.6333376  46.8056409  73.2575567  58.9614352
  46.1780611  73.3804395  58.5081797  52.5202540  83.2473923  42.7319203
  52.9353688  82.9158947  42.0403699  51.6894469  83.0142825  42.6039340
  52.4590548  83.1645179  42.6110051  41.8490889  80.7317664  53.0217381
  41.6666462  80.7064550  52.1689673  42.5840557  81.2016602  53.0606290
  41.9304952  80.7979026  52.9015300  57.9190563  80.9669174  50.1650269
  58.1546152  81.1114373  49.3377119  58.0680126  81.7311582  50.5581782
  57.9756366  81.1008228  50.1013873  44.9136640  77.4502667  59.5299490
  45.6376613  77.4355698  60.0164385  45.0152777  78.1598022  59.0321458
  45.0354849  77.5527370  59.5278277  59.7481019  79.8070840  48.0019873
  60.0789237  80.3398480  47.3959967  60.3214108  79.8609728  48.6581824
  59.8814699  79.8940409  48.0097654  54.9612909  77.6535743  48.6843453
  55.0559763  78.3925037  49.1383078  54.3371752  77.2253218  49.1178017
  54.8821939  77.6997063  48.8151600  41.8161799  77.6111165  53.1716448
  42.3935301  77.4747616  53.8108693  41.1175861  77.1546949  53.4262032
  41.7982820  77.5233431  53.3038738  55.2135930  79.4984482  41.9180405
  55.1316092  79.5686670  42.7835392  55.8515650  80.0614226  41.7264145
  55.2955767  79.5923454  42.0170354  48.5729101  79.2645220  51.3854931
  48.3148345  78.4316955  51.3586231  48.6277584  79.4902833  50.5447431
  48.5428879  79.1742992  51.2575068  53.6530151  71.3673671  51.4859024
  52.9486478  70.8782857  51.6442943  53.7015126  71.3796146  50.6147468
  53.5560203  71.2963319  51.3798364  47.5463813  76.8182983  51.8719826
  46.9713404  76.9775151  52.5083787  47.1699489  76.1818392  51.4088276
  47.4066626  76.7480796  51.8974384  51.2137102  75.2906332  56.7312204
  50.8251535  74.8660550  56.0764395  50.5491800  75.5388482  57.2389231
  51.0584030  75.2645053  56.7100072  60.8560371  75.0481337  49.5060034
  60.5996936  74.2361278  49.3157917  61.6989685  75.0558904  49.2790222
  60.9426396  74.9293334  49.4444851  37.2920632  76.4623058  49.8864266
  37.3780884  76.0854926  50.6677796  37.9196430  76.0883503  49.4084225
  37.3977183  76.3508540  49.9309744  55.0363463  68.9880961  54.2436188
  55.4173975  68.3059132  54.6304063  54.2326748  68.6990563  54.0611853
  54.9739925  68.8448009  54.2740244  52.3176040  79.5204937  44.9289011
  53.1316679  79.8119830  44.8171783  52.2535181  78.8664799  44.3547304
  52.4278779  79.4670132  44.8277849  48.1883948  82.9926454  50.0561323
  48.8257895  82.7538202  50.6013117  48.6139020  83.1963613  49.3214484
  48.3460115  82.9877464  50.0278481  48.8286763  78.2128744  44.3936213
  49.2131916  77.9936451  45.1452758  48.5798384  79.0391689  44.5237289
  48.8488836  78.3026890  44.5237289  48.9955304  71.4935159  64.1098797
  48.6808745  72.2634722  63.8468360  48.6745236  70.9305415  63.5251024
  48.9014223  71.5245428  63.9840147  50.5705420  83.4698877  51.7355110
  50.6444429  83.3074049  52.5896959  51.3874927  83.6589066  51.4915591
  50.7021779  83.4735619  51.8253135  46.5487201  69.8825681  49.7244993
  45.6809626  69.9548280  49.7902602  46.8362405  70.6847760  49.9132968
  46.4626949  70.0119828  49.7619760  55.6720089  70.0303540  58.0556315
  56.4173681  69.8413350  57.6419740  55.2557394  70.5561778  57.4970171
  55.7205064  70.0805685  57.9120888  63.0482360  77.4012769  53.0061820
  63.5990282  76.7680838  53.2458912  63.0326476  77.9328161  53.6977324
  63.1267557  77.3861717  53.1440678  49.7004751  81.2351366  57.5521713
  49.2016445  81.9467134  57.6306602  50.5104975  81.5552032  57.5139876
  49.7460858  81.3878214  57.5578282  45.9632869  80.4974319  51.7984434
  45.6746117  79.8711790  52.3330162  46.8316217  80.4394606  51.8649115
  46.0493121  80.3961863  51.8875389  56.7510767  75.6409102  52.1166416
  56.4075532  74.9199437  52.4673666  56.8503809  75.4322953  51.2744774
  56.7152809  75.5033305  52.0438096  46.1665142  82.1369570  47.7226799
  46.9211110  82.5182609  47.9362262  45.5735755  82.5880714  48.1773496
  46.1901856  82.2598397  47.8209678  48.6271809  74.0932410  62.8484012
  47.8171585  74.3990190  62.7373854  49.1046496  74.8137993  62.9636596
  48.5775288  74.2447011  62.8491083  47.4863369  83.3078131  53.0966915
  46.9644122  83.4478423  53.7818779  47.8737389  82.5488796  53.2869032
  47.4667070  83.2163655  53.2267991  44.4754553  73.3583940  47.1661869
  44.1879349  72.9885210  46.4293817  45.1625021  73.8278795  46.9045574
  44.5343450  73.3730909  47.0176945  48.9129694  80.3382150  48.4948406
  48.7172477  80.9456885  47.9008709  49.1364040  79.6450094  48.0140080
  48.9164335  80.3259676  48.3364487  47.3108224  77.2236888  48.6129274
  48.0330876  77.3878046  48.1533080  46.8316217  77.9446553  48.5068614
  47.3471955  77.3535118  48.5294888  55.2701732  73.5600687  53.9925959
  54.4312833  73.5861966  53.7564222  55.3406099  74.2071422  54.5731306
  55.1570125  73.6596813  54.0435076  44.9615841  79.6294961  57.7183414
  45.4736938  79.9079214  57.0692174  44.6752184  80.3684255  58.0846227
  44.9950704  79.7797314  57.6773292  53.7171010  70.4586064  48.7253575
  54.4197363  70.2593812  48.2473533  53.4515199  69.6862006  49.0322418
  53.7817643  70.3149030  48.6999017  59.1459256  78.7668674  51.2787201
  59.0593230  78.9224100  52.1321980  58.6909736  79.4106749  50.9046606
  59.0662512  78.8844429  51.3494308  42.0482747  74.1365152  48.0147151
  42.1498884  74.9391314  48.3428126  42.8438634  73.9352488  47.7170231
  42.1810653  74.2251051  48.0182506  48.4799566  71.7221349  57.7784456
  48.2882764  71.7376484  58.6283879  49.3298162  71.9185023  57.7551110
  48.5775288  71.7535700  57.9007750  42.8646479  74.2512331  55.7568272
  42.7231971  73.3996271  55.8812780  43.1487043  74.2940991  54.9330478
  42.8854326  74.1312081  55.6535896  53.0185072  76.0879421  49.9012760
  52.7719786  76.0075172  50.7349549  53.3470195  75.3032889  49.7075288
  53.0306315  75.9605686  49.9960283  48.9782099  78.8236139  59.3135743
  49.1225475  79.4037348  58.6778853  49.3257748  79.2012436  60.0185598
  49.0509560  78.9656843  59.3234738  51.1502016  78.0226308  57.0960875
  50.4025331  78.2157322  56.6909153  51.3043542  77.1971527  56.8584996
  51.0624444  77.9291419  57.0006281  51.3903794  71.9176859  57.9856279
  51.8476408  72.6500833  58.1129071  51.4660122  71.4943324  58.7443535
  51.4694763  71.9634097  58.1157355  55.8631119  65.0966734  51.8550122
  55.9814688  65.5543197  51.1217424  55.6893295  64.2911995  51.5686339
  55.8550290  65.0460506  51.7051055  49.2686171  73.9078962  54.8298103
  48.4782246  73.7270423  55.1515439  49.6646794  73.1305915  54.8128397
  49.2103048  73.7666423  54.8750651  53.7552062  82.7366737  40.2704816
  54.5225047  82.7966862  39.8610668  53.3083371  82.1647178  39.7861135
  53.8025489  82.6603312  40.1382527  51.7824002  76.3839222  59.3121602
  51.7183143  77.2449178  59.1841738  51.9221189  76.0671215  58.5117153
  51.7939472  76.4639388  59.1749815  50.4643096  79.0771361  53.4537805
  50.0405345  79.2775860  52.7176823  50.2887951  78.2300209  53.5662104
  50.3753976  78.9820142  53.3611495  45.7525541  79.5723412  48.8865777
  45.9090160  79.5070215  49.7421769  46.0926134  80.3471965  48.6744457
  45.8258775  79.6772610  48.9820371  52.2904685  78.9481296  47.7559140
  52.8320231  78.4451677  48.2197761  52.6051244  78.8946491  46.9448626
  52.4169082  78.8660717  47.7042952  50.4591135  84.3398647  45.0399168
  50.5283955  83.4813186  45.1792169  51.2379590  84.5570528  44.7118193
  50.5843985  84.2451511  45.0116326  53.4393955  73.8417600  57.8081441
  53.6535924  73.2028515  57.2544795  52.8227854  74.2863424  57.3789303
  53.3799284  73.8127744  57.6631872  42.3259802  76.7558363  49.2026544
  42.7058767  77.1742908  48.5386812  41.7515167  77.3371819  49.5095388
  42.2971127  76.9036222  49.1503285  55.6033043  75.4506666  58.7464748
  54.7909724  75.1432556  58.8277921  56.0622977  74.9705666  59.3107460
  55.5513427  75.3343158  58.8419342  55.0138297  83.3286338  49.1941692
  54.6552952  83.5000980  49.9705725  54.5277008  83.7899543  48.6369691
  54.8896994  83.4225309  49.2266961  52.8308683  66.9517536  52.7968784
  51.9602241  66.9256257  52.7502093  53.0849024  66.7794728  51.9794629
  52.7402243  66.9227680  52.6688920  49.8026663  79.0085503  41.7341927
  50.0919187  79.7850385  42.0085501  49.8898462  78.4974234  42.4356426
  49.8580919  79.0477421  41.8784424  49.8557824  68.9623765  54.2542254
  49.3396312  68.2703956  54.3793833  49.2951753  69.6294542  54.2004853
  49.6964337  68.9587022  54.2648320  51.9250057  69.5016725  56.0835107
  51.5381810  69.5265756  56.8648636  51.4382994  68.9358403  55.6309623
  51.7962566  69.4212475  56.1323010  57.9000037  76.0679380  54.7074809
  57.4727645  75.9805728  53.9522908  57.2626090  76.1757155  55.2929653
  57.7429644  76.0712039  54.6820250  51.5907199  66.3883710  58.3745366
  52.2200317  66.9244010  58.0966437  51.7593062  66.2961069  59.2258932
  51.7084993  66.4545072  58.4593895  51.3921114  71.1754905  60.6471778
  52.2194543  70.9040054  60.7030393  51.4128960  71.9715746  61.0035596
  51.5173964  71.2534659  60.7086961  45.9690604  78.3218768  53.8342039
  45.1278610  78.2222642  54.0420933  46.1780612  79.0914248  54.1856359
  45.8755296  78.4210811  53.9169354  43.4466171  75.9438304  51.6626789
  43.0522868  76.0181316  50.8876899  42.8906287  76.3296251  52.2135151
  43.3068983  76.0120079  51.6294449  55.0831117  68.9219599  51.3430668
  55.2880711  68.8541906  52.1887665  54.7557541  69.7278420  51.2751846
  55.0646365  69.0305539  51.4590323  49.7807268  76.2500167  53.0839636
  49.4770406  75.6956155  53.6850044  49.0786689  76.4292377  52.5967670
  49.6323478  76.1944949  53.1009342  48.8373366  73.5600687  47.6484338
  49.1133100  72.8419599  47.2361906  49.4372035  74.1585606  47.4405444
  48.9666630  73.5421057  47.5565099  58.3364805  69.4751363  50.8233434
  57.7239119  69.9621765  51.2087166  58.4328980  68.7994854  51.3671085
  58.2602703  69.4469672  50.9612292  52.3383886  71.2314204  45.9230933
  52.7927633  71.4024764  46.6478778  52.8123932  70.6182315  45.5228709
  52.4752206  71.1665089  45.9704695  45.8599412  80.7162530  55.2533672
  45.2687345  81.3572028  55.2236687  46.6220435  81.1400147  55.2264971
  45.8847672  80.8738368  55.2448819  46.2560034  71.8764528  55.9201689
  46.7161516  71.9503457  56.6576813  46.3016141  72.6745782  55.5701511
  46.3310590  72.0058675  55.9774446  47.9043384  72.5431222  60.4873716
  47.5128949  71.8964570  60.9229494  48.0729247  73.1342658  61.1067972
  47.8714294  72.5345490  60.6436422  49.6796906  77.9356738  47.0275940
  50.4238951  78.3231015  47.2658890  49.8257602  77.0914164  47.1916428
  49.8107491  77.8687211  47.0869910  51.5976482  69.7306997  52.0607802
  50.7512527  69.9029805  51.9349152  51.5947614  68.9256341  52.3973630
  51.4723631  69.6368026  52.0918929  52.6674782  73.5082212  52.9269860
  52.1934736  72.9823974  53.4375171  53.0392918  72.9611684  52.3584721
  52.6524671  73.3498208  52.9185007  43.0447812  75.5053718  58.2953405
  43.9073425  75.4049427  58.2090735  42.7139595  74.9248428  57.7338978
  43.1233008  75.4045345  58.1998811  58.9311513  78.5684587  54.3376640
  58.6909735  77.7291002  54.3419067  59.4103520  78.6484754  55.0617414
  58.9663696  78.4565987  54.4451443  54.5958282  74.4018766  45.9895613
  54.0681300  74.4847510  45.3001322  55.0553990  75.1436638  45.9860258
  54.5860132  74.5239429  45.8870309  60.9316700  75.3486044  52.2905899
  60.6926470  75.3081879  51.4526684  61.0950601  76.1957196  52.4171620
  60.9207003  75.4678129  52.1859381  46.4049598  74.3296167  54.9563824
  45.7802668  74.3414559  54.3489776  46.0695193  74.8056342  55.6055064
  46.2635090  74.4014684  54.9620392  46.5891347  72.6721286  41.0136509
  46.2404151  73.3241011  41.4768058  46.1087793  72.6578399  40.2860380
  46.4661591  72.7664339  40.9747600  54.1495364  82.9722330  45.1205271
  54.8729563  83.4380443  44.9769844  53.7095955  83.0395939  44.3702868
  54.1911056  83.0506166  44.9890052  53.3181519  79.8319872  56.3705960
  52.7038512  79.2877922  56.6654595  53.8348804  79.3184108  55.8911776
  53.3037182  79.6756281  56.3430188  52.5577816  80.9024142  54.1050258
  52.1305424  80.2773861  53.6715694  52.5502761  80.6199064  54.9309265
  52.4936958  80.7676923  54.1630086  45.6740343  75.9389315  57.1738692
  45.8333830  75.1832639  57.5790414  45.4933237  76.4880255  57.8279430
  45.6705702  75.9083129  57.3301398  53.6160646  68.1050551  57.7289482
  53.1201208  68.3014225  57.0381048  54.3729708  68.5043219  57.5578283
  53.6547471  68.1928284  57.6009618  50.8863526  71.7792897  54.3192792
  50.9106013  71.2453009  53.6305572  51.1375000  71.2710205  54.9818383
  50.9273445  71.6253801  54.3157437  38.3971116  79.0624392  53.7535936
  38.2914565  79.0171236  52.8888020  37.6471336  79.4078172  54.0350221
  38.2706719  79.1065300  53.6673266  47.1664848  70.5063715  53.6998536
  47.2063220  71.0072921  54.4133244  46.3414513  70.5974108  53.4304460
  47.0504374  70.5945531  53.7649075  48.5879212  77.0224225  55.9972435
  47.7571141  77.1898043  55.7907684  48.5330729  76.6460175  56.7821321
  48.4568627  76.9913956  56.0820964  46.3962995  70.5133118  61.6328846
  47.0215698  69.9695250  61.9058278  45.9413475  70.0328035  61.0636637
  46.4211256  70.3622599  61.5890440  46.9615255  75.2979816  46.5262553
  47.1018217  75.7952280  47.2291195  47.4597788  74.5966111  46.6676767
  47.0556336  75.2681795  46.6514132  46.9915478  76.1646927  43.8555130
  47.6260557  76.7607352  43.7904592  47.0741089  75.8650385  44.6701000
  47.0972029  76.2087835  43.9658217  48.5694461  72.0960903  43.8300572
  48.8910302  71.6163985  43.1759834  48.8321404  72.9060549  43.6391384
  48.6560486  72.1450801  43.7056064  53.9653616  71.4833097  56.1924051
  54.3908687  71.0305623  55.5807577  53.3510609  70.9293167  56.4688839
  53.9382261  71.3347073  56.1429076  43.4968466  78.3614768  47.1244676
  44.0060695  78.9579276  47.5055982  43.9702738  78.0940742  46.4421096
  43.6411841  78.4100583  47.0799199  52.4047839  67.9548196  49.6014628
  51.7616156  67.8045843  50.1699767  52.0647246  67.7090542  48.8363733
  52.2592916  67.8960319  49.5717643  56.9947185  75.9107623  49.0244637
  56.3238375  76.4537325  48.8957702  57.6886935  76.3802479  48.7826331
  56.9976053  76.0605894  48.9700164  57.1575312  72.3663507  51.9335010
  57.5102923  71.9393230  52.6080809  56.2990114  72.2814350  52.0636086
  57.0824757  72.2908247  52.0530020  45.8558997  74.9971027  49.9917856
  45.1370987  75.4135159  50.2590720  46.2271360  75.5625265  49.4409495
  45.8050929  75.1420308  49.9500663  55.1558578  75.6298875  55.8819852
  55.1356506  75.4482171  56.7354631  55.2037779  76.5010894  55.8579436
  55.1593219  75.7315414  56.0043147  51.6305572  74.0369026  45.3291236
  51.0370411  74.3586023  44.7775803  51.6680850  73.1910122  45.1212342
  51.5479961  73.9593355  45.2174007  58.5899373  67.4881919  52.8619322
  58.0830237  66.7811058  52.7940500  59.3866806  67.1575108  52.9920399
  58.6326612  67.3355070  52.8718317  54.5063388  73.9948531  48.7592986
  54.2777081  74.0181232  47.9171344  54.7661465  73.1705998  48.8787997
  54.5109576  73.8764611  48.6518184  48.7882617  75.8483004  58.3618086
  48.2761520  75.2404187  58.7203118  48.6162113  76.5639597  58.8292062
  48.6872254  75.8646303  58.4834310  43.6348332  74.2920579  61.0120448
  43.4650922  74.9521954  60.4668655  43.1914281  74.5027141  61.7332937
  43.5447665  74.4206561  61.0382078  47.5608151  72.5325077  50.0547182
  48.0365517  72.8942157  49.4197363  47.0596751  73.1881545  50.3347325
  47.5573510  72.6819266  50.0023923  52.6651687  73.7707249  60.8020342
  53.2223117  73.5421058  60.1698807  52.3412752  74.5312914  60.5255554
  52.6998097  73.8491085  60.6676839  40.5350396  77.1967445  56.2708938
  39.9877116  76.5268090  56.3889806  41.3242774  76.8297293  56.3352405
  40.5702580  77.0432431  56.2977639  49.6034804  74.6766277  43.4220566
  49.9833769  74.6945906  42.6371681  48.8627400  75.1220266  43.3011413
  49.5503642  74.7448052  43.2884134  57.2320095  72.9848468  49.0096144
  57.2314321  72.8297125  49.8680421  57.0276275  73.8311455  48.9537530
  57.2019872  73.0869089  49.1284084  39.2937366  76.4088253  53.4254961
  39.1159127  75.9564862  54.1509877  39.0056388  77.2114414  53.6093439
  39.2250319  76.4610810  53.5598464  54.9560947  77.6645970  52.6632351
  55.4514612  76.9468965  52.6236372  54.1460722  77.3616768  52.5486838
  54.9104840  77.5143616  52.6406077  50.4019558  81.5143783  44.8129356
  49.5930881  81.1910457  44.7662665  50.9094467  80.8077005  44.7457604
  50.3569225  81.3625100  44.7959650  41.0309835  78.9415976  50.5376720
  40.1655355  78.9301667  50.4259491  41.1308651  78.7546199  51.3847859
  40.9184002  78.9122038  50.6465664  57.0212766  80.4149658  55.3509480
  57.4467837  79.8924079  54.7979905  56.6569685  81.0130495  54.8298103
  57.0299368  80.4259885  55.1918490  53.6091365  84.1283922  51.6810638
  54.0802543  84.8424184  51.8500623  53.9451543  83.5282672  52.2170507
  53.7286480  84.1455386  51.7843013  50.5260860  68.9011392  58.6368732
  50.6588766  68.1042386  58.9649708  50.9106013  69.4277795  59.2167008
  50.6017189  68.8611309  58.7712235  53.5993215  65.8241718  55.2349826
  52.7939179  65.7139448  55.5517664  53.4699951  65.9254174  54.3779691
  53.4613348  65.8225389  55.1557866  57.0559176  71.9887210  55.8289522
  56.4722164  72.4896417  55.4167090  57.3763470  71.4816767  55.1953846
  57.0172351  71.9879045  55.6748030  49.5953975  70.9027805  46.1048197
  50.4169669  71.0726118  45.8629892  49.1323626  71.0575066  45.3814495
  49.6485137  70.9509538  45.9619842  48.1849307  68.8970567  56.8846626
  48.7293720  68.5561694  57.4750968  48.2386242  69.7556029  57.0267911
  48.2738426  68.9725827  56.9928499  26.0857778   7.4454680  34.8730595
  26.0551782   8.2999316  35.0448864  26.6839126   7.1449972  35.4316738
  26.1694935   7.5271176  34.9805397  19.2857462   6.5330331  39.6283525
  18.4295358   6.6938829  39.6792642  19.3325116   5.6622395  39.6488586
  19.1656574   6.4281133  39.6389591  13.6698602  16.0693049  35.3920757
  12.9181502  15.6908587  35.1636802  14.1184614  16.1011482  34.6439567
  13.6248269  16.0178656  35.2478259  22.5951179  12.8016856  49.2343981
  23.3017946  12.3068887  49.3630916  22.7839114  13.2425938  48.5046639
  22.7279085  12.7935207  49.1453027  19.1223562  16.4918418  30.8206304
  18.7874931  17.1695340  30.3850526  19.6350432  16.1023729  30.2323175
  19.1489143  16.5342996  30.6693095  18.6627853  18.4432687  36.7617415
  19.0467233  19.0119586  36.2222190  18.5986995  17.7182197  36.2823231
  18.7101281  18.4208150  36.6111278  22.1309283   8.5922375  42.2715177
  22.6765244   9.2707461  42.3309146  22.0726160   8.4509836  41.4116758
  22.2025198   8.6714376  42.1527237  15.2483358  16.0811441  37.6583529
  15.3493721  15.2711795  37.9680657  14.6525104  15.9868387  37.0283208
  15.1755897  15.9476469  37.6109767  23.9074352  10.0206982  33.1448904
  23.7913878  10.7714668  33.5741043  24.7030239   9.7630935  33.3944991
  24.0078942  10.0941829  33.2452996  15.0884098  20.9989030  39.0598385
  15.7321553  21.4402194  39.4494543  15.4140353  20.1942456  38.9728644
  15.2315927  20.9454225  39.1043862   8.4448403  12.1031727  37.2835863
   8.2098587  11.2699380  37.1768132   8.5834043  12.3836393  36.4697064
   8.4304065  12.0215231  37.1478218  15.7904678  14.0101005  34.4318247
  16.1120519  14.5506212  33.8279555  16.4376774  13.4397776  34.5640537
  15.9330733  14.0060180  34.3625282  17.8406386   6.0117000  34.5152634
  18.5386550   6.1905127  35.0074097  18.1558718   5.4887339  33.8923023
  17.9901723   5.9610772  34.4954644  10.4707623   7.8169740  42.4263739
  10.3466320   8.4032185  43.0613558  11.1225908   7.3229935  42.7276014
  10.5481272   7.8308544  42.5649669  18.0294321  12.3987445  34.5032425
  18.4687957  11.7904545  34.9487198  17.8798984  12.0194818  33.7317890
  18.0715787  12.2525916  34.4551592  15.4965964  10.9931457  41.7051250
  16.1414967  10.5003900  41.3862199  15.7367741  11.1356243  42.5317329
  15.6276549  10.9408899  41.7800784  18.0352055  13.8386362  41.3558143
  18.3175298  13.0437768  41.1344899  18.7638216  14.3166950  41.3763204
  18.1841619  13.7920959  41.3261158  21.6303658  10.7514626  31.4563194
  21.5454953  11.6075593  31.6012763  22.1188041  10.4758950  32.1245353
  21.6892555  10.8371948  31.5765276  23.2209657  -2.6305081  36.8423519
  22.9063098  -1.9401602  37.2743941  22.7036599  -2.6860298  36.1409019
  23.0974128  -2.5370192  36.8020468  22.5622091   7.3699420  32.9560929
  22.0333562   7.5859054  33.6158236  23.0847111   8.0635559  32.8761899
  22.5610544   7.5042557  33.0416529  14.4521699  11.2662637  31.7568397
  13.8678914  11.7712668  32.1634261  14.0491794  11.0405024  31.0164989
  14.3061002  11.3070885  31.7073423  10.0065727  16.9817398  38.5592069
   9.5233306  17.7067888  38.5351652  10.8189046  17.2793528  38.6702227
  10.0556475  17.1319752  38.5719348  16.0779881  15.7749579  41.1641883
  15.5606823  15.4156994  40.5603191  16.7754273  15.2511753  41.1747949
  16.1045462  15.6447267  41.0772142  19.7343473  16.2244393  47.1258056
  19.8226819  16.0370533  47.9736267  20.1633186  15.5781823  46.7262903
  19.8105576  16.1007401  47.1929808  17.3013933  15.5075553  46.1075719
  16.7384768  15.0948163  46.6315380  18.0634957  15.4328459  46.5268862
  17.3308382  15.4352953  46.2468719  18.9098913   7.5128289  30.2337318
  19.1494917   7.7206273  29.4212661  19.2314754   6.7085798  30.3426262
  18.9936071   7.4242390  30.1297871  12.8609925  17.4973574  38.7112349
  13.5630504  16.9825563  38.7685105  12.7807408  17.8247725  39.5159224
  12.9533685  17.4687800  38.8385141  27.5124102   5.5916125  42.1244395
  26.6752523   5.6618312  42.3591990  27.4812333   5.5940620  41.2518698
  27.3842384   5.6026352  42.0303943  13.9088831   7.7349161  47.8392764
  14.0809335   7.6255056  48.6878045  14.4458189   8.3803566  47.6023956
  14.0133835   7.8141163  47.9297860  12.1860700  13.6879926  38.2197957
  13.0249599  13.9202859  38.2671718  12.2172469  12.8184237  38.1504992
  12.3142418  13.5936873  38.2162601  12.8113403  14.1080801  42.5211262
  13.3511628  13.9651932  43.1914635  12.1283349  14.5077552  42.8895289
  12.7905557  14.1460472  42.6745684  22.2354288   9.7871802  37.7156287
  22.9911803  10.2203316  37.7545195  22.3416612   9.1376572  38.2890923
  22.3624458   9.7549286  37.8054312  19.8463533  15.6553412  49.7901840
  20.6303949  15.7684260  50.1557582  19.6460127  14.8294549  49.9860526
  19.9329558  15.5500131  49.8736226   8.2150548  10.3281092  42.6745684
   7.9488963   9.5120209  42.8336674   8.2289112  10.3734248  41.8041199
   8.1775270  10.2137997  42.5699166  25.1931942   0.6558907  40.7088118
  25.8357850   0.7257012  41.2950033  25.4454963  -0.0111870  40.2067659
  25.3254074   0.5685256  40.7215397  12.1208295   5.1266176  29.2897442
  11.4066472   4.8404356  29.7019874  12.6052264   5.4662802  29.9303829
  12.0867658   5.1347826  29.4453077  20.0033926  17.5663514  43.4368296
  19.2049172  17.3263014  43.6942164  20.4519937  17.6177907  44.1835343
  19.9508537  17.5385905  43.5853220  28.4078805  10.3325999  37.3578327
  29.0695239   9.7716668  37.2574235  27.7670217   9.8378030  37.6831018
  28.4107673  10.1762408  37.3910667  19.2955613  13.6296130  29.6659250
  19.7106761  13.2981154  28.9743746  18.4647543  13.3965033  29.5379387
  19.2343622  13.5467386  29.5450098   8.6243962  11.1139871  39.9557428
   8.4419535  11.0886757  39.1029720   9.3593631  11.5838809  39.9946337
   8.7058026  11.1801234  39.8355347  24.6943636  11.3491381  37.0990316
  24.9299225  11.4936580  36.2717166  24.8433200  12.1133789  37.4921829
  24.7509439  11.4830436  37.0353919  11.6889713   7.8324874  46.4639537
  12.4129686   7.8177905  46.9504431  11.7905850   8.5420230  45.9661505
  11.8107922   7.9349578  46.4618324  26.5234093  10.1893047  34.9359919
  26.8542310  10.7220688  34.3300014  27.0967181  10.2431935  35.5921870
  26.6567772  10.2762616  34.9437701  19.0634663  11.3123959  51.3288484
  18.2707644  11.6267471  51.5141103  19.1783590  11.5275427  50.4909268
  18.9630073  11.3907796  51.2326818  21.7365982   8.0357950  35.6183500
  21.8312836   8.7747244  36.0723125  21.1124825   7.6075426  36.0518064
  21.6575012   8.0819271  35.7491647  19.9918456  11.2144163  46.2673780
  20.5657317  10.5771407  46.4222344  19.9133259  11.2148245  45.3983438
  20.0651690  11.1209274  46.1620191   8.5914872   7.9933372  40.1056495
   9.1688375   7.8569823  40.7448740   7.8928934   7.5369156  40.3602079
   8.5735893   7.9055638  40.2378784  21.9889003   9.8806690  28.8520452
  21.9069166   9.9508877  29.7175439  22.6268724  10.4436434  28.6604192
  22.0708840   9.9745661  28.9510401  15.3482174   9.6467428  38.3194978
  15.0901419   8.8139163  38.2926277  15.4030657   9.8725041  37.4787478
  15.3181952   9.5565199  38.1915115  20.4283224   1.7495879  38.4199071
  19.7239551   1.2605064  38.5782990  20.4768199   1.7618353  37.5487515
  20.3313276   1.6785526  38.3138410  14.3216886   7.2005190  38.8059873
  13.7466478   7.3597359  39.4423834  13.9452563   6.5640599  38.3428323
  14.1819699   7.1303003  38.8314431  17.9890175   5.6728540  43.6652251
  17.6004608   5.2482757  43.0104442  17.3244873   5.9210689  44.1729278
  17.8337103   5.6467261  43.6440119  27.6313444   5.4303544  36.4400081
  27.3750009   4.6183486  36.2497964  28.4742758   5.4381111  36.2130268
  27.7179470   5.3115542  36.3784898  21.8116537  -0.6296832  41.1776235
  22.1927048  -1.3118661  41.5644109  21.0079821  -0.9187230  40.9951900
  21.7492998  -0.7729783  41.2080291  19.0929113   9.9027144  31.8629058
  19.9069752  10.1942037  31.7511829  19.0288255   9.2487007  31.2887351
  19.2031852   9.8492339  31.7617895  25.3138603  12.5853140  46.2758634
  25.0777241  11.7541205  46.1570694  25.9581832  12.5338747  46.8613478
  25.3733274  12.4550828  46.3444527  14.9637022  13.3748662  36.9901370
  15.6010968  13.1360409  37.5353163  15.3892093  13.5785821  36.2554531
  15.1213188  13.3699672  36.9618527   9.6549664  15.6136998  40.8735674
   9.6953809  15.8851849  40.0455453  10.2144188  16.1378906  41.2893462
   9.7433010  15.7312753  40.8127562  15.6039837   8.5950951  31.3276259
  15.9884989   8.3758658  32.0792805  15.3551457   9.4213897  31.4577336
  15.6241909   8.6849098  31.4577336  26.3375024  12.3697589  42.3386928
  26.0320841  13.1025646  42.7000244  25.6181240  11.9635519  42.0579714
  26.1862366  12.4179322  42.3500065  17.3458494  13.8521084  38.6695156
  17.4197502  13.6896256  39.5237006  18.1628000  14.0411274  38.4255638
  17.4774852  13.8557827  38.7593182  32.0376816   9.0090590  41.6655272
  31.9701316   9.0286549  40.7957859  32.0232479   9.8520917  41.8910943
  32.0255573   9.1364324  41.5707749  11.1064250  14.1978947  35.6989600
  10.2802368  14.4440684  35.5723879  11.1676241  14.1191028  36.5651658
  10.9938417  14.2223896  35.8078544  22.4473163   0.4125747  44.9896362
  23.1926755   0.2235558  44.5759787  22.0310467   0.9383985  44.4310218
  22.4958137   0.4627893  44.8460935  15.8863079  16.8155827  33.4008630
  16.1761378  16.4244809  32.6767856  16.6166560  16.9972532  33.8413905
  16.0369963  16.7849641  33.3591437  29.8235434   7.7834976  39.9401867
  30.3743355   7.1503045  40.1798959  29.8079549   8.3150369  40.6317371
  29.9020630   7.7683924  40.0780725  16.4757824  11.6173573  44.4861760
  15.9769518  12.3289341  44.5646649  17.2858049  11.9374240  44.4479923
  16.5213931  11.7700422  44.4918329  13.8268995  18.7923210  36.4668779
  13.6069290  18.5020564  37.2595446  13.6063517  18.1338165  35.9386692
  13.7616589  18.6522918  36.5057688  12.7385942  10.8796526  38.7324481
  12.4499191  10.2533997  39.2670208  13.6069290  10.8216814  38.7989162
  12.8246194  10.7784070  38.8215436  23.5263840   6.0231310  39.0506463
  23.1828606   5.3021645  39.4013713  23.6256882   5.8145161  38.2084821
  23.4905883   5.8855513  38.9778143  15.9936951  20.1652600  35.2499472
  16.6461009  19.6329042  35.4790498  15.2962559  19.8121252  35.6367346
  15.9867668  20.0342123  35.3411640  12.9418215  12.5191777  34.6566846
  13.6964183  12.9004816  34.8702309  12.3488828  12.9702921  35.1113543
  12.9654929  12.6420605  34.7549725  23.9876869  12.4857014  34.5930451
  24.5534902  13.1450224  34.5088994  23.3404772  12.8306712  35.0646853
  23.9755625  12.6338955  34.6503208  15.4024882   4.4754618  49.7824059
  14.5924658   4.7812397  49.6713901  15.8799569   5.1960200  49.8976643
  15.3528361   4.6269219  49.7831130  14.2616442  13.6900339  40.0306962
  13.7397196  13.8300630  40.7158826  14.6490462  12.9311003  40.2209079
  14.2420143  13.5985862  40.1608038  20.4583447  15.4295798  34.0167530
  20.2170123  14.6963659  33.6094595  20.6384780  15.9782655  33.3633864
  20.4491071  15.4018189  33.8597753  15.6882768  10.7204358  35.4288453
  15.4925550  11.3279092  34.8348756  15.9117113  10.0272302  34.9480127
  15.6917409  10.7081883  35.2704533  14.0861298   7.6059096  35.5469321
  14.8083950   7.7700254  35.0873127  13.6069290   8.3268760  35.4408661
  14.1225028   7.7357325  35.4634935  22.0454805   3.9422894  40.9266006
  21.2065906   3.9684173  40.6904269  22.1159172   4.5893630  41.5071353
  21.9323199   4.0419020  40.9775123  11.7368914  10.0117168  44.6523461
  12.2490011  10.2901421  44.0032221  11.4505257  10.7506462  45.0186274
  11.7703777  10.1619522  44.6113339  20.4924083   0.8408271  35.6593622
  21.1950436   0.6416020  35.1813580  20.2268272   0.0684214  35.9662465
  20.5570716   0.6971237  35.6339063  25.9212329   9.1490881  38.2127248
  25.8346304   9.3046307  39.0662026  25.4662809   9.7928957  37.8386653
  25.8415586   9.2666636  38.2834354  15.2552640   2.1043557  44.7124502
  15.0635837   2.1198691  45.5623926  16.1051236   2.3007231  44.6891157
  15.3528362   2.1357908  44.8347797  19.7938145   6.4701628  36.8352807
  19.5472859   6.3897379  37.6689596  20.1223268   5.6855096  36.6415335
  19.8059389   6.3427894  36.9300330  23.6886194  13.1784988  40.6239588
  23.5500553  13.8766033  41.1288331  22.9086192  13.0233644  40.2675770
  23.5529421  13.2585154  40.6465863  22.0264279   9.4781363  46.8761970
  22.0212318   8.6061179  46.8804397  22.7325273   9.6769532  46.4031426
  22.1309283   9.3785237  46.8069005  15.7535172   9.2058347  46.2475790
  15.8978548   9.7859555  45.6118900  16.1010821   9.5834644  46.9525645
  15.8262634   9.3479051  46.2574785  17.9255090   8.4048515  44.0300922
  17.1778404   8.5979530  43.6249200  18.0796615   7.5793735  43.7925043
  17.8377517   8.3113627  43.9346328  14.8262927  17.3961119  43.1136817
  14.9752491  16.8364035  42.4610222  15.6062929  17.4753120  43.4969336
  14.9637021  17.3246684  43.0733766  17.3516228  17.5675762  44.3921308
  17.2759899  16.8984572  44.9472096  17.2806087  18.2693550  44.9061974
  17.3296835  17.5720669  44.5498156  18.1656867   2.2999066  44.9196326
  18.6229481   3.0323040  45.0469118  18.2413196   1.8765531  45.6783581
  18.2447837   2.3456304  45.0497402  18.0086475  16.0876760  35.2244914
  18.7736366  15.8186404  34.9027578  17.9064565  15.6026771  35.9414977
  18.1067970  15.9766325  35.2824741  16.0439245   4.2901170  41.7638150
  15.2535319   4.1092630  42.0855485  16.4399867   3.5128122  41.7468444
  15.9856121   4.1488631  41.8090698  20.5305135  13.1188944  27.2044863
  21.2978121  13.1789069  26.7950715  20.0836444  12.5469386  26.7201182
  20.5778563  13.0425520  27.0722574  21.4282931  11.9243600  39.4897596
  20.7527933  11.6928832  39.9910983  21.4375307  11.3164783  38.8639701
  21.3301436  11.8002525  39.4713748  18.5577075   6.7661429  46.2461649
  18.4936216   7.6271385  46.1181785  18.6974263   6.4493422  45.4457200
  18.5692545   6.8461596  46.1089861  23.4299666  14.7808732  31.7207773
  23.5119503  15.5875719  31.3969224  23.9149408  14.8004692  32.4448547
  23.5136823  14.9029395  31.7794672  17.2396169   9.4593568  40.3877851
  16.8158418   9.6598067  39.6516870  17.0641024   8.6122416  40.5002151
  17.1507049   9.3642350  40.2951542  16.7407862  20.9744081  42.8499309
  17.2303793  20.2754871  42.6674973  16.1692095  20.6767951  43.4375366
  16.7292392  20.8270305  42.9100349  12.5278614   9.9545620  35.8205824
  12.6843233   9.8892423  36.6761816  12.8679207  10.7294172  35.6084504
  12.6011849  10.0594818  35.9160418  19.0657758   9.3303503  34.6899187
  19.6073304   8.8273884  35.1537808  19.3804317   9.2768698  33.8788672
  19.1922155   9.2482924  34.6382999  22.9374866  13.5406151  51.8026099
  23.7509731  13.2691300  51.9631232  22.7769832  13.2413691  50.9986295
  23.0344814  13.4561077  51.7071505  17.2344208  14.7220855  31.9739215
  17.3037028  13.8635393  32.1132216  18.0132663  14.9392736  31.6458240
  17.3597058  14.6273719  31.9456372  20.2147028   4.2239808  44.7421488
  20.4288997   3.5850722  44.1884842  19.5980927   4.6685632  44.3129349
  20.1552357   4.1949952  44.5971919  21.6251696  17.1458556  36.1875709
  21.2331487  16.8425271  35.4698575  21.7804768  17.9827646  35.9980662
  21.5905286  17.2242393  36.0532206   9.1012875   7.1380570  36.1366591
   9.4811840   7.5565115  35.4726858   8.5268240   7.7194026  36.4435434
   9.0724200   7.2858429  36.0843332  22.3786116   5.8328873  45.6804795
  21.5662798   5.5254763  45.7617967  22.8376050   5.3527873  46.2447507
  22.3266501   5.7165365  45.7759389  21.7891370  13.7108545  36.1281739
  21.4306025  13.8823188  36.9045771  21.3030081  14.1721751  35.5709738
  21.6650067  13.8047516  36.1607008  16.5779736   9.3907710  28.6681973
  16.8672261  10.1672593  28.9425548  16.6651535   8.8796442  29.3696473
  16.6333992   9.4299629  28.8124471  19.4739623   7.2388944  50.4633497
  19.9439254   7.8631061  50.8501371  19.5201503   6.5705920  51.0226712
  19.5507499   7.2323625  50.6033568  22.9496110  14.6012441  47.0748940
  23.5875830  14.1072637  46.7411396  22.3070201  14.5289841  46.4901167
  22.9490336  14.5171449  46.9391295  24.6753110   6.4501587  41.6414856
  24.2480718   6.3627936  40.8862955  24.0379163   6.5579362  42.2269700
  24.5182717   6.4534247  41.6160297  18.1674187   1.5577112  47.5811825
  18.9947616   1.2862261  47.6370439  18.1882033   2.3537954  47.9375643
  18.2927037   1.6356866  47.6427008  23.0050366  15.2932249  43.7154297
  23.7942745  14.9421314  43.8356378  23.1793964  16.1068638  43.4530930
  23.1470648  15.3618106  43.6942165  12.7443677   8.7040975  40.7682086
  11.9031683   8.6044849  40.9760979  12.9533685   9.4736455  41.1196406
  12.6508369   8.8033018  40.8509400  10.2219244   6.3260512  38.5966836
   9.8275942   6.4003524  37.8216946   9.6659361   6.7118458  39.1475198
  10.0822056   6.3942287  38.5634496  21.8584191  -0.6958194  38.2770715
  22.0633784  -0.7635886  39.1227712  21.5310615   0.1100627  38.2091893
  21.8399438  -0.5872254  38.3930370  16.5560342   6.6322374  40.0179683
  16.2523479   6.0778362  40.6190091  15.8539762   6.8114584  39.5307717
  16.4076552   6.5767156  40.0349389  15.6126439   3.9422894  34.5824385
  15.8886173   3.2241806  34.1701952  16.2125108   4.5407814  34.3745491
  15.7419703   3.9243265  34.4905146  14.6178693  13.8472095  44.7251781
  14.5099048  13.8574157  45.5913839  14.8274474  14.6726875  44.5356735
  14.6328804  13.9713170  44.8255872  25.1117878  -0.1426430  37.7573481
  24.4992192   0.3443972  38.1427212  25.2082053  -0.8182939  38.3011132
  25.0355776  -0.1708121  37.8952339  19.1136959   1.6136411  32.8570980
  19.5680706   1.7846972  33.5818824  19.5877005   1.0004522  32.4568756
  19.2505279   1.5487297  32.9044741  12.6352485  11.0984737  42.1873718
  12.0440418  11.7394235  42.1576734  13.3973508  11.5222355  42.1605018
  12.6600745  11.2560576  42.1788866  22.3942001  16.5494049  39.6205743
  22.1961690  17.0384863  38.9261954  21.7729712  16.7535290  40.1989876
  22.2729565  16.6510587  39.6028966  16.4549979   8.3178946  33.9615987
  17.1992024   8.7053222  34.1998937  16.6010675   7.4736371  34.1256475
  16.5860564   8.2509418  34.0209957  19.4427855   3.8904419  39.8609906
  18.9687809   3.3646181  40.3715217  19.8145991   3.3433892  39.2924768
  19.4277744   3.7320416  39.8525054  25.7064586   8.9506795  41.2716687
  25.4662809   8.1113210  41.2759113  26.1856593   9.0306961  41.9957460
  25.7416769   8.8388194  41.3791489  21.3711355   4.7840974  32.9235660
  20.8434373   4.8669718  32.2341369  21.8307063   5.5258845  32.9200305
  21.3613205   4.9061636  32.8210355  27.7069773   5.7308252  39.2245946
  27.4679543   5.6904086  38.3866731  27.8703674   6.5779404  39.3511667
  27.6960076   5.8500337  39.1199428  24.3115803  10.1158201  45.1550991
  25.0350002   9.6630728  44.9762011  24.0465765  10.3962867  44.3723319
  24.3797076  10.0909170  45.0129707  13.1802671   4.7118375  41.8903870
  12.5555741   4.7236767  41.2829823  12.8448266   5.1878550  42.5395111
  13.0388163   4.7836892  41.8960439   9.8928347  12.7718835  43.3307635
   9.3628271  12.0811274  43.3802609  10.1653440  12.7629020  42.5020343
   9.8553069  12.6685967  43.2155051  20.9248437  13.3544537  32.0545317
  21.6482636  13.8202650  31.9109891  20.4849028  13.4218147  31.3042914
  20.9664130  13.4328374  31.9230099  20.0934592  10.2142079  43.3046006
  19.4791585   9.6700130  43.5994642  20.6101877   9.7006316  42.8251822
  20.0790255  10.0578488  43.2770235  19.3330890  11.2846349  41.0390305
  18.9058498  10.6596068  40.6055740  19.3255834  11.0021271  41.8649312
  19.2690031  11.1499130  41.0970133  12.4493417   6.3211522  44.1078739
  12.6086903   5.5654847  44.5130461  12.2686310   6.8702462  44.7619477
  12.4458776   6.2905336  44.2641445  20.3913720  -1.5127242  44.6629528
  19.8954281  -1.3163568  43.9721095  21.1482782  -1.1134574  44.4918330
  20.4300544  -1.4249508  44.5349665  17.6616599   2.1615104  41.2532839
  17.6859086   1.6275216  40.5645619  17.9128073   1.6532413  41.9158430
  17.7026518   2.0076008  41.2497484   5.1724189   9.4446599  40.6875983
   5.0667638   9.3993443  39.8228067   4.4224409   9.7900379  40.9690268
   5.0459792   9.4887507  40.6013313  16.1247534  10.4546662  48.7358878
  15.2743165  10.5918376  48.8716523  16.2875662   9.7210440  49.1806580
  16.0231398  10.3660763  48.8214477  15.3632285   7.4046432  42.9312482
  14.5324215   7.5720250  42.7247730  15.3083802   7.0282383  43.7161368
  15.2321700   7.3736163  43.0161010  13.7368329   5.6802024  33.4602600
  13.8771290   6.1774488  34.1631241  14.2350861   4.9788318  33.6016814
  13.8309410   5.6504002  33.5854179  13.7668551   6.5469135  30.7895177
  14.4013631   7.1429560  30.7244639  13.8494162   6.2472592  31.6041047
  13.8725102   6.5910043  30.8998263  26.7451117   9.0784612  43.6581541
  27.3368957   9.7181863  43.6899739  27.1810111   8.3807649  43.9473608
  26.8969548   9.0702962  43.7062374  15.3447534   2.4783110  30.7640619
  15.6663375   1.9986193  30.1099881  15.6074478   3.2882756  30.5731430
  15.4313559   2.5273008  30.6396111  18.5744507  13.5001984  44.2839435
  18.0669598  14.0537831  44.7280065  18.2771153  13.5610274  43.4658209
  18.4549392  13.5908296  44.2287892  20.7406689   1.8655304  43.1264098
  21.1661760   1.4127830  42.5147624  20.1263682   1.3115375  43.4028885
  20.7135334   1.7169280  43.0769123  10.2721539   8.7436975  34.0584723
  10.7813768   9.3401483  34.4396028  10.7455811   8.4762949  33.3761142
  10.4164915   8.7922791  34.0139246  21.1852287  17.4165242  32.2143378
  20.4681597  17.2426104  31.7490616  21.8359025  17.1817814  31.6818864
  21.1754137  17.3561035  32.0672596  23.7700258   6.2929831  35.9584683
  23.0991448   6.8359533  35.8297749  24.4640008   6.7624686  35.7166378
  23.7729126   6.4428102  35.9040211  17.8186992  18.4326543  41.1896442
  17.5952646  17.6745372  41.5580468  17.3296835  18.4624564  40.4676881
  17.7130441  18.3248767  41.1373183  23.9328386   2.7485714  38.8675057
  24.2855996   2.3215437  39.5420855  23.0743187   2.6636558  38.9976133
  23.8577830   2.6730455  38.9870067  12.6312071   5.3793234  36.9257903
  11.9124060   5.7957367  37.1930767  13.0024433   5.9447473  36.3749541
  12.5804002   5.5242515  36.8840710  21.9311651   6.0121083  42.8159899
  21.9109579   5.8304378  43.6694678  21.9790852   6.8833101  42.7919483
  21.9346292   6.1137621  42.9383194  19.8757981  12.6008275  48.7408376
  19.8353836  11.9557952  48.1553531  20.6881300  12.5444892  49.0533788
  19.9901135  12.4967242  48.7005325  16.4665449  18.6527001  38.6433526
  16.0525848  17.9901131  38.2537368  17.1512823  18.8004859  38.1229221
  16.5063821  18.5767659  38.5090024  19.8330743  17.8117086  39.3957143
  19.4347026  17.9219356  38.6277963  19.2181963  18.0199152  39.9783703
  19.6829632  17.8590654  39.3688442  18.4058645   4.4191234  32.2631283
  17.8123484   4.7408230  31.7115850  18.4433923   3.5732329  32.0552389
  18.3233034   4.3415562  32.1514054  25.3652446  -2.1295874  39.7959369
  24.8583310  -2.8366734  39.7280547  26.1619879  -2.4602685  39.9260446
  25.4079685  -2.2822723  39.8058364  21.2816462   4.3770738  35.6933033
  21.0530155   4.4003440  34.8511391  21.5414538   3.5528205  35.8128043
  21.2862650   4.2586818  35.5858231  15.5635690   6.2305211  45.2958133
  15.0514593   5.6226394  45.6543165  15.3915186   6.9461804  45.7632109
  15.4625327   6.2468511  45.4174357  14.3361224   2.9147285  36.9887229
  14.8118590   3.2764364  36.3537410  13.8349824   3.5703752  37.2687371
  14.3326583   3.0641473  36.9363970  19.4404760   4.1529456  47.7360389
  19.9976191   3.9243266  47.1038854  19.1165825   4.9135122  47.4595601
  19.4751171   4.2313293  47.6016886  17.1587878   7.2397109  48.7012396
  17.9099205   7.5548786  49.0151950  17.3510454   7.0376280  47.8746318
  17.2979292   7.2564491  48.6255792  16.3787877   5.0588484  30.3560613
  16.7586842   5.0768114  29.5711727  15.6380473   5.5042473  30.2351460
  16.3256715   5.1270259  30.2224181  24.0073168   3.3670676  35.9436191
  24.0067394   3.2119332  36.8020468  23.8029348   4.2133663  35.8877577
  23.9772946   3.4691296  36.0624131  21.7314020   8.0468177  39.5972398
  22.2267685   7.3291172  39.5576418  20.9213796   7.7438975  39.4826885
  21.6857913   7.8965824  39.5746124  17.1772631  11.8965991  31.7469403
  16.3683954  11.5732664  31.7002712  17.6847540  11.1899213  31.6797651
  17.1322298  11.7447307  31.7299697   7.8062909   9.3238184  37.4716767
   6.9408428   9.3123874  37.3599538   7.9061725   9.1368407  38.3187906
   7.6937076   9.2944245  37.5805711  23.7965839  10.7971865  42.2849527
  24.2220910  10.2746287  41.7319952  23.4322759  11.3952702  41.7638150
  23.8052441  10.8082092  42.1258537  13.4319919  19.0936082  41.0446872
  13.7466478  19.9072471  41.0524654  13.8413332  18.7086301  41.7129032
  13.5388017  19.1564785  41.1450964  20.3844438  14.5106129  38.6150684
  20.8555616  15.2246392  38.7840670  20.7204617  13.9104879  39.1510554
  20.5039553  14.5277593  38.7183060  22.4721423  16.1207443  50.7942756
  22.5818388  15.3316003  51.1499504  22.8012319  16.0313379  49.9917095
  22.5373829  15.9913295  50.7285147  21.0218385  14.3024063  45.3778377
  20.4739330  13.6781947  45.1098442  21.4831413  14.4918335  44.6622456
  21.0085594  14.2383114  45.2328808  23.8312249   2.3709418  42.7629569
  23.2475238   2.8718624  42.3507137  24.1516543   1.8638974  42.1293893
  23.7925424   2.3701253  42.6088077  16.3707048   1.2850013  33.0388244
  17.1922742   1.4548325  32.7969939  15.9076699   1.4397274  32.3154542
  16.4238210   1.3331746  32.8959888  10.7732939  13.0409191  40.6925481
  11.3777796  13.0005025  40.0639302  10.5660251  13.8880343  40.7229537
  10.8321836  13.1597193  40.6041597  20.5876711  15.3075136  41.9087718
  21.4075085  15.1638102  42.1704013  20.3070788  15.9321335  42.4504156
  20.6673454  15.3785488  42.0275658   6.0084221  12.0243808  40.5624404
   5.9108499  11.2140080  40.8714461   6.7913091  12.0035602  40.1770672
   6.1100357  11.9010899  40.5511267  19.4180986  27.6217035  37.2835863
  19.1831171  26.7884688  37.1768132  19.5566627  27.9021701  36.4697064
  19.4036649  27.5400539  37.1478218  21.7171074  19.7902766  40.1820170
  21.0976105  19.1995413  40.0130185  21.6154937  20.3814201  39.5484494
  21.6108749  19.7906848  40.0625160  21.4440207  23.3355048  42.4263739
  21.3198904  23.9217493  43.0613558  22.0958491  22.8415243  42.7276014
  21.5213856  23.3493852  42.5649669  34.1942241  12.8880227  36.8423519
  33.8795682  13.5783706  37.2743941  33.6769182  12.8325010  36.1409019
  34.0706711  12.9815116  36.8020468  28.2746517  31.0260861  46.1075719
  27.7117351  30.6133471  46.6315380  29.0367540  30.9513767  46.5268862
  28.3040965  30.9538261  46.2468719  29.8831497  23.0313597  30.2337318
  30.1227500  23.2391581  29.4212661  30.2047338  22.2271106  30.3426262
  29.9668655  22.9427698  30.1297871  24.8821415  23.2534469  47.8392764
  25.0541918  23.1440364  48.6878045  25.4190772  23.8988874  47.6023956
  24.9866419  23.3326471  47.9297860  23.5478852  17.3677312  30.7774969
  23.3654425  17.5849193  29.9515962  24.4104465  17.4816324  30.8333583
  23.6483441  17.4167210  30.6629456  19.1883132  25.8466400  42.6745684
  18.9221547  25.0305517  42.8336674  19.2021696  25.8919556  41.8041199
  19.1507854  25.7323305  42.5699166  36.1664525  16.1744215  40.7088118
  36.8090434  16.2442320  41.2950033  36.4187546  15.5073438  40.2067659
  36.2986658  16.0870564  40.7215397  23.9381738  19.3844778  45.3212692
  23.2453535  18.9141758  45.5673423  24.5542065  19.1583083  45.8954399
  23.9266268  19.2811910  45.4421844  19.5976545  26.6325179  39.9557428
  19.4152119  26.6072065  39.1029720  20.3326214  27.1024117  39.9946337
  19.6790609  26.6986542  39.8355347  22.6622297  23.3510182  46.4639537
  23.3862269  23.3363213  46.9504431  22.7638433  24.0605538  45.9661505
  22.7840506  23.4534885  46.4618324  30.0367246  26.8309267  51.3288484
  29.2440227  27.1452779  51.5141103  30.1516174  27.0460735  50.4909268
  29.9362657  26.9093104  51.2326818  19.5647456  23.5118680  40.1056495
  20.1420958  23.3755131  40.7448740  18.8661517  23.0554464  40.3602079
  19.5468477  23.4240946  40.2378784  15.0406289  22.3630573  36.8204313
  15.1266541  21.9862441  37.6017843  15.6682086  21.9891019  36.3424271
  15.1462840  22.2516055  36.8649791  20.6282248  31.1322306  40.8735674
  20.6686393  31.4037157  40.0455453  21.1876772  31.6564214  41.2893462
  20.7165593  31.2498061  40.8127562  26.7440961  17.3942675  51.0438844
  26.4294402  18.1642237  50.7808406  26.4230893  16.8312931  50.4591071
  26.6499880  17.4252943  50.9180194  33.4205746  15.9311055  44.9896362
  34.1659338  15.7420866  44.5759787  33.0043051  16.4569293  44.4310218
  33.4690721  15.9813201  44.8460935  23.7118526  26.3981834  38.7324481
  23.4231774  25.7719305  39.2670208  24.5801874  26.3402122  38.7989162
  23.7978777  26.2969378  38.8215436  26.3757466  19.9939926  49.7824059
  25.5657242  20.2997705  49.6713901  26.8532153  20.7145508  49.8976643
  26.3260945  20.1454527  49.7831130  22.7101498  25.5302476  44.6523461
  23.2222595  25.8086729  44.0032221  22.4237840  26.2691770  45.0186274
  22.7436361  25.6804830  44.6113339  19.7968404  20.0372668  34.9487197
  19.8984541  20.8398829  35.2768173  20.5924291  19.8360004  34.6510278
  19.9296310  20.1258567  34.9522553  20.6132136  20.1519846  42.6908319
  20.4717628  19.3003787  42.8152827  20.8972700  20.1948507  41.8670525
  20.6339982  20.0319596  42.5875943  25.7995511  32.9146427  43.1136817
  25.9485075  32.3549342  42.4610222  26.5795513  32.9938428  43.4969336
  25.9369605  32.8431992  43.0733766  28.3248812  33.0861069  44.3921308
  28.2492483  32.4169880  44.9472096  28.2538671  33.7878858  44.9061974
  28.3029418  33.0905977  44.5498156  21.3822442  18.0650194  46.0085769
  20.8464631  17.4530552  46.3246537  21.4440206  18.6398330  46.6619436
  21.3118074  18.0597121  46.1521196  33.6116776  10.9974249  38.7890169
  33.7300344  11.4550712  38.0557471  33.4378952  10.1919510  38.5026386
  33.6035947  10.9468021  38.6391102  23.5011197  25.4730928  35.8205824
  23.6575817  25.4077730  36.6761816  23.8411790  26.2479480  35.6084504
  23.5744432  25.5780126  35.9160418  20.0745459  22.6565878  36.1366591
  20.4544424  23.0750423  35.4726858  19.5000824  23.2379334  36.4435434
  20.0456784  22.8043737  36.0843332  30.4472207  22.7574252  50.4633497
  30.9171838  23.3816369  50.8501371  30.4934087  22.0891228  51.0226712
  30.5240083  22.7508933  50.6033568  29.3392856  12.2891225  45.3085413
  29.9685974  12.8251525  45.0306484  29.5078718  12.1968584  46.1598979
  29.4570650  12.3552588  45.3933941  29.1406771  17.0762420  47.5811825
  29.9680200  16.8047569  47.6370439  29.1614617  17.8723262  47.9375643
  29.2659621  17.1542174  47.6427008  23.7176260  24.2226283  40.7682086
  22.8764267  24.1230157  40.9760979  23.9266268  24.9921763  41.1196406
  23.6240953  24.3218326  40.8509400  21.1951827  21.8445820  38.5966836
  20.8008525  21.9188832  37.8216946  20.6391944  22.2303766  39.1475198
  21.0554640  21.9127594  38.5634496  25.5911276  29.3657403  44.7251781
  25.4831631  29.3759465  45.5913839  25.8007058  30.1912183  44.5356735
  25.6061387  29.4898478  44.8255872  36.0850462  15.3758878  37.7573481
  35.4724775  15.8629280  38.1427212  36.1814637  14.7002369  38.3011132
  36.0088360  15.3477187  37.8952339  23.6085068  26.6170045  42.1873718
  23.0173002  27.2579543  42.1576734  24.3706092  27.0407662  42.1605018
  23.6333329  26.7745884  42.1788866  24.0045691  17.7772043  42.8541736
  24.4647173  17.8510972  43.5916860  24.0501798  18.5753297  42.5041557
  24.0796246  17.9066190  42.9114493  25.6529041  18.4438738  47.4213763
  25.2614606  17.7972085  47.8569541  25.8214904  19.0350173  48.0408019
  25.6199951  18.4353006  47.5776469  20.7933469  21.4061234  45.2293452
  21.6559082  21.3056943  45.1430782  20.4625252  20.8255943  44.6679024
  20.8718665  21.3052860  45.1338858  24.3377004  18.5728801  27.9476555
  23.9889808  19.2248526  28.4108105  23.8573449  18.5585914  27.2200427
  24.2147247  18.6671855  27.9087647  20.8660930  28.2904143  43.3307635
  20.3360855  27.5996582  43.3802609  21.1386024  28.2814328  42.5020343
  20.8285653  28.1871275  43.2155051  23.4226000  21.8396830  44.1078739
  23.5819487  21.0840155  44.5130461  23.2418894  22.3887770  44.7619477
  23.4191359  21.8090644  44.2641445  16.1456773  24.9631907  40.6875983
  16.0400222  24.9178751  39.8228067  15.3956993  25.3085687  40.9690268
  16.0192376  25.0072815  40.6013313  27.0980118  25.9731970  48.7358878
  26.2475748  26.1103684  48.8716523  27.2608246  25.2395748  49.1806580
  26.9963981  25.8846071  48.8214477  24.1448652  16.4140633  48.5668893
  24.7701355  15.8702766  48.8398325  23.6899132  15.9335550  47.9976683
  24.1696912  16.2630114  48.5230487  21.2454123  24.2622283  34.0584723
  21.7546352  24.8586791  34.4396028  21.7188395  23.9948257  33.3761142
  21.3897498  24.3108099  34.0139246  36.3385029  13.3889434  39.7959369
  35.8315894  12.6818574  39.7280547  37.1352463  13.0582623  39.9260446
  36.3812269  13.2362585  39.8058364  21.3833988  20.1928095  47.9460495
  21.2136579  20.8529469  47.4008702  20.9399938  20.4034656  48.6672984
  21.2933322  20.3214077  47.9722124  30.4137344  19.6714764  47.7360389
  30.9708774  19.4428573  47.1038854  30.0898409  20.4320430  47.4595601
  30.4483754  19.7498601  47.6016886  18.2836053  23.0974960  43.2048985
  17.7362772  22.4275606  43.3229853  19.0728431  22.7304808  43.2692452
  18.3188237  22.9439947  43.2317685  28.1320461  22.7582417  48.7012396
  28.8831788  23.0734094  49.0151950  28.3243038  22.5561588  47.8746318
  28.2711875  22.7749799  48.6255792  17.0423022  22.3095768  40.3595008
  16.8644783  21.8572377  41.0849923  16.7542044  23.1121929  40.5433485
  16.9735976  22.3618326  40.4938511  18.7795492  24.8423492  37.4716767
  17.9141012  24.8309182  37.3599538  18.8794308  24.6553715  38.3187906
  18.6669659  24.8129553  37.5805711  24.4052502  34.6121390  41.0446872
  24.7199061  35.4257779  41.0524654  24.8145915  34.2271609  41.7129032
  24.5120600  34.6750093  41.1450964  28.2746517  14.8018908  45.5708779
  28.4074422  14.0049901  45.8989755  28.6591669  15.3285311  46.1507055
  28.3502846  14.7618824  45.7052282  25.9334963  14.7978083  43.8186673
  26.4779376  14.4569210  44.4091015  25.9871899  15.6563544  43.9607957
  26.0224083  14.8733342  43.9268546  21.7465522  28.5594499  40.6925481
  22.3510380  28.5190333  40.0639302  21.5392835  29.4065651  40.7229537
  21.8054420  28.6782501  40.6041597  16.9816805  27.5429116  40.5624404
  16.8841083  26.7325388  40.8714461  17.7645674  27.5220910  40.1770672
  17.0832941  27.4196206  40.5511267  55.5148930  59.3572780  49.2343981
  56.2215697  58.8624811  49.3630916  55.7036865  59.7981862  48.5046639
  55.6476835  59.3491131  49.1453027  51.5825604  64.9988611  36.7617415
  51.9664983  65.5675509  36.2222190  51.5184745  64.2738121  36.2823231
  51.6299031  64.9764074  36.6111278  48.0081849  67.5544954  39.0598385
  48.6519304  67.9958118  39.4494543  48.3338104  66.7498380  38.9728644
  48.1513677  67.5010149  39.1043862  50.9549806  60.3942286  41.3558143
  51.2373049  59.5993692  41.1344899  51.6835967  60.8722874  41.3763204
  51.1039370  60.3476883  41.3261158  60.9367895  59.5001649  38.3293974
  60.1065598  59.7112292  38.4927390  60.8877147  58.6738703  38.0536257
  60.8074630  59.4091255  38.3131339  42.9263478  63.5373322  38.5592069
  42.4431056  64.2623812  38.5351652  43.7386796  63.8349452  38.6702227
  42.9754226  63.6875676  38.5719348  48.9977632  62.3305503  41.1641883
  48.4804574  61.9712918  40.5603191  49.6952023  61.8067677  41.1747949
  49.0243213  62.2003191  41.0772142  52.6541224  62.7800317  47.1258056
  52.7424570  62.5926457  47.9736267  53.0830937  62.1337746  46.7262903
  52.7303326  62.6563324  47.1929808  50.2211684  62.0631477  46.1075719
  49.6582519  61.6504087  46.6315380  50.9832707  61.9884382  46.5268862
  50.2506132  61.9908877  46.2468719  45.7807675  64.0529498  38.7112349
  46.4828255  63.5381487  38.7685105  45.7005158  64.3803649  39.5159224
  45.8731436  64.0243724  38.8385141  45.7311154  60.6636725  42.5211262
  46.2709379  60.5207856  43.1914635  45.0481100  61.0633476  42.8895289
  45.7103308  60.7016396  42.6745684  58.1932210  60.1701003  38.4658690
  57.7567442  60.1737745  39.2217661  57.8595125  60.8506502  38.0338267
  58.0794830  60.2713459  38.5139522  52.7661283  62.2109336  49.7901840
  53.5501700  62.3240184  50.1557582  52.5657878  61.3850473  49.9860526
  52.8527309  62.1056055  49.8736226  52.9231677  64.1219438  43.4368296
  52.1246922  63.8818938  43.6942164  53.3717688  64.1733831  44.1835343
  52.8706288  64.0941829  43.5853220  59.4431843  56.7448971  34.9359919
  59.7740060  57.2776611  34.3300014  60.0164931  56.7987859  35.5921870
  59.5765523  56.8318540  34.9437701  51.9832414  57.8679883  51.3288484
  51.1905394  58.1823395  51.5141103  52.0981341  58.0831351  50.4909268
  51.8827824  57.9463719  51.2326818  52.9116206  57.7700086  46.2673780
  53.4855068  57.1327331  46.4222344  52.8331010  57.7704169  45.3983438
  52.9849441  57.6765198  46.1620191  58.2336354  59.1409064  46.2758634
  57.9974992  58.3097129  46.1570694  58.8779583  59.0894671  46.8613478
  58.2931025  59.0106752  46.3444527  59.2572775  58.9253513  42.3386928
  58.9518592  59.6581570  42.7000244  58.5378990  58.5191442  42.0579714
  59.1060117  58.9735246  42.3500065  64.9574567  55.5646514  41.6655272
  64.8899067  55.5842473  40.7957859  64.9430229  56.4076841  41.8910943
  64.9453323  55.6920248  41.5707749  48.8060830  63.3711751  33.4008630
  49.0959128  62.9800732  32.6767856  49.5364311  63.5528456  33.8413905
  48.9567714  63.3405565  33.3591437  46.7466746  65.3479134  36.4668779
  46.5267041  65.0576488  37.2595446  46.5261268  64.6894089  35.9386692
  46.6814340  65.2078842  36.5057688  48.9134701  66.7208523  35.2499472
  49.5658759  66.1884966  35.4790498  48.2160310  66.3677176  35.6367346
  48.9065419  66.5898046  35.3411640  56.9074620  59.0412937  34.5930451
  57.4732652  59.7006147  34.5088994  56.2602523  59.3862636  35.0646853
  56.8953376  59.1894879  34.6503208  53.3781198  61.9851722  34.0167530
  53.1367874  61.2519582  33.6094595  53.5582531  62.5338579  33.3633864
  53.3688822  61.9574113  33.8597753  56.6083945  59.7340911  40.6239588
  56.4698304  60.4321957  41.1288331  55.8283943  59.5789568  40.2675770
  56.4727171  59.8141078  40.6465863  54.9462030  56.0337287  46.8761970
  54.9410068  55.1617103  46.8804397  55.6523024  56.2325456  46.4031426
  55.0507034  55.9341161  46.8069005  47.7460678  63.9517042  43.1136817
  47.8950242  63.3919958  42.4610222  48.5260680  64.0309044  43.4969336
  47.8834772  63.8802608  43.0733766  58.1037317  59.0919165  31.3856088
  57.7244126  58.3056303  31.3785377  57.4403563  59.6406022  31.2427732
  57.9495792  59.0563989  31.3636885  50.2713979  64.1231685  44.3921308
  50.1957650  63.4540496  44.9472096  50.2003838  64.8249473  44.9061974
  50.2494586  64.1276593  44.5498156  50.9284226  62.6432684  35.2244914
  51.6934117  62.3742328  34.9027578  50.8262316  62.1582695  35.9414977
  51.0265721  62.5322249  35.2824741  56.3497416  61.3364656  31.7207773
  56.4317254  62.1431642  31.3969224  56.8347158  61.3560615  32.4448547
  56.4334574  61.4585319  31.7794672  49.6605613  67.5300005  42.8499309
  50.1501543  66.8310794  42.6674973  49.0889845  67.2323875  43.4375366
  49.6490143  67.3826229  42.9100349  55.8572617  60.0962074  51.8026099
  56.6707482  59.8247223  51.9631232  55.6967583  59.7969614  50.9986295
  55.9542565  60.0117000  51.7071505  54.5449446  63.7014480  36.1875709
  54.1529238  63.3981195  35.4698575  54.7002519  64.5383570  35.9980662
  54.5103036  63.7798317  36.0532206  54.7089121  60.2664469  36.1281739
  54.3503776  60.4379112  36.9045771  54.2227832  60.7277674  35.5709738
  54.5847818  60.3603440  36.1607008  55.8693861  61.1568365  47.0748940
  56.5073581  60.6628560  46.7411396  55.2267952  61.0845765  46.4901167
  55.8688087  61.0727373  46.9391295  55.9248117  61.8488173  43.7154297
  56.7140495  61.4977238  43.8356378  56.0991715  62.6624561  43.4530930
  56.0668399  61.9174030  43.6942165  47.5376443  60.4028019  44.7251781
  47.4296798  60.4130081  45.5913839  47.7472225  61.2282799  44.5356735
  47.5526555  60.5269093  44.8255872  55.3139752  63.1049973  39.6205743
  55.1159440  63.5940787  38.9261954  54.6927463  63.3091214  40.1989876
  55.1927316  63.2066511  39.6028966  57.2313554  56.6714125  45.1550991
  57.9547752  56.2186651  44.9762011  56.9663516  56.9518791  44.3723319
  57.2994827  56.6465093  45.0129707  38.0921940  56.0002523  40.6875983
  37.9865389  55.9549367  39.8228067  37.3422160  56.3456303  40.9690268
  37.9657543  56.0443431  40.6013313  51.4942257  60.0557908  44.2839435
  50.9867349  60.6093755  44.7280065  51.1968904  60.1166198  43.4658209
  51.3747142  60.1464219  44.2287892  54.1050038  63.9721166  32.2143378
  53.3879347  63.7982028  31.7490616  54.7556775  63.7373738  31.6818864
  54.0951888  63.9116958  32.0672596  50.7384743  64.9882466  41.1896442
  50.5150397  64.2301296  41.5580468  50.2494586  65.0180488  40.4676881
  50.6328192  64.8804691  41.1373183  52.7955732  59.1564199  48.7408376
  52.7551587  58.5113876  48.1553531  53.6079050  59.1000816  49.0533788
  52.9098886  59.0523165  48.7005325  49.3863200  65.2082924  38.6433526
  48.9723598  64.5457055  38.2537368  50.0710574  65.3560783  38.1229221
  49.4261571  65.1323583  38.5090024  52.7528494  64.3673010  39.3957143
  52.3544777  64.4775280  38.6277963  52.1379713  64.5755076  39.9783703
  52.6027383  64.4146578  39.3688442  60.4870336  58.9424976  32.7800234
  60.8703942  59.6916333  33.0098331  59.6914450  59.1890796  32.5212223
  60.4264119  59.0894670  32.7757807  46.3517669  65.6492006  41.0446872
  46.6664228  66.4628395  41.0524654  46.7611083  65.2642225  41.7129032
  46.4585767  65.7120709  41.1450964  53.3042189  61.0662053  38.6150684
  53.7753367  61.7802316  38.7840670  53.6402367  60.4660803  39.1510554
  53.4237304  61.0833517  38.7183060  55.3919173  62.6763366  50.7942756
  55.5016139  61.8871927  51.1499504  55.7210070  62.5869303  49.9917095
  55.4571579  62.5469219  50.7285147  53.9416135  60.8579987  45.3778377
  53.3937081  60.2337871  45.1098442  54.4029164  61.0474259  44.6622456
  53.9283345  60.7939037  45.2328808  53.5074462  61.8631060  41.9087718
  54.3272835  61.7194026  42.1704013  53.2268539  62.4877259  42.4504156
  53.5871205  61.9341412  42.0275658  69.9788112  69.5195911  34.8730595
  69.9482116  70.3740548  35.0448864  70.5769461  69.2191204  35.4316738
  70.0625270  69.6012408  34.9805397  63.1787797  68.6071563  39.6283525
  62.3225692  68.7680061  39.6792642  63.2255450  67.7363626  39.6488586
  63.0586908  68.5022364  39.6389591  57.5628936  78.1434280  35.3920757
  56.8111836  77.7649819  35.1636802  58.0114948  78.1752714  34.6439567
  57.5178603  78.0919888  35.2478259  66.4881513  74.8758088  49.2343981
  67.1948281  74.3810119  49.3630916  66.6769449  75.3167170  48.5046639
  66.6209419  74.8676438  49.1453027  66.0239618  70.6663606  42.2715177
  66.5695578  71.3448693  42.3309146  65.9656494  70.5251067  41.4116758
  66.0955532  70.7455608  42.1527237  59.1413693  78.1552673  37.6583529
  59.2424056  77.3453026  37.9680657  58.5455438  78.0609619  37.0283208
  59.0686231  78.0217701  37.6109767  67.8004686  72.0948214  33.1448904
  67.6844212  72.8455900  33.5741043  68.5960573  71.8372167  33.3944991
  67.9009276  72.1683060  33.2452996  52.3378737  74.1772959  37.2835863
  52.1028921  73.3440611  37.1768132  52.4764378  74.4577625  36.4697064
  52.3234399  74.0956463  37.1478218  54.6368824  66.3458690  40.1820170
  54.0173856  65.7551337  40.0130185  54.5352688  66.9370125  39.5484494
  54.5306500  66.3462772  40.0625160  59.6835012  76.0842237  34.4318247
  60.0050853  76.6247444  33.8279555  60.3307108  75.5139008  34.5640537
  59.8261067  76.0801412  34.3625282  61.7336720  68.0858231  34.5152634
  62.4316885  68.2646359  35.0074097  62.0489053  67.5628571  33.8923023
  61.8832057  68.0352004  34.4954644  54.3637957  69.8910971  42.4263739
  54.2396654  70.4773417  43.0613558  55.0156242  69.3971167  42.7276014
  54.4411607  69.9049776  42.5649669  61.9224655  74.4728677  34.5032425
  62.3618291  73.8645777  34.9487198  61.7729318  74.0936050  33.7317890
  61.9646121  74.3267148  34.4551592  59.3896298  73.0672688  41.7051250
  60.0345301  72.5745131  41.3862199  59.6298075  73.2097475  42.5317329
  59.5206884  73.0150131  41.7800784  61.9282390  75.9127594  41.3558143
  62.2105633  75.1179000  41.1344899  62.6568550  76.3908182  41.3763204
  62.0771953  75.8662191  41.3261158  59.9063584  63.4550628  38.5973908
  59.5766914  63.9061772  37.9277607  59.2308585  63.3766791  39.1446915
  59.7574020  63.5101763  38.5797131  65.5233992  72.8255858  31.4563194
  65.4385287  73.6816824  31.6012763  66.0118375  72.5500182  32.1245353
  65.5822889  72.9113179  31.5765276  67.1139991  59.4436151  36.8423519
  66.7993432  60.1339630  37.2743941  66.5966933  59.3880933  36.1409019
  66.9904462  59.5371040  36.8020468  66.4552425  69.4440652  32.9560929
  65.9263897  69.6600286  33.6158236  66.9777445  70.1376790  32.8761899
  66.4540878  69.5783789  33.0416529  58.3452033  73.3403869  31.7568397
  57.7609248  73.8453900  32.1634261  57.9422128  73.1146256  31.0164989
  58.1991337  73.3812117  31.7073423  53.8996062  79.0558630  38.5592069
  53.4163640  79.7809120  38.5351652  54.7119380  79.3534760  38.6702227
  53.9486809  79.2060984  38.5719348  59.9710216  77.8490811  41.1641883
  59.4537157  77.4898226  40.5603191  60.6684607  77.3252985  41.1747949
  59.9975797  77.7188499  41.0772142  61.1944267  77.5816785  46.1075719
  60.6315102  77.1689394  46.6315380  61.9565291  77.5069690  46.5268862
  61.2238716  77.5094185  46.2468719  62.8029247  69.5869521  30.2337318
  63.0425251  69.7947505  29.4212661  63.1245088  68.7827030  30.3426262
  62.8866405  69.4983622  30.1297871  58.1119538  61.5162917  34.0796856
  58.8665506  61.8841234  33.8413906  57.9347072  61.8902471  34.8476035
  58.1974016  61.6261104  34.1581744  56.7540259  79.5714806  38.7112349
  57.4560838  79.0566795  38.7685105  56.6737742  79.8988957  39.5159224
  56.8464019  79.5429032  38.8385141  71.4054436  67.6657357  42.1244395
  70.5682857  67.7359544  42.3591990  71.3742667  67.6681852  41.2518698
  71.2772719  67.6767584  42.0303943  57.8019165  69.8090393  47.8392764
  57.9739669  69.6996287  48.6878045  58.3388523  70.4544798  47.6023956
  57.9064169  69.8882394  47.9297860  56.4676602  63.9233236  30.7774969
  56.2852176  64.1405116  29.9515962  57.3302215  64.0372248  30.8333583
  56.5681192  63.9723133  30.6629456  56.0791034  75.7621158  38.2197957
  56.9179934  75.9944091  38.2671718  56.1102803  74.8925469  38.1504992
  56.2072752  75.6678104  38.2162601  56.7043737  76.1822033  42.5211262
  57.2441962  76.0393164  43.1914635  56.0213684  76.5818784  42.8895289
  56.6835891  76.2201704  42.6745684  62.1476322  60.9259646  33.8123993
  62.8762482  60.7475601  33.3662149  62.2371214  61.7677726  34.0231171
  62.2682984  61.0243525  33.7777510  66.1284622  71.8613034  37.7156287
  66.8842137  72.2944548  37.7545195  66.2346947  71.2117803  38.2890923
  66.2554793  71.8290517  37.8054312  52.1080882  72.4022324  42.6745684
  51.8419298  71.5861440  42.8336674  52.1219447  72.4475479  41.8041199
  52.0705605  72.2879229  42.5699166  69.0862276  62.7300139  40.7088118
  69.7288185  62.7998243  41.2950033  69.3385297  62.0629362  40.2067659
  69.2184408  62.6426487  40.7215397  56.0138629  67.2007408  29.2897442
  55.2996806  66.9145588  29.7019874  56.4982598  67.5404034  29.9303829
  55.9797993  67.2089058  29.4453077  56.8579489  65.9400702  45.3212692
  56.1651286  65.4697682  45.5673423  57.4739816  65.7139007  45.8954399
  56.8464019  65.8367834  45.4421844  63.1885947  75.7037362  29.6659250
  63.6037096  75.3722386  28.9743746  62.3577877  75.4706264  29.5379387
  63.1273956  75.6208618  29.5450098  52.5174296  73.1881103  39.9557428
  52.3349869  73.1627989  39.1029720  53.2523965  73.6580041  39.9946337
  52.5988360  73.2542465  39.8355347  68.5873970  73.4232613  37.0990316
  68.8229559  73.5677812  36.2717166  68.7363534  74.1875021  37.4921829
  68.6439773  73.5571668  37.0353919  55.5820048  69.9066106  46.4639537
  56.3060020  69.8919137  46.9504431  55.6836184  70.6161461  45.9661505
  55.7038257  70.0090809  46.4618324  70.4164427  72.2634279  34.9359919
  70.7472644  72.7961919  34.3300014  70.9897515  72.3173167  35.5921870
  70.5498106  72.3503848  34.9437701  62.9564997  73.3865191  51.3288484
  62.1637978  73.7008702  51.5141103  63.0713924  73.6016659  50.4909268
  62.8560408  73.4649027  51.2326818  65.6296316  70.1099182  35.6183500
  65.7243170  70.8488476  36.0723125  65.0055160  69.6816657  36.0518064
  65.5505346  70.1560502  35.7491647  63.8848790  73.2885394  46.2673780
  64.4587652  72.6512639  46.4222344  63.8063594  73.2889477  45.3983438
  63.9582025  73.1950506  46.1620191  52.4845206  70.0674604  40.1056495
  53.0618709  69.9311055  40.7448740  51.7859268  69.6110388  40.3602079
  52.4666228  69.9796870  40.2378784  65.8819337  71.9547922  28.8520452
  65.7999500  72.0250109  29.7175439  66.5199058  72.5177666  28.6604192
  65.9639175  72.0486893  28.9510401  59.2412509  71.7208660  38.3194978
  58.9831753  70.8880394  38.2926277  59.2960991  71.9466273  37.4787478
  59.2112286  71.6306431  38.1915115  64.3213559  63.8237110  38.4199071
  63.6169885  63.3346296  38.5782990  64.3698533  63.8359585  37.5487515
  64.2243610  63.7526758  38.3138410  58.2147221  69.2746422  38.8059873
  57.6396812  69.4338590  39.4423834  57.8382897  68.6381831  38.3428323
  58.0750033  69.2044235  38.8314431  61.8820509  67.7469771  43.6652251
  61.4934942  67.3223989  43.0104442  61.2175208  67.9951921  44.1729278
  61.7267437  67.7208492  43.6440119  71.5243778  67.5044776  36.4400081
  71.2680343  66.6924717  36.2497964  72.3673092  67.5122343  36.2130268
  71.6109804  67.3856773  36.3784898  47.9604040  68.9186497  36.8204313
  48.0464291  68.5418365  37.6017843  48.5879837  68.5446942  36.3424271
  48.0660591  68.8071979  36.8649791  65.7046871  61.4444400  41.1776235
  66.0857383  60.7622571  41.5644109  64.9010155  61.1554002  40.9951900
  65.6423333  61.3011449  41.2080291  62.9859448  71.9768376  31.8629058
  63.8000086  72.2683269  31.7511829  62.9218589  71.3228238  31.2887351
  63.0962187  71.9233571  31.7617895  58.8567356  75.4489893  36.9901370
  59.4941303  75.2101641  37.5353163  59.2822427  75.6527052  36.2554531
  59.0143522  75.4440904  36.9618527  53.5479998  77.6878230  40.8735674
  53.5884144  77.9593081  40.0455453  54.1074522  78.2120138  41.2893462
  53.6363344  77.8053985  40.8127562  59.4970171  70.6692183  31.3276259
  59.8815324  70.4499890  32.0792805  59.2481791  71.4955129  31.4577336
  59.5172243  70.7590329  31.4577336  59.6638711  63.9498598  51.0438844
  59.3492152  64.7198161  50.7808406  59.3428644  63.3868854  50.4591071
  59.5697630  63.9808867  50.9180194  61.2388828  75.9262316  38.6695156
  61.3127836  75.7637488  39.5237006  62.0558334  76.1152506  38.4255638
  61.3705186  75.9299058  38.7593182  54.9994585  76.2720179  35.6989600
  54.1732702  76.5181916  35.5723879  55.0606576  76.1932260  36.5651658
  54.8868751  76.2965128  35.8078544  57.2170608  62.3389120  36.6585040
  56.3493034  62.4111719  36.7242649  57.5045813  63.1411199  36.8473015
  57.1310356  62.4683267  36.6959807  66.3403497  62.4866979  44.9896362
  67.0857089  62.2976790  44.5759787  65.9240802  63.0125217  44.4310218
  66.3888471  62.5369125  44.8460935  59.7793414  78.8897059  33.4008630
  60.0691712  78.4986040  32.6767856  60.5096894  79.0713764  33.8413905
  59.9300298  78.8590873  33.3591437  73.7165768  69.8576208  39.9401867
  74.2673689  69.2244277  40.1798959  73.7009883  70.3891600  40.6317371
  73.7950964  69.8425156  40.0780725  60.3688159  73.6914805  44.4861760
  59.8699852  74.4030573  44.5646649  61.1788383  74.0115472  44.4479923
  60.4144265  73.8441654  44.4918329  57.7199329  80.8664441  36.4668779
  57.4999625  80.5761796  37.2595446  57.4993851  80.2079396  35.9386692
  57.6546923  80.7264150  36.5057688  56.6316276  72.9537758  38.7324481
  56.3429525  72.3275229  39.2670208  57.4999624  72.8958045  38.7989162
  56.7176528  72.8525302  38.8215436  67.4194174  68.0972541  39.0506463
  67.0758940  67.3762877  39.4013713  67.5187217  67.8886392  38.2084821
  67.3836217  67.9596745  38.9778143  56.8348550  74.5933009  34.6566846
  57.5894518  74.9746048  34.8702309  56.2419162  75.0444153  35.1113543
  56.8585263  74.7161836  34.7549725  59.2955217  66.5495849  49.7824059
  58.4854992  66.8553629  49.6713901  59.7729903  67.2701432  49.8976643
  59.2458695  66.7010451  49.7831130  58.1546776  75.7641570  40.0306962
  57.6327530  75.9041862  40.7158826  58.5420797  75.0052235  40.2209079
  58.1350477  75.6727094  40.1608038  55.1437960  65.8147379  34.1001916
  54.8562756  65.4448650  33.3633864  55.8308429  66.2842234  33.8385621
  55.2026858  65.8294348  33.9516992  59.5813102  72.7945589  35.4288453
  59.3855885  73.4020324  34.8348756  59.8047447  72.1013533  34.9480127
  59.5847743  72.7823115  35.2704533  57.9791632  69.6800327  35.5469321
  58.7014284  69.8441485  35.0873127  57.4999625  70.4009992  35.4408661
  58.0155363  69.8098557  35.4634935  65.9385140  66.0164126  40.9266006
  65.0996240  66.0425405  40.6904269  66.0089507  66.6634862  41.5071353
  65.8253533  66.1160252  40.9775123  55.6299249  72.0858400  44.6523461
  56.1420346  72.3642653  44.0032221  55.3435591  72.8247694  45.0186274
  55.6634112  72.2360753  44.6113339  64.3854418  62.9149503  35.6593622
  65.0880771  62.7157251  35.1813580  64.1198607  62.1425445  35.9662465
  64.4501050  62.7712469  35.6339063  69.8142663  71.2232113  38.2127248
  69.7276638  71.3787539  39.0662026  69.3593143  71.8670188  37.8386653
  69.7345920  71.3407868  38.2834354  52.7166155  66.5928592  34.9487197
  52.8182291  67.3954753  35.2768173  53.5122042  66.3915927  34.6510278
  52.8494061  66.6814490  34.9522553  59.1482974  64.1784788  44.7124502
  58.9566171  64.1939923  45.5623926  59.9981570  64.3748463  44.6891157
  59.2458696  64.2099139  44.8347797  53.5329887  66.7075770  42.6908319
  53.3915379  65.8559710  42.8152827  53.8170450  66.7504430  41.8670525
  53.5537733  66.5875520  42.5875943  63.6868479  68.5442860  36.8352807
  63.4403194  68.4638611  37.6689596  64.0153602  67.7596328  36.6415335
  63.6989723  68.4169125  36.9300330  65.9194613  71.5522595  46.8761970
  65.9142652  70.6802411  46.8804397  66.6255607  71.7510764  46.4031426
  66.0239617  71.4526469  46.8069005  59.6465507  71.2799579  46.2475790
  59.7908882  71.8600787  45.6118900  59.9941155  71.6575875  46.9525645
  59.7192968  71.4220283  46.2574785  61.8185424  70.4789747  44.0300922
  61.0708738  70.6720761  43.6249200  61.9726949  69.6534966  43.7925043
  61.7307852  70.3854858  43.9346328  58.7193262  79.4702350  43.1136817
  58.8682825  78.9105266  42.4610222  59.4993264  79.5494352  43.4969336
  58.8567355  79.3987916  43.0733766  62.0587201  64.3740298  44.9196326
  62.5159815  65.1064272  45.0469118  62.1343530  63.9506763  45.6783581
  62.1378171  64.4197536  45.0497402  54.3020192  64.6206117  46.0085769
  53.7662382  64.0086476  46.3246537  54.3637957  65.1954253  46.6619436
  54.2315825  64.6153045  46.1521196  66.5314527  57.5530173  38.7890169
  66.6498095  58.0106636  38.0557471  66.3576703  56.7475434  38.5026386
  66.5233698  57.5023945  38.6391102  61.9016809  78.1617992  35.2244914
  62.6666700  77.8927636  34.9027578  61.7994899  77.6768002  35.9414977
  61.9998305  78.0507557  35.2824741  59.9369579  66.3642402  41.7638150
  59.1465654  66.1833862  42.0855485  60.3330202  65.5869354  41.7468444
  59.8786455  66.2229862  41.8090698  64.4235470  75.1930176  27.2044863
  65.1908455  75.2530301  26.7950715  63.9766779  74.6210617  26.7201182
  64.4708897  75.1166752  27.0722574  65.3213265  73.9984832  39.4897596
  64.6458267  73.7670064  39.9910983  65.3305641  73.3906015  38.8639701
  65.2231770  73.8743757  39.4713748  62.4507409  68.8402661  46.2461649
  62.3866550  69.7012617  46.1181785  62.5904597  68.5234654  45.4457200
  62.4622879  68.9202827  46.1089861  61.1326503  71.5334800  40.3877851
  60.7088752  71.7339299  39.6516870  60.9571358  70.6863648  40.5002151
  61.0437384  71.4383581  40.2951542  56.4208948  72.0286851  35.8205824
  56.5773567  71.9633654  36.6761816  56.7609541  72.8035404  35.6084504
  56.4942183  72.1336050  35.9160418  62.9588093  71.4044735  34.6899187
  63.5003638  70.9015116  35.1537808  63.2734652  71.3509930  33.8788672
  63.0852490  71.3224156  34.6382999  61.1274542  76.7962087  31.9739215
  61.1967363  75.9376625  32.1132216  61.9062998  77.0133967  31.6458240
  61.2527393  76.7014951  31.9456372  64.1077362  66.2981040  44.7421488
  64.3219332  65.6591954  44.1884842  63.4911261  66.7426863  44.3129349
  64.0482691  66.2691183  44.5971919  52.9943210  69.2121802  36.1366591
  53.3742174  69.6306347  35.4726858  52.4198574  69.7935258  36.4435434
  52.9654534  69.3599661  36.0843332  66.2716450  67.9070105  45.6804795
  65.4593132  67.5995995  45.7617967  66.7306385  67.4269105  46.2447507
  66.2196835  67.7906597  45.7759389  65.6821705  75.7849777  36.1281739
  65.3236360  75.9564420  36.9045771  65.1960416  76.2462982  35.5709738
  65.5580402  75.8788748  36.1607008  63.4992091  59.4080975  39.7308830
  62.6285649  59.3819696  39.6842140  63.7532432  59.2358167  38.9134676
  63.4085651  59.3791119  39.6028967  60.4710070  71.4648942  28.6681973
  60.7602595  72.2413825  28.9425548  60.5581869  70.9537674  29.3696473
  60.5264326  71.5040860  28.8124471  63.3669958  69.3130176  50.4633497
  63.8369589  69.9372293  50.8501371  63.4131838  68.6447152  51.0226712
  63.4437833  69.3064856  50.6033568  60.5241231  61.4187204  41.1882301
  60.0079720  60.7267395  41.3133880  59.9635160  62.0857981  41.1344900
  60.3647744  61.4150461  41.1988367  62.5933465  61.9580164  43.0175153
  62.2065218  61.9829195  43.7988683  62.1066402  61.3921842  42.5649670
  62.4645974  61.8775915  43.0663057  68.5683444  68.5242819  41.6414856
  68.1411052  68.4369167  40.8862955  67.9309497  68.6320594  42.2269700
  68.4113051  68.5275478  41.6160297  62.2590606  58.8447149  45.3085413
  62.8883724  59.3807449  45.0306484  62.4276469  58.7524508  46.1598979
  62.3768401  58.9108511  45.3933941  62.0604521  63.6318344  47.5811825
  62.8877951  63.3603493  47.6370439  62.0812367  64.4279186  47.9375643
  62.1857371  63.7098098  47.6427008  56.6374011  70.7782207  40.7682086
  55.7962018  70.6786081  40.9760979  56.8464019  71.5477687  41.1196406
  56.5438704  70.8774250  40.8509400  54.1149578  68.4001744  38.5966836
  53.7206276  68.4744755  37.8216946  53.5589695  68.7859690  39.1475198
  53.9752390  68.4683518  38.5634496  65.7514525  61.3783038  38.2770715
  65.9564118  61.3105346  39.1227712  65.4240949  62.1841859  38.2091893
  65.7329773  61.4868978  38.3930370  60.4490676  68.7063606  40.0179683
  60.1453814  68.1519594  40.6190091  59.7470097  68.8855816  39.5307717
  60.3006886  68.6508388  40.0349389  59.5056773  66.0164126  34.5824385
  59.7816507  65.2983038  34.1701952  60.1055442  66.6149046  34.3745491
  59.6350038  65.9984496  34.4905146  58.5109027  75.9213327  44.7251781
  58.4029382  75.9315389  45.5913839  58.7204809  76.7468107  44.5356735
  58.5259138  76.0454401  44.8255872  69.0048213  61.9314802  37.7573481
  68.3922526  62.4185204  38.1427212  69.1012388  61.2558293  38.3011132
  68.9286110  61.9033111  37.8952339  63.0067294  63.6877643  32.8570980
  63.4611040  63.8588203  33.5818824  63.4807339  63.0745754  32.4568756
  63.1435614  63.6228528  32.9044741  56.5282819  73.1725969  42.1873718
  55.9370752  73.8135467  42.1576734  57.2903843  73.5963586  42.1605018
  56.5531080  73.3301807  42.1788866  56.9243442  64.3327967  42.8541736
  57.3844923  64.4066896  43.5916860  56.9699549  65.1309221  42.5041557
  56.9993997  64.4622114  42.9114493  58.5726792  64.9994662  47.4213763
  58.1812357  64.3528009  47.8569541  58.7412654  65.5906097  48.0408019
  58.5397702  64.9908929  47.5776469  60.3480314  70.3920177  33.9615987
  61.0922359  70.7794454  34.1998937  60.4941010  69.5477603  34.1256475
  60.4790899  70.3250650  34.0209957  62.2659889  62.1870436  38.9947849
  61.4195934  62.3593244  38.8689198  62.2631022  61.3819780  39.3313677
  62.1407039  62.0931465  39.0258976  63.3358189  65.9645651  39.8609906
  62.8618144  65.4387413  40.3715217  63.7076325  65.4175124  39.2924768
  63.3208078  65.8061647  39.8525054  53.7131220  67.9617157  45.2293452
  54.5756833  67.8612867  45.1430782  53.3823003  67.3811867  44.6679024
  53.7916416  67.8608784  45.1338858  69.5994920  71.0248026  41.2716687
  69.3593143  70.1854442  41.2759113  70.0786927  71.1048193  41.9957460
  69.6347104  70.9129426  41.3791489  65.2641689  66.8582205  32.9235660
  64.7364708  66.9410949  32.2341369  65.7237397  67.6000077  32.9200305
  65.2543540  66.9802868  32.8210355  71.6000107  67.8049484  39.2245946
  71.3609877  67.7645318  38.3866731  71.7634008  68.6520636  39.3511667
  71.5890411  67.9241569  39.1199428  68.2046137  72.1899433  45.1550991
  68.9280336  71.7371959  44.9762011  67.9396100  72.4704099  44.3723319
  68.2727411  72.1650401  45.0129707  57.0733006  66.7859606  41.8903870
  56.4486076  66.7977998  41.2829823  56.7378600  67.2619782  42.5395111
  56.9318497  66.8578123  41.8960439  57.2574754  65.1284725  27.9476555
  56.9087559  65.7804450  28.4108105  56.7771200  65.1141838  27.2200427
  57.1344998  65.2227778  27.9087647  53.7858681  74.8460066  43.3307635
  53.2558606  74.1552505  43.3802609  54.0583774  74.8370252  42.5020343
  53.7483403  74.7427198  43.2155051  64.8178772  75.4285769  32.0545317
  65.5412971  75.8943882  31.9109891  64.3779363  75.4959378  31.3042914
  64.8594464  75.5069606  31.9230099  63.9864927  72.2883311  43.3046006
  63.3721920  71.7441361  43.5994642  64.5032212  71.7747548  42.8251822
  63.9720589  72.1319720  43.2770235  63.2261224  73.3587581  41.0390305
  62.7988832  72.7337300  40.6055740  63.2186168  73.0762503  41.8649312
  63.1620365  73.2240362  41.0970133  56.3423751  68.3952754  44.1078739
  56.5017238  67.6396078  44.5130461  56.1616645  68.9443694  44.7619477
  56.3389110  68.3646568  44.2641445  64.2844054  60.5613990  44.6629528
  63.7884615  60.7577664  43.9721095  65.0413116  60.9606658  44.4918330
  64.3230879  60.6491724  44.5349665  61.5546934  64.2356336  41.2532839
  61.5789421  63.7016448  40.5645619  61.8058407  63.7273644  41.9158430
  61.5956852  64.0817240  41.2497484  49.0654523  71.5187831  40.6875983
  48.9597972  71.4734675  39.8228067  48.3154743  71.8641611  40.9690268
  48.9390126  71.5628739  40.6013313  57.8348256  62.9627154  40.6338583
  57.8746627  63.4636361  41.3473291  57.0097920  63.0537548  40.3644506
  57.7187782  63.0508970  40.6989121  60.0177869  72.5287894  48.7358878
  59.1673499  72.6659608  48.8716523  60.1805996  71.7951672  49.1806580
  59.9161732  72.4401995  48.8214477  59.2562619  69.4787664  42.9312482
  58.4254549  69.6461482  42.7247730  59.2014136  69.1023615  43.7161368
  59.1252034  69.4477395  43.0161010  57.0646402  62.9696557  48.5668893
  57.6899106  62.4258689  48.8398325  56.6096882  62.4891474  47.9976683
  57.0894663  62.8186038  48.5230487  57.6298663  67.7543255  33.4602600
  57.7701624  68.2515720  34.1631241  58.1281196  67.0529550  33.6016814
  57.7239744  67.7245234  33.5854179  57.6598885  68.6210366  30.7895177
  58.2943965  69.2170791  30.7244639  57.7424496  68.3213824  31.6041047
  57.7655436  68.6651274  30.8998263  70.6381451  71.1525844  43.6581541
  71.2299291  71.7923094  43.6899739  71.0740446  70.4548880  43.9473608
  70.7899882  71.1444194  43.7062374  59.2377868  64.5524342  30.7640619
  59.5593709  64.0727424  30.1099881  59.5004812  65.3623988  30.5731430
  59.3243894  64.6014240  30.6396111  62.4674841  75.5743216  44.2839435
  61.9599932  76.1279063  44.7280065  62.1701487  75.6351506  43.4658209
  62.3479726  75.6649527  44.2287892  64.6337023  63.9396536  43.1264098
  65.0592095  63.4869062  42.5147624  64.0194016  63.3856606  43.4028885
  64.6065669  63.7910512  43.0769123  54.1651873  70.8178207  34.0584723
  54.6744103  71.4142715  34.4396028  54.6386146  70.5504181  33.3761142
  54.3095249  70.8664023  34.0139246  63.0731246  60.4111636  36.5354675
  62.4299564  60.2609282  37.1039813  62.7330653  60.1653981  35.7703780
  62.9276323  60.3523758  36.5057690  67.6630593  68.3671062  35.9584683
  66.9921782  68.9100765  35.8297749  68.3570343  68.8365918  35.7166378
  67.6659460  68.5169334  35.9040211  67.8258720  64.8226946  38.8675057
  68.1786330  64.3956669  39.5420855  66.9673521  64.7377789  38.9976133
  67.7508165  64.7471687  38.9870067  56.5242405  67.4534466  36.9257903
  55.8054394  67.8698598  37.1930767  56.8954767  68.0188704  36.3749541
  56.4734337  67.5983747  36.8840710  65.8241986  68.0862315  42.8159899
  65.8039913  67.9045610  43.6694678  65.8721187  68.9574333  42.7919483
  65.8276627  68.1878853  42.9383194  63.7688316  74.6749507  48.7408376
  63.7284171  74.0299183  48.1553531  64.5811634  74.6186124  49.0533788
  63.8831469  74.5708473  48.7005325  62.2988979  66.4932466  32.2631283
  61.7053819  66.8149462  31.7115850  62.3364257  65.6473561  32.0552389
  62.2163368  66.4156794  32.1514054  69.2582780  59.9445358  39.7959369
  68.7513645  59.2374497  39.7280547  70.0550214  59.6138547  39.9260446
  69.3010019  59.7918509  39.8058364  65.1746796  66.4511970  35.6933033
  64.9460489  66.4744671  34.8511391  65.4344872  65.6269437  35.8128043
  65.1792984  66.3328050  35.5858231  59.4566024  68.3046443  45.2958133
  58.9444927  67.6967626  45.6543165  59.2845521  69.0203036  45.7632109
  59.3555661  68.3209742  45.4174357  54.3031739  66.7484018  47.9460495
  54.1334329  67.4085393  47.4008702  53.8597689  66.9590580  48.6672984
  54.2131073  66.8770001  47.9722124  58.2291558  64.9888516  36.9887229
  58.7048925  65.3505596  36.3537410  57.7280158  65.6444984  37.2687371
  58.2256917  65.1382705  36.9363970  63.3335095  66.2270688  47.7360389
  63.8906525  65.9984497  47.1038854  63.0096160  66.9876353  47.4595601
  63.3681505  66.3054524  47.6016886  51.2033804  69.6530884  43.2048985
  50.6560523  68.9831530  43.3229853  51.9926182  69.2860732  43.2692452
  51.2385987  69.4995870  43.2317685  61.0518212  69.3138341  48.7012396
  61.8029539  69.6290018  49.0151950  61.2440788  69.1117512  47.8746318
  61.1909626  69.3305723  48.6255792  60.2718212  67.1329716  30.3560613
  60.6517176  67.1509345  29.5711727  59.5310808  67.5783705  30.2351460
  60.2187049  67.2011491  30.2224181  67.9003502  65.4411907  35.9436191
  67.8997729  65.2860564  36.8020468  67.6959682  66.2874894  35.8877577
  67.8703280  65.5432528  36.0624131  49.9620773  68.8651692  40.3595008
  49.7842534  68.4128301  41.0849923  49.6739795  69.6677853  40.5433485
  49.8933726  68.9174250  40.4938511  65.6244354  70.1209409  39.5972398
  66.1198019  69.4032404  39.5576418  64.8144130  69.8180207  39.4826885
  65.5788247  69.9707055  39.5746124  61.0702966  73.9707222  31.7469403
  60.2614288  73.6473896  31.7002712  61.5777875  73.2640444  31.6797651
  61.0252632  73.8188539  31.7299697  51.6993243  71.3979415  37.4716767
  50.8338762  71.3865106  37.3599538  51.7992059  71.2109638  38.3187906
  51.5867410  71.3685477  37.5805711  67.6896173  72.8713097  42.2849527
  68.1151245  72.3487518  41.7319952  67.3253093  73.4693934  41.7638150
  67.6982776  72.8823324  42.1258537  57.3250253  81.1677314  41.0446872
  57.6396812  81.9813703  41.0524654  57.7343666  80.7827533  41.7129032
  57.4318351  81.2306016  41.1450964  64.2774772  76.5847361  38.6150684
  64.7485951  77.2987623  38.7840670  64.6134951  75.9846111  39.1510554
  64.3969888  76.6018825  38.7183060  61.1944267  61.3574831  45.5708779
  61.3272173  60.5605825  45.8989755  61.5789420  61.8841234  46.1507055
  61.2700596  61.3174748  45.7052282  64.9148719  76.3765295  45.3778377
  64.3669665  75.7523179  45.1098442  65.3761748  76.5659567  44.6622456
  64.9015928  76.3124345  45.2328808  64.2676623  58.2805158  42.1689872
  63.4622586  58.1702887  42.4857711  64.1383358  58.3817613  41.3119738
  64.1296755  58.2788828  42.0897913  67.7242583  64.4450649  42.7629569
  67.1405572  64.9459856  42.3507137  68.0446877  63.9380206  42.1293893
  67.6855758  64.4442485  42.6088077  60.2637382  63.3591244  33.0388244
  61.0853077  63.5289557  32.7969939  59.8007033  63.5138505  32.3154542
  60.3168545  63.4072977  32.8959888  58.8532714  61.3534007  43.8186673
  59.3977127  61.0125133  44.4091015  58.9069650  62.2119468  43.9607957
  58.9421834  61.4289266  43.9268546  54.6663273  75.1150423  40.6925481
  55.2708130  75.0746257  40.0639302  54.4590586  75.9621575  40.7229537
  54.7252170  75.2338425  40.6041597  49.9014555  74.0985040  40.5624404
  49.8038833  73.2881312  40.8714461  50.6843425  74.0776833  40.1770672
  50.0030692  73.9752130  40.5511267  36.7541185  -0.0981881  21.8070641
  36.7235189   0.7562756  21.9788911  37.3522534  -0.3986589  22.3656785
  36.8378343  -0.0165385  21.9145444  29.9540870  -1.0106230  26.5623572
  29.0978765  -0.8497732  26.6132689  30.0008524  -1.8814166  26.5828633
  29.8339981  -1.1155428  26.5729638  24.3382010   8.5256488  22.3260803
  23.5864909   8.1472026  22.0976848  24.7868021   8.5574921  21.5779614
  24.2931677   8.4742095  22.1818306  33.2634586   5.2580296  36.1684028
  33.9701354   4.7632326  36.2970962  33.4522522   5.6989377  35.4386686
  33.3962492   5.2498646  36.0793073  29.7906970   8.9481857  17.7546350
  29.4558338   9.6258779  17.3190573  30.3033840   8.5587169  17.1663222
  29.8172551   8.9906435  17.6033142  29.3311261  10.8996126  23.6957462
  29.7150640  11.4683025  23.1562237  29.2670402  10.1745636  23.2163278
  29.3784688  10.8771589  23.5451325  32.7992691   1.0485814  29.2055223
  33.3448651   1.7270900  29.2649193  32.7409567   0.9073275  28.3456805
  32.8708605   1.1277816  29.0867284  25.9166766   8.5374880  24.5923576
  26.0177129   7.7275234  24.9020704  25.3208511   8.4431826  23.9623254
  25.8439305   8.4039908  24.5449814  34.5757760   2.4770421  20.0788951
  34.4597286   3.2278107  20.5081089  35.3713646   2.2194374  20.3285038
  34.6762349   2.5505268  20.1793043  25.7567505  13.4552469  25.9938432
  26.4004961  13.8965633  26.3834590  26.0823761  12.6505895  25.9068691
  25.8999334  13.4017664  26.0383909  19.1131810   4.5595166  24.2175910
  18.8781995   3.7262819  24.1108178  19.2517451   4.8399832  23.4037110
  19.0987473   4.4778670  24.0818265  26.4588085   6.4664444  21.3658294
  26.7803926   7.0069651  20.7619602  27.1060182   5.8961215  21.4980583
  26.6014140   6.4623619  21.2965329  28.5089793  -1.5319561  21.4492680
  29.2069958  -1.3531434  21.9414144  28.8242126  -2.0549222  20.8263070
  28.6585130  -1.5825789  21.4294690  21.1391031   0.2733179  29.3603786
  21.0149727   0.8595624  29.9953605  21.7909315  -0.2206625  29.6616061
  21.2164680   0.2871983  29.4989715  28.6977729   4.8550884  21.4372472
  29.1371364   4.2467984  21.8827245  28.5482391   4.4758257  20.6657937
  28.7399194   4.7089355  21.3891639  26.1649372   3.4494896  28.6391297
  26.8098374   2.9567339  28.3202246  26.4051149   3.5919682  29.4657376
  26.2959957   3.3972338  28.7140830  28.7035463   6.2949802  28.2898190
  28.9858706   5.5001207  28.0684946  29.4321623   6.7730389  28.3103251
  28.8525027   6.2484399  28.2601205  32.2987065   3.2078065  18.3903241
  32.2138360   4.0639032  18.5352810  32.7871448   2.9322389  19.0585400
  32.3575962   3.2935387  18.5105323  33.2305498  -0.1737141  19.8900976
  32.7016970   0.0422493  20.5498282  33.7530518   0.5198998  19.8101946
  33.2293951  -0.0394004  19.9756575  38.6853551   5.4009164  25.2634021
  37.8551254   5.6119807  25.4267437  38.6362804   4.5746218  24.9876304
  38.5560287   5.3098770  25.2471386  20.6749135   9.4380837  25.4932116
  20.1916713  10.1631327  25.4691699  21.4872453   9.7356967  25.6042273
  20.7239883   9.5883191  25.5059395  26.7463289   8.2313018  28.0981930
  26.2290231   7.8720433  27.4943238  27.4437680   7.7075192  28.1087996
  26.7728870   8.1010706  28.0112189  30.4026881   8.6807832  34.0598103
  30.4910227   8.4933972  34.9076314  30.8316593   8.0345262  33.6602950
  30.4788983   8.5570840  34.1269855  27.9697341   7.9638992  33.0415765
  27.4068175   7.5511602  33.5655427  28.7318364   7.8891898  33.4608909
  27.9991789   7.8916393  33.1808766  23.5293332   9.9537013  25.6452395
  24.2313911   9.4389002  25.7025152  23.4490815  10.2811165  26.4499271
  23.6217093   9.9251239  25.7725188  38.1807510  -1.9520436  29.0584442
  37.3435931  -1.8818248  29.2932036  38.1495741  -1.9495941  28.1858744
  38.0525792  -1.9410208  28.9643990  24.5772239   0.1912600  34.7732811
  24.7492742   0.0818495  35.6218092  25.1141596   0.8367006  34.5364003
  24.6817243   0.2704602  34.8637907  22.8544108   6.1443365  25.1538004
  23.6933007   6.3766298  25.2011765  22.8855877   5.2747677  25.0845039
  22.9825825   6.0500312  25.1502648  23.4796811   6.5644240  29.4551309
  24.0195035   6.4215371  30.1254681  22.7966757   6.9640991  29.8235335
  23.4588964   6.6023911  29.6085731  32.9037695   2.2435241  24.6496333
  33.6595210   2.6766755  24.6885242  33.0100020   1.5940011  25.2230969
  33.0307866   2.2112725  24.7394359  35.9417867   6.0708518  25.3998736
  35.5053098   6.0745261  26.1557708  35.6080782   6.7514017  24.9678314
  35.8280486   6.1720974  25.4479569  30.5146940   8.1116851  36.7241887
  31.2987357   8.2247699  37.0897629  30.3143535   7.2857988  36.9200573
  30.6012966   8.0063570  36.8076273  18.8833956   2.7844531  29.6085731
  18.6172371   1.9683648  29.7676721  18.8972520   2.8297687  28.7381246
  18.8458678   2.6701436  29.5039213  30.6717333  10.0226953  30.3708342
  29.8732579   9.7826453  30.6282211  31.1203345  10.0741346  31.1175390
  30.6191945   9.9949344  30.5193267  39.0762213   2.7889438  24.2918374
  39.7378647   2.2280107  24.1914282  38.4353625   2.2941469  24.6171065
  39.0791080   2.6325847  24.3250714  29.9639020   6.0859570  16.5999297
  30.3790169   5.7544593  15.9083793  29.1330950   5.8528472  16.4719434
  29.9027029   6.0030826  16.4790144  19.2927369   3.5703311  26.8897475
  19.1102942   3.5450197  26.0369767  20.0277038   4.0402248  26.9286384
  19.3741433   3.6364673  26.7695393  35.3627043   3.8054821  24.0330362
  35.5982633   3.9500019  23.2057213  35.5116607   4.5697229  24.4261876
  35.4192847   3.9393875  23.9693966  22.3573121   0.2888313  33.3979584
  23.0813093   0.2741344  33.8844478  22.4589257   0.9983669  32.9001552
  22.4791330   0.3913017  33.3958370  37.1917500   2.6456486  21.8699966
  37.5225717   3.1784127  21.2640061  37.7650588   2.6995374  22.5261917
  37.3251179   2.7326055  21.8777748  29.7318070   3.7687398  38.2628531
  28.9391051   4.0830910  38.4481150  29.8466997   3.9838866  37.4249315
  29.6313481   3.8471235  38.1666865  32.4049389   0.4921389  22.5523546
  32.4996244   1.2310683  23.0063172  31.7808233   0.0638865  22.9858111
  32.3258419   0.5382710  22.6831694  30.6601863   3.6707602  33.2013827
  31.2340725   3.0334846  33.3562391  30.5816667   3.6711684  32.3323485
  30.7335098   3.5772713  33.0960238  19.2598280   0.4496811  27.0396541
  19.8371782   0.3133262  27.6788787  18.5612341  -0.0067405  27.2942126
  19.2419301   0.3619077  27.1718831  26.0165582   2.1030867  25.2535025
  25.7584826   1.2702602  25.2266324  26.0714065   2.3288480  24.4127525
  25.9865360   2.0128638  25.1255161  24.9900294  -0.3431371  25.7399919
  24.4149885  -0.1839202  26.3763880  24.6135970  -0.9795961  25.2768370
  24.8503106  -0.4133558  25.7654478  28.6573583  -1.8708021  30.5992298
  28.2688015  -2.2953804  29.9444489  27.9928281  -1.6225872  31.1069324
  28.5020510  -1.8969300  30.5780166  29.7612521   2.3590583  18.7969105
  30.5753160   2.6505476  18.6851876  29.6971662   1.7050446  18.2227398
  29.8715260   2.3055778  18.6957942  35.9822011   5.0416579  33.2098680
  35.7460648   4.2104644  33.0910741  36.6265240   4.9902187  33.7953525
  36.0416682   4.9114267  33.2784574  25.6320429   5.8312101  23.9241417
  26.2694376   5.5923848  24.4693210  26.0575501   6.0349260  23.1894577
  25.7896595   5.8263111  23.8958574  20.3233071   8.0700437  27.8075721
  20.3637217   8.3415288  26.9795500  20.8827596   8.5942345  28.2233509
  20.4116417   8.1876192  27.7467609  37.0058432   4.8261028  29.2726975
  36.7004249   5.5589085  29.6340291  36.2864647   4.4198958  28.9919761
  36.8545774   4.8742761  29.2840112  28.0141901   6.3084523  25.6035203
  28.0880909   6.1459695  26.4577053  28.8311407   6.4974713  25.3595685
  28.1458260   6.3121266  25.6933229  42.7060224   1.4654029  28.5995319
  42.6384724   1.4849988  27.7297906  42.6915886   2.3084356  28.8250990
  42.6938980   1.5927764  28.5047796  21.7747658   6.6542386  22.6329647
  20.9485775   6.9004123  22.5063925  21.8359649   6.5754467  23.4991705
  21.6621825   6.6787335  22.7418591  26.5546487   9.2719266  20.3348677
  26.8444785   8.8808248  19.6107903  27.2849968   9.4535971  20.7753952
  26.7053371   9.2413080  20.2931484  40.4918841   0.2398415  26.8741914
  41.0426763  -0.3933516  27.1139006  40.4762956   0.7713808  27.5657418
  40.5704037   0.2247363  27.0120772  27.1441232   4.0737012  31.4201807
  26.6452926   4.7852780  31.4986695  27.9541456   4.3937679  31.3819969
  27.1897339   4.2263861  31.4258376  24.4952402  11.2486649  23.4008826
  24.2752698  10.9584004  24.1935493  24.2746924  10.5901604  22.8726739
  24.4299997  11.1086357  23.4397735  23.4069350   3.3359965  25.6664528
  23.1182598   2.7097437  26.2010255  24.2752698   3.2780253  25.7329208
  23.4929601   3.2347510  25.7555483  34.1947247  -1.5205251  25.9846510
  33.8512013  -2.2414916  26.3353759  34.2940290  -1.7291400  25.1424868
  34.1589290  -1.6581048  25.9118190  26.6620358  12.6216039  22.1839519
  27.3144416  12.0892481  22.4130545  25.9645967  12.2684691  22.5707393
  26.6551076  12.4905562  22.2751686  23.6101623   4.9755216  21.5906893
  24.3647591   5.3568255  21.8042356  23.0172236   5.4266360  22.0453590
  23.6338336   5.0984044  21.6889771  34.6560276   4.9420453  21.5270498
  35.2218309   5.6013663  21.4429041  34.0088180   5.2870151  21.9986900
  34.6439033   5.0902394  21.5843254  26.0708290  -3.0681943  36.7164105
  25.2608066  -2.7624164  36.6053948  26.5482977  -2.3476361  36.8316689
  26.0211769  -2.9167342  36.7171176  24.9299850   6.1463778  26.9647008
  24.4080603   6.2864069  27.6498873  25.3173870   5.3874442  27.1549126
  24.9103550   6.0549302  27.0948085  31.1266854   7.8859237  20.9507577
  30.8853530   7.1527098  20.5434642  31.3068187   8.4346094  20.2973910
  31.1174478   7.8581628  20.7937800  26.3566175   3.1767797  22.3628499
  26.1608958   3.7842531  21.7688802  26.5800521   2.4835741  21.8820173
  26.3600816   3.1645322  22.2044580  24.7544705   0.0622535  22.4809368
  25.4767357   0.2263693  22.0213174  24.2752698   0.7832199  22.3748708
  24.7908436   0.1920764  22.3974982  32.7138213  -3.6013667  27.8606053
  31.8749313  -3.5752388  27.6244316  32.7842580  -2.9542931  28.4411399
  32.6006606  -3.5017541  27.9115170  22.4052322   2.4680607  31.5863508
  22.9173419   2.7464860  30.9372267  22.1188664   3.2069901  31.9526321
  22.4387185   2.6182961  31.5453386  36.5895737   1.6054320  25.1467294
  36.5029711   1.7609746  26.0002073  36.1346216   2.2492396  24.7726700
  36.5098993   1.7230075  25.2174401  25.9236047  -5.4393004  31.6464549
  25.7319244  -5.4237870  32.4963973  26.7734643  -5.2429330  31.6231204
  26.0211769  -5.4078653  31.7687844  30.4621553  -1.0734933  23.7692854
  30.2156267  -1.1539182  24.6029643  30.7906676  -1.8581465  23.5755381
  30.4742796  -1.2008667  23.8640377  34.3569601   5.6348427  27.5579635
  34.2183961   6.3329472  28.0628378  33.5769599   5.4797083  27.2015817
  34.2212828   5.7148593  27.5805909  32.6947687   1.9344802  33.8102017
  32.6895725   1.0624619  33.8144443  33.4008680   2.1332971  33.3371473
  32.7992691   1.8348676  33.7409052  26.4218580   1.6621786  33.1815837
  26.5661956   2.2422994  32.5458947  26.7694228   2.0398083  33.8865692
  26.4946041   1.8042490  33.1914832  28.5938497   0.8611954  30.9640969
  27.8461811   1.0542969  30.5589247  28.7480022   0.0357174  30.7265090
  28.5060925   0.7677066  30.8686375  25.4946335   9.8524558  30.0476864
  25.6435899   9.2927474  29.3950268  26.2746337   9.9316559  30.4309383
  25.6320429   9.7810123  30.0073813  35.8522974   4.9926680  18.3196134
  35.4729783   4.2063818  18.3125424  35.1889220   5.5413537  18.1767779
  35.6981449   4.9571504  18.2976931  28.0199636  10.0239201  31.3261355
  27.9443307   9.3548011  31.8812143  27.9489495  10.7256989  31.8402021
  27.9980242  10.0284108  31.4838203  28.8340274  -5.2437495  31.8536372
  29.2912888  -4.5113521  31.9809165  28.9096603  -5.6671030  32.6123628
  28.9131244  -5.1980257  31.9837449  28.6769882   8.5440199  22.1584961
  29.4419774   8.2749843  21.8367625  28.5747972   8.0590210  22.8755023
  28.7751378   8.4329764  22.2164788  26.7122652  -3.2535391  28.6978196
  25.9218727  -3.4343931  29.0195532  27.1083275  -4.0308438  28.6808491
  26.6539528  -3.3947930  28.7430745  32.0966338   4.3807039  26.4237642
  31.4211340   4.1492271  26.9251029  32.1058715   3.7728222  25.7979747
  31.9984843   4.2565964  26.4053795  29.2260482  -0.7775132  33.1801695
  29.1619624   0.0834825  33.0521832  29.3657670  -1.0943139  32.3797247
  29.2375953  -0.6974965  33.0429908  34.0983073   7.2372171  18.6547820
  34.1802910   8.0439158  18.3309271  34.5832815   7.2568131  19.3788594
  34.1820231   7.3592834  18.7134719  27.9079576   1.9157007  27.3217898
  27.4841825   2.1161506  26.5856917  27.7324432   1.0685855  27.4342198
  27.8190457   1.8205789  27.2291588  23.1962021   2.4109059  22.7545871
  23.3526640   2.3455862  23.6101863  23.5362614   3.1857611  22.5424550
  23.2695256   2.5158257  22.8500465  29.7341166   1.7866942  21.6239234
  30.2756711   1.2837324  22.0877855  30.0487725   1.7332137  20.8128719
  29.8605563   1.7046363  21.5723046  33.6058273   5.9969590  38.7366146
  34.4193139   5.7254739  38.8971279  33.4453240   5.6977130  37.9326342
  33.7028222   5.9124516  38.6411552  30.8830435  -3.3196753  31.6761534
  31.0972405  -3.9585839  31.1224888  30.2664334  -2.8750929  31.2469396
  30.8235765  -3.3486609  31.5311966  32.2935103   9.6021995  23.1215755
  31.9014895   9.2988710  22.4038621  32.4488175  10.4391085  22.9320709
  32.2588693   9.6805832  22.9872252  33.0469523  -1.7107688  32.6144842
  32.2346205  -2.0181798  32.6958014  33.5059458  -2.1908688  33.1787554
  32.9949908  -1.8271196  32.7099436  32.4574778   6.1671984  23.0621786
  32.0989433   6.3386627  23.8385818  31.9713489   6.6285190  22.5049784
  32.3333475   6.2610955  23.0947055  30.1423031  -0.3047616  37.3973544
  30.6122662   0.3194500  37.7841418  30.1884911  -0.9730641  37.9566759
  30.2190907  -0.3112936  37.5373615  33.6179517   7.0575880  34.0088987
  34.2559238   6.5636076  33.6751443  32.9753609   6.9853281  33.4241214
  33.6173744   6.9734889  33.8731342  35.3436517  -1.0934974  28.5754902
  34.9164125  -1.1808625  27.8203002  34.7062570  -0.9857198  29.1609746
  35.1866125  -1.0902314  28.5500344  33.6733774   7.7495688  30.6494344
  34.4626152   7.3984753  30.7696425  33.8477372   8.5632077  30.3870977
  33.8154056   7.8181545  30.6282211  23.4127084   1.1604414  27.7022132
  22.5715091   1.0608288  27.9101026  23.6217092   1.9299894  28.0536453
  23.3191777   1.2596457  27.7849447  20.8902651  -1.2176049  25.5306883
  20.4959349  -1.1433037  24.7556993  20.3342768  -0.8318103  26.0815245
  20.7505464  -1.1494274  25.4974543  27.2243749  -0.9114187  26.9519730
  26.9206887  -1.4658198  27.5530138  26.5223170  -0.7321977  26.4647764
  27.0759959  -0.9669404  26.9689436  25.2862100   6.3035534  31.6591828
  25.1782455   6.3137596  32.5253886  25.4957882   7.1290314  31.4696781
  25.3012211   6.4276609  31.7595919  23.3035892   3.5548176  29.1213765
  22.7123825   4.1957675  29.0916780  24.0656916   3.9785794  29.0945065
  23.3284153   3.7124015  29.1128912  39.4226314   3.3853946  30.1191043
  39.4809437   3.8340595  30.8651020  38.7892781   3.7952759  29.6821123
  39.3377609   3.5127681  30.1643592  33.0625408   9.0057488  26.5545790
  32.8645097   9.4948302  25.8602001  32.4413120   9.2098729  27.1329923
  32.9412973   9.1074026  26.5369013  27.1233387   0.7742385  20.8956034
  27.8675432   1.1616661  21.1338984  27.2694083  -0.0700190  21.0596522
  27.2543972   0.7072858  20.9550004  30.1111263  -3.6532142  26.7949953
  29.6371217  -4.1790380  27.3055264  30.4829398  -4.2002669  26.2264815
  30.0961152  -3.8116145  26.7865100  36.3747993   1.4070234  28.2056734
  36.1346216   0.5676649  28.2099160  36.8540000   1.4870400  28.9297507
  36.4100177   1.2951633  28.3131536  38.3753180  -1.8128309  26.1585993
  38.1362950  -1.8532475  25.3206778  38.5387082  -0.9657157  26.2851714
  38.3643484  -1.6936224  26.0539475  34.9799210   2.5721640  32.0891038
  35.7033409   2.1194167  31.9102058  34.7149173   2.8526306  31.3063366
  35.0480484   2.5472609  31.9469753  23.8486079  -2.8318186  28.8243917
  23.2239149  -2.8199794  28.2169870  23.5131674  -2.3558011  29.4735157
  23.7071571  -2.7599669  28.8300486  20.5611754   5.2282274  30.2647682
  20.0311679   4.5374713  30.3142656  20.8336848   5.2192459  29.4360390
  20.5236477   5.1249406  30.1495097  31.5931845   5.8107976  18.9885364
  32.3166044   6.2766089  18.8449937  31.1532436   5.8781586  18.2382961
  31.6347537   5.8891813  18.8570146  30.7618000   2.6705518  30.2386053
  30.1474993   2.1263569  30.5334688  31.2785285   2.1569755  29.7591869
  30.7473662   2.5141928  30.2110282  30.0014297   3.7409789  27.9730352
  29.5741905   3.1159507  27.5395787  29.9939241   3.4584710  28.7989359
  29.9373438   3.6062569  28.0310179  23.1176824  -1.2225038  31.0418786
  23.2770311  -1.9781714  31.4470508  22.9369718  -0.6734099  31.6959523
  23.1142183  -1.2531225  31.1981492  28.3300007  -5.3821457  28.1872886
  28.3542494  -5.9161345  27.4985666  28.5811480  -5.8904148  28.8498476
  28.3709925  -5.5360553  28.1837530  15.8407597   1.9010038  27.6216030
  15.7351046   1.8556882  26.7568114  15.0907817   2.2463819  27.9030315
  15.7143199   1.9450946  27.5353360  26.7930942   2.9110101  35.6698925
  25.9426572   3.0481816  35.8056570  26.9559070   2.1773880  36.1146626
  26.6914805   2.8224203  35.7554524  26.0315692  -0.1390129  29.8652529
  25.2007622   0.0283689  29.6587777  25.9767210  -0.5154178  30.6501414
  25.9005107  -0.1700398  29.9501057  37.4134524   1.5348051  30.5921588
  38.0052365   2.1745302  30.6239786  37.8493519   0.8371088  30.8813655
  37.5652956   1.5266401  30.6402420  31.8535695   9.8728681  19.1483425
  31.1365004   9.6989543  18.6830663  32.5042432   9.6381253  18.6158911
  31.8437545   9.8124474  19.0012643  34.4383666  -1.2506730  22.8924730
  33.7674856  -0.7077028  22.7637796  35.1323416  -0.7811875  22.6506425
  34.4412533  -1.1008459  22.8380258  28.4870399  10.8889982  28.1236489
  28.2636054  10.1308811  28.4920515  27.9980243  10.9188003  27.4016928
  28.3813849  10.7812206  28.0713230  23.2995478  -2.1643327  23.8597950
  22.5807467  -1.7479194  24.1270814  23.6707840  -1.5989088  23.3089588
  23.2487410  -2.0194046  23.8180757  32.5995059  -1.5315478  29.7499946
  32.5792986  -1.7132183  30.6034725  32.6474260  -0.6603460  29.7259529
  32.6029700  -1.4298940  29.8723240  30.5441389   5.0571714  35.6748422
  30.5037244   4.4121391  35.0893578  31.3564707   5.0008331  35.9873834
  30.6584542   4.9530681  35.6345371  27.1348856  11.1090440  25.5773573
  26.7209255  10.4464570  25.1877415  27.8196231  11.2568299  25.0569267
  27.1747228  11.0331098  25.4430070  30.5014151  10.2680525  26.3297190
  30.1030434  10.3782795  25.5618010  29.8865370  10.4762591  26.9123750
  30.3513040  10.3154093  26.3028489  31.9499869  -3.1665823  22.6273080
  31.7213562  -3.1433121  21.7851438  32.2097945  -3.9908356  22.7468090
  31.9546057  -3.2849743  22.5198277  26.2319098  -1.3131350  32.2298180
  25.7198001  -1.9210167  32.5883211  26.0598594  -0.5974757  32.6972156
  26.1308735  -1.2968050  32.3514404  25.0044632  -4.6289276  23.9227275
  25.4801998  -4.2672196  23.2877457  24.5033231  -3.9732809  24.2027418
  25.0009991  -4.4795088  23.8704016  38.2355993   4.8432492  19.7140280
  38.6189599   5.5923848  19.9438377  37.4400107   5.0898311  19.4552270
  38.1749775   4.9902186  19.7097854  30.1088168  -3.3907105  34.6700435
  30.6659598  -3.6193295  34.0378901  29.7849233  -2.6301439  34.3935648
  30.1434578  -3.3123268  34.5356933  27.8271285  -0.3039452  35.6352443
  28.5782612   0.0112225  35.9491997  28.0193862  -0.5060281  34.8086364
  27.9662699  -0.2872070  35.5595838  32.3997427   0.5031617  26.5312445
  32.8951093  -0.2145388  26.4916465  31.5897203   0.2002414  26.4166932
  32.3541321   0.3529263  26.5086171  27.8456039   4.3529430  18.6809449
  27.0367362   4.0296103  18.6342759  28.3530948   3.6462652  18.6137698
  27.8005706   4.2010746  18.6639744  18.4746316   1.7801623  24.4056814
  17.6091836   1.7687313  24.2939585  18.5745132   1.5931846  25.2527953
  18.3620483   1.7507684  24.5145758  34.4649246   3.2535304  29.2189574
  34.8904318   2.7309726  28.6659999  34.1006166   3.8516141  28.6978197
  34.4735849   3.2645531  29.0598583  24.1003326  11.5499522  27.9786919
  24.4149885  12.3635910  27.9864701  24.5096739  11.1649740  28.6469078
  24.2071424  11.6128224  28.0791011  31.0527846   6.9669568  25.5490731
  31.5239024   7.6809831  25.7180716  31.3888024   6.3668318  26.0850601
  31.1722961   6.9841033  25.6523107  33.1404830   8.5770882  37.7282803
  33.2501796   7.7879442  38.0839550  33.4695727   8.4876818  36.9257141
  33.2057236   8.4476735  37.6625194  31.6901792   6.7587502  32.3118424
  31.1422738   6.1345386  32.0438489  32.1514821   6.9481774  31.5962503
  31.6769001   6.6946553  32.1668855  21.4416346   5.4972630  27.6265528
  22.0461204   5.4568464  26.9979348  21.2343659   6.3443782  27.6569583
  21.5005243   5.6160632  27.5381644  31.2560118   7.7638575  28.8427765
  32.0758492   7.6201541  29.1044060  30.9754196   8.3884774  29.3844203
  31.3356862   7.8348927  28.9615704  16.6767628   4.4807248  27.4964451
  16.5791907   3.6703519  27.8054507  17.4596498   4.4599041  27.1110719
  16.7783765   4.3574338  27.4851314  47.7273769  15.4203427  21.8070641
  47.6967773  16.2748064  21.9788911  48.3255117  15.1198719  22.3656785
  47.8110927  15.5019923  21.9145444  40.9273454  14.5079078  26.5623572
  40.0711349  14.6687576  26.6132689  40.9741107  13.6371142  26.5828633
  40.8072565  14.4029880  26.5729638  40.7639553  24.4667165  17.7546350
  40.4290922  25.1444087  17.3190573  41.2766424  24.0772476  17.1663222
  40.7905134  24.5091743  17.6033142  43.7725275  16.5671122  29.2055223
  44.3181235  17.2456208  29.2649193  43.7142151  16.4258583  28.3456805
  43.8441189  16.6463123  29.0867284  45.5490343  17.9955729  20.0788951
  45.4329869  18.7463415  20.5081089  46.3446230  17.7379682  20.3285038
  45.6494933  18.0690576  20.1793043  30.0864394  20.0780474  24.2175910
  29.8514578  19.2448127  24.1108178  30.2250034  20.3585140  23.4037110
  30.0720056  19.9963978  24.0818265  32.3854481  12.2466205  27.1160217
  31.7659513  11.6558852  26.9470232  32.2838345  12.8377640  26.4824540
  32.2792157  12.2470288  26.9965207  37.4320669  21.9849752  21.3658294
  37.7536510  22.5254959  20.7619602  38.0792765  21.4146523  21.4980583
  37.5746724  21.9808927  21.2965329  39.4822377  13.9865747  21.4492680
  40.1802542  14.1653874  21.9414144  39.7974709  13.4636086  20.8263070
  39.6317714  13.9359519  21.4294690  32.1123614  15.7918487  29.3603786
  31.9882311  16.3780932  29.9953605  32.7641899  15.2978682  29.6616061
  32.1897264  15.8057291  29.4989715  39.6710312  20.3736192  21.4372472
  40.1103948  19.7653292  21.8827245  39.5214975  19.9943565  20.6657937
  39.7131778  20.2274663  21.3891639  37.1381955  18.9680204  28.6391297
  37.7830958  18.4752647  28.3202246  37.3783732  19.1104990  29.4657376
  37.2692540  18.9157646  28.7140830  39.6768047  21.8135110  28.2898190
  39.9591289  21.0186515  28.0684946  40.4054207  22.2915697  28.3103251
  39.8257610  21.7669706  28.2601205  43.2719649  18.7263373  18.3903241
  43.1870944  19.5824340  18.5352810  43.7604032  18.4507697  19.0585400
  43.3308546  18.8120695  18.5105323  44.8625648   5.3443666  23.7763566
  44.5479089   6.0347145  24.2083988  44.3452590   5.2888449  23.0749066
  44.7390119   5.4378555  23.7360515  44.2038082  15.3448167  19.8900976
  43.6749553  15.5607801  20.5498282  44.7263102  16.0384306  19.8101946
  44.2026535  15.4791304  19.9756575  49.6586135  20.9194472  25.2634021
  48.8283838  21.1305115  25.4267437  49.6095387  20.0931526  24.9876304
  49.5292870  20.8284078  25.2471386  36.0937690  19.2411384  18.6908444
  35.5094905  19.7461415  19.0974308  35.6907785  19.0153771  17.9505036
  35.9476994  19.2819632  18.6413469  31.6481718  24.9566145  25.4932116
  31.1649297  25.6816635  25.4691699  32.4605037  25.2542275  25.6042273
  31.6972466  25.1068499  25.5059395  40.5514904  15.4877036  17.1677365
  40.7910908  15.6955020  16.3552708  40.8730745  14.6834545  17.2766309
  40.6352062  15.3991137  17.0637918  35.8605194   7.4170432  21.0136903
  36.6151162   7.7848749  20.7753953  35.6832729   7.7909986  21.7816082
  35.9459673   7.5268620  21.0921791  49.1540093  13.5664872  29.0584442
  48.3168514  13.6367059  29.2932036  49.1228324  13.5689367  28.1858744
  49.0258376  13.5775099  28.9643990  35.5504822  15.7097908  34.7732811
  35.7225326  15.6003803  35.6218092  36.0874180  16.3552314  34.5364003
  35.6549826  15.7889910  34.8637907  34.2162259   9.8240751  17.7115016
  34.0337832  10.0412632  16.8856008  35.0787872   9.9379764  17.7673630
  34.3166849   9.8730649  17.5969503  33.8276691  21.6628673  25.1538004
  34.6665590  21.8951606  25.2011765  33.8588460  20.7932985  25.0845039
  33.9558409  21.5685620  25.1502648  39.8961978   6.8267162  20.7464039
  40.6248139   6.6483117  20.3002196  39.9856871   7.6685241  20.9571218
  40.0168640   6.9251040  20.7117557  43.8770279  17.7620549  24.6496333
  44.6327794  18.1952063  24.6885242  43.9832603  17.1125319  25.2230969
  44.0040450  17.7298033  24.7394359  46.9150450  21.5893826  25.3998736
  46.4785682  21.5930569  26.1557708  46.5813366  22.2699325  24.9678314
  46.8013070  21.6906282  25.4479569  29.8566539  18.3029839  29.6085731
  29.5904954  17.4868956  29.7676721  29.8705103  18.3482995  28.7381246
  29.8191261  18.1886744  29.5039213  46.8347933   8.6307654  27.6428164
  47.4773841   8.7005759  28.2290080  47.0870954   7.9636877  27.1407706
  46.9670065   8.5434003  27.6555444  33.7624286  13.1014924  16.2237489
  33.0482463  12.8153103  16.6359921  34.2468255  13.4411549  16.8643876
  33.7283649  13.1096573  16.3793124  34.6065146  11.8408217  32.2552738
  33.9136942  11.3705197  32.5013470  35.2225473  11.6146522  32.8294445
  34.5949675  11.7375349  32.3761891  50.0494796  18.3074746  24.2918374
  50.7111230  17.7465415  24.1914282  49.4086208  17.8126777  24.6171065
  50.0523664  18.1511155  24.3250714  40.9371604  21.6044877  16.5999297
  41.3522753  21.2729901  15.9083793  40.1063534  21.3713780  16.4719434
  40.8759613  21.5216133  16.4790144  30.2659953  19.0888619  26.8897475
  30.0835526  19.0635505  26.0369767  31.0009622  19.5587556  26.9286384
  30.3474017  19.1549981  26.7695393  46.3359627  19.3240128  24.0330362
  46.5715216  19.4685327  23.2057213  46.4849191  20.0882537  24.4261876
  46.3925430  19.4579183  23.9693966  48.1650084  18.1641794  21.8699966
  48.4958301  18.6969435  21.2640061  48.7383172  18.2180682  22.5261917
  48.2983763  18.2511363  21.8777748  43.3781973  16.0106697  22.5523546
  43.4728827  16.7495991  23.0063172  42.7540816  15.5824173  22.9858111
  43.2991003  16.0568018  22.6831694  41.6334447  19.1892910  33.2013827
  42.2073308  18.5520154  33.3562391  41.5549250  19.1896992  32.3323485
  41.7067682  19.0958021  33.0960238  30.2330863  15.9682119  27.0396541
  30.8104366  15.8318570  27.6788787  29.5344925  15.5117903  27.2942126
  30.2151885  15.8804385  27.1718831  43.6304994  17.8555437  15.7860498
  43.5485157  17.9257624  16.6515485  44.2684715  18.4185181  15.5944239
  43.7124832  17.9494408  15.8850448  36.9898165  17.6216175  25.2535025
  36.7317410  16.7887910  25.2266324  37.0446648  17.8473788  24.4127525
  36.9597943  17.5313946  25.1255161  42.0699215   9.7244626  25.3539117
  41.3655542   9.2353811  25.5123036  42.1184190   9.7367100  24.4827562
  41.9729267   9.6534274  25.2478457  35.9632877  15.1753937  25.7399919
  35.3882469  15.3346106  26.3763880  35.5868554  14.5389346  25.2768370
  35.8235690  15.1051750  25.7654478  39.6306166  13.6477287  30.5992298
  39.2420599  13.2231504  29.9444489  38.9660864  13.8959436  31.1069324
  39.4753094  13.6216008  30.5780166  49.2729435  13.4052291  23.3740128
  49.0166000  12.5932233  23.1838011  50.1158749  13.4129858  23.1470315
  49.3595461  13.2864289  23.3124945  25.7089696  14.8194012  23.7544360
  25.7949948  14.4425880  24.5357890  26.3365494  14.4454458  23.2764318
  25.8146247  14.7079494  23.7989837  43.4532528   7.3451915  28.1116282
  43.8343039   6.6630086  28.4984156  42.6495812   7.0561517  27.9291947
  43.3908989   7.2018964  28.1420338  40.7345104  17.8775891  18.7969105
  41.5485743  18.1690784  18.6851876  40.6704246  17.2235754  18.2227398
  40.8447843  17.8241086  18.6957942  46.9554595  20.5601887  33.2098680
  46.7193232  19.7289952  33.0910741  47.5997823  20.5087495  33.7953525
  47.0149265  20.4299575  33.2784574  36.6053013  21.3497409  23.9241417
  37.2426960  21.1109156  24.4693210  37.0308084  21.5534568  23.1894577
  36.7629179  21.3448419  23.8958574  31.2965655  23.5885745  27.8075721
  31.3369800  23.8600596  26.9795500  31.8560179  24.1127653  28.2233509
  31.3849001  23.7061500  27.7467609  37.2455828  16.5699698  18.2616306
  37.6300980  16.3507405  19.0132851  36.9967448  17.3962644  18.3917383
  37.2657900  16.6597845  18.3917383  37.4124368   9.8506114  37.9778891
  37.0977809  10.6205676  37.7148453  37.0914301   9.2876370  37.3931117
  37.3183287   9.8816382  37.8520240  47.9791015  20.3446336  29.2726975
  47.6736832  21.0774393  29.6340291  47.2597231  19.9384266  28.9919761
  47.8278357  20.3928069  29.2840112  38.9874485  21.8269831  25.6035203
  39.0613493  21.6645003  26.4577053  39.8043991  22.0160021  25.3595685
  39.1190843  21.8306574  25.6933229  53.6792807  16.9839337  28.5995319
  53.6117308  17.0035296  27.7297906  53.6648470  17.8269664  28.8250990
  53.6671564  17.1113071  28.5047796  32.7480241  22.1727694  22.6329647
  31.9218359  22.4189431  22.5063925  32.8092232  22.0939775  23.4991705
  32.6354408  22.1972643  22.7418591  34.9656265   8.2396635  23.5925087
  34.0978690   8.3119235  23.6582696  35.2531469   9.0418714  23.7813062
  34.8796013   8.3690782  23.6299853  44.0889154   8.3874494  31.9236409
  44.8342746   8.1984305  31.5099834  43.6726458   8.9132732  31.3650265
  44.1374128   8.4376640  31.7800982  37.5279070  24.7904574  20.3348677
  37.8177369  24.3993556  19.6107903  38.2582551  24.9721279  20.7753952
  37.6785955  24.7598388  20.2931484  51.4651425  15.7583723  26.8741914
  52.0159346  15.1251792  27.1139006  51.4495540  16.2899116  27.5657418
  51.5436621  15.7432671  27.0120772  38.1173815  19.5922320  31.4201807
  37.6185509  20.3038088  31.4986695  38.9274040  19.9122987  31.3819969
  38.1629922  19.7449169  31.4258376  34.3801933  18.8545273  25.6664528
  34.0915182  18.2282745  26.2010255  35.2485281  18.7965561  25.7329208
  34.4662185  18.7532817  25.7555483  45.1679831  13.9980057  25.9846510
  44.8244597  13.2770392  26.3353759  45.2672873  13.7893908  25.1424868
  45.1321874  13.8604260  25.9118190  34.5834206  20.4940524  21.5906893
  35.3380174  20.8753563  21.8042356  33.9904819  20.9451668  22.0453590
  34.6070920  20.6169352  21.6889771  45.6292860  20.4605761  21.5270498
  46.1950893  21.1198971  21.4429041  44.9820763  20.8055459  21.9986900
  45.6171616  20.6087702  21.5843254  37.0440873  12.4503365  36.7164105
  36.2340649  12.7561144  36.6053948  37.5215560  13.1708947  36.8316689
  36.9944352  12.6017966  36.7171176  35.9032433  21.6649086  26.9647008
  35.3813187  21.8049377  27.6498873  36.2906453  20.9059750  27.1549126
  35.8836134  21.5734609  27.0948085  32.8923617  11.7154894  21.0341963
  32.6048413  11.3456165  20.2973910  33.5794085  12.1849750  20.7725668
  32.9512514  11.7301864  20.8857039  42.0999438  23.4044545  20.9507577
  41.8586114  22.6712406  20.5434642  42.2800771  23.9531402  20.2973910
  42.0907062  23.3766936  20.7937800  37.3298759  18.6953105  22.3628499
  37.1341541  19.3027839  21.7688802  37.5533104  18.0021049  21.8820173
  37.3333400  18.6830630  22.2044580  35.7277289  15.5807843  22.4809368
  36.4499941  15.7449001  22.0213174  35.2485281  16.3017507  22.3748708
  35.7641019  15.7106072  22.3974982  43.6870796  11.9171641  27.8606053
  42.8481897  11.9432920  27.6244316  43.7575164  12.5642377  28.4411399
  43.5739190  12.0167767  27.9115170  42.1340075   8.8157018  22.5933669
  42.8366427   8.6164767  22.1153627  41.8684263   8.0432961  22.9002512
  42.1986707   8.6719984  22.5679110  47.5628320  17.1239628  25.1467294
  47.4762295  17.2795054  26.0002073  47.1078800  17.7677704  24.7726700
  47.4831577  17.2415383  25.2174401  30.4651812  12.4936107  21.8827244
  30.5667948  13.2962268  22.2108220  31.2607698  12.2923443  21.5850325
  30.5979717  12.5822006  21.8862599  36.8968631  10.0792304  31.6464549
  36.7051828  10.0947438  32.4963973  37.7467227  10.2755978  31.6231204
  36.9944353  10.1106655  31.7687844  31.2815544  12.6083285  29.6248366
  31.1401036  11.7567226  29.7492874  31.5656107  12.6511946  28.8010572
  31.3023390  12.4883035  29.5215990  41.4354136  14.4450375  23.7692854
  41.1888850  14.3646126  24.6029643  41.7639259  13.6603843  23.5755381
  41.4475380  14.3176641  23.8640377  45.3302185  21.1533735  27.5579635
  45.1916544  21.8514780  28.0628378  44.5502183  20.9982391  27.2015817
  45.1945412  21.2333901  27.5805909  43.6680270  17.4530110  33.8102017
  43.6628309  16.5809926  33.8144443  44.3741264  17.6518279  33.3371473
  43.7725274  17.3533984  33.7409052  37.3951163  17.1807094  33.1815837
  37.5394539  17.7608302  32.5458947  37.7426812  17.5583391  33.8865692
  37.4678625  17.3227798  33.1914832  39.5671081  16.3797262  30.9640969
  38.8194395  16.5728277  30.5589247  39.7212606  15.5542482  30.7265090
  39.4793508  16.2862374  30.8686375  46.8255558  20.5111988  18.3196134
  46.4462367  19.7249126  18.3125424  46.1621803  21.0598845  18.1767779
  46.6714033  20.4756812  18.2976931  39.8072858  10.2747813  31.8536372
  40.2645472  11.0071787  31.9809165  39.8829187   9.8514278  32.6123628
  39.8863828  10.3205051  31.9837449  32.0505849  10.5213633  32.9425816
  31.5148039   9.9093991  33.2586583  32.1123614  11.0961769  33.5959483
  31.9801482  10.5160560  33.0861243  44.2800184   3.4537688  25.7230215
  44.3983752   3.9114151  24.9897518  44.1062359   2.6482949  25.4366433
  44.2719355   3.4031460  25.5731149  39.6502466  24.0625507  22.1584961
  40.4152357  23.7935151  21.8367625  39.5480556  23.5775518  22.8755023
  39.7483961  23.9515072  22.2164788  37.6855236  12.2649917  28.6978196
  36.8951311  12.0841377  29.0195532  38.0815859  11.4876869  28.6808491
  37.6272112  12.1237378  28.7430745  42.1721127  21.0937691  14.1384910
  42.9394112  21.1537816  13.7290762  41.7252435  20.5218133  13.6541229
  42.2194554  21.0174267  14.0062620  43.0698922  19.8992347  26.4237642
  42.3943924  19.6677579  26.9251029  43.0791298  19.2913530  25.7979747
  42.9717427  19.7751272  26.4053795  40.1993066  14.7410176  33.1801695
  40.1352207  15.6020132  33.0521832  40.3390254  14.4242169  32.3797247
  40.2108536  14.8210343  33.0429908  45.0715657  22.7557479  18.6547820
  45.1535494  23.5624466  18.3309271  45.5565399  22.7753439  19.3788594
  45.1552815  22.8778142  18.7134719  38.8812160  17.4342315  27.3217898
  38.4574409  17.6346814  26.5856917  38.7057015  16.5871163  27.4342198
  38.7923041  17.3391097  27.2291588  34.1694605  17.9294367  22.7545871
  34.3259224  17.8641170  23.6101863  34.5095198  18.7042919  22.5424550
  34.2427840  18.0343565  22.8500465  40.7073749  17.3052250  21.6239234
  41.2489295  16.8022631  22.0877855  41.0220309  17.2517445  20.8128719
  40.8338147  17.2231671  21.5723046  38.8760199  22.6969602  18.9079262
  38.9453020  21.8384140  19.0472262  39.6548654  22.9141483  18.5798287
  39.0013049  22.6022466  18.8796419  41.8563019  12.1988555  31.6761534
  42.0704988  11.5599469  31.1224888  41.2396918  12.6434379  31.2469396
  41.7968348  12.1698699  31.5311966  43.2667687  25.1207303  23.1215755
  42.8747479  24.8174018  22.4038621  43.4220759  25.9576393  22.9320709
  43.2321277  25.1991140  22.9872252  30.7428866  15.1129317  23.0706638
  31.1227831  15.5313862  22.4066905  30.1684231  15.6942773  23.3775481
  30.7140191  15.2607176  23.0183379  44.0202107  13.8077620  32.6144842
  43.2078789  13.5003510  32.6958014  44.4792041  13.3276620  33.1787554
  43.9682492  13.6914112  32.7099436  43.4307362  21.6857292  23.0621786
  43.0722016  21.8571935  23.8385818  42.9446072  22.1470498  22.5049784
  43.3066058  21.7796263  23.0947055  41.2477748   5.3088491  26.6648877
  40.3771305   5.2827212  26.6182187  41.5018089   5.1365683  25.8474723
  41.1571308   5.2798634  26.5369014  38.2195727  17.3656457  15.6022020
  38.5088252  18.1421340  15.8765595  38.3067526  16.8545189  16.3036520
  38.2749983  17.4048376  15.7464518  41.1155614  15.2137691  37.3973544
  41.5855246  15.8379808  37.7841418  41.1617495  14.5454667  37.9566759
  41.1923490  15.2072372  37.5373615  38.2726888   7.3194719  28.1222348
  37.7565377   6.6274910  28.2473927  37.7120817   7.9865496  28.0684946
  38.1133401   7.3157977  28.1328414  40.3419122   7.8587679  29.9515200
  39.9550875   7.8836710  30.7328730  39.8552059   7.2929358  29.4989717
  40.2131630   7.7783430  30.0003104  46.3169101  14.4250334  28.5754902
  45.8896709  14.3376683  27.8203002  45.6795154  14.5328109  29.1609746
  46.1598708  14.4282994  28.5500344  40.0076263   4.7454665  32.2425460
  40.6369381   5.2814965  31.9646530  40.1762126   4.6532023  33.0939026
  40.1254058   4.8116027  32.3273988  39.8090178   9.5325859  34.5151872
  40.6363607   9.2611008  34.5710486  39.8298024  10.3286701  34.8715690
  39.9343028   9.6105613  34.5767055  44.6466358  23.2680996  30.6494344
  45.4358736  22.9170061  30.7696425  44.8209955  24.0817385  30.3870977
  44.7886639  23.3366853  30.6282211  34.3859668  16.6789722  27.7022132
  33.5447675  16.5793596  27.9101026  34.5949676  17.4485202  28.0536453
  34.2924361  16.7781765  27.7849447  31.8635235  14.3009259  25.5306883
  31.4691933  14.3752271  24.7556993  31.3075352  14.6867205  26.0815245
  31.7238047  14.3691034  25.4974543  43.5000182   7.2790553  25.2110762
  43.7049775   7.2112861  26.0567759  43.1726606   8.0849374  25.1431939
  43.4815430   7.3876493  25.3270417  38.1976333  14.6071121  26.9519730
  37.8939470  14.0527109  27.5530138  37.4955754  14.7863331  26.4647764
  38.0492543  14.5515904  26.9689436  37.2542430  11.9171641  21.5164432
  37.5302164  11.1990554  21.1041999  37.8541099  12.5156561  21.3085538
  37.3835695  11.8992012  21.4245193  46.7533869   7.8322317  24.6913527
  46.1408183   8.3192719  25.0767259  46.8498044   7.1565808  25.2351179
  46.6771767   7.8040626  24.8292386  40.7552950   9.5885158  19.7911027
  41.2096697   9.7595719  20.5158871  41.2292996   8.9753269  19.3908802
  40.8921271   9.5236044  19.8384788  34.2768476  19.0733484  29.1213765
  33.6856409  19.7142982  29.0916780  35.0389499  19.4971102  29.0945065
  34.3016736  19.2309323  29.1128912  34.6729099  10.2335482  29.7881783
  35.1330580  10.3074411  30.5256907  34.7185205  11.0316736  29.4381604
  34.7479654  10.3629629  29.8454539  36.3212448  10.9002177  34.3553810
  35.9298013  10.2535524  34.7909588  36.4898311  11.4913612  34.9748065
  36.2883359  10.8916445  34.5116516  50.3958897  18.9039254  30.1191043
  50.4542021  19.3525903  30.8651020  49.7625365  19.3138067  29.6821123
  50.3110192  19.0312989  30.1643592  44.0357992  24.5242796  26.5545790
  43.8377681  25.0133610  25.8602001  43.4145703  24.7284037  27.1329923
  43.9145556  24.6259334  26.5369013  38.0965970  16.2927693  20.8956034
  38.8408015  16.6801969  21.1338984  38.2426667  15.4485118  21.0596522
  38.2276555  16.2258166  20.9550004  40.0145546   8.0877952  25.9287895
  39.1681591   8.2600759  25.8029245  40.0116678   7.2827295  26.2653724
  39.8892696   7.9938981  25.9599022  41.0843846  11.8653166  26.7949953
  40.6103801  11.3394928  27.3055264  41.4561982  11.3182639  26.2264815
  41.0693735  11.7069163  26.7865100  47.3480577  16.9255542  28.2056734
  47.1078800  16.0861957  28.2099160  47.8272584  17.0055708  28.9297507
  47.3832760  16.8136941  28.3131536  43.0127346  12.7589721  19.8575707
  42.4850365  12.8418465  19.1681416  43.4723054  13.5007592  19.8540352
  43.0029196  12.8810383  19.7550402  49.3485764  13.7056999  26.1585993
  49.1095534  13.6652833  25.3206778  49.5119665  14.5528151  26.2851714
  49.3376067  13.8249084  26.0539475  45.9531794  18.0906948  32.0891038
  46.6765993  17.6379475  31.9102058  45.6881756  18.3711614  31.3063366
  46.0213067  18.0657917  31.9469753  34.8218662  12.6867122  28.8243917
  34.1971733  12.6985514  28.2169870  34.4864257  13.1627297  29.4735157
  34.6804154  12.7585639  28.8300486  35.0060411  11.0292240  14.8816602
  34.6573215  11.6811965  15.3448152  34.5256857  11.0149353  14.1540473
  34.8830655  11.1235294  14.8427694  42.5664428  21.3293284  18.9885364
  43.2898627  21.7951397  18.8449937  42.1265019  21.3966894  18.2382961
  42.6080121  21.4077121  18.8570146  41.7350583  18.1890826  30.2386053
  41.1207577  17.6448877  30.5334688  42.2517868  17.6755063  29.7591869
  41.7206246  18.0327235  30.2110282  40.9746881  19.2595096  27.9730352
  40.5474489  18.6344815  27.5395787  40.9671825  18.9770018  28.7989359
  40.9106022  19.1247877  28.0310179  34.0909408  14.2960269  31.0418786
  34.2502894  13.5403594  31.4470508  33.9102301  14.8451209  31.6959523
  34.0874767  14.2654083  31.1981492  42.0329711   6.4621505  31.5969575
  41.5370272   6.6585179  30.9061142  42.7898773   6.8614173  31.4258377
  42.0716535   6.5499239  31.4689712  39.3032590  10.1363851  28.1872886
  39.3275078   9.6023963  27.4985666  39.5544064   9.6281160  28.8498476
  39.3442509   9.9824755  28.1837530  26.8140180  17.4195346  27.6216030
  26.7083629  17.3742190  26.7568114  26.0640400  17.7649127  27.9030315
  26.6875783  17.4636254  27.5353360  35.5833913   8.8634669  27.5678630
  35.6232284   9.3643876  28.2813337  34.7583577   8.9545063  27.2984553
  35.4673438   8.9516486  27.6329168  37.7663525  18.4295409  35.6698925
  36.9159156  18.5667123  35.8056570  37.9291653  17.6959187  36.1146626
  37.6647389  18.3409510  35.7554524  37.0048276  15.3795179  29.8652529
  36.1740206  15.5468997  29.6587777  36.9499793  15.0031130  30.6501414
  36.8737691  15.3484910  29.9501057  34.8132059   8.8704072  35.5008940
  35.4384763   8.3266205  35.7738372  34.3582539   8.3898990  34.9316730
  34.8380320   8.7193553  35.4570534  35.3784320  13.6550771  20.3942647
  35.5187281  14.1523235  21.0971288  35.8766853  12.9537065  20.5356860
  35.4725401  13.6252749  20.5194226  35.4084542  14.5217882  17.7235224
  36.0429622  15.1178307  17.6584685  35.4910153  14.2221339  18.5381094
  35.5141093  14.5658790  17.8338310  48.3867108  17.0533359  30.5921588
  48.9784948  17.6930610  30.6239786  48.8226102  16.3556396  30.8813655
  48.5385539  17.0451709  30.6402420  36.9863525  10.4531857  17.6980666
  37.3079366   9.9734940  17.0439928  37.2490469  11.2631503  17.5071477
  37.0729550  10.5021755  17.5736158  42.3822680   9.8404051  30.0604145
  42.8077752   9.3876577  29.4487671  41.7679673   9.2864122  30.3368932
  42.3551325   9.6918027  30.0109170  31.9137530  16.7185722  20.9924770
  32.4229759  17.3150230  21.3736075  32.3871802  16.4511696  20.3101189
  32.0580906  16.7671538  20.9479292  42.8268278  25.3913989  19.1483425
  42.1097588  25.2174851  18.6830663  43.4775016  25.1566561  18.6158911
  42.8170129  25.3309782  19.0012643  40.8216903   6.3119151  23.4694722
  40.1785221   6.1616797  24.0379860  40.4816310   6.0661496  22.7043826
  40.6761980   6.2531273  23.4397737  45.4116249  14.2678578  22.8924730
  44.7407439  14.8108280  22.7637796  46.1056000  14.7373433  22.6506425
  45.4145117  14.4176849  22.8380258  45.5744377  10.7234461  25.8015104
  45.9271987  10.2964184  26.4760902  44.7159178  10.6385305  25.9316180
  45.4993821  10.6479202  25.9210114  34.2728062  13.3541981  23.8597950
  33.5540051  13.7706114  24.1270814  34.6440424  13.9196220  23.3089588
  34.2219994  13.4991262  23.8180757  43.5727643  13.9869830  29.7499946
  43.5525570  13.8053125  30.6034725  43.6206843  14.8581848  29.7259529
  43.5762284  14.0886368  29.8723240  41.4746734  25.7865833  26.3297190
  41.0763017  25.8968103  25.5618010  40.8597954  25.9947899  26.9123750
  41.3245623  25.8339401  26.3028489  40.0474636  12.3939981  19.1971330
  39.4539475  12.7156977  18.6455897  40.0849914  11.5481076  18.9892436
  39.9649025  12.3164309  19.0854101  47.0068437   5.8452873  26.7299416
  46.4999302   5.1382013  26.6620594  47.8035871   5.5146062  26.8600493
  47.0495676   5.6926024  26.7398411  42.9232453  12.3519485  22.6273080
  42.6946146  12.3752187  21.7851438  43.1830529  11.5276952  22.7468090
  42.9278641  12.2335565  22.5198277  37.2051681  14.2053958  32.2298180
  36.6930584  13.5975141  32.5883211  37.0331177  14.9210551  32.6972156
  37.1041318  14.2217258  32.3514404  32.0517396  12.6491534  34.8800542
  31.8819986  13.3092909  34.3348748  31.6083346  12.8598095  35.6013031
  31.9616729  12.7777516  34.9062171  35.9777215  10.8896032  23.9227275
  36.4534582  11.2513111  23.2877457  35.4765815  11.5452499  24.2027418
  35.9742574  11.0390220  23.8704016  49.2088577  20.3617800  19.7140280
  49.5922183  21.1109156  19.9438377  48.4132690  20.6083619  19.4552270
  49.1482359  20.5087494  19.7097854  41.0820752  12.1278203  34.6700435
  41.6392182  11.8992013  34.0378901  40.7581817  12.8883869  34.3935648
  41.1167162  12.2062040  34.5356933  38.8003869  15.2145856  35.6352443
  39.5515196  15.5297533  35.9491997  38.9926445  15.0125027  34.8086364
  38.9395283  15.2313238  35.5595838  38.0203868  13.0337231  17.2900659
  38.4002833  13.0516861  16.5051774  37.2796464  13.4791220  17.1691507
  37.9672706  13.1019006  17.1564228  45.6489159  11.3419423  22.8776238
  45.6483385  11.1868079  23.7360514  45.4445339  12.1882410  22.8217624
  45.6188937  11.4440043  22.9964177  27.7106430  14.7659207  27.2935055
  27.5328191  14.3135816  28.0189970  27.4225452  15.5685368  27.4773532
  27.6419383  14.8181765  27.4278558  43.3730011  16.0216924  26.5312445
  43.8683676  15.3039919  26.4916465  42.5629787  15.7187722  26.4166932
  43.3273904  15.8714571  26.5086171  38.8188622  19.8714738  18.6809449
  38.0099945  19.5481411  18.6342759  39.3263531  19.1647960  18.6137698
  38.7738289  19.7196054  18.6639744  29.4478900  17.2986931  24.4056814
  28.5824419  17.2872621  24.2939585  29.5477716  17.1117154  25.2527953
  29.3353067  17.2692992  24.5145758  45.4381830  18.7720612  29.2189574
  45.8636901  18.2495034  28.6659999  45.0738750  19.3701449  28.6978197
  45.4468432  18.7830839  29.0598583  42.0260429  22.4854876  25.5490731
  42.4971607  23.1995139  25.7180716  42.3620608  21.8853626  26.0850601
  42.1455544  22.5026340  25.6523107  38.9429924   7.2582347  32.5048826
  39.0757830   6.4613340  32.8329802  39.3275077   7.7848750  33.0847102
  39.0186253   7.2182263  32.6392329  42.0162279   4.1812673  29.1029919
  41.2108243   4.0710403  29.4197758  41.8869015   4.2825129  28.2459785
  41.8782412   4.1796343  29.0237960  45.4728240  10.3458165  29.6969616
  44.8891229  10.8467371  29.2847183  45.7932534   9.8387721  29.0633939
  45.4341415  10.3450000  29.5428123  38.0123039   9.2598760  19.9728291
  38.8338733   9.4297073  19.7309986  37.5492690   9.4146021  19.2494588
  38.0654201   9.3080493  19.8299935  36.6018371   7.2541522  30.7526720
  37.1462784   6.9132649  31.3431061  36.6555307   8.1126983  30.8948004
  36.6907490   7.3296781  30.8608593  32.4148930  21.0157938  27.6265528
  33.0193787  20.9753772  26.9979348  32.2076242  21.8629090  27.6569583
  32.4737827  21.1345940  27.5381644  42.2292702  23.2823883  28.8427765
  43.0491076  23.1386849  29.1044060  41.9486780  23.9070082  29.3844203
  42.3089445  23.3534235  28.9615704  27.6500212  19.9992555  27.4964451
  27.5524490  19.1888827  27.8054507  28.4329082  19.9784349  27.1110719
  27.7516349  19.8759646  27.4851314  58.7006352  30.9388735  21.8070641
  58.6700357  31.7933371  21.9788911  59.2987701  30.6384027  22.3656785
  58.7843510  31.0205231  21.9145444  51.9006037  30.0264386  26.5623572
  51.0443933  30.1872884  26.6132689  51.9473691  29.1556450  26.5828633
  51.7805149  29.9215188  26.5729638  51.7372137  39.9852473  17.7546350
  51.4023505  40.6629395  17.3190573  52.2499007  39.5957784  17.1663222
  51.7637718  40.0277051  17.6033142  54.7457858  32.0856430  29.2055223
  55.2913818  32.7641516  29.2649193  54.6874734  31.9443891  28.3456805
  54.8173772  32.1648431  29.0867284  56.5222927  33.5141037  20.0788951
  56.4062453  34.2648723  20.5081089  57.3178813  33.2564990  20.3285038
  56.6227516  33.5875884  20.1793043  41.0596977  35.5965782  24.2175910
  40.8247162  34.7633435  24.1108178  41.1982618  35.8770448  23.4037110
  41.0452640  35.5149286  24.0818265  43.3587065  27.7651513  27.1160217
  42.7392096  27.1744160  26.9470232  43.2570928  28.3562948  26.4824540
  43.2524740  27.7655595  26.9965207  48.4053252  37.5035060  21.3658294
  48.7269093  38.0440267  20.7619602  49.0525349  36.9331831  21.4980583
  48.5479307  37.4994235  21.2965329  50.4554960  29.5051055  21.4492680
  51.1535125  29.6839182  21.9414144  50.7707293  28.9821394  20.8263070
  50.6050298  29.4544827  21.4294690  50.6442896  35.8921500  21.4372472
  51.0836531  35.2838600  21.8827245  50.4947559  35.5128873  20.6657937
  50.6864361  35.7459971  21.3891639  48.6281824  24.8743451  25.5313955
  48.2985154  25.3254595  24.8617654  47.9526826  24.7959615  26.0786961
  48.4792260  24.9294587  25.5137178  54.2452232  34.2448681  18.3903241
  54.1603527  35.1009648  18.5352810  54.7336616  33.9693005  19.0585400
  54.3041130  34.3306002  18.5105323  55.8358232  20.8628974  23.7763566
  55.5211673  21.5532453  24.2083988  55.3185173  20.8073757  23.0749066
  55.7122702  20.9563863  23.7360515  55.1770666  30.8633475  19.8900976
  54.6482137  31.0793109  20.5498282  55.6995685  31.5569614  19.8101946
  55.1759119  30.9976612  19.9756575  60.6318718  36.4379780  25.2634021
  59.8016422  36.6490423  25.4267437  60.5827971  35.6116834  24.9876304
  60.5025454  36.3469386  25.2471386  47.0670273  34.7596692  18.6908444
  46.4827489  35.2646723  19.0974308  46.6640369  34.5339079  17.9505036
  46.9209577  34.8004940  18.6413469  51.5247488  31.0062344  17.1677365
  51.7643491  31.2140328  16.3552708  51.8463329  30.2019853  17.2766309
  51.6084646  30.9176445  17.0637918  46.8337778  22.9355740  21.0136903
  47.5883746  23.3034057  20.7753953  46.6565313  23.3095294  21.7816082
  46.9192256  23.0453928  21.0921791  60.1272677  29.0850180  29.0584442
  59.2901098  29.1552367  29.2932036  60.0960908  29.0874675  28.1858744
  59.9990959  29.0960407  28.9643990  45.1894843  25.3426059  17.7115016
  45.0070416  25.5597940  16.8856008  46.0520456  25.4565072  17.7673630
  45.2899432  25.3915957  17.5969503  50.8694562  22.3452470  20.7464039
  51.5980722  22.1668424  20.3002196  50.9589455  23.1870549  20.9571218
  50.9901224  22.4436348  20.7117557  54.8502863  33.2805857  24.6496333
  55.6060378  33.7137371  24.6885242  54.9565187  32.6310627  25.2230969
  54.9773033  33.2483341  24.7394359  57.8883034  37.1079134  25.3998736
  57.4518266  37.1115877  26.1557708  57.5545949  37.7884633  24.9678314
  57.7745654  37.2091590  25.4479569  57.8080517  24.1492962  27.6428164
  58.4506425  24.2191067  28.2290080  58.0603537  23.4822185  27.1407706
  57.9402649  24.0619311  27.6555444  44.7356870  28.6200231  16.2237489
  44.0215047  28.3338411  16.6359921  45.2200838  28.9596857  16.8643876
  44.7016233  28.6281881  16.3793124  61.0227380  33.8260054  24.2918374
  61.6843814  33.2650722  24.1914282  60.3818792  33.3312085  24.6171065
  61.0256247  33.6696463  24.3250714  51.9104188  37.1230185  16.5999297
  52.3255336  36.7915209  15.9083793  51.0796117  36.8899088  16.4719434
  51.8492196  37.0401441  16.4790144  57.3092211  34.8425436  24.0330362
  57.5447800  34.9870635  23.2057213  57.4581774  35.6067844  24.4261876
  57.3658014  34.9764491  23.9693966  59.1382667  33.6827102  21.8699966
  59.4690884  34.2154742  21.2640061  59.7115755  33.7365990  22.5261917
  59.2716346  33.7696671  21.8777748  54.3514556  31.5292005  22.5523546
  54.4461411  32.2681299  23.0063172  53.7273400  31.1009481  22.9858111
  54.2723587  31.5753326  22.6831694  54.6037578  33.3740745  15.7860498
  54.5217740  33.4442932  16.6515485  55.2417298  33.9370489  15.5944239
  54.6857415  33.4679716  15.8850448  53.0431799  25.2429933  25.3539117
  52.3388126  24.7539119  25.5123036  53.0916773  25.2552408  24.4827562
  52.9461851  25.1719581  25.2478457  46.9365461  30.6939245  25.7399919
  46.3615052  30.8531414  26.3763880  46.5601137  30.0574654  25.2768370
  46.7968273  30.6237058  25.7654478  60.2462019  28.9237599  23.3740128
  59.9898584  28.1117541  23.1838011  61.0891333  28.9315166  23.1470315
  60.3328044  28.8049597  23.3124945  54.4265111  22.8637223  28.1116282
  54.8075623  22.1815394  28.4984156  53.6228396  22.5746825  27.9291947
  54.3641573  22.7204272  28.1420338  51.7077688  33.3961199  18.7969105
  52.5218327  33.6876092  18.6851876  51.6436829  32.7421061  18.2227398
  51.8180427  33.3426394  18.6957942  47.5785596  36.8682717  23.9241417
  48.2159543  36.6294464  24.4693210  48.0040668  37.0719875  23.1894577
  47.7361762  36.8633727  23.8958574  48.2188411  32.0885006  18.2616306
  48.6033564  31.8692713  19.0132851  47.9700032  32.9147952  18.3917383
  48.2390484  32.1783153  18.3917383  58.9523599  35.8631644  29.2726975
  58.6469416  36.5959701  29.6340291  58.2329814  35.4569574  28.9919761
  58.8010941  35.9113377  29.2840112  64.6525391  32.5024645  28.5995319
  64.5849891  32.5220604  27.7297906  64.6381053  33.3454972  28.8250990
  64.6404147  32.6298379  28.5047796  45.9388849  23.7581943  23.5925087
  45.0711274  23.8304543  23.6582696  46.2264053  24.5604022  23.7813062
  45.8528597  23.8876090  23.6299853  55.0621737  23.9059802  31.9236409
  55.8075329  23.7169613  31.5099834  54.6459042  24.4318040  31.3650265
  55.1106712  23.9561948  31.7800982  48.5011654  40.3089882  20.3348677
  48.7909952  39.9178864  19.6107903  49.2315135  40.4906587  20.7753952
  48.6518538  40.2783696  20.2931484  62.4384008  31.2769031  26.8741914
  62.9891930  30.6437100  27.1139006  62.4228124  31.8084424  27.5657418
  62.5169205  31.2617979  27.0120772  56.1412414  29.5165365  25.9846510
  55.7977180  28.7955700  26.3353759  56.2405457  29.3079216  25.1424868
  56.1054457  29.3789568  25.9118190  48.6085525  43.6586655  22.1839519
  49.2609583  43.1263097  22.4130545  47.9111134  43.3055307  22.5707393
  48.6016243  43.5276178  22.2751686  45.5566790  36.0125832  21.5906893
  46.3112758  36.3938871  21.8042356  44.9637403  36.4636976  22.0453590
  45.5803504  36.1354660  21.6889771  56.6025444  35.9791069  21.5270498
  57.1683476  36.6384279  21.4429041  55.9553347  36.3240767  21.9986900
  56.5904200  36.1273010  21.5843254  43.8656201  27.2340202  21.0341963
  43.5780996  26.8641473  20.2973910  44.5526669  27.7035058  20.7725668
  43.9245098  27.2487172  20.8857039  53.0732022  38.9229853  20.9507577
  52.8318698  38.1897714  20.5434642  53.2533355  39.4716710  20.2973910
  53.0639646  38.8952244  20.7937800  48.3031342  34.2138413  22.3628499
  48.1074125  34.8213147  21.7688802  48.5265688  33.5206357  21.8820173
  48.3065983  34.2015938  22.2044580  46.7009872  31.0993151  22.4809368
  47.4232524  31.2634309  22.0213174  46.2217865  31.8202815  22.3748708
  46.7373603  31.2291380  22.3974982  54.6603380  27.4356949  27.8606053
  53.8214480  27.4618228  27.6244316  54.7307747  28.0827685  28.4411399
  54.5471773  27.5353075  27.9115170  53.1072658  24.3342326  22.5933669
  53.8099011  24.1350075  22.1153627  52.8416847  23.5618269  22.9002512
  53.1719290  24.1905292  22.5679110  58.5360904  32.6424936  25.1467294
  58.4494878  32.7980362  26.0002073  58.0811384  33.2863012  24.7726700
  58.4564160  32.7600691  25.2174401  41.4384395  28.0121415  21.8827244
  41.5400532  28.8147576  22.2108220  42.2340282  27.8108751  21.5850325
  41.5712301  28.1007314  21.8862599  52.4086720  29.9635683  23.7692854
  52.1621434  29.8831434  24.6029643  52.7371843  29.1789151  23.5755381
  52.4207963  29.8361949  23.8640377  56.3034769  36.6719043  27.5579635
  56.1649128  37.3700088  28.0628378  55.5234766  36.5167699  27.2015817
  56.1677995  36.7519209  27.5805909  50.5403664  31.8982570  30.9640969
  49.7926978  32.0913585  30.5589247  50.6945190  31.0727790  30.7265090
  50.4526092  31.8047682  30.8686375  57.7988141  36.0297296  18.3196134
  57.4194950  35.2434434  18.3125424  57.1354387  36.5784153  18.1767779
  57.6446616  35.9942120  18.2976931  55.2532767  18.9722996  25.7230215
  55.3716335  19.4299459  24.9897518  55.0794943  18.1668257  25.4366433
  55.2451938  18.9216768  25.5731149  50.6235050  39.5810815  22.1584961
  51.3884941  39.3120459  21.8367625  50.5213140  39.0960826  22.8755023
  50.7216545  39.4700380  22.2164788  48.6587819  27.7835225  28.6978196
  47.8683894  27.6026685  29.0195532  49.0548442  27.0062177  28.6808491
  48.6004696  27.6422686  28.7430745  53.1453710  36.6122999  14.1384910
  53.9126695  36.6723124  13.7290762  52.6985019  36.0403441  13.6541229
  53.1927137  36.5359575  14.0062620  54.0431506  35.4177655  26.4237642
  53.3676507  35.1862887  26.9251029  54.0523882  34.8098838  25.7979747
  53.9450010  35.2936580  26.4053795  56.0448240  38.2742787  18.6547820
  56.1268078  39.0809774  18.3309271  56.5297982  38.2938747  19.3788594
  56.1285398  38.3963450  18.7134719  45.1427188  33.4479675  22.7545871
  45.2991808  33.3826478  23.6101863  45.4827782  34.2228227  22.5424550
  45.2160423  33.5528873  22.8500465  51.6806333  32.8237558  21.6239234
  52.2221879  32.3207939  22.0877855  51.9952892  32.7702753  20.8128719
  51.8070730  32.7416979  21.5723046  49.8492783  38.2154910  18.9079262
  49.9185603  37.3569448  19.0472262  50.6281238  38.4326791  18.5798287
  49.9745633  38.1207774  18.8796419  54.2400270  40.6392611  23.1215755
  53.8480062  40.3359326  22.4038621  54.3953343  41.4761701  22.9320709
  54.2053860  40.7176448  22.9872252  54.9934690  29.3262928  32.6144842
  54.1811372  29.0188818  32.6958014  55.4524625  28.8461928  33.1787554
  54.9415075  29.2099420  32.7099436  54.4039945  37.2042600  23.0621786
  54.0454600  37.3757243  23.8385818  53.9178656  37.6655806  22.5049784
  54.2798642  37.2981571  23.0947055  52.2210331  20.8273798  26.6648877
  51.3503889  20.8012520  26.6182187  52.4750672  20.6550991  25.8474723
  52.1303891  20.7983942  26.5369014  49.1928311  32.8841765  15.6022020
  49.4820835  33.6606648  15.8765595  49.2800109  32.3730497  16.3036520
  49.2482567  32.9233684  15.7464518  49.2459472  22.8380027  28.1222348
  48.7297960  22.1460218  28.2473927  48.6853400  23.5050804  28.0684946
  49.0865985  22.8343285  28.1328414  51.3151705  23.3772987  29.9515200
  50.9283458  23.4022018  30.7328730  50.8284642  22.8114666  29.4989717
  51.1864214  23.2968738  30.0003104  57.2901685  29.9435642  28.5754902
  56.8629293  29.8561990  27.8203002  56.6527738  30.0513417  29.1609746
  57.1331292  29.9468302  28.5500344  50.9808847  20.2639972  32.2425460
  51.6101965  20.8000272  31.9646530  51.1494710  20.1717331  33.0939026
  51.0986641  20.3301335  32.3273988  42.8367818  29.8194567  25.5306883
  42.4424516  29.8937579  24.7556993  42.2807935  30.2052513  26.0815245
  42.6970631  29.8876341  25.4974543  54.4732765  22.7975861  25.2110762
  54.6782359  22.7298169  26.0567759  54.1459189  23.6034682  25.1431939
  54.4548013  22.9061801  25.3270417  49.1708916  30.1256429  26.9519730
  48.8672054  29.5712417  27.5530138  48.4688337  30.3048639  26.4647764
  49.0225126  30.0701211  26.9689436  48.2275013  27.4356949  21.5164432
  48.5034748  26.7175861  21.1041999  48.8273683  28.0341869  21.3085538
  48.3568278  27.4177320  21.4245193  57.7266453  23.3507625  24.6913527
  57.1140767  23.8378027  25.0767259  57.8230628  22.6751116  25.2351179
  57.6504351  23.3225934  24.8292386  51.7285534  25.1070466  19.7911027
  52.1829281  25.2781027  20.5158871  52.2025580  24.4938577  19.3908802
  51.8653854  25.0421352  19.8384788  45.6461682  25.7520790  29.7881783
  46.1063164  25.8259719  30.5256907  45.6917789  26.5502044  29.4381604
  45.7212238  25.8814937  29.8454539  61.3691481  34.4224562  30.1191043
  61.4274605  34.8711211  30.8651020  60.7357949  34.8323375  29.6821123
  61.2842776  34.5498297  30.1643592  55.0090576  40.0428104  26.5545790
  54.8110264  40.5318918  25.8602001  54.3878287  40.2469345  27.1329923
  54.8878140  40.1444642  26.5369013  49.0698554  31.8113001  20.8956034
  49.8140599  32.1987277  21.1338984  49.2159250  30.9670426  21.0596522
  49.2009139  31.7443473  20.9550004  50.9878129  23.6063260  25.9287895
  50.1414175  23.7786067  25.8029245  50.9849262  22.8012603  26.2653724
  50.8625279  23.5124288  25.9599022  52.0576430  27.3838474  26.7949953
  51.5836384  26.8580236  27.3055264  52.4294566  26.8367947  26.2264815
  52.0426319  27.2254471  26.7865100  58.3213160  32.4440850  28.2056734
  58.0811383  31.6047265  28.2099160  58.8005168  32.5241016  28.9297507
  58.3565344  32.3322249  28.3131536  53.9859929  28.2775029  19.8575707
  53.4582948  28.3603773  19.1681416  54.4455638  29.0192900  19.8540352
  53.9761780  28.3995691  19.7550402  60.3218347  29.2242307  26.1585993
  60.0828117  29.1838141  25.3206778  60.4852249  30.0713459  26.2851714
  60.3108651  29.3434392  26.0539475  56.9264378  33.6092256  32.0891038
  57.6498576  33.1564783  31.9102058  56.6614340  33.8896922  31.3063366
  56.9945651  33.5843225  31.9469753  45.7951246  28.2052430  28.8243917
  45.1704316  28.2170822  28.2169870  45.4596841  28.6812605  29.4735157
  45.6536738  28.2770947  28.8300486  45.9792995  26.5477548  14.8816602
  45.6305799  27.1997273  15.3448152  45.4989440  26.5334661  14.1540473
  45.8563239  26.6420602  14.8427694  53.5397012  36.8478592  18.9885364
  54.2631211  37.3136705  18.8449937  53.0997603  36.9152202  18.2382961
  53.5812704  36.9262429  18.8570146  53.0062294  21.9806813  31.5969575
  52.5102856  22.1770487  30.9061142  53.7631356  22.3799481  31.4258377
  53.0449119  22.0684547  31.4689712  50.2765174  25.6549159  28.1872886
  50.3007661  25.1209271  27.4985666  50.5276648  25.1466468  28.8498476
  50.3175093  25.5010063  28.1837530  46.5566496  24.3819977  27.5678630
  46.5964868  24.8829184  28.2813337  45.7316161  24.4730371  27.2984553
  46.4406022  24.4701793  27.6329168  46.3516903  29.1736079  20.3942647
  46.4919864  29.6708543  21.0971288  46.8499436  28.4722373  20.5356860
  46.4457984  29.1438057  20.5194226  46.3817126  30.0403190  17.7235224
  47.0162205  30.6363615  17.6584685  46.4642737  29.7406647  18.5381094
  46.4873677  30.0844098  17.8338310  59.3599692  32.5718667  30.5921588
  59.9517532  33.2115918  30.6239786  59.7958686  31.8741704  30.8813655
  59.5118123  32.5637017  30.6402420  47.9596109  25.9717165  17.6980666
  48.2811950  25.4920247  17.0439928  48.2223052  26.7816811  17.5071477
  48.0462134  26.0207063  17.5736158  53.3555264  25.3589359  30.0604145
  53.7810335  24.9061885  29.4487671  52.7412257  24.8049430  30.3368932
  53.3283909  25.2103335  30.0109170  42.8870114  32.2371030  20.9924770
  43.3962343  32.8335538  21.3736075  43.3604386  31.9697004  20.3101189
  43.0313489  32.2856846  20.9479292  51.7949486  21.8304459  23.4694722
  51.1517804  21.6802105  24.0379860  51.4548893  21.5846804  22.7043826
  51.6494564  21.7716581  23.4397737  56.3848833  29.7863886  22.8924730
  55.7140023  30.3293588  22.7637796  57.0788583  30.2558741  22.6506425
  56.3877700  29.9362157  22.8380258  56.5476960  26.2419769  25.8015104
  56.9004570  25.8149492  26.4760902  55.6891762  26.1570613  25.9316180
  56.4726405  26.1664510  25.9210114  45.2460645  28.8727289  23.8597950
  44.5272634  29.2891421  24.1270814  45.6173008  29.4381528  23.3089588
  45.1952577  29.0176570  23.8180757  54.5460226  29.5055138  29.7499946
  54.5258153  29.3238433  30.6034725  54.5939427  30.3767156  29.7259529
  54.5494867  29.6071676  29.8723240  51.0207220  27.9125289  19.1971330
  50.4272059  28.2342285  18.6455897  51.0582497  27.0666384  18.9892436
  50.9381609  27.8349617  19.0854101  57.9801020  21.3638181  26.7299416
  57.4731885  20.6567321  26.6620594  58.7768454  21.0331370  26.8600493
  58.0228260  21.2111332  26.7398411  53.8965036  27.8704793  22.6273080
  53.6678729  27.8937495  21.7851438  54.1563113  27.0462260  22.7468090
  53.9011224  27.7520873  22.5198277  46.9509799  26.4081340  23.9227275
  47.4267165  26.7698419  23.2877457  46.4498398  27.0637807  24.2027418
  46.9475158  26.5575528  23.8704016  60.1821160  35.8803108  19.7140280
  60.5654766  36.6294464  19.9438377  59.3865274  36.1268927  19.4552270
  60.1214943  36.0272802  19.7097854  48.9936452  28.5522539  17.2900659
  49.3735417  28.5702169  16.5051774  48.2529048  28.9976528  17.1691507
  48.9405290  28.6204314  17.1564228  56.6221742  26.8604731  22.8776238
  56.6215969  26.7053387  23.7360514  56.4177923  27.7067718  22.8217624
  56.5921520  26.9625351  22.9964177  54.3462595  31.5402232  26.5312445
  54.8416260  30.8225227  26.4916465  53.5362370  31.2373030  26.4166932
  54.3006488  31.3899879  26.5086171  49.7921206  35.3900046  18.6809449
  48.9832529  35.0666719  18.6342759  50.2996115  34.6833268  18.6137698
  49.7470873  35.2381362  18.6639744  56.4114413  34.2905920  29.2189574
  56.8369485  33.7680342  28.6659999  56.0471333  34.8886757  28.6978197
  56.4201016  34.3016147  29.0598583  52.9993013  38.0040184  25.5490731
  53.4704191  38.7180447  25.7180716  53.3353191  37.4038934  26.0850601
  53.1188128  38.0211648  25.6523107  49.9162508  22.7767655  32.5048826
  50.0490413  21.9798648  32.8329802  50.3007661  23.3034058  33.0847102
  49.9918837  22.7367571  32.6392329  52.9894863  19.6997981  29.1029919
  52.1840827  19.5895710  29.4197758  52.8601598  19.8010437  28.2459785
  52.8514996  19.6981651  29.0237960  56.4460824  25.8643473  29.6969616
  55.8623812  26.3652679  29.2847183  56.7665118  25.3573029  29.0633939
  56.4073999  25.8635308  29.5428123  48.9855623  24.7784068  19.9728291
  49.8071317  24.9482380  19.7309986  48.5225274  24.9331329  19.2494588
  49.0386785  24.8265801  19.8299935  47.5750955  22.7726830  30.7526720
  48.1195368  22.4317957  31.3431061  47.6287890  23.6312291  30.8948004
  47.6640074  22.8482089  30.8608593  69.6738936  46.4574043  21.8070641
  69.6432940  47.3118679  21.9788911  70.2720285  46.1569335  22.3656785
  69.7576094  46.5390539  21.9145444  57.2579760  55.0812412  22.3260803
  56.5062660  54.7027950  22.0976848  57.7065772  55.1130845  21.5779614
  57.2129427  55.0298019  22.1818306  66.1832337  51.8136219  36.1684028
  66.8899105  51.3188250  36.2970962  66.3720273  52.2545301  35.4386686
  66.3160243  51.8054570  36.0793073  62.7104720  55.5037781  17.7546350
  62.3756089  56.1814703  17.3190573  63.2231591  55.1143092  17.1663222
  62.7370301  55.5462359  17.6033142  62.2509012  57.4552050  23.6957462
  62.6348391  58.0238948  23.1562237  62.1868153  56.7301560  23.2163278
  62.2982439  57.4327513  23.5451325  65.7190442  47.6041738  29.2055223
  66.2646402  48.2826824  29.2649193  65.6607318  47.4629198  28.3456805
  65.7906356  47.6833739  29.0867284  58.8364517  55.0930804  24.5923576
  58.9374880  54.2831158  24.9020704  58.2406262  54.9987750  23.9623254
  58.7637055  54.9595832  24.5449814  67.4955510  49.0326345  20.0788951
  67.3795036  49.7834031  20.5081089  68.2911397  48.7750298  20.3285038
  67.5960100  49.1061192  20.1793043  58.6765256  60.0108393  25.9938432
  59.3202712  60.4521557  26.3834590  59.0021512  59.2061819  25.9068691
  58.8197085  59.9573588  26.0383909  52.0329561  51.1151090  24.2175910
  51.7979745  50.2818743  24.1108178  52.1715202  51.3955756  23.4037110
  52.0185223  51.0334594  24.0818265  54.3319648  43.2836821  27.1160217
  53.7124680  42.6929468  26.9470232  54.2303512  43.8748256  26.4824540
  54.2257324  43.2840903  26.9965207  59.3785836  53.0220368  21.3658294
  59.7001677  53.5625575  20.7619602  60.0257932  52.4517139  21.4980583
  59.5211891  53.0179543  21.2965329  61.4287544  45.0236363  21.4492680
  62.1267709  45.2024490  21.9414144  61.7439876  44.5006702  20.8263070
  61.5782881  44.9730135  21.4294690  61.6175479  51.4106808  21.4372472
  62.0569115  50.8023908  21.8827245  61.4680142  51.0314181  20.6657937
  61.6596945  51.2645279  21.3891639  61.6233214  52.8505725  28.2898190
  61.9056457  52.0557131  28.0684946  62.3519374  53.3286313  28.3103251
  61.7722777  52.8040322  28.2601205  59.6014408  40.3928759  25.5313955
  59.2717738  40.8439903  24.8617654  58.9259409  40.3144923  26.0786961
  59.4524844  40.4479895  25.5137178  65.2184816  49.7633989  18.3903241
  65.1336111  50.6194956  18.5352810  65.7069199  49.4878313  19.0585400
  65.2773713  49.8491310  18.5105323  66.8090815  36.3814282  23.7763566
  66.4944256  37.0717761  24.2083988  66.2917757  36.3259064  23.0749066
  66.6855286  36.4749171  23.7360515  66.1503249  46.3818783  19.8900976
  65.6214721  46.5978417  20.5498282  66.6728269  47.0754922  19.8101946
  66.1491702  46.5161920  19.9756575  71.6051302  51.9565088  25.2634021
  70.7749005  52.1675731  25.4267437  71.5560554  51.1302142  24.9876304
  71.4758037  51.8654694  25.2471386  58.0402857  50.2782000  18.6908444
  57.4560072  50.7832031  19.0974308  57.6372952  50.0524387  17.9505036
  57.8942161  50.3190248  18.6413469  59.6661040  54.7868942  28.0981930
  59.1487981  54.4276357  27.4943238  60.3635431  54.2631116  28.1087996
  59.6926621  54.6566630  28.0112189  63.3224632  55.2363756  34.0598103
  63.4107977  55.0489896  34.9076314  63.7514344  54.5901185  33.6602950
  63.3986734  55.1126764  34.1269855  60.8895091  54.5194916  33.0415765
  60.3265926  54.1067526  33.5655427  61.6516115  54.4447821  33.4608909
  60.9189540  54.4472316  33.1808766  62.4980071  46.5247652  17.1677365
  62.7376075  46.7325636  16.3552708  62.8195912  45.7205161  17.2766309
  62.5817229  46.4361753  17.0637918  57.8070362  38.4541048  21.0136903
  58.5616330  38.8219365  20.7753953  57.6297896  38.8280602  21.7816082
  57.8924840  38.5639236  21.0921791  56.4491083  56.5092937  25.6452395
  57.1511662  55.9944926  25.7025152  56.3688566  56.8367088  26.4499271
  56.5414843  56.4807163  25.7725188  71.1005260  44.6035488  29.0584442
  70.2633681  44.6737675  29.2932036  71.0693491  44.6059983  28.1858744
  70.9723543  44.6145715  28.9643990  56.1627426  40.8611367  17.7115016
  55.9802999  41.0783248  16.8856008  57.0253039  40.9750379  17.7673630
  56.2632016  40.9101265  17.5969503  55.7741858  52.6999289  25.1538004
  56.6130758  52.9322222  25.2011765  55.8053627  51.8303600  25.0845039
  55.9023576  52.6056235  25.1502648  61.8427145  37.8637777  20.7464039
  62.5713306  37.6853732  20.3002196  61.9322038  38.7055857  20.9571218
  61.9633808  37.9621656  20.7117557  65.8235446  48.7991165  24.6496333
  66.5792961  49.2322679  24.6885242  65.9297771  48.1495935  25.2230969
  65.9505617  48.7668649  24.7394359  68.8615617  52.6264442  25.3998736
  68.4250849  52.6301184  26.1557708  68.5278533  53.3069941  24.9678314
  68.7478237  52.7276898  25.4479569  68.7813100  39.6678270  27.6428164
  69.4239009  39.7376374  28.2290080  69.0336121  39.0007493  27.1407706
  68.9135232  39.5804619  27.6555444  55.7089453  44.1385539  16.2237489
  54.9947630  43.8523719  16.6359921  56.1933422  44.4782165  16.8643876
  55.6748817  44.1467189  16.3793124  63.5915084  56.5782877  30.3708342
  62.7930330  56.3382377  30.6282211  64.0401096  56.6297270  31.1175390
  63.5389695  56.5505268  30.5193267  71.9959963  49.3445362  24.2918374
  72.6576398  48.7836030  24.1914282  71.3551375  48.8497393  24.6171065
  71.9988831  49.1881771  24.3250714  62.8836771  52.6415493  16.5999297
  63.2987920  52.3100517  15.9083793  62.0528701  52.4084396  16.4719434
  62.8224780  52.5586749  16.4790144  68.2824794  50.3610744  24.0330362
  68.5180383  50.5055943  23.2057213  68.4314358  51.1253152  24.4261876
  68.3390597  50.4949799  23.9693966  70.1115251  49.2012410  21.8699966
  70.4423468  49.7340050  21.2640061  70.6848339  49.2551298  22.5261917
  70.2448930  49.2881979  21.8777748  65.3247140  47.0477313  22.5523546
  65.4193994  47.7866607  23.0063172  64.7005984  46.6194788  22.9858111
  65.2456170  47.0938634  22.6831694  65.5770161  48.8926053  15.7860498
  65.4950324  48.9628240  16.6515485  66.2149882  49.4555797  15.5944239
  65.6589999  48.9865024  15.8850448  58.9363332  48.6586791  25.2535025
  58.6782577  47.8258526  25.2266324  58.9911815  48.8844404  24.4127525
  58.9063110  48.5684562  25.1255161  64.0164383  40.7615241  25.3539117
  63.3120709  40.2724427  25.5123036  64.0649357  40.7737716  24.4827562
  63.9194434  40.6904889  25.2478457  57.9098045  46.2124553  25.7399919
  57.3347636  46.3716722  26.3763880  57.5333721  45.5759962  25.2768370
  57.7700857  46.1422366  25.7654478  71.2194602  44.4422907  23.3740128
  70.9631167  43.6302849  23.1838011  72.0623916  44.4500474  23.1470315
  71.3060628  44.3234905  23.3124945  65.3997695  38.3822531  28.1116282
  65.7808207  37.7000702  28.4984156  64.5960979  38.0932133  27.9291947
  65.3374157  38.2389580  28.1420338  62.6810272  48.9146507  18.7969105
  63.4950910  49.2061400  18.6851876  62.6169413  48.2606369  18.2227398
  62.7913011  48.8611702  18.6957942  68.9019762  51.5972503  33.2098680
  68.6658399  50.7660568  33.0910741  69.5462991  51.5458110  33.7953525
  68.9614432  51.4670191  33.2784574  58.5518180  52.3868025  23.9241417
  59.1892127  52.1479772  24.4693210  58.9773251  52.5905183  23.1894577
  58.7094346  52.3819035  23.8958574  59.1920995  47.6070314  18.2616306
  59.5766148  47.3878021  19.0132851  58.9432615  48.4333260  18.3917383
  59.2123067  47.6968461  18.3917383  69.9256182  51.3816952  29.2726975
  69.6201999  52.1145009  29.6340291  69.2062398  50.9754881  28.9919761
  69.7743525  51.4298685  29.2840112  60.9339652  52.8640447  25.6035203
  61.0078660  52.7015619  26.4577053  61.7509158  53.0530637  25.3595685
  61.0656010  52.8677189  25.6933229  75.6257974  48.0209953  28.5995319
  75.5582475  48.0405912  27.7297906  75.6113637  48.8640280  28.8250990
  75.6136731  48.1483687  28.5047796  54.6945408  53.2098310  22.6329647
  53.8683526  53.4560047  22.5063925  54.7557400  53.1310391  23.4991705
  54.5819575  53.2343259  22.7418591  56.9121432  39.2767251  23.5925087
  56.0443858  39.3489850  23.6582696  57.1996637  40.0789330  23.7813062
  56.8261180  39.4061398  23.6299853  66.0354321  39.4245110  31.9236409
  66.7807913  39.2354921  31.5099834  65.6191626  39.9503348  31.3650265
  66.0839295  39.4747256  31.7800982  59.4744237  55.8275190  20.3348677
  59.7642536  55.4364172  19.6107903  60.2047718  56.0091895  20.7753952
  59.6251122  55.7969004  20.2931484  73.4116592  46.7954339  26.8741914
  73.9624513  46.1622408  27.1139006  73.3960707  47.3269732  27.5657418
  73.4901788  46.7803287  27.0120772  57.4150153  57.8042573  23.4008826
  57.1950448  57.5139927  24.1935493  57.1944675  57.1457528  22.8726739
  57.3497747  57.6642281  23.4397735  56.3267100  49.8915889  25.6664528
  56.0380349  49.2653360  26.2010255  57.1950448  49.8336177  25.7329208
  56.4127352  49.7903433  25.7555483  67.1144998  45.0350672  25.9846510
  66.7709764  44.3141008  26.3353759  67.2138041  44.8264524  25.1424868
  67.0787041  44.8974876  25.9118190  59.5818109  59.1771963  22.1839519
  60.2342167  58.6448405  22.4130545  58.8843717  58.8240615  22.5707393
  59.5748827  59.0461486  22.2751686  56.5299374  51.5311140  21.5906893
  57.2845342  51.9124179  21.8042356  55.9369986  51.9822284  22.0453590
  56.5536087  51.6539968  21.6889771  67.5758027  51.4976377  21.5270498
  68.1416060  52.1569586  21.4429041  66.9285931  51.8426075  21.9986900
  67.5636784  51.6458318  21.5843254  54.8388784  42.7525510  21.0341963
  54.5513580  42.3826781  20.2973910  55.5259252  43.2220366  20.7725668
  54.8977682  42.7672480  20.8857039  64.0464605  54.4415161  20.9507577
  63.8051281  53.7083021  20.5434642  64.2265938  54.9902018  20.2973910
  64.0372229  54.4137552  20.7937800  59.2763926  49.7323721  22.3628499
  59.0806708  50.3398455  21.7688802  59.4998271  49.0391665  21.8820173
  59.2798567  49.7201246  22.2044580  57.6742456  46.6178458  22.4809368
  58.3965108  46.7819617  22.0213174  57.1950449  47.3388123  22.3748708
  57.7106187  46.7476688  22.3974982  65.6335963  42.9542257  27.8606053
  64.7947064  42.9803536  27.6244316  65.7040331  43.6012993  28.4411399
  65.5204357  43.0538383  27.9115170  64.0805242  39.8527634  22.5933669
  64.7831595  39.6535383  22.1153627  63.8149430  39.0803577  22.9002512
  64.1451874  39.7090600  22.5679110  69.5093487  48.1610244  25.1467294
  69.4227462  48.3165670  26.0002073  69.0543967  48.8048320  24.7726700
  69.4296744  48.2785999  25.2174401  52.4116979  43.5306723  21.8827244
  52.5133115  44.3332884  22.2108220  53.2072866  43.3294059  21.5850325
  52.5444884  43.6192622  21.8862599  63.3819303  45.4820991  23.7692854
  63.1354018  45.4016742  24.6029643  63.7104426  44.6974459  23.5755381
  63.3940547  45.3547256  23.8640377  67.2767352  52.1904350  27.5579635
  67.1381711  52.8885396  28.0628378  66.4967350  52.0353007  27.2015817
  67.1410579  52.2704517  27.5805909  65.6145437  48.4900726  33.8102017
  65.6093476  47.6180542  33.8144443  66.3206431  48.6888895  33.3371473
  65.7190441  48.3904600  33.7409052  58.4144086  56.4080482  30.0476864
  58.5633649  55.8483397  29.3950268  59.1944088  56.4872483  30.4309383
  58.5518179  56.3366047  30.0073813  68.7720725  51.5482604  18.3196134
  68.3927534  50.7619742  18.3125424  68.1086970  52.0969461  18.1767779
  68.6179200  51.5127428  18.2976931  60.9397386  56.5795124  31.3261355
  60.8641057  55.9103935  31.8812143  60.8687245  57.2812913  31.8402021
  60.9177993  56.5840032  31.4838203  66.2265351  34.4908304  25.7230215
  66.3448919  34.9484767  24.9897518  66.0527527  33.6853565  25.4366433
  66.2184522  34.4402076  25.5731149  61.5967633  55.0996123  22.1584961
  62.3617524  54.8305767  21.8367625  61.4945723  54.6146134  22.8755023
  61.6949129  54.9885688  22.2164788  64.1186294  52.1308307  14.1384910
  64.8859279  52.1908432  13.7290762  63.6717603  51.5588748  13.6541229
  64.1659721  52.0544883  14.0062620  65.0164089  50.9362963  26.4237642
  64.3409091  50.7048195  26.9251029  65.0256465  50.3284146  25.7979747
  64.9182594  50.8121888  26.4053795  67.0180824  53.7928095  18.6547820
  67.1000661  54.5995081  18.3309271  67.5030566  53.8124054  19.3788594
  67.1017982  53.9148758  18.7134719  60.3289021  59.9863444  29.7839356
  60.8184951  59.2874233  29.6015020  59.7573253  59.6887314  30.3715413
  60.3173550  59.8389668  29.8440396  56.1159772  48.9664983  22.7545871
  56.2724391  48.9011785  23.6101863  56.4560365  49.7413535  22.5424550
  56.1893007  49.0714181  22.8500465  62.6538917  48.3422866  21.6239234
  63.1954462  47.8393247  22.0877855  62.9685476  48.2888061  20.8128719
  62.7803314  48.2602287  21.5723046  66.5256024  52.5525514  38.7366146
  67.3390889  52.2810662  38.8971279  66.3650990  52.2533054  37.9326342
  66.6225973  52.4680440  38.6411552  60.8225366  53.7340218  18.9079262
  60.8918187  52.8754756  19.0472262  61.6013822  53.9512099  18.5798287
  60.9478216  53.6393082  18.8796419  65.2132854  56.1577919  23.1215755
  64.8212646  55.8544634  22.4038621  65.3685926  56.9947009  22.9320709
  65.1786444  56.2361756  22.9872252  52.6894034  46.1499933  23.0706638
  53.0692998  46.5684478  22.4066905  52.1149398  46.7313389  23.3775481
  52.6605358  46.2977792  23.0183379  65.3772529  52.7227908  23.0621786
  65.0187183  52.8942551  23.8385818  64.8911239  53.1841114  22.5049784
  65.2531226  52.8166879  23.0947055  63.1942915  36.3459106  26.6648877
  62.3236473  36.3197827  26.6182187  63.4483256  36.1736299  25.8474723
  63.1036475  36.3169250  26.5369014  60.1660894  48.4027073  15.6022020
  60.4553419  49.1791956  15.8765595  60.2532693  47.8915805  16.3036520
  60.2215150  48.4418992  15.7464518  60.2192055  38.3565335  28.1222348
  59.7030544  37.6645526  28.2473927  59.6585984  39.0236112  28.0684946
  60.0598568  38.3528592  28.1328414  62.2884289  38.8958295  29.9515200
  61.9016042  38.9207326  30.7328730  61.8017226  38.3299974  29.4989717
  62.1596798  38.8154046  30.0003104  66.5377268  53.6131804  34.0088987
  67.1756989  53.1191999  33.6751443  65.8951360  53.5409204  33.4241214
  66.5371495  53.5290812  33.8731342  68.2634268  45.4620950  28.5754902
  67.8361876  45.3747298  27.8203002  67.6260321  45.5698725  29.1609746
  68.1063875  45.4653610  28.5500344  61.9541430  35.7825280  32.2425460
  62.5834548  36.3185580  31.9646530  62.1227293  35.6902639  33.0939026
  62.0719225  35.8486643  32.3273988  66.5931525  54.3051612  30.6494344
  67.3823903  53.9540677  30.7696425  66.7675123  55.1188001  30.3870977
  66.7351806  54.3737469  30.6282211  53.8100402  45.3379875  25.5306883
  53.4157100  45.4122887  24.7556993  53.2540519  45.7237821  26.0815245
  53.6703214  45.4061649  25.4974543  65.4465349  38.3161169  25.2110762
  65.6514942  38.2483477  26.0567759  65.1191773  39.1219990  25.1431939
  65.4280597  38.4247109  25.3270417  59.2007597  42.9542257  21.5164432
  59.4767331  42.2361169  21.1041999  59.8006266  43.5527177  21.3085538
  59.3300862  42.9362628  21.4245193  68.6999037  38.8692933  24.6913527
  68.0873350  39.3563335  25.0767259  68.7963211  38.1936424  25.2351179
  68.6236934  38.8411242  24.8292386  62.7018118  40.6255774  19.7911027
  63.1561864  40.7966335  20.5158871  63.1758163  40.0123885  19.3908802
  62.8386438  40.5606659  19.8384788  72.3424065  49.9409870  30.1191043
  72.4007188  50.3896519  30.8651020  71.7090532  50.3508683  29.6821123
  72.2575360  50.0683605  30.1643592  65.9823159  55.5613412  26.5545790
  65.7842848  56.0504226  25.8602001  65.3610870  55.7654653  27.1329923
  65.8610724  55.6629950  26.5369013  60.0431138  47.3298309  20.8956034
  60.7873182  47.7172585  21.1338984  60.1891834  46.4855734  21.0596522
  60.1741723  47.2628781  20.9550004  61.9610713  39.1248567  25.9287895
  61.1146758  39.2971375  25.8029245  61.9581845  38.3197911  26.2653724
  61.8357863  39.0309596  25.9599022  63.0309013  42.9023782  26.7949953
  62.5568968  42.3765544  27.3055264  63.4027149  42.3553255  26.2264815
  63.0158902  42.7439778  26.7865100  69.2945744  47.9626158  28.2056734
  69.0543967  47.1232573  28.2099160  69.7737751  48.0426324  28.9297507
  69.3297928  47.8507557  28.3131536  64.9592513  43.7960336  19.8575707
  64.4315532  43.8789080  19.1681416  65.4188221  44.5378208  19.8540352
  64.9494364  43.9180999  19.7550402  71.2950931  44.7427615  26.1585993
  71.0560701  44.7023449  25.3206778  71.4584832  45.5898767  26.2851714
  71.2841234  44.8619700  26.0539475  67.8996961  49.1277564  32.0891038
  68.6231160  48.6750090  31.9102058  67.6346923  49.4082230  31.3063366
  67.9678234  49.1028533  31.9469753  56.9525578  42.0662856  14.8816602
  56.6038383  42.7182581  15.3448152  56.4722024  42.0519969  14.1540473
  56.8295822  42.1605910  14.8427694  64.5129596  52.3663900  18.9885364
  65.2363794  52.8322013  18.8449937  64.0730187  52.4337510  18.2382961
  64.5545288  52.4447737  18.8570146  63.6815751  49.2261442  30.2386053
  63.0672744  48.6819493  30.5334688  64.1983036  48.7125679  29.7591869
  63.6671413  49.0697851  30.2110282  62.9212048  50.2965712  27.9730352
  62.4939656  49.6715431  27.5395787  62.9136992  50.0140634  28.7989359
  62.8571189  50.1618493  28.0310179  63.9794878  37.4992121  31.5969575
  63.4835439  37.6955795  30.9061142  64.7363940  37.8984789  31.4258377
  64.0181703  37.5869855  31.4689712  61.2497757  41.1734467  28.1872886
  61.2740245  40.6394579  27.4985666  61.5009231  40.6651776  28.8498476
  61.2907676  41.0195371  28.1837530  57.5299080  39.9005285  27.5678630
  57.5697451  40.4014492  28.2813337  56.7048744  39.9915679  27.2984553
  57.4138606  39.9887101  27.6329168  57.3249487  44.6921386  20.3942647
  57.4652448  45.1893851  21.0971288  57.8232020  43.9907681  20.5356860
  57.4190568  44.6623365  20.5194226  57.3549709  45.5588498  17.7235224
  57.9894789  46.1548923  17.6584685  57.4375320  45.2591955  18.5381094
  57.4606260  45.6029406  17.8338310  70.3332275  48.0903975  30.5921588
  70.9250115  48.7301226  30.6239786  70.7691270  47.3927012  30.8813655
  70.4850706  48.0822325  30.6402420  58.9328692  41.4902473  17.6980666
  59.2544533  41.0105555  17.0439928  59.1955636  42.3002119  17.5071477
  59.0194718  41.5392371  17.5736158  62.1625665  52.5121347  31.2179482
  61.6550756  53.0657194  31.6620112  61.8652311  52.5729637  30.3998256
  62.0430550  52.6027658  31.1627938  53.8602697  47.7556338  20.9924770
  54.3694927  48.3520846  21.3736075  54.3336969  47.4882312  20.3101189
  54.0046073  47.8042154  20.9479292  64.7733445  56.4284605  19.1483425
  64.0562755  56.2545467  18.6830663  65.4240183  56.1937177  18.6158911
  64.7635296  56.3680397  19.0012643  62.7682070  37.3489767  23.4694722
  62.1250388  37.1987413  24.0379860  62.4281477  37.1032112  22.7043826
  62.6227147  37.2901889  23.4397737  67.3581416  45.3049193  22.8924730
  66.6872606  45.8478896  22.7637796  68.0521167  45.7744049  22.6506425
  67.3610284  45.4547465  22.8380258  61.4068150  57.4445905  28.1236489
  61.1833805  56.6864735  28.4920515  60.9177994  57.4743927  27.4016928
  61.3011599  57.3368130  28.0713230  67.5209544  41.7605077  25.8015104
  67.8737154  41.3334800  26.4760902  66.6624345  41.6755921  25.9316180
  67.4458989  41.6849818  25.9210114  56.2193229  44.3912597  23.8597950
  55.5005218  44.8076729  24.1270814  56.5905591  44.9566836  23.3089588
  56.1685161  44.5361878  23.8180757  60.0546607  57.6646364  25.5773573
  59.6407006  57.0020494  25.1877415  60.7393981  57.8124222  25.0569267
  60.0944979  57.5887022  25.4430070  63.4211901  56.8236449  26.3297190
  63.0228184  56.9338719  25.5618010  62.8063121  57.0318515  26.9123750
  63.2710791  56.8710017  26.3028489  61.9939803  43.4310597  19.1971330
  61.4004643  43.7527593  18.6455897  62.0315081  42.5851692  18.9892436
  61.9114192  43.3534925  19.0854101  68.9533604  36.8823489  26.7299416
  68.4464469  36.1752629  26.6620594  69.7501038  36.5516678  26.8600493
  68.9960843  36.7296640  26.7398411  64.8697620  43.3890101  22.6273080
  64.6411313  43.4122803  21.7851438  65.1295696  42.5647568  22.7468090
  64.8743808  43.2706181  22.5198277  57.9242382  41.9266648  23.9227275
  58.3999749  42.2883727  23.2877457  57.4230982  42.5823115  24.2027418
  57.9207741  42.0760836  23.8704016  71.1553744  51.3988416  19.7140280
  71.5387350  52.1479772  19.9438377  70.3597857  51.6454235  19.4552270
  71.0947526  51.5458109  19.7097854  59.9669036  44.0707847  17.2900659
  60.3468000  44.0887476  16.5051774  59.2261632  44.5161836  17.1691507
  59.9137873  44.1389622  17.1564228  67.5954326  42.3790039  22.8776238
  67.5948552  42.2238695  23.7360514  67.3910506  43.2253026  22.8217624
  67.5654104  42.4810659  22.9964177  65.3195178  47.0587540  26.5312445
  65.8148843  46.3410535  26.4916465  64.5094954  46.7558338  26.4166932
  65.2739071  46.9085187  26.5086171  60.7653790  50.9085354  18.6809449
  59.9565112  50.5852027  18.6342759  61.2728698  50.2018576  18.6137698
  60.7203456  50.7566670  18.6639744  67.3846997  49.8091228  29.2189574
  67.8102069  49.2865650  28.6659999  67.0203917  50.4072065  28.6978197
  67.3933600  49.8201455  29.0598583  57.0201077  58.1055445  27.9786919
  57.3347636  58.9191834  27.9864701  57.4294490  57.7205664  28.6469078
  57.1269175  58.1684148  28.0791011  63.9725596  53.5225492  25.5490731
  64.4436775  54.2365755  25.7180716  64.3085775  52.9224242  26.0850601
  64.0920711  53.5396956  25.6523107  66.0602581  55.1326805  37.7282803
  66.1699546  54.3435366  38.0839550  66.3893478  55.0432742  36.9257141
  66.1254987  55.0032658  37.6625194  64.6099543  53.3143426  32.3118424
  64.0620489  52.6901310  32.0438489  65.0712571  53.5037698  31.5962503
  64.5966752  53.2502476  32.1668855  63.9627447  35.2183289  29.1029919
  63.1573410  35.1081018  29.4197758  63.8334182  35.3195744  28.2459785
  63.8247579  35.2166959  29.0237960  67.4193407  41.3828781  29.6969616
  66.8356396  41.8837987  29.2847183  67.7397701  40.8758337  29.0633939
  67.3806582  41.3820616  29.5428123  59.9588206  40.2969375  19.9728291
  60.7803901  40.4667688  19.7309986  59.4957857  40.4516636  19.2494588
  60.0119369  40.3451108  19.8299935  64.1757869  54.3194499  28.8427765
  64.9956243  54.1757465  29.1044060  63.8951947  54.9440698  29.3844203
  64.2554612  54.3904851  28.9615704  73.8471204  61.0635002  26.5623572
  72.9909100  61.2243500  26.6132689  73.8938858  60.1927066  26.5828633
  73.7270316  60.9585804  26.5729638  68.2312344  70.5997719  22.3260803
  67.4795244  70.2213258  22.0976848  68.6798356  70.6316153  21.5779614
  68.1862011  70.5483327  22.1818306  77.1564921  67.3321527  36.1684028
  77.8631688  66.8373558  36.2970962  77.3452856  67.7730609  35.4386686
  77.2892826  67.3239878  36.0793073  76.6923025  63.1227046  29.2055223
  77.2378985  63.8012132  29.2649193  76.6339902  62.9814506  28.3456805
  76.7638940  63.2019047  29.0867284  69.8097100  70.6116112  24.5923576
  69.9107463  69.8016466  24.9020704  69.2138845  70.5173058  23.9623254
  69.7369639  70.4781140  24.5449814  63.0062144  66.6336398  24.2175910
  62.7712329  65.8004051  24.1108178  63.1447785  66.9141064  23.4037110
  62.9917807  66.5519902  24.0818265  65.3052232  58.8022129  27.1160217
  64.6857264  58.2114776  26.9470232  65.2036095  59.3933564  26.4824540
  65.1989907  58.8026211  26.9965207  72.4020128  60.5421671  21.4492680
  73.1000292  60.7209798  21.9414144  72.7172460  60.0192010  20.8263070
  72.5515465  60.4915443  21.4294690  65.0321365  62.3474411  29.3603786
  64.9080062  62.9336856  29.9953605  65.6839649  61.8534606  29.6616061
  65.1095014  62.3613215  29.4989715  72.5908063  66.9292116  21.4372472
  73.0301698  66.3209216  21.8827245  72.4412726  66.5499489  20.6657937
  72.6329529  66.7830587  21.3891639  70.0579706  65.5236127  28.6391297
  70.7028708  65.0308571  28.3202246  70.2981483  65.6660914  29.4657376
  70.1890291  65.4713570  28.7140830  72.5965797  68.3691033  28.2898190
  72.8789040  67.5742439  28.0684946  73.3251958  68.8471621  28.3103251
  72.7455361  68.3225630  28.2601205  70.5746991  55.9114067  25.5313955
  70.2450321  56.3625211  24.8617654  69.8991993  55.8330231  26.0786961
  70.4257427  55.9665202  25.5137178  77.7823399  51.8999590  23.7763566
  77.4676840  52.5903069  24.2083988  77.2650341  51.8444372  23.0749066
  77.6587869  51.9934479  23.7360515  64.5679469  71.5122069  25.4932116
  64.0847047  72.2372559  25.4691699  65.3802787  71.8098199  25.6042273
  64.6170217  71.6624423  25.5059395  70.6393623  70.3054250  28.0981930
  70.1220565  69.9461665  27.4943238  71.3368014  69.7816424  28.1087996
  70.6659204  70.1751938  28.0112189  71.8627675  70.0380224  33.0415765
  71.2998510  69.6252834  33.5655427  72.6248698  69.9633129  33.4608909
  71.8922124  69.9657624  33.1808766  68.7802945  53.9726356  21.0136903
  69.5348913  54.3404673  20.7753953  68.6030480  54.3465910  21.7816082
  68.8657424  54.0824544  21.0921791  67.4223666  72.0278245  25.6452395
  68.1244246  71.5130234  25.7025152  67.3421149  72.3552396  26.4499271
  67.5147427  71.9992471  25.7725188  68.4702573  62.2653832  34.7732811
  68.6423077  62.1559726  35.6218092  69.0071930  62.9108237  34.5364003
  68.5747577  62.3445834  34.8637907  67.1360010  56.3796675  17.7115016
  66.9535583  56.5968555  16.8856008  67.9985623  56.4935687  17.7673630
  67.2364599  56.4286573  17.5969503  66.7474442  68.2184597  25.1538004
  67.5863341  68.4507530  25.2011765  66.7786211  67.3488908  25.0845039
  66.8756159  68.1241543  25.1502648  67.3727145  68.6385472  29.4551309
  67.9125370  68.4956603  30.1254681  66.6897091  69.0382223  29.8235335
  67.3519299  68.6765143  29.6085731  72.8159729  53.3823085  20.7464039
  73.5445889  53.2039040  20.3002196  72.9054622  54.2241165  20.9571218
  72.9366391  53.4806964  20.7117557  76.7968030  64.3176473  24.6496333
  77.5525545  64.7507987  24.6885242  76.9030354  63.6681242  25.2230969
  76.9238200  64.2853957  24.7394359  62.7764290  64.8585763  29.6085731
  62.5102705  64.0424880  29.7676721  62.7902854  64.9038918  28.7381246
  62.7389012  64.7442668  29.5039213  66.6822037  59.6570847  16.2237489
  65.9680214  59.3709027  16.6359921  67.1666006  59.9967473  16.8643876
  66.6481400  59.6652497  16.3793124  67.5262896  58.3964141  32.2552738
  66.8334693  57.9261121  32.5013470  68.1423224  58.1702446  32.8294445
  67.5147426  58.2931273  32.3761891  63.1857704  65.6444542  26.8897475
  63.0033277  65.6191428  26.0369767  63.9207372  66.1143480  26.9286384
  63.2671767  65.7105905  26.7695393  66.2503455  62.3629545  33.3979584
  66.9743428  62.3482576  33.8844478  66.3519592  63.0724900  32.9001552
  66.3721664  62.4654248  33.3958370  73.6248405  65.8428630  38.2628531
  72.8321385  66.1572142  38.4481150  73.7397332  66.0580098  37.4249315
  73.5243815  65.9212466  38.1666865  76.2979724  62.5662621  22.5523546
  76.3926578  63.3051915  23.0063172  75.6738567  62.1380096  22.9858111
  76.2188754  62.6123941  22.6831694  74.5532197  65.7448834  33.2013827
  75.1271059  65.1076078  33.3562391  74.4747001  65.7452916  32.3323485
  74.6265432  65.6513945  33.0960238  63.1528614  62.5238043  27.0396541
  63.7302117  62.3874494  27.6788787  62.4542676  62.0673827  27.2942126
  63.1349635  62.4360309  27.1718831  69.9095916  64.1772099  25.2535025
  69.6515160  63.3443834  25.2266324  69.9644399  64.4029712  24.4127525
  69.8795694  64.0869870  25.1255161  74.9896966  56.2800549  25.3539117
  74.2853293  55.7909735  25.5123036  75.0381941  56.2923024  24.4827562
  74.8927018  56.2090197  25.2478457  68.8830628  61.7309861  25.7399919
  68.3080219  61.8902029  26.3763880  68.5066305  61.0945270  25.2768370
  68.7433441  61.6607674  25.7654478  72.5503917  60.2033210  30.5992298
  72.1618350  59.7787428  29.9444489  71.8858615  60.4515360  31.1069324
  72.3950845  60.1771931  30.5780166  58.6287447  61.3749936  23.7544360
  58.7147699  60.9981804  24.5357890  59.2563245  61.0010382  23.2764318
  58.7343998  61.2635418  23.7989837  76.3730278  53.9007839  28.1116282
  76.7540790  53.2186010  28.4984156  75.5693563  53.6117441  27.9291947
  76.3106740  53.7574888  28.1420338  69.5250763  67.9053332  23.9241417
  70.1624710  67.6665080  24.4693210  69.9505835  68.1090491  23.1894577
  69.6826930  67.9004343  23.8958574  64.2163406  70.1441669  27.8075721
  64.2567551  70.4156520  26.9795500  64.7757930  70.6683577  28.2233509
  64.3046752  70.2617424  27.7467609  70.1653578  63.1255622  18.2616306
  70.5498731  62.9063329  19.0132851  69.9165199  63.9518568  18.3917383
  70.1855651  63.2153768  18.3917383  70.3322119  56.4062037  37.9778891
  70.0175560  57.1761600  37.7148453  70.0112051  55.8432293  37.3931117
  70.2381038  56.4372306  37.8520240  71.9072235  68.3825755  25.6035203
  71.9811244  68.2200927  26.4577053  72.7241742  68.5715945  25.3595685
  72.0388594  68.3862497  25.6933229  65.6677992  68.7283618  22.6329647
  64.8416110  68.9745355  22.5063925  65.7289983  68.6495699  23.4991705
  65.5552159  68.7528567  22.7418591  67.8854016  54.7952559  23.5925087
  67.0176441  54.8675158  23.6582696  68.1729220  55.5974638  23.7813062
  67.7993764  54.9246706  23.6299853  77.0086905  54.9430418  31.9236409
  77.7540497  54.7540229  31.5099834  76.5924209  55.4688656  31.3650265
  77.0571879  54.9932564  31.7800982  71.0371566  66.1478244  31.4201807
  70.5383260  66.8594012  31.4986695  71.8471791  66.4678911  31.3819969
  71.0827673  66.3005093  31.4258376  68.3882737  73.3227881  23.4008826
  68.1683032  73.0325235  24.1935493  68.1677259  72.6642836  22.8726739
  68.3230331  73.1827589  23.4397735  67.2999684  65.4101197  25.6664528
  67.0112932  64.7838668  26.2010255  68.1683032  65.3521484  25.7329208
  67.3859936  65.3088741  25.7555483  78.0877582  60.5535980  25.9846510
  77.7442347  59.8326316  26.3353759  78.1870624  60.3449832  25.1424868
  78.0519624  60.4160184  25.9118190  67.5031957  67.0496448  21.5906893
  68.2577925  67.4309487  21.8042356  66.9102570  67.5007592  22.0453590
  67.5268671  67.1725275  21.6889771  69.9638624  59.0059288  36.7164105
  69.1538400  59.3117068  36.6053948  70.4413311  59.7264871  36.8316689
  69.9142103  59.1573890  36.7171176  68.8230184  68.2205009  26.9647008
  68.3010937  68.3605301  27.6498873  69.2104204  67.4615674  27.1549126
  68.8033885  68.1290533  27.0948085  65.8121368  58.2710818  21.0341963
  65.5246164  57.9012089  20.2973910  66.4991836  58.7405673  20.7725668
  65.8710265  58.2857788  20.8857039  70.2496509  65.2509028  22.3628499
  70.0539292  65.8583763  21.7688802  70.4730855  64.5576972  21.8820173
  70.2531150  65.2386554  22.2044580  68.6475039  62.1363766  22.4809368
  69.3697691  62.3004925  22.0213174  68.1683032  62.8573431  22.3748708
  68.6838770  62.2661996  22.3974982  76.6068547  58.4727565  27.8606053
  75.7679648  58.4988844  27.6244316  76.6772914  59.1198301  28.4411399
  76.4936940  58.5723691  27.9115170  66.2982656  64.5421839  31.5863508
  66.8103753  64.8206092  30.9372267  66.0118999  65.2811133  31.9526321
  66.3317519  64.6924192  31.5453386  75.0537825  55.3712942  22.5933669
  75.7564178  55.1720691  22.1153627  74.7882014  54.5988885  22.9002512
  75.1184458  55.2275908  22.5679110  63.3849562  59.0492031  21.8827244
  63.4865699  59.8518192  22.2108220  64.1805449  58.8479367  21.5850325
  63.5177468  59.1377929  21.8862599  69.8166382  56.6348227  31.6464549
  69.6249579  56.6503362  32.4963973  70.6664977  56.8311902  31.6231204
  69.9142103  56.6662579  31.7687844  64.2013295  59.1639209  29.6248366
  64.0598786  58.3123150  29.7492874  64.4853858  59.2067870  28.8010572
  64.2221141  59.0438959  29.5215990  74.3551887  61.0006299  23.7692854
  74.1086601  60.9202050  24.6029643  74.6837010  60.2159767  23.5755381
  74.3673130  60.8732564  23.8640377  76.5878021  64.0086034  33.8102017
  76.5826059  63.1365850  33.8144443  77.2939015  64.2074203  33.3371473
  76.6923025  63.9089908  33.7409052  70.3148914  63.7363018  33.1815837
  70.4592290  64.3164226  32.5458947  70.6624563  64.1139314  33.8865692
  70.3876376  63.8783722  33.1914832  72.4868832  62.9353186  30.9640969
  71.7392146  63.1284200  30.5589247  72.6410357  62.1098406  30.7265090
  72.3991259  62.8418297  30.8686375  69.3876669  71.9265789  30.0476864
  69.5366233  71.3668705  29.3950268  70.1676671  72.0057791  30.4309383
  69.5250763  71.8551355  30.0073813  72.7270609  56.8303737  31.8536372
  73.1843223  57.5627711  31.9809165  72.8026937  56.4070202  32.6123628
  72.8061578  56.8760975  31.9837449  64.9703600  57.0769556  32.9425816
  64.4345789  56.4649915  33.2586583  65.0321365  57.6517692  33.5959483
  64.8999232  57.0716484  33.0861243  77.1997934  50.0093612  25.7230215
  77.3181503  50.4670075  24.9897518  77.0260110  49.2038873  25.4366433
  77.1917105  49.9587384  25.5731149  70.6052986  58.8205841  28.6978196
  69.8149061  58.6397301  29.0195532  71.0013609  58.0432793  28.6808491
  70.5469863  58.6793302  28.7430745  75.9896673  66.4548271  26.4237642
  75.3141675  66.2233503  26.9251029  75.9989049  65.8469454  25.7979747
  75.8915177  66.3307196  26.4053795  73.1190817  61.2966100  33.1801695
  73.0549958  62.1576056  33.0521832  73.2588004  60.9798093  32.3797247
  73.1306287  61.3766266  33.0429908  71.8009911  63.9898239  27.3217898
  71.3772160  64.1902738  26.5856917  71.6254766  63.1427087  27.4342198
  71.7120791  63.8947021  27.2291588  67.0892356  64.4850291  22.7545871
  67.2456975  64.4197093  23.6101863  67.4292949  65.2598843  22.5424550
  67.1625590  64.5899489  22.8500465  73.6271500  63.8608174  21.6239234
  74.1687046  63.3578555  22.0877855  73.9418059  63.8073369  20.8128719
  73.7535897  63.7787595  21.5723046  74.7760770  58.7544479  31.6761534
  74.9902739  58.1155393  31.1224888  74.1594669  59.1990302  31.2469396
  74.7166099  58.7254622  31.5311966  63.6626617  61.6685241  23.0706638
  64.0425582  62.0869786  22.4066905  63.0881982  62.2498697  23.3775481
  63.6337942  61.8163100  23.0183379  76.9399858  60.3633544  32.6144842
  76.1276539  60.0559434  32.6958014  77.3989792  59.8832544  33.1787554
  76.8880242  60.2470036  32.7099436  74.1675498  51.8644414  26.6648877
  73.2969056  51.8383135  26.6182187  74.4215840  51.6921606  25.8474723
  74.0769058  51.8354558  26.5369014  74.0353365  61.7693615  37.3973544
  74.5052996  62.3935732  37.7841418  74.0815245  61.1010591  37.9566759
  74.1121241  61.7628296  37.5373615  71.1924639  53.8750643  28.1222348
  70.6763127  53.1830834  28.2473927  70.6318568  54.5421420  28.0684946
  71.0331152  53.8713900  28.1328414  73.2616872  54.4143603  29.9515200
  72.8748625  54.4392634  30.7328730  72.7749810  53.8485281  29.4989717
  73.1329381  54.3339354  30.0003104  72.9274014  51.3010588  32.2425460
  73.5567132  51.8370888  31.9646530  73.0959877  51.2087947  33.0939026
  73.0451808  51.3671951  32.3273988  72.7287929  56.0881783  34.5151872
  73.5561358  55.8166932  34.5710486  72.7495775  56.8842625  34.8715690
  72.8540779  56.1661537  34.5767055  67.3057419  63.2345646  27.7022132
  66.4645425  63.1349520  27.9101026  67.5147427  64.0041126  28.0536453
  67.2122111  63.3337689  27.7849447  64.7832986  60.8565183  25.5306883
  64.3889683  60.9308195  24.7556993  64.2273102  61.2423129  26.0815245
  64.6435798  60.9246957  25.4974543  76.4197932  53.8346477  25.2110762
  76.6247526  53.7668785  26.0567759  76.0924356  54.6405298  25.1431939
  76.4013180  53.9432417  25.3270417  71.1174084  61.1627045  26.9519730
  70.8137221  60.6083033  27.5530138  70.4153504  61.3419255  26.4647764
  70.9690293  61.1071827  26.9689436  70.1740181  58.4727565  21.5164432
  70.4499915  57.7546477  21.1041999  70.7738850  59.0712485  21.3085538
  70.3033445  58.4547936  21.4245193  69.1792435  68.3776766  31.6591828
  69.0712789  68.3878828  32.5253886  69.3888216  69.2031546  31.4696781
  69.1942546  68.5017840  31.7595919  73.6750701  56.1441082  19.7911027
  74.1294448  56.3151643  20.5158871  74.1490747  55.5309193  19.3908802
  73.8119021  56.0791967  19.8384788  67.1966227  65.6289408  29.1213765
  66.6054160  66.2698906  29.0916780  67.9587250  66.0527025  29.0945065
  67.2214487  65.7865247  29.1128912  67.5926849  56.7891406  29.7881783
  68.0528331  56.8630335  30.5256907  67.6382956  57.5872660  29.4381604
  67.6677405  56.9185553  29.8454539  69.2410199  57.4558101  34.3553810
  68.8495764  56.8091448  34.7909588  69.4096062  58.0469536  34.9748065
  69.2081109  57.4472369  34.5116516  71.0163721  62.8483616  20.8956034
  71.7605766  63.2357893  21.1338984  71.1624417  62.0041042  21.0596522
  71.1474306  62.7814089  20.9550004  72.9343297  54.6433875  25.9287895
  72.0879342  54.8156683  25.8029245  72.9314429  53.8383219  26.2653724
  72.8090447  54.5494904  25.9599022  74.0041597  58.4209090  26.7949953
  73.5301551  57.8950852  27.3055264  74.3759733  57.8738563  26.2264815
  73.9891486  58.2625086  26.7865100  64.3814627  60.4180597  32.1633499
  65.2440240  60.3176306  32.0770829  64.0506410  59.8375306  31.6019071
  64.4599823  60.3172223  32.0678905  75.9325097  59.3145644  19.8575707
  75.4048115  59.3974388  19.1681416  76.3920805  60.0563516  19.8540352
  75.9226947  59.4366307  19.7550402  67.7416413  59.2423046  28.8243917
  67.1169483  59.2541437  28.2169870  67.4062008  59.7183221  29.4735157
  67.6001905  59.3141563  28.8300486  67.9258162  57.5848164  14.8816602
  67.5770966  58.2367889  15.3448152  67.4454608  57.5705277  14.1540473
  67.8028406  57.6791218  14.8427694  64.4542089  67.3023506  30.2647682
  63.9242013  66.6115945  30.3142656  64.7267182  67.2933691  29.4360390
  64.4166811  67.1990637  30.1495097  74.6548334  64.7446750  30.2386053
  74.0405327  64.2004801  30.5334688  75.1715619  64.2310987  29.7591869
  74.6403997  64.5883159  30.2110282  73.8944631  65.8151020  27.9730352
  73.4672239  65.1900739  27.5395787  73.8869576  65.5325942  28.7989359
  73.8303773  65.6803801  28.0310179  67.0107158  60.8516193  31.0418786
  67.1700645  60.0959517  31.4470508  66.8300052  61.4007133  31.6959523
  67.0072517  60.8210007  31.1981492  74.9527461  53.0177429  31.5969575
  74.4568023  53.2141103  30.9061142  75.7096524  53.4170097  31.4258377
  74.9914286  53.1055163  31.4689712  72.2230341  56.6919775  28.1872886
  72.2472828  56.1579887  27.4985666  72.4741815  56.1837084  28.8498476
  72.2640260  56.5380679  28.1837530  59.7337931  63.9751270  27.6216030
  59.6281380  63.9298114  26.7568114  58.9838151  64.3205050  27.9030315
  59.6073534  64.0192178  27.5353360  68.5031663  55.4190593  27.5678630
  68.5430035  55.9199800  28.2813337  67.6781328  55.5100987  27.2984553
  68.3871189  55.5072409  27.6329168  70.6861276  64.9851333  35.6698925
  69.8356907  65.1223047  35.8056570  70.8489404  64.2515111  36.1146626
  70.5845140  64.8965434  35.7554524  69.9246027  61.9351103  29.8652529
  69.0937956  62.1024921  29.6587777  69.8697544  61.5587054  30.6501414
  69.7935442  61.9040834  29.9501057  67.7329810  55.4259996  35.5008940
  68.3582513  54.8822129  35.7738372  67.2780290  54.9454913  34.9316730
  67.7578071  55.2749477  35.4570534  68.2982070  60.2106694  20.3942647
  68.4385032  60.7079159  21.0971288  68.7964603  59.5092989  20.5356860
  68.3923151  60.1808673  20.5194226  68.3282293  61.0773805  17.7235224
  68.9627372  61.6734230  17.6584685  68.4107904  60.7777263  18.5381094
  68.4338844  61.1214714  17.8338310  69.9061276  57.0087781  17.6980666
  70.2277117  56.5290863  17.0439928  70.1688219  57.8187427  17.5071477
  69.9927301  57.0577679  17.5736158  73.1358249  68.0306655  31.2179482
  72.6283340  68.5842502  31.6620112  72.8384895  68.0914945  30.3998256
  73.0163133  68.1212966  31.1627938  75.3020431  56.3959975  30.0604145
  75.7275502  55.9432501  29.4487671  74.6877424  55.8420046  30.3368932
  75.2749076  56.2473951  30.0109170  64.8335281  63.2741646  20.9924770
  65.3427510  63.8706154  21.3736075  65.3069553  63.0067620  20.3101189
  64.9778656  63.3227462  20.9479292  73.7414654  52.8675075  23.4694722
  73.0982972  52.7172721  24.0379860  73.4014061  52.6217420  22.7043826
  73.5959731  52.8087197  23.4397737  78.4942128  57.2790385  25.8015104
  78.8469738  56.8520108  26.4760902  77.6356929  57.1941229  25.9316180
  78.4191572  57.2035126  25.9210114  67.1925813  59.9097905  23.8597950
  66.4737802  60.3262037  24.1270814  67.5638175  60.4752144  23.3089588
  67.1417744  60.0547186  23.8180757  76.4925393  60.5425754  29.7499946
  76.4723321  60.3609049  30.6034725  76.5404594  61.4137772  29.7259529
  76.4960034  60.6442292  29.8723240  74.4371723  67.1312946  35.6748422
  74.3967578  66.4862623  35.0893578  75.2495041  67.0749563  35.9873834
  74.5514877  67.0271912  35.6345371  72.9672387  58.9495905  19.1971330
  72.3737226  59.2712901  18.6455897  73.0047665  58.1037000  18.9892436
  72.8846776  58.8720233  19.0854101  75.8430203  58.9075409  22.6273080
  75.6143896  58.9308111  21.7851438  76.1028280  58.0832876  22.7468090
  75.8476391  58.7891489  22.5198277  70.1249432  60.7609882  32.2298180
  69.6128335  60.1531065  32.5883211  69.9528928  61.4766475  32.6972156
  70.0239069  60.7773181  32.3514404  64.9715147  59.2047457  34.8800542
  64.8017737  59.8648832  34.3348748  64.5281096  59.4154019  35.6013031
  64.8814480  59.3333440  34.9062171  68.8974966  57.4451955  23.9227275
  69.3732332  57.8069035  23.2877457  68.3963566  58.1008423  24.2027418
  68.8940325  57.5946144  23.8704016  74.0018502  58.6834127  34.6700435
  74.5589932  58.4547936  34.0378901  73.6779567  59.4439792  34.3935648
  74.0364912  58.7617964  34.5356933  61.8717211  62.1094323  30.1389032
  61.3243931  61.4394969  30.2569900  62.6609589  61.7424171  30.2032499
  61.9069395  61.9559309  30.1657732  71.7201620  61.7701780  35.6352443
  72.4712946  62.0853457  35.9491997  71.9124196  61.5680951  34.8086364
  71.8593034  61.7869162  35.5595838  70.9401619  59.5893155  17.2900659
  71.3200584  59.6072784  16.5051774  70.1994215  60.0347144  17.1691507
  70.8870457  59.6574930  17.1564228  78.5686910  57.8975346  22.8776238
  78.5681136  57.7424003  23.7360514  78.3643090  58.7438333  22.8217624
  78.5386687  57.9995967  22.9964177  60.6304181  61.3215131  27.2935055
  60.4525942  60.8691740  28.0189970  60.3423203  62.1241292  27.4773532
  60.5617134  61.3737689  27.4278558  76.2927762  62.5772848  26.5312445
  76.7881427  61.8595843  26.4916465  75.4827537  62.2743646  26.4166932
  76.2471655  62.4270495  26.5086171  62.3676650  63.8542855  24.4056814
  61.5022170  63.8428545  24.2939585  62.4675466  63.6673077  25.2527953
  62.2550817  63.8248916  24.5145758  78.3579581  65.3276536  29.2189574
  78.7834652  64.8050958  28.6659999  77.9936500  65.9257373  28.6978197
  78.3666183  65.3386763  29.0598583  67.9933660  73.6240753  27.9786919
  68.3080219  74.4377142  27.9864701  68.4027074  73.2390972  28.6469078
  68.1001758  73.6869456  28.0791011  74.9458180  69.0410800  25.5490731
  75.4169358  69.7551063  25.7180716  75.2818359  68.4409550  26.0850601
  75.0653295  69.0582264  25.6523107  71.8627675  53.8138271  32.5048826
  71.9955581  53.0169264  32.8329802  72.2472828  54.3404674  33.0847102
  71.9384004  53.7738187  32.6392329  75.5832126  68.8328734  32.3118424
  75.0353072  68.2086618  32.0438489  76.0445155  69.0223006  31.5962503
  75.5699336  68.7687784  32.1668855  74.9360030  50.7368597  29.1029919
  74.1305994  50.6266326  29.4197758  74.8066766  50.8381052  28.2459785
  74.7980163  50.7352267  29.0237960  78.3925991  56.9014089  29.6969616
  77.8088979  57.4023295  29.2847183  78.7130285  56.3943645  29.0633939
  78.3539166  56.9005924  29.5428123  70.9320790  55.8154683  19.9728291
  71.7536484  55.9852996  19.7309986  70.4690441  55.9701944  19.2494588
  70.9851952  55.8636416  19.8299935  69.5216122  53.8097446  30.7526720
  70.0660535  53.4688572  31.3431061  69.5753057  54.6682907  30.8948004
  69.6105241  53.8852705  30.8608593  65.3346680  67.5713862  27.6265528
  65.9391538  67.5309696  26.9979348  65.1273993  68.4185014  27.6569583
  65.3935578  67.6901864  27.5381644  60.5697963  66.5548479  27.4964451
  60.4722241  65.7444751  27.8054507  61.3526832  66.5340273  27.1110719
  60.6714099  66.4315569  27.4851314  36.4250913   5.9115908  12.9278479
  37.0688368   6.3529072  13.3174637  36.7507169   5.1069334  12.8408737
  36.5682742   5.8581103  12.9723956  41.0710288   1.1371271  20.9938150
  41.1593634   0.9497412  21.8416360  41.5000001   0.4908701  20.5942997
  41.1472391   1.0134279  21.0609901  38.6380748   0.4202431  19.9755812
  38.0751583   0.0075041  20.4995473  39.4001772   0.3455337  20.3948955
  38.6675197   0.3479832  20.1148813  41.1830348   0.5680290  23.6581934
  41.9670764   0.6811138  24.0237676  40.9826942  -0.2578573  23.8540619
  41.2696373   0.4627010  23.7416320  41.3400741   2.4790392  17.3048389
  40.5415987   2.2389892  17.5622258  41.7886753   2.5304785  18.0515437
  41.2875352   2.4512783  17.4533313  36.1629742   2.3087997  16.9816911
  36.3119306   1.7490913  16.3290315  36.9429744   2.3879999  17.3649430
  36.3003836   2.2373562  16.9413860  38.0774677   5.8870959  16.7179402
  38.5670608   5.1881749  16.5355067  37.5058910   5.5894829  17.3055460
  38.0659207   5.7397183  16.7780443  35.9545508  -1.2401027  18.5931874
  35.8465863  -1.2298965  19.4593933  36.1641289  -0.4146247  18.4036828
  35.9695619  -1.1159952  18.6935966  43.7308816   1.4620927  13.4885836
  43.5328505   1.9511742  12.7942048  43.1096527   1.6662169  14.0669970
  43.6096380   1.5637465  13.4709060  39.9111322  -1.5871137  18.1519529
  39.4036413  -1.0335291  18.5960159  39.6137968  -1.5262848  17.3338303
  39.7916207  -1.4964826  18.0967985  39.1553807   3.3453421  15.0576535
  38.9319461   2.5872250  15.4260562  38.6663650   3.3751442  14.3356975
  39.0497256   3.2375645  15.0053276  34.7686734   4.0062961  14.9126966
  35.0833293   4.8199349  14.9204748  35.1780147   3.6213179  15.5809125
  34.8754832   4.0691663  15.0131058  43.8088238   1.0334321  24.6622850
  43.9185203   0.2442881  25.0179597  44.1379134   0.9440257  23.8597188
  43.8740644   0.9040174  24.5965241  41.9243526   0.2202014  15.7767812
  42.7441900   0.0764980  16.0384107  41.6437603   0.8448213  16.3184250
  42.0040269   0.2912366  15.8955751  51.5956861   6.9642517  13.4963619
  50.7394757   7.1251015  13.5472735  51.6424515   6.0934581  13.5168680
  51.4755973   6.8593319  13.5069685  45.9798001  16.5005235   9.2600850
  45.2280900  16.1220773   9.0316895  46.4284012  16.5323668   8.5119660
  45.9347668  16.4490842   9.1158352  54.9050578  13.2329043  23.1024075
  55.6117345  12.7381073  23.2311009  55.0938513  13.6738124  22.3726733
  55.0378483  13.2247393  23.0133120  51.4322961  16.9230604   4.6886397
  51.0974329  17.6007526   4.2530619  51.9449831  16.5335916   4.1003269
  51.4588542  16.9655183   4.5373189  50.9727252  18.8744873  10.6297509
  51.3566631  19.4431772  10.0902284  50.9086393  18.1494383  10.1503325
  51.0200679  18.8520336  10.4791371  54.4408682   9.0234561  16.1395270
  54.9864642   9.7019647  16.1989240  54.3825558   8.8822022  15.2796852
  54.5124596   9.1026563  16.0207331  47.5582757  16.5123627  11.5263623
  47.6593120  15.7023981  11.8360750  46.9624502  16.4180573  10.8963301
  47.4855296  16.3788655  11.4789861  56.2173751  10.4519168   7.0128998
  56.1013277  11.2026854   7.4421136  57.0129637  10.1943121   7.2625085
  56.3178340  10.5254015   7.1133090  47.3983497  21.4301216  12.9278479
  48.0420952  21.8714380  13.3174637  47.7239752  20.6254642  12.8408737
  47.5415325  21.3766411  12.9723956  40.7547801  12.5343914  11.1515956
  40.5197986  11.7011566  11.0448225  40.8933442  12.8148579  10.3377157
  40.7403464  12.4527417  11.0158311  43.0537889   4.7029644  14.0500264
  42.4342920   4.1122291  13.8810279  42.9521752   5.2941079  13.4164587
  42.9475564   4.7033727  13.9305254  48.1004076  14.4413191   8.2998340
  48.4219917  14.9818398   7.6959649  48.7476173  13.8709962   8.4320630
  48.2430131  14.4372366   8.2305376  50.1505784   6.4429186   8.3832727
  50.8485949   6.6217313   8.8754190  50.4658117   5.9199525   7.7603116
  50.3001122   6.3922958   8.3634737  42.7807022   8.2481926  16.2943833
  42.6565719   8.8344371  16.9293652  43.4325306   7.7542122  16.5956108
  42.8580671   8.2620730  16.4329762  50.3393720  12.8299631   8.3712519
  50.7787355  12.2216731   8.8167291  50.1898383  12.4507004   7.5997984
  50.3815185  12.6838102   8.3231686  47.8065363  11.4243643  15.5731344
  48.4514365  10.9316086  15.2542293  48.0467140  11.5668429  16.3997422
  47.9375948  11.3721085  15.6480877  50.3451454  14.2698549  15.2238237
  50.6274697  13.4749954  15.0024993  51.0737614  14.7479136  15.2443298
  50.4941018  14.2233146  15.1941252  48.3232648   1.8121583  12.4654002
  47.9935978   2.2632726  11.7957700  47.6477650   1.7337746  13.0127008
  48.1743084   1.8672718  12.4477225  53.9403056  11.1826812   5.3243288
  53.8554351  12.0387779   5.4692857  54.4287439  10.9071136   5.9925447
  53.9991954  11.2684134   5.4445369  54.8721489   7.8011606   6.8241023
  54.3432961   8.0171240   7.4838329  55.3946509   8.4947745   6.7441992
  54.8709942   7.9354743   6.9096622  60.3269542  13.3757911  12.1974067
  59.4967246  13.5868555  12.3607484  60.2778795  12.5494965  11.9216351
  60.1976278  13.2847517  12.1811433  42.3165126  17.4129584  12.4272162
  41.8332704  18.1380074  12.4031746  43.1288444  17.7105714  12.5382320
  42.3655874  17.5631938  12.4399442  48.3879280  16.2061765  15.0321977
  47.8706222  15.8469180  14.4283285  49.0853671  15.6823939  15.0428043
  48.4144861  16.0759453  14.9452236  52.0442872  16.6556579  20.9938150
  52.1326218  16.4682720  21.8416360  52.4732584  16.0094009  20.5942997
  52.1204974  16.5319587  21.0609901  49.6113332  15.9387739  19.9755812
  49.0484167  15.5260349  20.4995473  50.3734355  15.8640645  20.3948955
  49.6407780  15.8665140  20.1148813  45.1709323  17.9285760  12.5792442
  45.8729902  17.4137749  12.6365199  45.0906806  18.2559912  13.3839317
  45.2633084  17.8999986  12.7065235  59.8223501   6.0228312  15.9924489
  58.9851922   6.0930499  16.2272083  59.7911732   6.0252806  15.1198791
  59.6941783   6.0338539  15.8984037  46.2188230   8.1661347  21.7072857
  46.3908733   8.0567242  22.5558139  46.7557587   8.8115753  21.4704050
  46.3233234   8.2453349  21.7977954  44.4960099  14.1192112  12.0878050
  45.3348998  14.3515045  12.1351812  44.5271868  13.2496424  12.0185086
  44.6241816  14.0249059  12.0842695  45.1212802  14.5392987  16.3891356
  45.6611027  14.3964118  17.0594728  44.4382748  14.9389738  16.7575382
  45.1004956  14.5772658  16.5425778  54.5453687  10.2183988  11.5836380
  55.3011202  10.6515502  11.6225289  54.6516011   9.5688758  12.1571016
  54.6723857  10.1861472  11.6734406  57.5833858  14.0457265  12.3338783
  57.1469089  14.0494008  13.0897755  57.2496773  14.7262764  11.9018361
  57.4696478  14.1469721  12.3819616  52.1562931  16.0865598  23.6581934
  52.9403348  16.1996446  24.0237676  51.9559526  15.2606735  23.8540619
  52.2428957  15.9812318  23.7416320  40.5249947  10.7593278  16.5425777
  40.2588362   9.9432395  16.7016768  40.5388511  10.8046434  15.6721293
  40.4874669  10.6450183  16.4379259  45.2748553   4.2971656  19.1892785
  44.5820350   3.8268636  19.4353517  45.8908880   4.0709961  19.7634492
  45.2633083   4.1938788  19.3101938  52.3133325  17.9975700  17.3048389
  51.5148570  17.7575200  17.5622258  52.7619336  18.0490093  18.0515437
  52.2607936  17.9698091  17.4533313  60.7178204  10.7638185  11.2258420
  61.3794638  10.2028854  11.1254329  60.0769616  10.2690216  11.5511112
  60.7207071  10.6074594  11.2590761  51.6055012  14.0608317   3.5339344
  52.0206160  13.7293340   2.8423839  50.7746941  13.8277219   3.4059480
  51.5443020  13.9779573   3.4130191  40.9343360  11.5452058  13.8237522
  40.7518934  11.5198944  12.9709814  41.6693029  12.0150995  13.8626430
  41.0157424  11.6113420  13.7035440  57.0043035  11.7803568  10.9670409
  57.2398624  11.9248766  10.1397260  57.1532598  12.5445976  11.3601923
  57.0608838  11.9142622  10.9034013  43.9989112   8.2637060  20.3319630
  44.7229084   8.2490091  20.8184525  44.1005249   8.9732416  19.8341599
  44.1207321   8.3661764  20.3298417  58.8333491  10.6205234   8.8040013
  59.1641708  11.1532874   8.1980108  59.4066579  10.6744121   9.4601964
  58.9667170  10.7074802   8.8117795  51.3734061  11.7436145  25.1968577
  50.5807042  12.0579657  25.3821197  51.4882989  11.9587614  24.3589362
  51.2729472  11.8219982  25.1006912  54.0465380   8.4670136   9.4863593
  54.1412235   9.2059430   9.9403219  53.4224224   8.0387612   9.9198158
  53.9674410   8.5131457   9.6171741  52.3017854  11.6456349  20.1353874
  52.8756716  11.0083593  20.2902438  52.2232658  11.6460431  19.2663532
  52.3751089  11.5521460  20.0300285  40.9014271   8.4245558  13.9736588
  41.4787773   8.2882009  14.6128834  40.2028332   7.9681342  14.2282173
  40.8835292   8.3367824  14.1058878  47.6581573  10.0779614  12.1875071
  47.4000817   9.2451349  12.1606371  47.7130056  10.3037227  11.3467572
  47.6281351   9.9877385  12.0595208  46.6316285   7.6317376  12.6739966
  46.0565876   7.7909545  13.3103927  46.2551961   6.9952786  12.2108417
  46.4919097   7.5615189  12.6994525  50.2989574   6.1040726  17.5332345
  49.9104006   5.6794943  16.8784536  49.6344272   6.3522875  18.0409371
  50.1436501   6.0779447  17.5120213  51.4028512  10.3339330   5.7309152
  52.2169151  10.6254223   5.6191923  51.3387653   9.6799193   5.1567445
  51.5131251  10.2804525   5.6297989  57.6238002  13.0165326  20.1438727
  57.3876639  12.1853391  20.0250788  58.2681231  12.9650934  20.7293571
  57.6832673  12.8863014  20.2124621  47.2736420  13.8060848  10.8581464
  47.9110367  13.5672595  11.4033257  47.6991492  14.0098007  10.1234624
  47.4312586  13.8011858  10.8298621  41.9649063  16.0449184  14.7415767
  42.0053208  16.3164035  13.9135547  42.5243587  16.5691092  15.1573555
  42.0532408  16.1624939  14.6807656  48.0807776   2.3069553  24.9118937
  47.7661217   3.0769115  24.6488500  47.7597708   1.7439809  24.3271164
  47.9866695   2.3379821  24.7860287  58.6474423  12.8009775  16.2067022
  58.3420240  13.5337832  16.5680337  57.9280638  12.3947705  15.9259808
  58.4961765  12.8491508  16.2180159  49.6557892  14.2833270  12.5375250
  49.7296900  14.1208442  13.3917100  50.4727398  14.4723460  12.2935732
  49.7874251  14.2870013  12.6273276  64.3476215   9.4402776  15.5335366
  64.2800715   9.4598735  14.6637953  64.3331877  10.2833103  15.7591037
  64.3354971   9.5676511  15.4387843  43.4163649  14.6291133   9.5669693
  42.5901766  14.8752870   9.4403972  43.4775640  14.5503214  10.4331752
  43.3037816  14.6536082   9.6758638  48.1962478  17.2468013   7.2688723
  48.4860776  16.8556995   6.5447950  48.9265959  17.4284718   7.7093999
  48.3469362  17.2161827   7.2271530  62.1334832   8.2147162  13.8081960
  62.6842754   7.5815231  14.0479053  62.1178948   8.7462555  14.4997465
  62.2120029   8.1996110  13.9460819  48.7857223  12.0485759  18.3541854
  48.2868917  12.7601527  18.4326742  49.5957447  12.3686426  18.3160016
  48.8313330  12.2012608  18.3598422  46.1368393  19.2235396  10.3348873
  45.9168689  18.9332751  11.1275540  45.9162915  18.5650351   9.8066785
  46.0715988  19.0835104  10.3737782  45.0485341  11.3108712  12.6004575
  44.7598589  10.6846184  13.1350302  45.9168689  11.2529000  12.6669255
  45.1345593  11.2096257  12.6895529  55.8363238   6.4543496  12.9186557
  55.4928004   5.7333831  13.2693806  55.9356281   6.2457347  12.0764915
  55.8005281   6.3167699  12.8458237  48.3036349  20.5964786   9.1179565
  48.9560407  20.0641228   9.3470592  47.6061958  20.2433438   9.5047440
  48.2967067  20.4654309   9.2091733  45.2517614  12.9503963   8.5246940
  46.0063582  13.3317002   8.7382402  44.6588227  13.4015107   8.9793636
  45.2754328  13.0732791   8.6229818  56.2976267  12.9169200   8.4610545
  56.8634300  13.5762410   8.3769088  55.6504171  13.2618898   8.9326947
  56.2855024  13.0651141   8.5183301  47.7124281   4.9066804  23.6504152
  46.9024057   5.2124583  23.5393994  48.1898968   5.6272386  23.7656736
  47.6627760   5.0581405  23.6511223  46.5715841  14.1212525  13.8987055
  46.0496594  14.2612816  14.5838920  46.9589861  13.3623189  14.0889173
  46.5519542  14.0298049  14.0288132  52.7682846  15.8607984   7.8847624
  52.5269521  15.1275845   7.4774689  52.9484178  16.4094841   7.2313957
  52.7590470  15.8330375   7.7277847  47.9982166  11.1516544   9.2968546
  47.8024949  11.7591278   8.7028849  48.2216512  10.4584488   8.8160220
  48.0016807  11.1394069   9.1384627  46.3960696   8.0371282   9.4149415
  47.1183348   8.2012440   8.9553221  45.9168689   8.7580947   9.3088754
  46.4324427   8.1669511   9.3315029  54.3554204   4.3735081  14.7946100
  53.5165304   4.3996359  14.5584363  54.4258571   5.0205816  15.3751446
  54.2422597   4.4731206  14.8455216  44.0468313  10.4429354  18.5203554
  44.5589410  10.7213607  17.8712314  43.7604656  11.1818648  18.8866368
  44.0803176  10.5931708  18.4793433  58.2311728   9.5803067  12.0807341
  58.1445702   9.7358493  12.9342120  57.7762208  10.2241143  11.7066746
  58.1514984   9.6978822  12.1514448  47.5652038   2.5355743  18.5804596
  47.3735235   2.5510877  19.4304020  48.4150634   2.7319417  18.5571251
  47.6627760   2.5670094  18.7027891  41.9498951   5.0646724  16.5588413
  41.8084443   4.2130665  16.6832920  42.2339515   5.1075385  15.7350619
  41.9706797   4.9446474  16.4556037  52.1037544   6.9013814  10.7032901
  51.8572258   6.8209565  11.5369690  52.4322667   6.1167282  10.5095428
  52.1158787   6.7740080  10.7980424  55.9985593  13.6097174  14.4919682
  55.8599952  14.3078220  14.9968424  55.2185590  13.4545830  14.1355864
  55.8628819  13.6897340  14.5145956  54.3363678   9.9093549  20.7442064
  54.3311716   9.0373366  20.7484490  55.0424672  10.1081718  20.2711519
  54.4408682   9.8097423  20.6749099  48.0634571   9.6370533  20.1155884
  48.2077947  10.2171741  19.4798994  48.4110220  10.0146830  20.8205738
  48.1362032   9.7791237  20.1254879  50.2354488   8.8360701  17.8981015
  49.4877802   9.0291716  17.4929294  50.3896014   8.0105921  17.6605137
  50.1476916   8.7425813  17.8026421  47.1362326  17.8273305  16.9816911
  47.2851890  17.2676221  16.3290315  47.9162328  17.9065306  17.3649430
  47.2736420  17.7558870  16.9413860  49.6615627  17.9987948  18.2601402
  49.5859298  17.3296758  18.8152190  49.5905486  18.7005736  18.7742068
  49.6396233  18.0032855  18.4178250  50.4756265   2.7311252  18.7876419
  50.9328879   3.4635226  18.9149211  50.5512594   2.3077717  19.5463675
  50.5547235   2.7768490  18.9177496  42.7189257   2.9777072  19.8765863
  42.1831446   2.3657430  20.1926630  42.7807021   3.5525208  20.5299530
  42.6484889   2.9724000  20.0201290  50.3185874  16.5188947   9.0925008
  51.0835765  16.2498590   8.7707672  50.2163963  16.0338957   9.8095070
  50.4167369  16.4078511   9.1504835  48.3538643   4.7213356  15.6318243
  47.5634718   4.5404816  15.9535579  48.7499266   3.9440309  15.6148538
  48.2955519   4.5800817  15.6770792  53.7382330  12.3555786  13.3577689
  53.0627331  12.1241018  13.8591076  53.7474706  11.7476969  12.7319794
  53.6400834  12.2314711  13.3393841  50.8676474   7.1973615  20.1141742
  50.8035615   8.0583572  19.9861879  51.0073661   6.8805608  19.3137293
  50.8791944   7.2773782  19.9769955  55.7399064  15.2120919   5.5887867
  55.8218902  16.0187905   5.2649318  56.2248806  15.2316878   6.3128641
  55.8236222  15.3341581   5.6474766  49.5495567   9.8905754  14.2557945
  49.1257817  10.0910253  13.5196963  49.3740423   9.0434602  14.3682245
  49.4606448   9.7954536  14.1631635  44.8378012  10.3857806   9.6885918
  44.9942632  10.3204609  10.5441910  45.1778606  11.1606358   9.4764597
  44.9111247  10.4907004   9.7840512  51.3757157   9.7615689   8.5579281
  51.9172702   9.2586071   9.0217901  51.6903716   9.7080884   7.7468766
  51.5021554   9.6795110   8.5063093  55.2474264  13.9718337  25.6706193
  56.0609130  13.7003486  25.8311325  55.0869231  13.6725877  24.8666389
  55.3444213  13.8873263  25.5751599  49.5443607  15.1533041   5.8419309
  49.6136427  14.2947579   5.9812309  50.3232062  15.3704922   5.5138333
  49.6696457  15.0585905   5.8136466  52.5246426   4.6551994  18.6101581
  52.7388396   4.0162908  18.0564935  51.9080326   5.0997818  18.1809443
  52.4651756   4.6262138  18.4652012  53.9351094  17.5770742  10.0555802
  53.5430886  17.2737457   9.3378668  54.0904167  18.4139832   9.8660756
  53.9004684  17.6554579   9.9212299  41.4112274   7.5692756  10.0046685
  41.7911239   7.9877301   9.3406952  40.8367639   8.1506212  10.3115528
  41.3823599   7.7170615   9.9523426  54.6885514   6.2641059  19.5484888
  53.8762196   5.9566950  19.6298061  55.1475449   5.7840059  20.1127601
  54.6365899   6.1477552  19.6439482  54.0990769  14.1420731   9.9961833
  53.7405424  14.3135374  10.7725865  53.6129480  14.6033937   9.4389831
  53.9749466  14.2359702  10.0287102  51.7839022   7.6701131  24.3313591
  52.2538653   8.2943247  24.7181465  51.8300902   7.0018106  24.8906805
  51.8606898   7.6635811  24.4713662  55.2595508  15.0324627  20.9429034
  55.8975229  14.5384823  20.6091490  54.6169600  14.9602028  20.3581260
  55.2589735  14.9483636  20.8071389  56.9852509   6.8813773  15.5094949
  56.5580117   6.7940122  14.7543049  56.3478561   6.9891549  16.0949793
  56.8282116   6.8846433  15.4840391  55.3149765  15.7244435  17.5834390
  56.1042143  15.3733500  17.7036472  55.4893363  16.5380824  17.3211024
  55.4570047  15.7930292  17.5622258  45.0543075   9.1353161  14.6362179
  44.2131082   9.0357035  14.8441073  45.2633083   9.9048641  14.9876500
  44.9607768   9.2345204  14.7189494  42.5318642   6.7572698  12.4646930
  42.1375340   6.8315710  11.6897039  41.9758759   7.1430644  13.0155292
  42.3921455   6.8254473  12.4314590  46.9278091  14.2784281  18.5931874
  46.8198446  14.2886343  19.4593933  47.1373873  15.1039061  18.4036828
  46.9428202  14.4025356  18.6935966  44.9451883  11.5296923  16.0553812
  44.3539817  12.1706422  16.0256827  45.7072907  11.9534541  16.0285112
  44.9700144  11.6872762  16.0468959  45.3412506   2.6898921  16.7221830
  45.8013988   2.7637851  17.4596953  45.3868613   3.4880175  16.3721651
  45.4163061   2.8193068  16.7794586  46.9895856   3.3565616  21.2893857
  46.5981421   2.7098963  21.7249635  47.1581719   3.9477051  21.9088112
  46.9566766   3.3479884  21.4456563  61.0642305  11.3602693  17.0531090
  61.1225429  11.8089342  17.7991067  60.4308772  11.7701506  16.6161170
  60.9793600  11.4876428  17.0983639  54.7041400  16.9806235  13.4885836
  54.5061088  17.4697049  12.7942048  54.0829111  17.1847476  14.0669970
  54.5828964  17.0822773  13.4709060  48.7649378   8.7491132   7.8296081
  49.5091423   9.1365408   8.0679031  48.9110074   7.9048557   7.9936569
  48.8959963   8.6821605   7.8890050  51.7527254   4.3216605  13.7290000
  51.2787208   3.7958367  14.2395311  52.1245390   3.7746078  13.1604862
  51.7377143   4.1632602  13.7205147  42.1300284   6.3188112  19.0973546
  42.9925897   6.2183821  19.0110876  41.7992067   5.7382821  18.5359118
  42.2085480   6.2179739  19.0018952  58.0163984   9.3818981  15.1396781
  57.7762207   8.5425396  15.1439207  58.4955992   9.4619147  15.8637554
  58.0516168   9.2700380  15.2471583  60.0169171   6.1620438  13.0926040
  59.7778941   6.1216272  12.2546824  60.1803073   7.0091590  13.2191761
  60.0059475   6.2812523  12.9879522  56.6215201  10.5470387  19.0231085
  57.3449400  10.0942914  18.8442105  56.3565164  10.8275053  18.2403413
  56.6896475  10.5221356  18.8809800  45.4902070   5.1430561  15.7583964
  44.8655140   5.1548953  15.1509917  45.1547665   5.6190736  16.4075204
  45.3487562   5.2149078  15.7640533  42.2027745  13.2031021  17.1987728
  41.6727670  12.5123460  17.2482703  42.4752839  13.1941206  16.3700437
  42.1652468  13.0998153  17.0835144  53.2347836  13.7856723   5.9225411
  53.9582035  14.2514836   5.7789984  52.7948427  13.8530333   5.1723008
  53.2763528  13.8640560   5.7910192  52.4033991  10.6454266  17.1726100
  51.7890984  10.1012316  17.4674735  52.9201276  10.1318502  16.6931916
  52.3889653  10.4890675  17.1450328  51.6430288  11.7158536  14.9070399
  51.2157896  11.0908254  14.4735834  51.6355233  11.4333457  15.7329406
  51.5789429  11.5811316  14.9650226  44.7592815   6.7523709  17.9758833
  44.9186302   5.9967033  18.3810554  44.5785709   7.3014648  18.6299570
  44.7558174   6.7217522  18.1321539  49.9715998   2.5927290  15.1212933
  49.9958485   2.0587402  14.4325713  50.2227471   2.0844599  15.7838523
  50.0125917   2.4388194  15.1177577  37.4823588   9.8758785  14.5556077
  37.3767037   9.8305629  13.6908161  36.7323808  10.2212566  14.8370362
  37.3559191   9.9199693  14.4693406  46.2517320   1.3198108  14.5018677
  46.2915692   1.8207315  15.2153384  45.4266985   1.4108502  14.2324600
  46.1356846   1.4079925  14.5669215  48.4346933  10.8858848  22.6038971
  47.5842563  11.0230563  22.7396616  48.5975061  10.1522627  23.0486673
  48.3330796  10.7972950  22.6894571  47.6731683   7.8358618  16.7992576
  46.8423613   8.0032436  16.5927824  47.6183201   7.4594569  17.5841461
  47.5421098   7.8048349  16.8841104  45.4815467   1.3267511  22.4348987
  46.1068170   0.7829644  22.7078419  45.0265947   0.8462429  21.8656777
  45.5063727   1.1756992  22.3910580  59.0550515   9.5096798  17.5261635
  59.6468356  10.1494049  17.5579833  59.4909510   8.8119835  17.8153701
  59.2068947   9.5015148  17.5742467  50.8843905  13.9314170  18.1519529
  50.3768996  14.4850017  18.5960159  50.5870552  13.9922460  17.3338303
  50.7648790  14.0220482  18.0967985  53.4951686  17.8477428   6.0823472
  52.7780995  17.6738290   5.6170709  54.1458423  17.6130000   5.5498958
  53.4853536  17.7873221   5.9352690  56.0799657   6.7242017   9.8264777
  55.4090847   7.2671719   9.6977843  56.7739407   7.1936872   9.5846472
  56.0828524   6.8740288   9.7720305  50.1286391  18.8638729  15.0576535
  49.9052045  18.1057558  15.4260562  49.6396234  18.8936750  14.3356975
  50.0229840  18.7560953  15.0053276  44.9411469   5.8105420  10.7937997
  44.2223458   6.2269553  11.0610860  45.3123832   6.3759659  10.2429635
  44.8903401   5.9554701  10.7520804  54.2411050   6.4433269  16.6839993
  54.2208977   6.2616564  17.5374771  54.2890251   7.3145287  16.6599576
  54.2445691   6.5449807  16.8063287  52.1857380  13.0320461  22.6088469
  52.1453235  12.3870138  22.0233625  52.9980698  12.9757078  22.9213881
  52.3000533  12.9279428  22.5685418  48.7764848  19.0839187  12.5113620
  48.3625246  18.4213317  12.1217462  49.4612222  19.2317046  11.9909314
  48.8163219  19.0079845  12.3770117  52.1430142  18.2429272  13.2637237
  51.7446425  18.3531542  12.4958057  51.5281361  18.4511338  13.8463796
  51.9929031  18.2902840  13.2368536  53.5915860   4.8082924   9.5613127
  53.3629553   4.8315626   8.7191485  53.8513936   3.9840391   9.6808137
  53.5962048   4.6899004   9.4538324  47.8735089   6.6617397  19.1638227
  47.3613992   6.0538580  19.5223258  47.7014585   7.3773990  19.6312203
  47.7724726   6.6780697  19.2854450  42.7200803   5.1054973  21.8140589
  42.5503394   5.7656348  21.2688795  42.2766753   5.3161534  22.5353078
  42.6300137   5.2340955  21.8402218  46.6460623   3.3459471  10.8567322
  47.1217989   3.7076551  10.2217503  46.1449222   4.0015938  11.1367465
  46.6425982   3.4953660  10.8044063  51.7504159   4.5841642  21.6040482
  52.3075589   4.3555452  20.9718948  51.4265224   5.3447308  21.3275695
  51.7850569   4.6625479  21.4696979  39.6202868   8.0101838  17.0729078
  39.0729587   7.3402484  17.1909947  40.4095246   7.6431686  17.1372546
  39.6555052   7.8566825  17.0997779  49.4687276   7.6709295  22.5692489
  50.2198603   7.9860972  22.8832044  49.6609853   7.4688466  21.7426411
  49.6078690   7.6876677  22.4935885  38.3789837   7.2222646  14.2275101
  38.2011598   6.7699255  14.9530017  38.0908860   8.0248808  14.4113579
  38.3102791   7.2745204  14.3618604  54.0413418   8.4780364  13.4652492
  54.5367084   7.7603359  13.4256512  53.2313194   8.1751161  13.3506979
  53.9957312   8.3278010  13.4426218  49.4872030  12.3278177   5.6149496
  48.6783353  12.0044850   5.5682806  49.9946939  11.6211399   5.5477745
  49.4421697  12.1759493   5.5979791  40.1162307   9.7550370  11.3396860
  39.2507827   9.7436060  11.2279632  40.2161123   9.5680593  12.1868000
  40.0036474   9.7256431  11.4485805  56.1065237  11.2284051  16.1529621
  56.5320309  10.7058473  15.6000046  55.7422157  11.8264888  15.6318243
  56.1151840  11.2394278  15.9938630  45.7419317  19.5248269  14.9126966
  46.0565876  20.3384657  14.9204748  46.1512730  19.1398487  15.5809125
  45.8487415  19.5876971  15.0131058  52.6943837  14.9418315  12.4830778
  53.1655015  15.6558578  12.6520763  53.0304015  14.3417065  13.0190647
  52.8138952  14.9589780  12.5863154  54.7820821  16.5519629  24.6622850
  54.8917787  15.7628189  25.0179597  55.1111718  16.4625565  23.8597188
  54.8473227  16.4225482  24.5965241  53.3317783  14.7336249  19.2458471
  52.7838729  14.1094133  18.9778536  53.7930812  14.9230521  18.5302550
  53.3184993  14.6695300  19.1008902  43.0832337  13.4721377  14.5605574
  43.6877195  13.4317211  13.9319395  42.8759650  14.3192529  14.5909630
  43.1421235  13.5909380  14.4721691  52.8976109  15.7387322  15.7767812
  53.7174483  15.5950288  16.0384107  52.6170187  16.3633521  16.3184250
  52.9772853  15.8097674  15.8955751  38.3183620  12.4555995  14.4304498
  38.2207898  11.6452266  14.7394554  39.1012489  12.4347788  14.0450766
  38.4199756  12.3323085  14.4191360  62.5689445  22.4827825  13.4963619
  61.7127340  22.6436323  13.5472735  62.6157098  21.6119889  13.5168680
  62.4488556  22.3778627  13.5069685  56.9530584  32.0190543   9.2600850
  56.2013484  31.6406081   9.0316895  57.4016596  32.0508976   8.5119660
  56.9080251  31.9676150   9.1158352  65.8783161  28.7514350  23.1024075
  66.5849928  28.2566381  23.2311009  66.0671097  29.1923432  22.3726733
  66.0111067  28.7432701  23.0133120  62.4055544  32.4415912   4.6886397
  62.0706913  33.1192834   4.2530619  62.9182415  32.0521224   4.1003269
  62.4321125  32.4840490   4.5373189  61.9459836  34.3930181  10.6297509
  62.3299215  34.9617080  10.0902284  61.8818977  33.6679691  10.1503325
  61.9933263  34.3705644  10.4791371  65.4141266  24.5419869  16.1395270
  65.9597226  25.2204955  16.1989240  65.3558142  24.4007330  15.2796852
  65.4857180  24.6211870  16.0207331  58.5315341  32.0308935  11.5263623
  58.6325703  31.2209289  11.8360750  57.9357086  31.9365881  10.8963301
  58.4587879  31.8973963  11.4789861  67.1906334  25.9704476   7.0128998
  67.0745860  26.7212162   7.4421136  67.9862221  25.7128429   7.2625085
  67.2910924  26.0439323   7.1133090  58.3716080  36.9486524  12.9278479
  59.0153536  37.3899688  13.3174637  58.6972336  36.1439950  12.8408737
  58.5147909  36.8951719  12.9723956  51.7280385  28.0529221  11.1515956
  51.4930569  27.2196874  11.0448225  51.8666026  28.3333887  10.3377157
  51.7136047  27.9712725  11.0158311  54.0270472  20.2214952  14.0500264
  53.4075504  19.6307599  13.8810279  53.9254336  20.8126387  13.4164587
  53.9208148  20.2219035  13.9305254  59.0736660  29.9598499   8.2998340
  59.3952501  30.5003706   7.6959649  59.7208756  29.3895270   8.4320630
  59.2162715  29.9557674   8.2305376  61.1238368  21.9614494   8.3832727
  61.8218533  22.1402621   8.8754190  61.4390700  21.4384833   7.7603116
  61.2733705  21.9108266   8.3634737  53.7539605  23.7667234  16.2943833
  53.6298302  24.3529679  16.9293652  54.4057890  23.2727429  16.5956108
  53.8313255  23.7806038  16.4329762  61.3126303  28.3484939   8.3712519
  61.7519939  27.7402039   8.8167291  61.1630966  27.9692312   7.5997984
  61.3547769  28.2023410   8.3231686  58.7797946  26.9428951  15.5731344
  59.4246949  26.4501394  15.2542293  59.0199723  27.0853737  16.3997422
  58.9108531  26.8906393  15.6480877  61.3184038  29.7883857  15.2238237
  61.6007280  28.9935262  15.0024993  62.0470198  30.2664444  15.2443298
  61.4673601  29.7418453  15.1941252  59.2965231  17.3306891  12.4654002
  58.9668562  17.7818034  11.7957700  58.6210233  17.2523054  13.0127008
  59.1475668  17.3858026  12.4477225  64.9135640  26.7012120   5.3243288
  64.8286935  27.5573087   5.4692857  65.4020023  26.4256444   5.9925447
  64.9724537  26.7869442   5.4445369  65.8454073  23.3196914   6.8241023
  65.3165545  23.5356548   7.4838329  66.3679093  24.0133053   6.7441992
  65.8442526  23.4540051   6.9096622  71.3002126  28.8943219  12.1974067
  70.4699829  29.1053862  12.3607484  71.2511378  28.0680273  11.9216351
  71.1708861  28.8032825  12.1811433  57.7353681  27.2160131   5.6248491
  57.1510896  27.7210163   6.0314355  57.3323776  26.9902518   4.8845083
  57.5892985  27.2568379   5.5753516  53.2897709  32.9314892  12.4272162
  52.8065288  33.6565382  12.4031746  54.1021028  33.2291022  12.5382320
  53.3388457  33.0817246  12.4399442  59.3611864  31.7247073  15.0321977
  58.8438805  31.3654488  14.4283285  60.0586255  31.2009247  15.0428043
  59.3877445  31.5944761  14.9452236  63.0175456  32.1741887  20.9938150
  63.1058801  31.9868027  21.8416360  63.4465168  31.5279317  20.5942997
  63.0937558  32.0504895  21.0609901  60.5845915  31.4573047  19.9755812
  60.0216750  31.0445657  20.4995473  61.3466939  31.3825953  20.3948955
  60.6140364  31.3850448  20.1148813  57.5021186  15.3919179   7.9476949
  58.2567154  15.7597496   7.7094000  57.3248720  15.7658733   8.7156129
  57.5875664  15.5017367   8.0261838  56.1441907  33.4471068  12.5792442
  56.8462486  32.9323057  12.6365199  56.0639390  33.7745220  13.3839317
  56.2365667  33.4185294  12.7065235  70.7956084  21.5413619  15.9924489
  69.9584505  21.6115807  16.2272083  70.7644315  21.5438114  15.1198791
  70.6674367  21.5523846  15.8984037  57.1920813  23.6846655  21.7072857
  57.3641317  23.5752550  22.5558139  57.7290171  24.3301061  21.4704050
  57.2965817  23.7638657  21.7977954  55.8578250  17.7989498   4.6455062
  55.6753823  18.0161379   3.8196055  56.7203863  17.9128511   4.7013677
  55.9582840  17.8479396   4.5309549  55.4692682  29.6377420  12.0878050
  56.3081582  29.8700353  12.1351812  55.5004451  28.7681732  12.0185086
  55.5974400  29.5434367  12.0842695  56.0945385  30.0578295  16.3891356
  56.6343610  29.9149426  17.0594728  55.4115331  30.4575046  16.7575382
  56.0737539  30.0957966  16.5425778  65.5186270  25.7369296  11.5836380
  66.2743785  26.1700810  11.6225289  65.6248595  25.0874066  12.1571016
  65.6456441  25.7046780  11.6734406  68.5566441  29.5642573  12.3338783
  68.1201673  29.5679316  13.0897755  68.2229357  30.2448072  11.9018361
  68.4429061  29.6655029  12.3819616  63.1295515  31.6050906  23.6581934
  63.9135931  31.7181754  24.0237676  62.9292109  30.7792043  23.8540619
  63.2161540  31.4997625  23.7416320  51.4982530  26.2778586  16.5425777
  51.2320945  25.4617703  16.7016768  51.5121094  26.3231742  15.6721293
  51.4607253  26.1635491  16.4379259  68.4763924  16.6056401  14.5768211
  69.1189833  16.6754506  15.1630126  68.7286945  15.9385624  14.0747753
  68.6086056  16.5182750  14.5895490  55.4040277  21.0763671   3.1577536
  54.6898454  20.7901850   3.5699968  55.8884246  21.4160296   3.7983923
  55.3699641  21.0845320   3.3133170  56.2481137  19.8156964  19.1892785
  55.5552933  19.3453944  19.4353517  56.8641464  19.5895269  19.7634492
  56.2365667  19.7124096  19.3101938  63.2865908  33.5161008  17.3048389
  62.4881154  33.2760508  17.5622258  63.7351920  33.5675401  18.0515437
  63.2340519  33.4883399  17.4533313  71.6910787  26.2823493  11.2258420
  72.3527221  25.7214162  11.1254329  71.0502199  25.7875524  11.5511112
  71.6939655  26.1259902  11.2590761  62.5787595  29.5793625   3.5339344
  62.9938744  29.2478648   2.8423839  61.7479525  29.3462527   3.4059480
  62.5175604  29.4964880   3.4130191  51.9075944  27.0637366  13.8237522
  51.7251517  27.0384252  12.9709814  52.6425613  27.5336303  13.8626430
  51.9890008  27.1298728  13.7035440  67.9775618  27.2988876  10.9670409
  68.2131207  27.4434074  10.1397260  68.1265182  28.0631284  11.3601923
  68.0341421  27.4327930  10.9034013  54.9721696  23.7822368  20.3319630
  55.6961668  23.7675399  20.8184525  55.0737832  24.4917724  19.8341599
  55.0939905  23.8847072  20.3298417  69.8066075  26.1390541   8.8040013
  70.1374292  26.6718182   8.1980108  70.3799163  26.1929429   9.4601964
  69.9399754  26.2260110   8.8117795  62.3466645  27.2621453  25.1968577
  61.5539626  27.5764965  25.3821197  62.4615572  27.4772921  24.3589362
  62.2462056  27.3405290  25.1006912  65.0197964  23.9855444   9.4863593
  65.1144818  24.7244738   9.9403219  64.3956808  23.5572920   9.9198158
  64.9406994  24.0316765   9.6171741  63.2750438  27.1641657  20.1353874
  63.8489299  26.5268901  20.2902438  63.1965242  27.1645739  19.2663532
  63.3483673  27.0706768  20.0300285  51.8746854  23.9430866  13.9736588
  52.4520357  23.8067317  14.6128834  51.1760916  23.4866650  14.2282173
  51.8567876  23.8553132  14.1058878  58.6314156  25.5964922  12.1875071
  58.3733401  24.7636657  12.1606371  58.6862639  25.8222535  11.3467572
  58.6013934  25.5062693  12.0595208  63.7115207  17.6993373  12.2879164
  63.0071533  17.2102558  12.4463083  63.7600181  17.7115847  11.4167609
  63.6145258  17.6283021  12.1818504  57.6048869  23.1502684  12.6739966
  57.0298460  23.3094853  13.3103927  57.2284545  22.5138093  12.2108417
  57.4651681  23.0800497  12.6994525  61.2722157  21.6226034  17.5332345
  60.8836590  21.1980251  16.8784536  60.6076856  21.8708183  18.0409371
  61.1169085  21.5964755  17.5120213  47.3505687  22.7942759  10.6884407
  47.4365939  22.4174627  11.4697937  47.9781485  22.4203205  10.2104365
  47.4562238  22.6828241  10.7329884  65.0948519  15.3200662  15.0456329
  65.4759031  14.6378833  15.4324203  64.2911803  15.0310264  14.8631993
  65.0324980  15.1767711  15.0760385  62.3761095  25.8524638   5.7309152
  63.1901734  26.1439531   5.6191923  62.3120237  25.1984501   5.1567445
  62.4863835  25.7989833   5.6297989  68.5970586  28.5350634  20.1438727
  68.3609223  27.7038699  20.0250788  69.2413815  28.4836242  20.7293571
  68.6565256  28.4048322  20.2124621  58.2469004  29.3246156  10.8581464
  58.8842951  29.0857903  11.4033257  58.6724075  29.5283315  10.1234624
  58.4045170  29.3197166  10.8298621  52.9381646  31.5634492  14.7415767
  52.9785791  31.8349343  13.9135547  53.4976170  32.0876400  15.1573555
  53.0264992  31.6810247  14.6807656  58.8871819  24.5448445   5.1956353
  59.2716971  24.3256152   5.9472898  58.6383439  25.3711391   5.3257429
  58.9073891  24.6346592   5.3257430  59.0540359  17.8254861  24.9118937
  58.7393800  18.5954423  24.6488500  58.7330292  17.2625117  24.3271164
  58.9599278  17.8565129  24.7860287  69.6207006  28.3195083  16.2067022
  69.3152823  29.0523140  16.5680337  68.9013222  27.9133013  15.9259808
  69.4694349  28.3676816  16.2180159  60.6290476  29.8018578  12.5375250
  60.7029484  29.6393750  13.3917100  61.4459982  29.9908768  12.2935732
  60.7606834  29.8055321  12.6273276  75.3208798  24.9588084  15.5335366
  75.2533299  24.9784043  14.6637953  75.3064461  25.8018411  15.7591037
  75.3087555  25.0861818  15.4387843  54.3896232  30.1476441   9.5669693
  53.5634350  30.3938178   9.4403972  54.4508224  30.0688522  10.4331752
  54.2770399  30.1721390   9.6758638  56.6072256  16.2145382  10.5265134
  55.7394682  16.2867982  10.5922743  56.8947460  17.0167461  10.7153109
  56.5212004  16.3439529  10.5639900  65.7305145  16.3623242  18.8576455
  66.4758737  16.1733052  18.4439881  65.3142449  16.8881479  18.2990312
  65.7790119  16.4125387  18.7141029  59.1695061  32.7653321   7.2688723
  59.4593360  32.3742303   6.5447950  59.8998542  32.9470026   7.7093999
  59.3201946  32.7347135   7.2271530  73.1067416  23.7332470  13.8081960
  73.6575337  23.1000539  14.0479053  73.0911531  24.2647863  14.4997465
  73.1852612  23.7181418  13.9460819  59.7589807  27.5671067  18.3541854
  59.2601500  28.2786835  18.4326742  60.5690031  27.8871734  18.3160016
  59.8045913  27.7197916  18.3598422  57.1100977  34.7420704  10.3348873
  56.8901272  34.4518058  11.1275540  56.8895499  34.0835659   9.8066785
  57.0448571  34.6020412  10.3737782  56.0217924  26.8294020  12.6004575
  55.7331173  26.2031492  13.1350302  56.8901272  26.7714308  12.6669255
  56.1078176  26.7281565  12.6895529  66.8095822  21.9728804  12.9186557
  66.4660588  21.2519139  13.2693806  66.9088865  21.7642655  12.0764915
  66.7737865  21.8353007  12.8458237  59.2768933  36.1150094   9.1179565
  59.9292991  35.5826536   9.3470592  58.5794541  35.7618746   9.5047440
  59.2699651  35.9839617   9.2091733  56.2250198  28.4689271   8.5246940
  56.9796166  28.8502310   8.7382402  55.6320810  28.9200415   8.9793636
  56.2486911  28.5918099   8.6229818  67.2708851  28.4354508   8.4610545
  67.8366884  29.0947718   8.3769088  66.6236754  28.7804206   8.9326947
  67.2587607  28.5836449   8.5183301  58.6856865  20.4252112  23.6504152
  57.8756640  20.7309891  23.5393994  59.1631551  21.1457694  23.7656736
  58.6360343  20.5766713  23.6511223  57.5448424  29.6397833  13.8987055
  57.0229178  29.7798124  14.5838920  57.9322444  28.8808497  14.0889173
  57.5252125  29.5483357  14.0288132  54.5339608  19.6903641   7.9682010
  54.2464404  19.3204912   7.2313957  55.2210076  20.1598497   7.7065715
  54.5928505  19.7050611   7.8197086  63.7415429  31.3793292   7.8847624
  63.5002105  30.6461153   7.4774689  63.9216762  31.9280149   7.2313957
  63.7323053  31.3515683   7.7277847  58.9714750  26.6701852   9.2968546
  58.7757532  27.2776586   8.7028849  59.1949095  25.9769796   8.8160220
  58.9749391  26.6579377   9.1384627  57.3693280  23.5556590   9.4149415
  58.0915932  23.7197748   8.9553221  56.8901273  24.2766254   9.3088754
  57.4057010  23.6854819   9.3315029  65.3286787  19.8920388  14.7946100
  64.4897888  19.9181667  14.5584363  65.3991155  20.5391124  15.3751446
  65.2155181  19.9916514  14.8455216  55.0200896  25.9614662  18.5203554
  55.5321993  26.2398915  17.8712314  54.7337239  26.7003956  18.8866368
  55.0535760  26.1117016  18.4793433  69.2044311  25.0988375  12.0807341
  69.1178286  25.2543801  12.9342120  68.7494791  25.7426451  11.7066746
  69.1247568  25.2164130  12.1514448  52.1067803  20.4684854   8.8167291
  52.2083939  21.2711015   9.1448266  52.9023690  20.2672190   8.5190372
  52.2395708  20.5570753   8.8202646  58.5384622  18.0541051  18.5804596
  58.3467819  18.0696185  19.4304020  59.3883218  18.2504725  18.5571251
  58.6360344  18.0855402  18.7027891  52.9231535  20.5832032  16.5588413
  52.7817027  19.7315973  16.6832920  53.2072098  20.6260693  15.7350619
  52.9439381  20.4631782  16.4556037  63.0770127  22.4199122  10.7032901
  62.8304842  22.3394873  11.5369690  63.4055250  21.6352590  10.5095428
  63.0891371  22.2925388  10.7980424  65.3096261  25.4278857  20.7442064
  65.3044300  24.5558674  20.7484490  66.0157255  25.6267026  20.2711519
  65.4141265  25.3282731  20.6749099  59.0367155  25.1555841  20.1155884
  59.1810530  25.7357049  19.4798994  59.3842803  25.5332138  20.8205738
  59.1094616  25.2976545  20.1254879  61.2087072  24.3546009  17.8981015
  60.4610386  24.5477024  17.4929294  61.3628597  23.5291229  17.6605137
  61.1209499  24.2611121  17.8026421  58.1094910  33.3458613  16.9816911
  58.2584473  32.7861529  16.3290315  58.8894912  33.4250614  17.3649430
  58.2469003  33.2744178  16.9413860  60.6348210  33.5173256  18.2601402
  60.5591881  32.8482066  18.8152190  60.5638069  34.2191044  18.7742068
  60.6128817  33.5218163  18.4178250  61.4488849  18.2496560  18.7876419
  61.9061463  18.9820534  18.9149211  61.5245178  17.8263025  19.5463675
  61.5279819  18.2953798  18.9177496  53.6921840  18.4962380  19.8765863
  53.1564030  17.8842738  20.1926630  53.7539605  19.0710516  20.5299530
  53.6217473  18.4909307  20.0201290  61.2918457  32.0374254   9.0925008
  62.0568348  31.7683898   8.7707672  61.1896547  31.5524265   9.8095070
  61.3899953  31.9263819   9.1504835  59.3271227  20.2398664  15.6318243
  58.5367302  20.0590124  15.9535579  59.7231850  19.4625616  15.6148538
  59.2688103  20.0986125  15.6770792  64.7114913  27.8741094  13.3577689
  64.0359915  27.6426326  13.8591076  64.7207289  27.2662277  12.7319794
  64.6133418  27.7500019  13.3393841  61.8409057  22.7158923  20.1141742
  61.7768198  23.5768879  19.9861879  61.9806245  22.3990916  19.3137293
  61.8524527  22.7959090  19.9769955  66.7131648  30.7306226   5.5887867
  66.7951485  31.5373213   5.2649318  67.1981390  30.7502186   6.3128641
  66.7968806  30.8526889   5.6474766  60.5228151  25.4091062  14.2557945
  60.0990400  25.6095561  13.5196963  60.3473006  24.5619910  14.3682245
  60.4339032  25.3139844  14.1631635  60.0239844  36.9241575  16.7179402
  60.5135775  36.2252365  16.5355067  59.4524077  36.6265445  17.3055460
  60.0124374  36.7767799  16.7780443  55.8110596  25.9043114   9.6885918
  55.9675215  25.8389917  10.5441910  56.1511189  26.6791666   9.4764597
  55.8843831  26.0092312   9.7840512  62.3489741  25.2800997   8.5579281
  62.8905286  24.7771378   9.0217901  62.6636300  25.2266192   7.7468766
  62.4754138  25.1980418   8.5063093  66.2206848  29.4903645  25.6706193
  67.0341713  29.2188794  25.8311325  66.0601814  29.1911185  24.8666389
  66.3176796  29.4058571  25.5751599  60.5176190  30.6718349   5.8419309
  60.5869011  29.8132887   5.9812309  61.2964645  30.8890230   5.5138333
  60.6429040  30.5771213   5.8136466  63.4979010  20.1737302  18.6101581
  63.7120980  19.5348216  18.0564935  62.8812909  20.6183126  18.1809443
  63.4384339  20.1447446  18.4652012  64.9083678  33.0956050  10.0555802
  64.5163470  32.7922765   9.3378668  65.0636750  33.9325140   9.8660756
  64.8737268  33.1739887   9.9212299  52.3844857  23.0878064  10.0046685
  52.7643822  23.5062609   9.3406952  51.8100222  23.6691520  10.3115528
  52.3556182  23.2355923   9.9523426  65.6618098  21.7826367  19.5484888
  64.8494780  21.4752257  19.6298061  66.1208033  21.3025367  20.1127601
  65.6098483  21.6662859  19.6439482  65.0723353  29.6606039   9.9961833
  64.7138007  29.8320682  10.7725865  64.5862063  30.1219245   9.4389831
  64.9482050  29.7545010  10.0287102  62.8893739  13.2837238  13.5988924
  62.0187297  13.2575959  13.5522234  63.1434080  13.1114430  12.7814770
  62.7987299  13.2547381  13.4709061  59.8611718  25.3405204   2.5362067
  60.1504243  26.1170087   2.8105641  59.9483517  24.8293936   3.2376566
  59.9165974  25.3797123   2.6804565  62.7571606  23.1886439  24.3313591
  63.2271237  23.8128555  24.7181465  62.8033486  22.5203414  24.8906805
  62.8339481  23.1821119  24.4713662  59.9142879  15.2943466  15.0562394
  59.3981368  14.6023657  15.1813973  59.3536808  15.9614243  15.0024993
  59.7549392  15.2906724  15.0668460  61.9835113  15.8336426  16.8855247
  61.5966866  15.8585458  17.6668777  61.4968050  15.2678105  16.4329764
  61.8547621  15.7532177  16.9343151  66.2328092  30.5509935  20.9429034
  66.8707813  30.0570131  20.6091490  65.5902184  30.4787335  20.3581260
  66.2322319  30.4668944  20.8071389  67.9585092  22.3999081  15.5094949
  67.5312700  22.3125430  14.7543049  67.3211145  22.5076856  16.0949793
  67.8014699  22.4031741  15.4840391  61.6492254  12.7203412  19.1765507
  62.2785372  13.2563712  18.8986577  61.8178117  12.6280770  20.0279073
  61.7670049  12.7864774  19.2614035  61.4506169  17.5074606  21.4491919
  62.2779599  17.2359755  21.5050533  61.4714015  18.3035448  21.8055737
  61.5759019  17.5854360  21.5107101  66.2882349  31.2429743  17.5834390
  67.0774727  30.8918808  17.7036472  66.4625946  32.0566132  17.3211024
  66.4302630  31.3115600  17.5622258  56.0275659  24.6538469  14.6362179
  55.1863666  24.5542343  14.8441073  56.2365667  25.4233949  14.9876500
  55.9340352  24.7530512  14.7189494  53.5051226  22.2758006  12.4646930
  53.1107924  22.3501018  11.6897039  52.9491343  22.6615952  13.0155292
  53.3654038  22.3439781  12.4314590  65.1416173  15.2539300  12.1450809
  65.3465766  15.1861608  12.9907806  64.8142597  16.0598121  12.0771986
  65.1231421  15.3625240  12.2610464  59.8392324  22.5819868  13.8859777
  59.5355461  22.0275856  14.4870184  59.1371745  22.7612078  13.3987811
  59.6908534  22.5264651  13.9029482  58.8958421  19.8920388   8.4504479
  59.1718155  19.1739301   8.0382046  59.4957090  20.4905308   8.2425585
  59.0251686  19.8740759   8.3585240  57.9010675  29.7969589  18.5931874
  57.7931030  29.8071651  19.4593933  58.1106456  30.6224369  18.4036828
  57.9160786  29.9210664  18.6935966  55.9184467  27.0482231  16.0553812
  55.3272400  27.6891730  16.0256827  56.6805490  27.4719849  16.0285112
  55.9432728  27.2058070  16.0468959  56.3145090  18.2084229  16.7221830
  56.7746571  18.2823159  17.4596953  56.3601196  19.0065483  16.3721651
  56.3895645  18.3378376  16.7794586  57.9628439  18.8750924  21.2893857
  57.5714005  18.2284271  21.7249635  58.1314302  19.4662359  21.9088112
  57.9299350  18.8665192  21.4456563  72.0374888  26.8788001  17.0531090
  72.0958012  27.3274650  17.7991067  71.4041356  27.2886814  16.6161170
  71.9526184  27.0061736  17.0983639  65.6773983  32.4991543  13.4885836
  65.4793672  32.9882357  12.7942048  65.0561694  32.7032784  14.0669970
  65.5561548  32.6008081  13.4709060  59.7381961  24.2676440   7.8296081
  60.4824006  24.6550716   8.0679031  59.8842658  23.4233865   7.9936569
  59.8692547  24.2006913   7.8890050  61.6561537  16.0626699  12.8627942
  60.8097582  16.2349506  12.7369292  61.6532669  15.2576042  13.1993771
  61.5308687  15.9687728  12.8939069  62.7259837  19.8401913  13.7290000
  62.2519792  19.3143675  14.2395311  63.0977973  19.2931386  13.1604862
  62.7109726  19.6817910  13.7205147  53.1032867  21.8373420  19.0973546
  53.9658481  21.7369129  19.0110876  52.7724650  21.2568129  18.5359118
  53.1818064  21.7365046  19.0018952  68.9896568  24.9004289  15.1396781
  68.7494791  24.0610704  15.1439207  69.4688575  24.9804455  15.8637554
  69.0248752  24.7885688  15.2471583  70.9901755  21.6805746  13.0926040
  70.7511525  21.6401580  12.2546824  71.1535656  22.5276898  13.2191761
  70.9792058  21.7997831  12.9879522  67.5947785  26.0655695  19.0231085
  68.3181984  25.6128222  18.8442105  67.3297747  26.3460361  18.2403413
  67.6629058  26.0406664  18.8809800  56.4634653  20.6615869  15.7583964
  55.8387724  20.6734261  15.1509917  56.1280248  21.1376044  16.4075204
  56.3220145  20.7334386  15.7640533  56.6476402  19.0040987   1.8156649
  56.2989206  19.6560712   2.2788198  56.1672848  18.9898100   1.0880520
  56.5246646  19.0984041   1.7767740  53.1760329  28.7216329  17.1987728
  52.6460254  28.0308768  17.2482703  53.4485422  28.7126514  16.3700437
  53.1385051  28.6183461  17.0835144  64.2080420  29.3042031   5.9225411
  64.9314618  29.7700144   5.7789984  63.7681011  29.3715641   5.1723008
  64.2496112  29.3825868   5.7910192  63.3766575  26.1639573  17.1726100
  62.7623568  25.6197624  17.4674735  63.8933860  25.6503810  16.6931916
  63.3622237  26.0075982  17.1450328  62.6162872  27.2343843  14.9070399
  62.1890480  26.6093562  14.4735834  62.6087816  26.9518765  15.7329406
  62.5522013  27.0996624  14.9650226  55.7325399  22.2709017  17.9758833
  55.8918886  21.5152341  18.3810554  55.5518292  22.8199956  18.6299570
  55.7290758  22.2402830  18.1321539  63.6745702  14.4370252  18.5309622
  63.1786263  14.6333926  17.8401189  64.4314764  14.8362920  18.3598424
  63.7132527  14.5247986  18.4029759  60.9448581  18.1112598  15.1212933
  60.9691069  17.5772710  14.4325713  61.1960055  17.6029907  15.7838523
  60.9858500  17.9573502  15.1177577  48.4556171  25.3944093  14.5556077
  48.3499620  25.3490937  13.6908161  47.7056391  25.7397874  14.8370362
  48.3291774  25.4385001  14.4693406  57.2249904  16.8383416  14.5018677
  57.2648275  17.3392623  15.2153384  56.3999568  16.9293810  14.2324600
  57.1089430  16.9265233  14.5669215  59.4079517  26.4044156  22.6038971
  58.5575147  26.5415871  22.7396616  59.5707644  25.6707934  23.0486673
  59.3063380  26.3158257  22.6894571  58.6464267  23.3543926  16.7992576
  57.8156197  23.5217744  16.5927824  58.5915784  22.9779877  17.5841461
  58.5153682  23.3233657  16.8841104  56.4548050  16.8452819  22.4348987
  57.0800754  16.3014952  22.7078419  55.9998530  16.3647737  21.8656777
  56.4796311  16.6942300  22.3910580  57.0200311  21.6299518   7.3282694
  57.1603272  22.1271982   8.0311335  57.5182844  20.9285812   7.4696907
  57.1141392  21.6001496   7.4534273  57.0500533  22.4966629   4.6575270
  57.6845613  23.0927054   4.5924732  57.1326144  22.1970086   5.4721141
  57.1557084  22.5407537   4.7678357  70.0283099  25.0282106  17.5261635
  70.6200939  25.6679357  17.5579833  70.4642094  24.3305143  17.8153701
  70.1801530  25.0200456  17.5742467  58.6279516  18.4280604   4.6320712
  58.9495357  17.9483687   3.9779975  58.8906460  19.2380250   4.4411524
  58.7145542  18.4770502   4.5076204  61.8576489  29.4499478  18.1519529
  61.3501580  30.0035325  18.5960159  61.5603135  29.5107768  17.3338303
  61.7381374  29.5405790  18.0967985  64.0238671  17.8152798  16.9944192
  64.4493743  17.3625324  16.3827718  63.4095664  17.2612869  17.2708979
  63.9967316  17.6666774  16.9449217  53.5553521  24.6934469   7.9264816
  54.0645750  25.2898977   8.3076122  54.0287793  24.4260443   7.2441236
  53.6996897  24.7420285   7.8819339  64.4684269  33.3662736   6.0823472
  63.7513579  33.1923598   5.6170709  65.1191007  33.1315308   5.5498958
  64.4586120  33.3058529   5.9352690  62.4632894  14.2867898  10.4034769
  61.8201212  14.1365544  10.9719907  62.1232301  14.0410243   9.6383873
  62.3177971  14.2280020  10.3737784  67.0532240  22.2427325   9.8264777
  66.3823430  22.7857027   9.6977843  67.7471991  22.7122180   9.5846472
  67.0561108  22.3925596   9.7720305  61.1018974  34.3824037  15.0576535
  60.8784629  33.6242866  15.4260562  60.6128817  34.4122058  14.3356975
  60.9962423  34.2746261  15.0053276  67.2160368  18.6983208  12.7355150
  67.5687978  18.2712931  13.4100949  66.3575169  18.6134052  12.8656227
  67.1409813  18.6227949  12.8550161  55.9144053  21.3290728  10.7937997
  55.1956042  21.7454861  11.0610860  56.2856415  21.8944967  10.2429635
  55.8635985  21.4740009  10.7520804  65.2143634  21.9618577  16.6839993
  65.1941561  21.7801872  17.5374771  65.2622834  22.8330595  16.6599576
  65.2178275  22.0635115  16.8063287  63.1589964  28.5505769  22.6088469
  63.1185818  27.9055446  22.0233625  63.9713282  28.4942386  22.9213881
  63.2733117  28.4464736  22.5685418  59.7497431  34.6024495  12.5113620
  59.3357830  33.9398625  12.1217462  60.4344805  34.7502354  11.9909314
  59.7895803  34.5265153  12.3770117  63.1162725  33.7614580  13.2637237
  62.7179008  33.8716850  12.4958057  62.5013945  33.9696646  13.8463796
  62.9661615  33.8088148  13.2368536  61.6890627  20.3688728   6.1311376
  61.0955467  20.6905724   5.5795943  61.7265905  19.5229823   5.9232482
  61.6065016  20.2913056   6.0194148  64.5648444  20.3268232   9.5613127
  64.3362137  20.3500934   8.7191485  64.8246520  19.5025699   9.6808137
  64.5694632  20.2084312   9.4538324  58.8467672  22.1802705  19.1638227
  58.3346575  21.5723888  19.5223258  58.6747168  22.8959298  19.6312203
  58.7457309  22.1966005  19.2854450  53.6933387  20.6240281  21.8140589
  53.5235977  21.2841656  21.2688795  53.2499337  20.8346842  22.5353078
  53.6032721  20.7526263  21.8402218  57.6193206  18.8644779  10.8567322
  58.0950573  19.2261859  10.2217503  57.1181806  19.5201246  11.1367465
  57.6158565  19.0138967  10.8044063  62.7236743  20.1026950  21.6040482
  63.2808173  19.8740760  20.9718948  62.3997808  20.8632616  21.3275695
  62.7583153  20.1810787  21.4696979  50.5935451  23.5287146  17.0729078
  50.0462171  22.8587792  17.1909947  51.3827830  23.1616994  17.1372546
  50.6287635  23.3752133  17.0997779  60.4419860  23.1894603  22.5692489
  61.1931187  23.5046280  22.8832044  60.6342436  22.9873774  21.7426411
  60.5811274  23.2061985  22.4935885  59.6619859  21.0085978   4.2240706
  60.0418824  21.0265608   3.4391821  58.9212456  21.4539967   4.1031554
  59.6088697  21.0767753   4.0904274  49.3522421  22.7407954  14.2275101
  49.1744182  22.2884563  14.9530017  49.0641443  23.5434116  14.4113579
  49.2835374  22.7930512  14.3618604  65.0146002  23.9965671  13.4652492
  65.5099667  23.2788667  13.4256512  64.2045778  23.6936469  13.3506979
  64.9689895  23.8463318  13.4426218  60.4604614  27.8463485   5.6149496
  59.6515936  27.5230158   5.5682806  60.9679522  27.1396707   5.5477745
  60.4154280  27.6944801   5.5979791  51.0894891  25.2735678  11.3396860
  50.2240410  25.2621368  11.2279632  51.1893707  25.0865901  12.1868000
  50.9769058  25.2441739  11.4485805  67.0797821  26.7469359  16.1529621
  67.5052892  26.2243781  15.6000046  66.7154741  27.3450196  15.6318243
  67.0884423  26.7579586  15.9938630  56.7151901  35.0433576  14.9126966
  57.0298460  35.8569965  14.9204748  57.1245314  34.6583795  15.5809125
  56.8219999  35.1062279  15.0131058  63.6676420  30.4603623  12.4830778
  64.1387599  31.1743886  12.6520763  64.0036599  29.8602373  13.0190647
  63.7871535  30.4775088  12.5863154  65.7553405  32.0704937  24.6622850
  65.8650370  31.2813497  25.0179597  66.0844302  31.9810873  23.8597188
  65.8205811  31.9410790  24.5965241  60.5845915  15.2331094  19.4388873
  60.7173821  14.4362087  19.7669848  60.9691068  15.7597497  20.0187148
  60.6602244  15.1931011  19.5732376  64.3050367  30.2521557  19.2458471
  63.7571313  29.6279441  18.9778536  64.7663395  30.4415829  18.5302550
  64.2917576  30.1880608  19.1008902  63.6578270  12.1561420  16.0369966
  62.8524234  12.0459150  16.3537804  63.5285006  12.2573876  15.1799832
  63.5198403  12.1545090  15.9578006  67.1144231  18.3206912  16.6309663
  66.5307220  18.8216118  16.2187230  67.4348525  17.8136468  15.9973986
  67.0757406  18.3198747  16.4768170  59.6539030  17.2347507   6.9068338
  60.4754725  17.4045820   6.6650033  59.1908681  17.3894768   6.1834635
  59.7070192  17.2829240   6.7639982  58.2434362  15.2290269  17.6866767
  58.7878775  14.8881396  18.2771108  58.2971298  16.0875730  17.8288051
  58.3323481  15.3045528  17.7948640  54.0564921  28.9906685  14.5605574
  54.6609778  28.9502519  13.9319395  53.8492233  29.8377837  14.5909630
  54.1153818  29.1094687  14.4721691  63.8708693  31.2572630  15.7767812
  64.6907067  31.1135596  16.0384107  63.5902771  31.8818829  16.3184250
  63.9505436  31.3282982  15.8955751  49.2916203  27.9741302  14.4304498
  49.1940481  27.1637574  14.7394554  50.0745073  27.9533096  14.0450766
  49.3932340  27.8508393  14.4191360  73.5422028  38.0013133  13.4963619
  72.6859924  38.1621631  13.5472735  73.5889682  37.1305197  13.5168680
  73.4221140  37.8963935  13.5069685  67.9263168  47.5375851   9.2600850
  67.1746067  47.1591389   9.0316895  68.3749180  47.5694284   8.5119660
  67.8812835  47.4861458   9.1158352  76.8515745  44.2699658  23.1024075
  77.5582512  43.7751689  23.2311009  77.0403680  44.7108740  22.3726733
  76.9843650  44.2618009  23.0133120  76.3873849  40.0605177  16.1395270
  76.9329809  40.7390263  16.1989240  76.3290726  39.9192638  15.2796852
  76.4589764  40.1397178  16.0207331  69.5047924  47.5494243  11.5263623
  69.6058287  46.7394597  11.8360750  68.9089669  47.4551189  10.8963301
  69.4320463  47.4159271  11.4789861  69.3448664  52.4671832  12.9278479
  69.9886119  52.9084996  13.3174637  69.6704919  51.6625258  12.8408737
  69.4880492  52.4137027  12.9723956  62.7012968  43.5714529  11.1515956
  62.4663153  42.7382182  11.0448225  62.8398609  43.8519195  10.3377157
  62.6868631  43.4898033  11.0158311  65.0003056  35.7400260  14.0500264
  64.3808087  35.1492907  13.8810279  64.8986919  36.3311695  13.4164587
  64.8940731  35.7404342  13.9305254  72.0970951  37.4799802   8.3832727
  72.7951116  37.6587929   8.8754190  72.4123284  36.9570141   7.7603116
  72.2466289  37.4293574   8.3634737  64.7272189  39.2852542  16.2943833
  64.6030886  39.8714987  16.9293652  65.3790473  38.7912737  16.5956108
  64.8045838  39.2991346  16.4329762  72.2858887  43.8670247   8.3712519
  72.7252522  43.2587347   8.8167291  72.1363550  43.4877620   7.5997984
  72.3280353  43.7208718   8.3231686  69.7530530  42.4614259  15.5731344
  70.3979532  41.9686702  15.2542293  69.9932307  42.6039045  16.3997422
  69.8841115  42.4091701  15.6480877  72.2916621  45.3069164  15.2238237
  72.5739864  44.5120570  15.0024993  73.0202782  45.7849752  15.2443298
  72.4406185  45.2603761  15.1941252  70.2697815  32.8492198  12.4654002
  69.9401145  33.3003342  11.7957700  69.5942817  32.7708362  13.0127008
  70.1208251  32.9043334  12.4477225  64.2630293  48.4500200  12.4272162
  63.7797871  49.1750690  12.4031746  65.0753611  48.7476330  12.5382320
  64.3121041  48.6002554  12.4399442  70.3344447  47.2432381  15.0321977
  69.8171389  46.8839796  14.4283285  71.0318838  46.7194555  15.0428043
  70.3610028  47.1130069  14.9452236  73.9908039  47.6927195  20.9938150
  74.0791385  47.5053335  21.8416360  74.4197752  47.0464624  20.5942997
  74.0670141  47.5690203  21.0609901  71.5578499  46.9758355  19.9755812
  70.9949334  46.5630965  20.4995473  72.3199522  46.9011261  20.3948955
  71.5872947  46.9035755  20.1148813  68.4753769  30.9104487   7.9476949
  69.2299737  31.2782804   7.7094000  68.2981304  31.2844041   8.7156129
  68.5608248  31.0202675   8.0261838  67.1174490  48.9656376  12.5792442
  67.8195070  48.4508365  12.6365199  67.0371973  49.2930527  13.3839317
  67.2098251  48.9370602  12.7065235  68.1653397  39.2031963  21.7072857
  68.3373901  39.0937858  22.5558139  68.7022754  39.8486368  21.4704050
  68.2698401  39.2823965  21.7977954  66.8310834  33.3174806   4.6455062
  66.6486407  33.5346687   3.8196055  67.6936447  33.4313819   4.7013677
  66.9315423  33.3664704   4.5309549  66.4425266  45.1562728  12.0878050
  67.2814165  45.3885661  12.1351812  66.4737035  44.2867039  12.0185086
  66.5706983  45.0619675  12.0842695  67.0677969  45.5763603  16.3891356
  67.6076194  45.4334734  17.0594728  66.3847915  45.9760354  16.7575382
  67.0470123  45.6143274  16.5425778  76.4918854  41.2554604  11.5836380
  77.2476369  41.6886118  11.6225289  76.5981178  40.6059374  12.1571016
  76.6189024  41.2232088  11.6734406  74.1028098  47.1236214  23.6581934
  74.8868515  47.2367062  24.0237676  73.9024693  46.2977351  23.8540619
  74.1894124  47.0182933  23.7416320  62.4715114  41.7963894  16.5425777
  62.2053529  40.9803011  16.7016768  62.4853678  41.8417050  15.6721293
  62.4339836  41.6820799  16.4379259  66.3772861  36.5948978   3.1577536
  65.6631038  36.3087158   3.5699968  66.8616829  36.9345604   3.7983923
  66.3432224  36.6030628   3.3133170  67.2213720  35.3342272  19.1892785
  66.5285517  34.8639252  19.4353517  67.8374048  35.1080577  19.7634492
  67.2098250  35.2309404  19.3101938  74.2598492  49.0346316  17.3048389
  73.4613737  48.7945816  17.5622258  74.7084503  49.0860709  18.0515437
  74.2073103  49.0068707  17.4533313  62.8808527  42.5822673  13.8237522
  62.6984101  42.5569559  12.9709814  63.6158196  43.0521611  13.8626430
  62.9622591  42.6484036  13.7035440  65.9454279  39.3007676  20.3319630
  66.6694251  39.2860707  20.8184525  66.0470416  40.0103032  19.8341599
  66.0672488  39.4032380  20.3298417  73.3199229  42.7806761  25.1968577
  72.5272209  43.0950273  25.3821197  73.4348156  42.9958229  24.3589362
  73.2194639  42.8590598  25.1006912  75.9930548  39.5040752   9.4863593
  76.0877402  40.2430046   9.9403219  75.3689391  39.0758228   9.9198158
  75.9139578  39.5502073   9.6171741  74.2483021  42.6826965  20.1353874
  74.8221883  42.0454209  20.2902438  74.1697825  42.6831047  19.2663532
  74.3216256  42.5892076  20.0300285  62.8479438  39.4616174  13.9736588
  63.4252940  39.3252625  14.6128834  62.1493500  39.0051958  14.2282173
  62.8300459  39.3738440  14.1058878  69.6046740  41.1150230  12.1875071
  69.3465984  40.2821965  12.1606371  69.6595223  41.3407843  11.3467572
  69.5746518  41.0248001  12.0595208  74.6847790  33.2178681  12.2879164
  73.9804117  32.7287866  12.4463083  74.7332764  33.2301155  11.4167609
  74.5877842  33.1468328  12.1818504  68.5781452  38.6687992  12.6739966
  68.0031043  38.8280161  13.3103927  68.2017128  38.0323401  12.2108417
  68.4384265  38.5985805  12.6994525  72.2454741  37.1411342  17.5332345
  71.8569174  36.7165559  16.8784536  71.5809439  37.3893491  18.0409371
  72.0901669  37.1150063  17.5120213  58.3238271  38.3128067  10.6884407
  58.4098523  37.9359935  11.4697937  58.9514069  37.9388513  10.2104365
  58.4294822  38.2013549  10.7329884  76.0681102  30.8385970  15.0456329
  76.4491614  30.1564141  15.4324203  75.2644387  30.5495572  14.8631993
  76.0057564  30.6953019  15.0760385  69.2201587  44.8431464  10.8581464
  69.8575534  44.6043211  11.4033257  69.6456659  45.0468623  10.1234624
  69.3777754  44.8382474  10.8298621  63.9114230  47.0819800  14.7415767
  63.9518375  47.3534651  13.9135547  64.4708754  47.6061708  15.1573555
  63.9997576  47.1995555  14.6807656  69.8604402  40.0633753   5.1956353
  70.2449555  39.8441460   5.9472898  69.6116023  40.8896699   5.3257429
  69.8806475  40.1531900   5.3257430  70.0272943  33.3440169  24.9118937
  69.7126384  34.1139731  24.6488500  69.7062875  32.7810425  24.3271164
  69.9331862  33.3750437  24.7860287  71.6023059  45.3203886  12.5375250
  71.6762068  45.1579058  13.3917100  72.4192566  45.5094076  12.2935732
  71.7339418  45.3240629  12.6273276  65.3628816  45.6661749   9.5669693
  64.5366934  45.9123486   9.4403972  65.4240807  45.5873830  10.4331752
  65.2502983  45.6906698   9.6758638  67.5804840  31.7330690  10.5265134
  66.7127265  31.8053290  10.5922743  67.8680044  32.5352769  10.7153109
  67.4944588  31.8624837  10.5639900  76.7037728  31.8808549  18.8576455
  77.4491320  31.6918360  18.4439881  76.2875033  32.4066787  18.2990312
  76.7522703  31.9310695  18.7141029  70.7322390  43.0856375  18.3541854
  70.2334084  43.7972143  18.4326742  71.5422614  43.4057042  18.3160016
  70.7778497  43.2383224  18.3598422  68.0833561  50.2606012  10.3348873
  67.8633856  49.9703366  11.1275540  67.8628083  49.6020967   9.8066785
  68.0181155  50.1205720  10.3737782  66.9950508  42.3479328  12.6004575
  66.7063756  41.7216799  13.1350302  67.8633856  42.2899616  12.6669255
  67.0810760  42.2466872  12.6895529  77.7828406  37.4914112  12.9186557
  77.4393171  36.7704447  13.2693806  77.8821448  37.2827963  12.0764915
  77.7470448  37.3538315  12.8458237  67.1982781  43.9874579   8.5246940
  67.9528749  44.3687618   8.7382402  66.6053394  44.4385723   8.9793636
  67.2219495  44.1103407   8.6229818  69.6589448  35.9437420  23.6504152
  68.8489224  36.2495199  23.5393994  70.1364135  36.6643002  23.7656736
  69.6092927  36.0952021  23.6511223  68.5181008  45.1583141  13.8987055
  67.9961761  45.2983432  14.5838920  68.9055028  44.3993805  14.0889173
  68.4984709  45.0668664  14.0288132  65.5072192  35.2088949   7.9682010
  65.2196988  34.8390220   7.2313957  66.1942660  35.6783805   7.7065715
  65.5661089  35.2235919   7.8197086  69.9447333  42.1887160   9.2968546
  69.7490116  42.7961894   8.7028849  70.1681679  41.4955104   8.8160220
  69.9481974  42.1764685   9.1384627  68.3425863  39.0741898   9.4149415
  69.0648515  39.2383056   8.9553221  67.8633856  39.7951562   9.3088754
  68.3789594  39.2040127   9.3315029  76.3019371  35.4105696  14.7946100
  75.4630472  35.4366975  14.5584363  76.3723738  36.0576432  15.3751446
  76.1887764  35.5101822  14.8455216  65.9933480  41.4799970  18.5203554
  66.5054577  41.7584223  17.8712314  65.7069823  42.2189264  18.8866368
  66.0268343  41.6302324  18.4793433  63.0800386  35.9870162   8.8167291
  63.1816523  36.7896323   9.1448266  63.8756273  35.7857498   8.5190372
  63.2128292  36.0756061   8.8202646  69.5117205  33.5726359  18.5804596
  69.3200402  33.5881493  19.4304020  70.3615801  33.7690033  18.5571251
  69.6092927  33.6040710  18.7027891  63.8964118  36.1017340  16.5588413
  63.7549610  35.2501281  16.6832920  64.1804682  36.1446001  15.7350619
  63.9171965  35.9817090  16.4556037  74.0502711  37.9384430  10.7032901
  73.8037425  37.8580181  11.5369690  74.3787834  37.1537898  10.5095428
  74.0623954  37.8110696  10.7980424  77.9450760  44.6467790  14.4919682
  77.8065119  45.3448835  14.9968424  77.1650758  44.4916446  14.1355864
  77.8093987  44.7267956  14.5145956  76.2828845  40.9464165  20.7442064
  76.2776883  40.0743981  20.7484490  76.9889839  41.1452334  20.2711519
  76.3873849  40.8468039  20.6749099  70.0099738  40.6741149  20.1155884
  70.1543114  41.2542357  19.4798994  70.3575387  41.0517446  20.8205738
  70.0827199  40.8161853  20.1254879  72.1819655  39.8731317  17.8981015
  71.4342970  40.0662332  17.4929294  72.3361181  39.0476537  17.6605137
  72.0942083  39.7796429  17.8026421  69.0827493  48.8643921  16.9816911
  69.2317057  48.3046837  16.3290315  69.8627495  48.9435922  17.3649430
  69.2201587  48.7929486  16.9413860  71.6080794  49.0358564  18.2601402
  71.5324465  48.3667374  18.8152190  71.5370653  49.7376352  18.7742068
  71.5861401  49.0403471  18.4178250  72.4221433  33.7681868  18.7876419
  72.8794047  34.5005842  18.9149211  72.4977761  33.3448333  19.5463675
  72.5012402  33.8139106  18.9177496  64.6654424  34.0147688  19.8765863
  64.1296613  33.4028046  20.1926630  64.7272188  34.5895824  20.5299530
  64.5950056  34.0094615  20.0201290  70.3003810  35.7583972  15.6318243
  69.5099885  35.5775432  15.9535579  70.6964433  34.9810924  15.6148538
  70.2420687  35.6171433  15.6770792  75.6847497  43.3926402  13.3577689
  75.0092499  43.1611634  13.8591076  75.6939873  42.7847585  12.7319794
  75.5866001  43.2685327  13.3393841  72.8141641  38.2344231  20.1141742
  72.7500782  39.0954187  19.9861879  72.9538828  37.9176224  19.3137293
  72.8257111  38.3144398  19.9769955  71.4960735  40.9276370  14.2557945
  71.0722984  41.1280869  13.5196963  71.3205590  40.0805218  14.3682245
  71.4071615  40.8325152  14.1631635  70.9972428  52.4426883  16.7179402
  71.4868358  51.7437673  16.5355067  70.4256660  52.1450753  17.3055460
  70.9856958  52.2953107  16.7780443  66.7843180  41.4228422   9.6885918
  66.9407799  41.3575225  10.5441910  67.1243773  42.1976974   9.4764597
  66.8576414  41.5277620   9.7840512  73.3222324  40.7986305   8.5579281
  73.8637870  40.2956686   9.0217901  73.6368883  40.7451500   7.7468766
  73.4486721  40.7165726   8.5063093  77.1939432  45.0088953  25.6706193
  78.0074297  44.7374102  25.8311325  77.0334398  44.7096493  24.8666389
  77.2909380  44.9243879  25.5751599  74.4711594  35.6922610  18.6101581
  74.6853563  35.0533524  18.0564935  73.8545493  36.1368434  18.1809443
  74.4116923  35.6632754  18.4652012  63.3577441  38.6063372  10.0046685
  63.7376406  39.0247917   9.3406952  62.7832806  39.1876828  10.3115528
  63.3288766  38.7541231   9.9523426  76.6350682  37.3011675  19.5484888
  75.8227363  36.9937565  19.6298061  77.0940616  36.8210675  20.1127601
  76.5831066  37.1848167  19.6439482  73.8626322  28.8022545  13.5988924
  72.9919880  28.7761267  13.5522234  74.1166663  28.6299738  12.7814770
  73.7719882  28.7732689  13.4709061  73.7304189  38.7071746  24.3313591
  74.2003820  39.3313863  24.7181465  73.7766069  38.0388722  24.8906805
  73.8072065  38.7006427  24.4713662  70.8875463  30.8128774  15.0562394
  70.3713951  30.1208965  15.1813973  70.3269392  31.4799551  15.0024993
  70.7281976  30.8092032  15.0668460  72.9567696  31.3521734  16.8855247
  72.5699449  31.3770765  17.6668777  72.4700633  30.7863413  16.4329764
  72.8280205  31.2717485  16.9343151  77.2060676  46.0695243  20.9429034
  77.8440396  45.5755439  20.6091490  76.5634767  45.9972643  20.3581260
  77.2054902  45.9854251  20.8071389  78.9317676  37.9184389  15.5094949
  78.5045284  37.8310737  14.7543049  78.2943729  38.0262164  16.0949793
  78.7747283  37.9217049  15.4840391  72.6224838  28.2388719  19.1765507
  73.2517956  28.7749020  18.8986577  72.7910701  28.1466078  20.0279073
  72.7402632  28.3050082  19.2614035  72.4238753  33.0259914  21.4491919
  73.2512182  32.7545063  21.5050533  72.4446599  33.8220756  21.8055737
  72.5491603  33.1039668  21.5107101  77.2614932  46.7615051  17.5834390
  78.0507310  46.4104116  17.7036472  77.4358530  47.5751440  17.3211024
  77.4035214  46.8300908  17.5622258  67.0008243  40.1723777  14.6362179
  66.1596249  40.0727651  14.8441073  67.2098251  40.9419257  14.9876500
  66.9072935  40.2715820  14.7189494  64.4783810  37.7943314  12.4646930
  64.0840507  37.8686326  11.6897039  63.9223926  38.1801260  13.0155292
  64.3386622  37.8625089  12.4314590  76.1148756  30.7724608  12.1450809
  76.3198350  30.7046916  12.9907806  75.7875180  31.5783429  12.0771986
  76.0964004  30.8810548  12.2610464  70.8124907  38.1005176  13.8859777
  70.5088045  37.5461164  14.4870184  70.1104328  38.2797386  13.3987811
  70.6641117  38.0449958  13.9029482  69.8691005  35.4105696   8.4504479
  70.1450739  34.6924608   8.0382046  70.4689674  36.0090616   8.2425585
  69.9984269  35.3926067   8.3585240  68.8743258  45.3154897  18.5931874
  68.7663613  45.3256959  19.4593933  69.0839040  46.1409677  18.4036828
  68.8893370  45.4395972  18.6935966  66.8917050  42.5667539  16.0553812
  66.3004984  43.2077037  16.0256827  67.6538074  42.9905157  16.0285112
  66.9165311  42.7243378  16.0468959  67.2877673  33.7269537  16.7221830
  67.7479155  33.8008466  17.4596953  67.3333780  34.5250791  16.3721651
  67.3628229  33.8563684  16.7794586  68.9361023  34.3936232  21.2893857
  68.5446588  33.7469579  21.7249635  69.1046886  34.9847667  21.9088112
  68.9031933  34.3850500  21.4456563  76.6506567  48.0176851  13.4885836
  76.4526255  48.5067665  12.7942048  76.0294278  48.2218092  14.0669970
  76.5294131  48.1193389  13.4709060  70.7114545  39.7861748   7.8296081
  71.4556590  40.1736024   8.0679031  70.8575241  38.9419173   7.9936569
  70.8425130  39.7192220   7.8890050  72.6294121  31.5812007  12.8627942
  71.7830166  31.7534814  12.7369292  72.6265253  30.7761350  13.1993771
  72.5041270  31.4873036  12.8939069  73.6992421  35.3587221  13.7290000
  73.2252375  34.8328983  14.2395311  74.0710557  34.8116694  13.1604862
  73.6842310  35.2003218  13.7205147  64.0765451  37.3558728  19.0973546
  64.9391064  37.2554437  19.0110876  63.7457234  36.7753437  18.5359118
  64.1550647  37.2550354  19.0018952  67.4367237  36.1801177  15.7583964
  66.8120307  36.1919569  15.1509917  67.1012832  36.6561352  16.4075204
  67.2952729  36.2519694  15.7640533  67.6208986  34.5226295   1.8156649
  67.2721790  35.1746020   2.2788198  67.1405432  34.5083408   1.0880520
  67.4979230  34.6169349   1.7767740  64.1492913  44.2401637  17.1987728
  63.6192837  43.5494076  17.2482703  64.4218006  44.2311822  16.3700437
  64.1117635  44.1368769  17.0835144  74.3499158  41.6824881  17.1726100
  73.7356151  41.1382932  17.4674735  74.8666443  41.1689118  16.6931916
  74.3354821  41.5261290  17.1450328  73.5895455  42.7529151  14.9070399
  73.1623063  42.1278870  14.4735834  73.5820400  42.4704073  15.7329406
  73.5254597  42.6181932  14.9650226  66.7057982  37.7894324  17.9758833
  66.8651469  37.0337649  18.3810554  66.5250876  38.3385264  18.6299570
  66.7023341  37.7588138  18.1321539  74.6478285  29.9555560  18.5309622
  74.1518847  30.1519234  17.8401189  75.4047347  30.3548228  18.3598424
  74.6865110  30.0433294  18.4029759  71.9181165  33.6297906  15.1212933
  71.9423652  33.0958018  14.4325713  72.1692639  33.1215215  15.7838523
  71.9591084  33.4758810  15.1177577  59.4288755  40.9129401  14.5556077
  59.3232204  40.8676245  13.6908161  58.6788975  41.2583181  14.8370362
  59.3024358  40.9570309  14.4693406  68.1982487  32.3568724  14.5018677
  68.2380859  32.8577931  15.2153384  67.3732152  32.4479118  14.2324600
  68.0822013  32.4450541  14.5669215  70.3812100  41.9229464  22.6038971
  69.5307731  42.0601178  22.7396616  70.5440228  41.1893242  23.0486673
  70.2795964  41.8343565  22.6894571  69.6196851  38.8729234  16.7992576
  68.7888780  39.0403052  16.5927824  69.5648368  38.4965185  17.5841461
  69.4886266  38.8418965  16.8841104  67.4280634  32.3638127  22.4348987
  68.0533337  31.8200260  22.7078419  66.9731114  31.8833045  21.8656777
  67.4528894  32.2127608  22.3910580  67.9932894  37.1484826   7.3282694
  68.1335856  37.6457290   8.0311335  68.4915427  36.4471120   7.4696907
  68.0873975  37.1186804   7.4534273  68.0233117  38.0151937   4.6575270
  68.6578196  38.6112362   4.5924732  68.1058728  37.7155394   5.4721141
  68.1289668  38.0592845   4.7678357  69.6012100  33.9465912   4.6320712
  69.9227941  33.4668995   3.9779975  69.8639043  34.7565558   4.4411524
  69.6878125  33.9955810   4.5076204  72.8309072  44.9684786  18.1519529
  72.3234164  45.5220633  18.5960159  72.5335719  45.0293076  17.3338303
  72.7113957  45.0591098  18.0967985  74.9971255  33.3338106  16.9944192
  75.4226326  32.8810632  16.3827718  74.3828248  32.7798177  17.2708979
  74.9699900  33.1852082  16.9449217  64.5286105  40.2119777   7.9264816
  65.0378334  40.8084285   8.3076122  65.0020377  39.9445751   7.2441236
  64.6729480  40.2605593   7.8819339  73.4365478  29.8053206  10.4034769
  72.7933795  29.6550852  10.9719907  73.0964885  29.5595551   9.6383873
  73.2910555  29.7465328  10.3737784  78.0264824  37.7612633   9.8264777
  77.3556014  38.3042335   9.6977843  78.7204574  38.2307488   9.5846472
  78.0293691  37.9110904   9.7720305  72.0751558  49.9009345  15.0576535
  71.8517212  49.1428174  15.4260562  71.5861401  49.9307366  14.3356975
  71.9695007  49.7931569  15.0053276  78.1892951  34.2168516  12.7355150
  78.5420562  33.7898239  13.4100949  77.3307753  34.1319360  12.8656227
  78.1142396  34.1413257  12.8550161  66.8876636  36.8476036  10.7937997
  66.1688626  37.2640168  11.0610860  67.2588999  37.4130275  10.2429635
  66.8368568  36.9925317  10.7520804  76.1876217  37.4803885  16.6839993
  76.1674145  37.2987180  17.5374771  76.2355418  38.3515903  16.6599576
  76.1910858  37.5820423  16.8063287  74.1322547  44.0691077  22.6088469
  74.0918402  43.4240754  22.0233625  74.9445865  44.0127694  22.9213881
  74.2465701  43.9650044  22.5685418  70.7230015  50.1209803  12.5113620
  70.3090413  49.4583933  12.1217462  71.4077389  50.2687661  11.9909314
  70.7628386  50.0450461  12.3770117  74.0895309  49.2799888  13.2637237
  73.6911592  49.3902158  12.4958057  73.4746528  49.4881954  13.8463796
  73.9394198  49.3273456  13.2368536  72.6623211  35.8874036   6.1311376
  72.0688050  36.2091032   5.5795943  72.6998489  35.0415131   5.9232482
  72.5797600  35.8098364   6.0194148  75.5381027  35.8453540   9.5613127
  75.3094720  35.8686242   8.7191485  75.7979104  35.0211007   9.6808137
  75.5427215  35.7269620   9.4538324  69.8200256  37.6988013  19.1638227
  69.3079159  37.0909196  19.5223258  69.6479752  38.4144606  19.6312203
  69.7189893  37.7151313  19.2854450  64.6665971  36.1425589  21.8140589
  64.4968561  36.8026963  21.2688795  64.2231920  36.3532150  22.5353078
  64.5765304  36.2711571  21.8402218  68.5925790  34.3830087  10.8567322
  69.0683156  34.7447166  10.2217503  68.0914390  35.0386554  11.1367465
  68.5891149  34.5324275  10.8044063  73.6969326  35.6212258  21.6040482
  74.2540756  35.3926068  20.9718948  73.3730391  36.3817924  21.3275695
  73.7315736  35.6996095  21.4696979  61.5668035  39.0472454  17.0729078
  61.0194754  38.3773100  17.1909947  62.3560413  38.6802302  17.1372546
  61.6020219  38.8937441  17.0997779  71.4152443  38.7079911  22.5692489
  72.1663770  39.0231588  22.8832044  71.6075020  38.5059082  21.7426411
  71.5543858  38.7247293  22.4935885  70.6352443  36.5271286   4.2240706
  71.0151408  36.5450916   3.4391821  69.8945039  36.9725275   4.1031554
  70.5821281  36.5953061   4.0904274  60.3255005  38.2593262  14.2275101
  60.1476766  37.8069871  14.9530017  60.0374027  39.0619423  14.4113579
  60.2567958  38.3115820  14.3618604  75.9878586  39.5150979  13.4652492
  76.4832251  38.7973974  13.4256512  75.1778361  39.2121777  13.3506979
  75.9422479  39.3648626  13.4426218  62.0627474  40.7920986  11.3396860
  61.1972994  40.7806676  11.2279632  62.1626290  40.6051209  12.1868000
  61.9501641  40.7627047  11.4485805  78.0530405  42.2654667  16.1529621
  78.4785476  41.7429089  15.6000046  77.6887324  42.8635504  15.6318243
  78.0617007  42.2764894  15.9938630  67.6884484  50.5618884  14.9126966
  68.0031043  51.3755273  14.9204748  68.0977898  50.1769103  15.5809125
  67.7952582  50.6247587  15.0131058  74.6409004  45.9788931  12.4830778
  75.1120182  46.6929194  12.6520763  74.9769182  45.3787681  13.0190647
  74.7604119  45.9960395  12.5863154  76.7285989  47.5890245  24.6622850
  76.8382954  46.7998805  25.0179597  77.0576885  47.4996181  23.8597188
  76.7938394  47.4596097  24.5965241  71.5578499  30.7516402  19.4388873
  71.6906404  29.9547395  19.7669848  71.9423652  31.2782805  20.0187148
  71.6334828  30.7116318  19.5732376  75.2782950  45.7706865  19.2458471
  74.7303896  45.1464749  18.9778536  75.7395979  45.9601137  18.5302550
  75.2650160  45.7065916  19.1008902  74.6310854  27.6746728  16.0369966
  73.8256818  27.5644458  16.3537804  74.5017590  27.7759184  15.1799832
  74.4930987  27.6730398  15.9578006  78.0876815  33.8392220  16.6309663
  77.5039803  34.3401426  16.2187230  78.4081109  33.3321776  15.9973986
  78.0489990  33.8384055  16.4768170  70.6271614  32.7532815   6.9068338
  71.4487308  32.9231127   6.6650033  70.1641265  32.9080076   6.1834635
  70.6802776  32.8014548   6.7639982  69.2166946  30.7475577  17.6866767
  69.7611359  30.4066704  18.2771108  69.2703881  31.6061038  17.8288051
  69.3056065  30.8230836  17.7948640  65.0297504  44.5091993  14.5605574
  65.6342362  44.4687827  13.9319395  64.8224817  45.3563145  14.5909630
  65.0886402  44.6279995  14.4721691  74.8441277  46.7757938  15.7767812
  75.6639650  46.6320904  16.0384107  74.5635354  47.4004137  16.3184250
  74.9238020  46.8468290  15.8955751  60.2648787  43.4926610  14.4304498
  60.1673065  42.6822882  14.7394554  61.0477656  43.4718404  14.0450766
  60.3664923  43.3693701  14.4191360  75.7004772  54.8037850  16.2943833
  75.5763469  55.3900295  16.9293652  76.3523057  54.3098045  16.5956108
  75.7778422  54.8176654  16.4329762  73.4447697  57.3149202  16.5425777
  73.1786113  56.4988319  16.7016768  73.4586262  57.3602358  15.6721293
  73.4072420  57.2006107  16.4379259  78.1946304  50.8527580  19.1892785
  77.5018101  50.3824560  19.4353517  78.8106631  50.6265885  19.7634492
  78.1830834  50.7494712  19.3101938  76.9186863  54.8192984  20.3319630
  77.6426835  54.8046015  20.8184525  77.0202999  55.5288340  19.8341599
  77.0405072  54.9217687  20.3298417  76.9666064  56.9985278  18.5203554
  77.4787161  57.2769531  17.8712314  76.6802406  57.7374572  18.8866368
  77.0000927  57.1487632  18.4793433  74.8696702  51.6202648  16.5588413
  74.7282194  50.7686589  16.6832920  75.1537265  51.6631309  15.7350619
  74.8904548  51.5002398  16.4556037  75.6387007  49.5332996  19.8765863
  75.1029197  48.9213354  20.1926630  75.7004772  50.1081132  20.5299530
  75.5682640  49.5279923  20.0201290  78.2610257  49.2454845  16.7221830
  78.7211738  49.3193774  17.4596953  78.3066364  50.0436099  16.3721651
  78.3360812  49.3748992  16.7794586  75.0498035  52.8744036  19.0973546
  75.9123648  52.7739745  19.0110876  74.7189818  52.2938745  18.5359118
  75.1283231  52.7735662  19.0018952  78.4099821  51.6986485  15.7583964
  77.7852891  51.7104877  15.1509917  78.0745415  52.1746660  16.4075204
  78.2685312  51.7705002  15.7640533  77.6790566  53.3079632  17.9758833
  77.8384053  52.5522957  18.3810554  77.4983460  53.8570572  18.6299570
  77.6755925  53.2773446  18.1321539  75.6398554  51.6610897  21.8140589
  75.4701144  52.3212271  21.2688795  75.1964504  51.8717458  22.5353078
  75.5497888  51.7896879  21.8402218  72.5400619  54.5657762  17.0729078
  71.9927338  53.8958408  17.1909947  73.3292997  54.1987610  17.1372546
  72.5752802  54.4122749  17.0997779  71.2987588  53.7778570  14.2275101
  71.1209349  53.3255179  14.9530017  71.0106610  54.5804731  14.4113579
  71.2300541  53.8301128  14.3618604   4.8307320  45.7528512  47.6655908
   4.8001324  46.6073148  47.8374178   5.4288669  45.4523804  48.2242052
   4.9144478  45.8345008  47.7730710   1.3400721  51.1090688  62.0269295
   2.0467488  50.6142719  62.1556229   1.5288657  51.5499770  61.2971953
   1.4728627  51.1009039  61.9378340   0.8758826  46.8996207  55.0640490
   1.4214786  47.5781293  55.1234460   0.8175702  46.7583668  54.2042072
   0.9474740  46.9788208  54.9452551   2.6523894  48.3280814  45.9374218
   2.5363420  49.0788500  46.3666356   3.4479781  48.0704767  46.1870305
   2.7528484  48.4015661  46.0378310   1.9659199  35.6768751  49.6348832
   1.6512640  36.3672230  50.0669255   1.4486141  35.6213534  48.9334333
   1.8423670  35.7703640  49.5945782   1.3071633  45.6773252  45.7486243
   0.7783105  45.8932886  46.4083549   1.8296653  46.3709391  45.6687212
   1.3060086  45.8116389  45.8341842   6.7619686  51.2519557  51.1219287
   5.9317389  51.4630200  51.2852704   6.7128938  50.4256611  50.8461571
   6.6326421  51.1609163  51.1056653   6.2573644  43.8989957  54.9169709
   5.4202065  43.9692144  55.1517303   6.2261875  43.9014452  54.0444011
   6.1291927  43.9100184  54.8229257   0.9803830  48.0945634  50.5081600
   1.7361345  48.5277148  50.5470509   1.0866155  47.4450404  51.0816236
   1.1074001  48.0623118  50.5979626   4.0184001  51.9218911  51.2584003
   3.5819233  51.9255654  52.0142975   3.6846917  52.6024410  50.8263581
   3.9046621  52.0231367  51.3064836   3.9381484  38.9632739  53.5013431
   4.5807393  39.0330844  54.0875346   4.1904505  38.2961962  52.9992973
   4.0703616  38.8759088  53.5140710   7.1528347  48.6399831  50.1503640
   7.8144781  48.0790499  50.0499549   6.5119759  48.1451862  50.4756332
   7.1557215  48.4836240  50.1835981   3.4393178  49.6565213  49.8915629
   3.6748767  49.8010412  49.0642480   3.5882742  50.4207621  50.2847143
   3.4958981  49.7904268  49.8279233   5.2683635  48.4966879  47.7285233
   5.5991852  49.0294519  47.1225328   5.8416723  48.5505767  48.3847184
   5.4017314  48.5836448  47.7363015   6.3762986  43.7377376  49.2325395
   6.1199551  42.9257318  49.0423278   7.2192300  43.7454943  49.0055582
   6.4629012  43.6189374  49.1710212   4.0588146  50.8926972  59.0683947
   3.8226783  50.0615037  58.9496008   4.7031375  50.8412579  59.6538791
   4.1182816  50.7624660  59.1369841   5.0824566  50.6771421  55.1312242
   4.7770383  51.4099478  55.4925557   4.3630782  50.2709351  54.8505028
   4.9311909  50.7253154  55.1425379  10.7826358  47.3164422  54.4580586
  10.7150859  47.3360381  53.5883173  10.7682021  48.1594749  54.6836257
  10.7705115  47.4438156  54.3633063   1.1922705  38.7199579  57.7821675
   1.9376297  38.5309390  57.3685101   0.7760009  39.2457817  57.2235532
   1.2407679  38.7701725  57.6386249   8.5684976  46.0908808  52.7327180
   9.1192897  45.4576877  52.9724273   8.5529091  46.6224201  53.4242685
   8.6470172  46.0757756  52.8706039   2.2713382  44.3305142  51.8431777
   1.9278148  43.6095477  52.1939026   2.3706425  44.1218993  51.0010135
   2.2355425  44.1929345  51.7703457   2.7326411  50.7930846  47.3855765
   3.2984444  51.4524056  47.3014308   2.0854314  51.1380544  47.8572167
   2.7205167  50.9412787  47.4428521   4.6661871  47.4564713  51.0052561
   4.5795846  47.6120139  51.8587340   4.2112351  48.1002789  50.6311966
   4.5865128  47.5740468  51.0759668   2.4335736  51.4858820  53.4164902
   2.2950095  52.1839865  53.9213644   1.6535734  51.3307476  53.0601084
   2.2978963  51.5658986  53.4391176   0.7713821  47.7855195  59.6687284
   0.7661860  46.9135011  59.6729710   1.4774815  47.9843364  59.1956739
   0.8758825  47.6859069  59.5994319   3.9289109  50.8437073  44.1781401
   3.5495918  50.0574211  44.1710691   3.2655354  51.3923930  44.0353045
   3.7747584  50.8081897  44.1562198   1.3833735  33.7862773  51.5815482
   1.5017303  34.2439236  50.8482785   1.2095911  32.9808034  51.2951700
   1.3752906  33.7356545  51.4316416   2.1749208  53.0882564  44.5133087
   2.2569045  53.8949551  44.1894538   2.6598950  53.1078524  45.2373861
   2.2586366  53.2103227  44.5719986   1.6824408  51.8479983  64.5951413
   2.4959273  51.5765131  64.7556545   1.5219374  51.5487523  63.7911609
   1.7794356  51.7634909  64.4996819   1.6945652  52.9086273  59.8674254
   2.3325373  52.4146469  59.5336710   1.0519744  52.8363673  59.2826480
   1.6939879  52.8245281  59.7316609   3.4202652  44.7575419  54.4340169
   2.9930260  44.6701767  53.6788269   2.7828705  44.8653194  55.0195013
   3.2632259  44.7608079  54.4085611   1.7499909  53.6006081  56.5079610
   2.5392287  53.2495146  56.6281692   1.9243506  54.4142470  56.2456244
   1.8920190  53.6691938  56.4867478   3.8567420  38.1647402  50.5498794
   3.2441734  38.6517804  50.9352526   3.9531595  37.4890893  51.0936445
   3.7805318  38.1365711  50.6877652   7.4992448  49.2364339  55.9776310
   7.5575572  49.6850988  56.7236287   6.8658916  49.6463152  55.5406390
   7.4143744  49.3638074  56.0228859   4.4514128  47.2580627  54.0642001
   4.2112351  46.4187042  54.0684427   4.9306135  47.3380793  54.7882774
   4.4866312  47.1462026  54.1716803   6.4519315  44.0382084  52.0171260
   6.2129085  43.9977918  51.1792044   6.6153216  44.8853236  52.1436981
   6.4409618  44.1574169  51.9124742   3.0565345  48.4232033  57.9476305
   3.7799544  47.9704560  57.7687325   2.7915307  48.7036699  57.1648633
   3.1246618  48.3983002  57.8055020   5.4900659  47.3858444  56.4506855
   6.0818499  48.0255695  56.4825053   5.9259654  46.6881481  56.7398921
   5.6419090  47.3776794  56.4987687   2.5149800  44.6003663  48.7509997
   1.8440990  45.1433365  48.6223063   3.2089551  45.0698518  48.5091692
   2.5178668  44.7501934  48.6965525   2.6777928  41.0559546  51.6600370
   3.0305538  40.6289269  52.3346169   1.8192729  40.9710390  51.7901447
   2.6027373  40.9804287  51.7795381   4.1101988  36.1777958  52.5884683
   3.6032853  35.4707098  52.5205860   4.9069422  35.8471147  52.7185759
   4.1529227  36.0251109  52.5983678   6.3122128  50.6942885  45.5725547
   6.6955734  51.4434241  45.8023644   5.5166241  50.9408704  45.3137536
   6.2515910  50.8412578  45.5683121   2.7522710  41.6744508  48.7361505
   2.7516936  41.5193164  49.5945781   2.5478890  42.5207495  48.6802890
   2.7222488  41.7765128  48.8549444   2.5415381  49.1045697  55.0774841
   2.9670452  48.5820119  54.5245266   2.1772301  49.7026534  54.5563463
   2.5501983  49.1155924  54.9183850   2.5761791  40.6783250  55.5554883
   1.9924780  41.1792456  55.1432450   2.8966085  40.1712806  54.9219206
   2.5374966  40.6775085  55.4013390  15.8039903  61.2713820  47.6655908
  15.7733908  62.1258456  47.8374178  16.4021252  60.9709112  48.2242052
  15.8877061  61.3530316  47.7730710   9.0039588  60.3589471  52.4208839
   8.1477484  60.5197969  52.4717955   9.0507242  59.4881535  52.4413900
   8.8838700  60.2540273  52.4314905  12.3133305  66.6275996  62.0269295
  13.0200072  66.1328027  62.1556229  12.5021240  67.0685078  61.2971953
  12.4461210  66.6194347  61.9378340  11.8491409  62.4181515  55.0640490
  12.3947369  63.0966601  55.1234460  11.7908286  62.2768975  54.2042072
  11.9207324  62.4973516  54.9452551  13.6256478  63.8466122  45.9374218
  13.5096004  64.5973808  46.3666356  14.4212365  63.5890075  46.1870305
  13.7261067  63.9200969  46.0378310   5.5086803  67.8360145  47.2243560
   5.8302644  68.3765352  46.6204869   6.1558900  67.2656916  47.3565850
   5.6512859  67.8319320  47.1550596   7.5588511  59.8376140  47.3077947
   8.2568676  60.0164267  47.7999410   7.8740844  59.3146479  46.6848336
   7.7083849  59.7869912  47.2879957   7.7476447  66.2246585  47.2957739
   8.1870082  65.6163685  47.7412511   7.5981110  65.8453958  46.5243204
   7.7897913  66.0785056  47.2476906   5.2148090  64.8190597  54.4976564
   5.8597092  64.3263040  54.1787513   5.4549867  64.9615383  55.3242642
   5.3458675  64.7668039  54.5726097   7.7534181  67.6645502  54.1483457
   8.0357424  66.8696908  53.9270213   8.4820342  68.1426090  54.1688518
   7.9023745  67.6180099  54.1186472   5.7315375  55.2068536  51.3899222
   5.4018705  55.6579680  50.7202921   5.0560377  55.1284700  51.9372228
   5.5825811  55.2619672  51.3722445  11.3485783  64.5773766  44.2488508
  11.2637079  65.4334733  44.3938077  11.8370167  64.3018090  44.9170667
  11.4074681  64.6631087  44.3690589  12.9391783  51.1954059  49.6348832
  12.6245224  51.8857538  50.0669255  12.4218724  51.1398841  48.9334333
  12.8156253  51.2888948  49.5945782  12.2804217  61.1958560  45.7486243
  11.7515688  61.4118194  46.4083549  12.8029237  61.8894699  45.6687212
  12.2792670  61.3301697  45.8341842  17.7352270  66.7704865  51.1219287
  16.9049973  66.9815508  51.2852704  17.6861522  65.9441919  50.8461571
  17.6059005  66.6794471  51.1056653   4.1703824  65.0921777  44.5493711
   3.5861040  65.5971808  44.9559575   3.7673920  64.8664164  43.8090303
   4.0243128  65.1330025  44.4998736   9.4525599  70.0503533  59.9183370
   9.5408945  69.8629673  60.7661580   9.8815312  69.4040962  59.5188217
   9.5287701  69.9266541  59.9855121   8.6281039  61.3387429  43.0262632
   8.8677043  61.5465413  42.2137975   8.9496880  60.5344938  43.1351576
   8.7118197  61.2501530  42.9223185   3.9371329  53.2680825  46.8722169
   4.6917297  53.6359142  46.6339220   3.7598864  53.6420379  47.6401349
   4.0225808  53.3779013  46.9507058  17.2306228  59.4175265  54.9169709
  16.3934649  59.4877452  55.1517303  17.1994459  59.4199760  54.0444011
  17.1024510  59.4285492  54.8229257   3.6270957  61.5608301  60.6318077
   3.7991461  61.4514196  61.4803359   4.1640314  62.2062706  60.3949270
   3.7315961  61.6400303  60.7223174   2.2928394  55.6751144  43.5700282
   2.1103967  55.8923025  42.7441275   3.1554007  55.7890156  43.6258897
   2.3932983  55.7241042  43.4554770   1.9042826  67.5139066  51.0123270
   2.7431725  67.7461999  51.0597032   1.9354595  66.6443377  50.9430306
   2.0324543  67.4196012  51.0087915   7.9728113  52.6777554  46.6049306
   8.7014273  52.4993509  46.1587463   8.0623006  53.5195634  46.8156484
   8.0934775  52.7761433  46.5702824  11.9536414  63.6130942  50.5081600
  12.7093929  64.0462456  50.5470509  12.0598738  62.9635712  51.0816236
  12.0806584  63.5808426  50.5979626  14.9916585  67.4404219  51.2584003
  14.5551817  67.4440961  52.0142975  14.6579500  68.1209718  50.8263581
  14.8779205  67.5416675  51.3064836  14.9114068  54.4818047  53.5013431
  15.5539976  54.5516151  54.0875346  15.1637088  53.8147270  52.9992973
  15.0436200  54.3944396  53.5140710   1.8390421  58.9525316  42.0822756
   1.1248598  58.6663496  42.4945188   2.3234389  59.2921942  42.7229143
   1.8049784  58.9606966  42.2378390   2.6831280  57.6918610  58.1138005
   1.9903077  57.2215590  58.3598737   3.2991608  57.4656915  58.6879712
   2.6715810  57.5885742  58.2347158  18.1260931  64.1585139  50.1503640
  18.7877365  63.5975807  50.0499549  17.4852343  63.6637170  50.4756332
  18.1289798  64.0021548  50.1835981   9.0137739  67.4555270  42.4584564
   9.4288887  67.1240294  41.7669059   8.1829668  67.2224173  42.3304700
   8.9525747  67.3726526  42.3375411  14.4125762  65.1750521  49.8915629
  14.6481351  65.3195720  49.0642480  14.5615325  65.9392929  50.2847143
  14.4691565  65.3089576  49.8279233   1.4071839  61.6584014  59.2564850
   2.1311811  61.6437045  59.7429745   1.5087976  62.3679369  58.7586819
   1.5290048  61.7608717  59.2543637  16.2416218  64.0152187  47.7285233
  16.5724436  64.5479827  47.1225328  16.8149307  64.0691075  48.3847184
  16.3749898  64.1021756  47.7363015  11.4548108  61.8617090  48.4108813
  11.5494962  62.6006384  48.8648439  10.8306951  61.4334565  48.8443378
  11.3757138  61.9078411  48.5416961   9.7100581  65.0403303  59.0599094
  10.2839443  64.4030547  59.2147658   9.6315385  65.0407385  58.1908752
   9.7833816  64.9468414  58.9545505  11.7071129  63.7065830  41.6445765
  11.6251291  63.7768017  42.5100752  12.3450849  64.2695574  41.4529506
  11.7890966  63.8004801  41.7435715   5.0664300  63.4726568  51.1120292
   4.8083544  62.6398303  51.0851591   5.1212783  63.6984181  50.2712792
   5.0364078  63.3824339  50.9840428  10.1465350  55.5755018  51.2124384
   9.4421677  55.0864204  51.3708303  10.1950324  55.5877493  50.3412829
  10.0495402  55.5044666  51.1063724   4.0399012  61.0264330  51.5985186
   3.4648603  61.1856499  52.2349147   3.6634688  60.3899739  51.1353637
   3.9001825  60.9562143  51.6239745   7.7072301  59.4987679  56.4577565
   7.3186734  59.0741897  55.8029756   7.0426999  59.7469829  56.9654591
   7.5519229  59.4726401  56.4365433  17.3495570  59.2562684  49.2325395
  17.0932135  58.4442626  49.0423278  18.1924884  59.2640251  49.0055582
  17.4361595  59.1374682  49.1710212   8.8111239  63.7286284  44.6554372
   9.6251878  64.0201177  44.5437143   8.7470380  63.0746146  44.0812665
   8.9213978  63.6751479  44.5543209  15.0320729  66.4112280  59.0683947
  14.7959367  65.5800345  58.9496008  15.6763958  66.3597887  59.6538791
  15.0915400  66.2809968  59.1369841   4.6819147  67.2007801  49.7826684
   5.3193094  66.9619549  50.3278477   5.1074219  67.4044960  49.0479844
   4.8395314  67.1958812  49.7543841   5.3221962  62.4210091  44.1201573
   5.7067115  62.2017798  44.8718118   5.0733583  63.2473037  44.2502649
   5.3424035  62.5108238  44.2502650   5.4890503  55.7016506  63.8364157
   5.1743944  56.4716069  63.5733720   5.1680435  55.1386762  63.2516384
   5.3949422  55.7326775  63.7105507  16.0557150  66.1956729  55.1312242
  15.7502967  66.9284786  55.4925557  15.3363366  65.7894658  54.8505028
  15.9044492  66.2438462  55.1425379   7.0640619  67.6780224  51.4620470
   7.1379628  67.5155396  52.3162320   7.8810126  67.8670414  51.2180952
   7.1956978  67.6816966  51.5518496   3.0422400  54.0907028  49.4510354
   2.1744825  54.1629627  49.5167963   3.3297604  54.8929107  49.6398329
   2.9562148  54.2201175  49.4885120  12.1655288  54.2384887  57.7821675
  12.9108880  54.0494698  57.3685101  11.7492593  54.7643125  57.2235532
  12.2140263  54.2887033  57.6386249  19.5417559  61.6094116  52.7327180
  20.0925481  60.9762185  52.9724273  19.5261675  62.1409509  53.4242685
  19.6202756  61.5943064  52.8706039   6.1939950  65.4432713  57.2787074
   5.6951644  66.1548481  57.3571962   7.0040174  65.7633380  57.2405236
   6.2396057  65.5959562  57.2843642   2.4568068  64.7055666  51.5249795
   2.1681316  64.0793137  52.0595522   3.3251416  64.6475954  51.5914475
   2.5428320  64.6043210  51.6140749  13.2445966  59.8490449  51.8431777
  12.9010731  59.1280785  52.1939026  13.3439008  59.6404301  51.0010135
  13.2088008  59.7114653  51.7703457   2.6600341  66.3450917  47.4492160
   3.4146309  66.7263956  47.6627622   2.0670954  66.7962061  47.9038856
   2.6837055  66.4679745  47.5475038  13.7058995  66.3116154  47.3855765
  14.2717027  66.9709363  47.3014308  13.0586898  66.6565852  47.8572167
  13.6937751  66.4598095  47.4428521   5.1207008  58.3013758  62.5749372
   4.3106784  58.6071537  62.4639214   5.5981695  59.0219340  62.6901956
   5.0710487  58.4528359  62.5756443   3.9798568  67.5159478  52.8232275
   3.4579321  67.6559770  53.5084140   4.3672588  66.7570143  53.0134393
   3.9602269  67.4245002  52.9533352   0.9689752  57.5665287  46.8927230
   0.6814548  57.1966558  46.1559177   1.6560220  58.0360143  46.6310935
   1.0278649  57.5812257  46.7442306  10.1765573  69.2554938  46.8092844
   9.9352249  68.5222798  46.4019909  10.3566906  69.8041795  46.1559177
  10.1673197  69.2277329  46.6523067   5.4064893  64.5463498  48.2213766
   5.2107676  65.1538232  47.6274069   5.6299239  63.8531442  47.7405440
   5.4099534  64.5341023  48.0629847   3.8043423  61.4318235  48.3394635
   4.5266075  61.5959394  47.8798441   3.3251416  62.1527900  48.2333974
   3.8407154  61.5616465  48.2560249  11.7636931  57.7682034  53.7191320
  10.9248032  57.7943313  53.4829583  11.8341298  58.4152770  54.2996666
  11.6505324  57.8678160  53.7700436  10.2106209  54.6667411  48.4518935
  10.9132562  54.4675160  47.9738894   9.9450398  53.8943354  48.7587779
  10.2752842  54.5230377  48.4264377  15.6394455  62.9750021  51.0052561
  15.5528429  63.1305447  51.8587340  15.1844935  63.6188097  50.6311966
  15.5597711  63.0925776  51.0759668   4.9734765  55.9302696  57.5049816
   4.7817962  55.9457831  58.3549240   5.8233361  56.1266371  57.4816471
   5.0710487  55.9617048  57.6273111   9.5120271  60.2960768  49.6278121
   9.2654985  60.2156519  50.4614910   9.8405394  59.5114236  49.4340648
   9.5241514  60.1687033  49.7225644  13.4068320  67.0044127  53.4164902
  13.2682679  67.7025173  53.9213644  12.6268318  66.8492784  53.0601084
  13.2711547  67.0844294  53.4391176  11.7446405  63.3040503  59.6687284
  11.7394443  62.4320319  59.6729710  12.4507399  63.5028672  59.1956739
  11.8491409  63.2044377  59.5994319   5.4717298  63.0317487  59.0401104
   5.6160674  63.6118695  58.4044214   5.8192947  63.4093783  59.7450959
   5.5444759  63.1738191  59.0500099   7.6437215  62.2307655  56.8226235
   6.8960530  62.4238669  56.4174514   7.7978741  61.4052875  56.5850357
   7.5559643  62.1372766  56.7271641  14.9021693  66.3622381  44.1781401
  14.5228501  65.5759519  44.1710691  14.2387938  66.9109238  44.0353045
  14.7480167  66.3267205  44.1562198   7.8838993  56.1258206  57.7121639
   8.3411607  56.8582180  57.8394431   7.9595321  55.7024671  58.4708895
   7.9629962  56.1715444  57.8422716  12.3566318  49.3048081  51.5815482
  12.4749887  49.7624544  50.8482785  12.1828494  48.4993342  51.2951700
  12.3485489  49.2541853  51.4316416   5.7621370  58.1160310  54.5563463
   4.9717445  57.9351770  54.8780799   6.1581993  57.3387262  54.5393758
   5.7038247  57.9747771  54.6016012  10.2487261  66.9448084  39.9970177
  11.0160246  67.0048209  39.5876029   9.8018570  66.3728525  39.5126495
  10.2960688  66.8684660  39.8647887  11.1465057  65.7502740  52.2822909
  10.4710059  65.5187972  52.7836296  11.1557433  65.1423923  51.6565014
  11.0483561  65.6261665  52.2639061   8.2759201  60.5920569  59.0386962
   8.2118342  61.4530525  58.9107099   8.4156388  60.2752562  58.2382513
   8.2874671  60.6720735  58.9015175  13.1481791  68.6067872  44.5133087
  13.2301629  69.4134858  44.1894538  13.6331533  68.6263831  45.2373861
  13.2318949  68.7288535  44.5719986   6.9578295  63.2852708  53.1803165
   6.5340544  63.4857207  52.4442183   6.7823150  62.4381556  53.2927465
   6.8689175  63.1901490  53.0876855   2.2460740  63.7804760  48.6131138
   2.4025359  63.7151562  49.4687130   2.5861333  64.5553312  48.4009817
   2.3193974  63.8853958  48.7085732   8.7839884  63.1562643  47.4824501
   9.3255430  62.6533024  47.9463121   9.0986443  63.1027838  46.6713986
   8.9104281  63.0742064  47.4308313  12.6556992  67.3665291  64.5951413
  13.4691857  67.0950439  64.7556545  12.4951958  67.0672831  63.7911609
  12.7526940  67.2820217  64.4996819   6.9526334  68.5479995  44.7664529
   7.0219154  67.6894533  44.9057529   7.7314789  68.7651876  44.4383553
   7.0779184  68.4532859  44.7381686   9.9329154  58.0498948  57.5346801
  10.1471123  57.4109862  56.9810155   9.3163053  58.4944772  57.1054663
   9.8734483  58.0209091  57.3897232  12.0968242  59.6588013  58.4730108
  11.2844923  59.3513903  58.5543281  12.5558176  59.1787013  59.0372821
  12.0448626  59.5424505  58.5684703  11.5073496  67.5367685  48.9207053
  11.1488151  67.7082328  49.6971085  11.0212207  67.9980891  48.3635051
  11.3832193  67.6306656  48.9532322   9.3243882  51.1598883  52.5234144
   8.4537440  51.1337604  52.4767454   9.5784223  50.9876076  51.7059990
   9.2337442  51.1309027  52.3954281   6.2961862  63.2166850  41.4607287
   6.5854386  63.9931733  41.7350861   6.3833660  62.7055582  42.1621786
   6.3516118  63.2558769  41.6049785   9.1921749  61.0648084  63.2558811
   9.6621380  61.6890201  63.6426685   9.2383629  60.3965060  63.8152025
   9.2689625  61.0582765  63.3958882   6.3493023  53.1705112  53.9807614
   5.8331511  52.4785303  54.1059193   5.7886952  53.8375889  53.9270213
   6.1899536  53.1668369  53.9913680   8.4185256  53.7098072  55.8100467
   8.0317009  53.7347103  56.5913997   7.9318193  53.1439750  55.3574984
   8.2897765  53.6293823  55.8588371  12.6678236  68.4271581  59.8674254
  13.3057956  67.9331776  59.5336710  12.0252327  68.3548981  59.2826480
  12.6672462  68.3430589  59.7316609  14.3935236  60.2760727  54.4340169
  13.9662844  60.1887075  53.6788269  13.7561289  60.3838502  55.0195013
  14.2364843  60.2793387  54.4085611   8.0842398  50.5965057  58.1010727
   8.7135516  51.1325357  57.8231797   8.2528261  50.5042416  58.9524293
   8.2020192  50.6626420  58.1859255   7.8856313  55.3836252  60.3737139
   8.7129742  55.1121401  60.4295753   7.9064159  56.1797094  60.7300957
   8.0109163  55.4616006  60.4352321  12.7232492  69.1191389  56.5079610
  13.5124870  68.7680454  56.6281692  12.8976090  69.9327778  56.2456244
  12.8652774  69.1877246  56.4867478   2.4625803  62.5300115  53.5607399
   1.6213809  62.4303989  53.7686293   2.6715811  63.2995595  53.9121720
   2.3690495  62.6292158  53.6434714  11.5766316  53.1300946  51.0696029
  11.7815910  53.0623254  51.9153026  11.2492740  53.9359767  51.0017206
  11.5581564  53.2386886  51.1855684   6.2742467  60.4581514  52.8104997
   5.9705605  59.9037502  53.4115404   5.5721888  60.6373724  52.3233031
   6.1258677  60.4026296  52.8274702   5.3308565  57.7682034  47.3749699
   5.6068299  57.0500946  46.9627266   5.9307234  58.3666954  47.1670805
   5.4601829  57.7502405  47.2830460  14.8300004  53.6832710  50.5498794
  14.2174318  54.1703112  50.9352526  14.9264179  53.0076201  51.0936445
  14.7537902  53.6551019  50.6877652   8.8319085  55.4395551  45.6496294
   9.2862832  55.6106112  46.3744138   9.3059131  54.8263662  45.2494069
   8.9687405  55.3746436  45.6970055   2.3534610  64.9243877  54.9799032
   1.7622544  65.5653375  54.9502047   3.1155634  65.3481494  54.9530332
   2.3782871  65.0819716  54.9714179   2.7495233  56.0845875  55.6467050
   3.2096715  56.1584804  56.3842173   2.7951340  56.8827129  55.2966871
   2.8245789  56.2140022  55.7039806   4.3978583  56.7512570  60.2139077
   4.0064148  56.1045917  60.6494855   4.5664446  57.3424005  60.8333332
   4.3649493  56.7426838  60.3701783  18.4725032  64.7549647  55.9776310
  18.5308156  65.2036296  56.7236287  17.8391500  65.1648460  55.5406390
  18.3876327  64.8823381  56.0228859  12.1124127  70.3753189  52.4131056
  11.9143815  70.8644003  51.7187268  11.4911838  70.5794430  52.9915190
  11.9911691  70.4769727  52.3954280   6.1732105  62.1438086  46.7541301
   6.9174150  62.5312362  46.9924251   6.3192801  61.2995511  46.9181789
   6.3042690  62.0768558  46.8135270   8.0911681  53.9388344  51.7873162
   7.2447726  54.1111152  51.6614512   8.0882813  53.1337688  52.1238991
   7.9658830  53.8449373  51.8184289   9.1609981  57.7163559  52.6535220
   8.6869935  57.1905321  53.1640531   9.5328117  57.1693032  52.0850082
   9.1459870  57.5579555  52.6450367  15.4246712  62.7765935  54.0642001
  15.1844934  61.9372350  54.0684427  15.9038719  62.8566101  54.7882774
  15.4598895  62.6647334  54.1716803  11.0893481  58.6100113  45.7160974
  10.5616499  58.6928857  45.0266683  11.5489189  59.3517985  45.7125619
  11.0795331  58.7320776  45.6135669  17.4251899  59.5567392  52.0171260
  17.1861668  59.5163226  51.1792044  17.5885800  60.4038544  52.1436981
  17.4142202  59.6759477  51.9124742  14.0297929  63.9417341  57.9476305
  14.7532128  63.4889867  57.7687325  13.7647891  64.2222007  57.1648633
  14.0979202  63.9168310  57.8055020   2.8984797  58.5377515  54.6829184
   2.2737867  58.5495907  54.0755137   2.5630392  59.0137690  55.3320424
   2.7570289  58.6096032  54.6885753   3.0826546  56.8802633  40.7401869
   2.7339350  57.5322358  41.2033418   2.6022992  56.8659746  40.0125740
   2.9596790  56.9745687  40.7012960  10.6430563  67.1803677  44.8470631
  11.3664762  67.6461790  44.7035204  10.2031154  67.2477287  44.0968228
  10.6846255  67.2587514  44.7155412   9.8116718  64.0401219  56.0971320
   9.1973711  63.4959270  56.3919955  10.3284003  63.5265456  55.6177136
   9.7972381  63.8837628  56.0695548   9.0513015  65.1105489  53.8315619
   8.6240623  64.4855208  53.3981054   9.0437960  64.8280411  54.6574626
   8.9872157  64.9758270  53.8895446   2.1675542  60.1470662  56.9004053
   2.3269029  59.3913987  57.3055774   1.9868436  60.6961602  57.5544790
   2.1640901  60.1164476  57.0566759  10.1095845  52.3131898  57.4554842
   9.6136407  52.5095572  56.7646409  10.8664907  52.7124566  57.2843644
  10.1482670  52.4009632  57.3274979   7.3798725  55.9874244  54.0458153
   7.4041212  55.4534356  53.3570933   7.6310199  55.4791553  54.7083743
   7.4208644  55.8335148  54.0422797   3.6600047  54.7145062  53.4263897
   3.6998419  55.2154269  54.1398604   2.8349712  54.8055456  53.1569820
   3.5439573  54.8026878  53.4914435   5.0814411  61.2305572  55.7237796
   4.2506340  61.3979390  55.5173044   5.0265928  60.8541523  56.5086681
   4.9503826  61.1995303  55.8086324   2.8898194  54.7214465  61.3594207
   3.5150897  54.1776598  61.6323639   2.4348674  54.2409382  60.7901997
   2.9146454  54.5703946  61.3155800   3.4550454  59.5061163  46.2527914
   3.5953416  60.0033628  46.9556555   3.9532987  58.8047458  46.3942127
   3.5491535  59.4763142  46.3779493   3.4850677  60.3728274  43.5820490
   4.1195756  60.9688700  43.5169952   3.5676288  60.0731732  44.3966361
   3.5907228  60.4169183  43.6923577  16.4633243  62.9043752  56.4506855
  17.0551083  63.5441003  56.4825053  16.8992237  62.2066789  56.7398921
  16.6151674  62.8962102  56.4987687   5.0629660  56.3042250  43.5565932
   5.3845501  55.8245332  42.9025195   5.3256603  57.1141896  43.3656744
   5.1495685  56.3532148  43.4321424   8.2926632  67.3261124  57.0764749
   7.7851724  67.8796971  57.5205379   7.9953279  67.3869414  56.2583523
   8.1731517  67.4167435  57.0213205  10.4588815  55.6914444  55.9189412
  10.8843886  55.2386970  55.3072938   9.8445808  55.1374515  56.1954199
  10.4317460  55.5428420  55.8694437   8.8983038  52.1629544  49.3279989
   8.2551355  52.0127190  49.8965127   8.5582445  51.9171889  48.5629093
   8.7528115  52.1041666  49.2983004  13.4882384  60.1188970  48.7509997
  12.8173574  60.6618673  48.6223063  14.1822134  60.5883826  48.5091692
  13.4911252  60.2687242  48.6965525  13.6510511  56.5744854  51.6600370
  14.0038122  56.1474577  52.3346169  12.7925313  56.4895698  51.7901447
  13.5759956  56.4989595  51.7795381   2.3494196  59.2052374  49.7183217
   1.6306186  59.6216506  49.9856080   2.7206559  59.7706613  49.1674855
   2.2986128  59.3501655  49.6766024  11.6493777  59.8380223  55.6085213
  11.6291705  59.6563518  56.4619991  11.6972978  60.7092241  55.5844796
  11.6528418  59.9396761  55.7308507   9.5940107  66.4267415  61.5333689
   9.5535962  65.7817092  60.9478845  10.4063425  66.3704032  61.8459101
   9.7083261  66.3226382  61.4930638   8.1240771  58.2450374  45.0556596
   7.5305610  58.5667370  44.5041163   8.1616049  57.3991469  44.8477702
   8.0415160  58.1674702  44.9439368  15.0834572  51.6963266  52.5884683
  14.5765436  50.9892406  52.5205860  15.8802005  51.3656455  52.7185759
  15.1261811  51.5436417  52.5983678  10.9998587  58.2029878  48.4858347
  10.7712280  58.2262580  47.6436705  11.2596664  57.3787345  48.6053357
  11.0044775  58.0845958  48.3783544   5.2817816  60.0564351  58.0883447
   4.7696719  59.4485534  58.4468478   5.1097312  60.7720944  58.5557423
   5.1807453  60.0727651  58.2099670   4.0543350  56.7406425  49.7812542
   4.5300716  57.1023504  49.1462723   3.5531950  57.3962892  50.0612685
   4.0508709  56.8900613  49.7289283  17.2854711  66.2128193  45.5725547
  17.6688317  66.9619549  45.8023644  16.4898825  66.4594012  45.3137536
  17.2248494  66.3597886  45.5683121   9.1586886  57.9788596  60.5285702
   9.7158316  57.7502405  59.8964168   8.8347951  58.7394262  60.2520915
   9.1933296  58.0572433  60.3942199   6.8770003  61.0656249  61.4937709
   7.6281330  61.3807926  61.8077264   7.0692580  60.8635420  60.6671631
   7.0161418  61.0823631  61.4181105   6.0970003  58.8847624  43.1485926
   6.4768968  58.9027253  42.3637041   5.3562599  59.3301613  43.0276774
   6.0438841  58.9529399  43.0149494  13.7255294  57.1929815  48.7361505
  13.7249520  57.0378472  49.5945781  13.5211474  58.0392803  48.6802890
  13.6955071  57.2950436  48.8549444  11.4496146  61.8727317  52.3897712
  11.9449811  61.1550312  52.3501732  10.6395921  61.5698115  52.2752199
  11.4040039  61.7224964  52.3671438   6.8954757  65.7225131  44.5394716
   6.0866080  65.3991804  44.4928026   7.4029666  65.0158353  44.4722965
   6.8504424  65.5706447  44.5225011  13.5147965  64.6231005  55.0774841
  13.9403036  64.1005427  54.5245266  13.1504884  65.2211842  54.5563463
  13.5234567  64.6341232  54.9183850  10.1026564  68.3365269  51.4075998
  10.5737742  69.0505532  51.5765983  10.4386742  67.7364019  51.9435867
  10.2221679  68.3536733  51.5108374   7.0196059  53.1092740  58.3634093
   7.1523965  52.3123733  58.6915068   7.4041212  53.6359143  58.9432368
   7.0952388  53.0692656  58.4977596  10.7400510  68.1283203  58.1703691
  10.1921456  67.5041087  57.9023756  11.2013539  68.3177475  57.4547770
  10.7267720  68.0642253  58.0254122  10.0928414  50.0323066  54.9615186
   9.2874378  49.9220795  55.2783024   9.9635150  50.1335521  54.1045052
   9.9548547  50.0306736  54.8823226  13.5494375  56.1968558  55.5554883
  12.9657363  56.6977764  55.1432450  13.8698669  55.6898114  54.9219206
  13.5107550  56.1960393  55.4013390   6.0889174  55.1109152  45.8313558
   6.9104868  55.2807465  45.5895253   5.6258825  55.2656413  45.1079855
   6.1420336  55.1590885  45.6885202   4.6784506  53.1051915  56.6111987
   5.2228919  52.7643042  57.2016328   4.7321441  53.9637376  56.7533271
   4.7673625  53.1807174  56.7193860  10.3058837  69.1334276  54.7013032
  11.1257210  68.9897242  54.9629327  10.0252914  69.7580475  55.2429470
  10.3855580  69.2044628  54.8200971  16.7047959  70.7253844  51.3899222
  16.3751289  71.1764988  50.7202921  16.0292960  70.6470008  51.9372228
  16.5558395  70.7804979  51.3722445  23.9124366  66.7139367  49.6348832
  23.5977807  67.4042846  50.0669255  23.3951308  66.6584149  48.9334333
  23.7888837  66.8074256  49.5945782  14.9103913  68.7866133  46.8722169
  15.6649881  69.1544450  46.6339220  14.7331447  69.1605687  47.6401349
  14.9958391  68.8964321  46.9507058  28.2038811  74.9360573  54.9169709
  27.3667233  75.0062760  55.1517303  28.1727042  74.9385068  54.0444011
  28.0757094  74.9470800  54.8229257  13.2660977  71.1936452  43.5700282
  13.0836551  71.4108332  42.7441275  14.1286590  71.3075464  43.6258897
  13.3665567  71.2426350  43.4554770  18.9460697  68.1962862  46.6049306
  19.6746857  68.0178817  46.1587463  19.0355589  69.0380942  46.8156484
  19.0667359  68.2946741  46.5702824  25.8846651  70.0003355  53.5013431
  26.5272560  70.0701459  54.0875346  26.1369672  69.3332578  52.9992973
  26.0168783  69.9129703  53.5140710  21.1197934  71.0940326  51.2124384
  20.4154260  70.6049512  51.3708303  21.1682908  71.1062801  50.3412829
  21.0227985  71.0229974  51.1063724  28.3228154  74.7747992  49.2325395
  28.0664718  73.9627934  49.0423278  29.1657467  74.7825559  49.0055582
  28.4094179  74.6559990  49.1710212  22.5031246  68.7147616  53.9701549
  22.8841758  68.0325787  54.3569423  21.6994530  68.4257218  53.7877213
  22.4407708  68.5714665  54.0005605  16.4623086  71.2201814  63.8364157
  16.1476527  71.9901377  63.5733720  16.1413019  70.6572070  63.2516384
  16.3682005  71.2512083  63.7105507  14.0154983  69.6092336  49.4510354
  13.1477409  69.6814935  49.5167963  14.3030188  70.4114415  49.6398329
  13.9294731  69.7386483  49.4885120  23.1387872  69.7570195  57.7821675
  23.8841464  69.5680006  57.3685101  22.7225177  70.2828433  57.2235532
  23.1872846  69.8072341  57.6386249  30.5150143  77.1279424  52.7327180
  31.0658064  76.4947493  52.9724273  30.4994258  77.6594817  53.4242685
  30.5935339  77.1128372  52.8706039  24.2178549  75.3675757  51.8431777
  23.8743315  74.6466093  52.1939026  24.3171592  75.1589609  51.0010135
  24.1820592  75.2299961  51.7703457  22.7369515  73.2867342  53.7191320
  21.8980615  73.3128621  53.4829583  22.8073882  73.9338078  54.2996666
  22.6237908  73.3863468  53.7700436  21.1838793  70.1852719  48.4518935
  21.8865146  69.9860468  47.9738894  20.9182982  69.4128662  48.7587779
  21.2485425  70.0415685  48.4264377  15.9467349  71.4488004  57.5049816
  15.7550546  71.4643139  58.3549240  16.7965945  71.6451679  57.4816471
  16.0443071  71.4802356  57.6273111  18.8571576  71.6443514  57.7121639
  19.3144190  72.3767488  57.8394431  18.9327905  71.2209979  58.4708895
  18.9362546  71.6900752  57.8422716  23.3298902  64.8233389  51.5815482
  23.4482470  65.2809852  50.8482785  23.1561078  64.0178650  51.2951700
  23.3218073  64.7727161  51.4316416  20.9061737  73.5684256  57.5346801
  21.1203707  72.9295170  56.9810155  20.2895636  74.0130079  57.1054663
  20.8467066  73.5394399  57.3897232  23.0700825  75.1773321  58.4730108
  22.2577507  74.8699211  58.5543281  23.5290760  74.6972321  59.0372821
  23.0181210  75.0609813  58.5684703  20.2976466  66.6784191  52.5234144
  19.4270024  66.6522912  52.4767454  20.5516807  66.5061383  51.7059990
  20.2070026  66.6494335  52.3954281  17.3225606  68.6890420  53.9807614
  16.8064095  67.9970611  54.1059193  16.7619535  69.3561197  53.9270213
  17.1632120  68.6853677  53.9913680  19.3917840  69.2283380  55.8100467
  19.0049593  69.2532411  56.5913997  18.9050777  68.6625058  55.3574984
  19.2630349  69.1479131  55.8588371  19.0574981  66.1150365  58.1010727
  19.6868099  66.6510665  57.8231797  19.2260844  66.0227724  58.9524293
  19.1752776  66.1811728  58.1859255  18.8588896  70.9021560  60.3737139
  19.6862326  70.6306709  60.4295753  18.8796742  71.6982402  60.7300957
  18.9841746  70.9801314  60.4352321  22.5498900  68.6486254  51.0696029
  22.7548493  68.5808562  51.9153026  22.2225324  69.4545075  51.0017206
  22.5314148  68.7572194  51.1855684  25.8032588  69.2018018  50.5498794
  25.1906901  69.6888420  50.9352526  25.8996763  68.5261509  51.0936445
  25.7270485  69.1736327  50.6877652  19.8051669  70.9580859  45.6496294
  20.2595415  71.1291420  46.3744138  20.2791714  70.3448970  45.2494069
  19.9419989  70.8931744  45.6970055  19.0644264  69.4573652  51.7873162
  18.2180309  69.6296460  51.6614512  19.0615397  68.6522996  52.1238991
  18.9391414  69.3634681  51.8184289  20.1342565  73.2348867  52.6535220
  19.6602519  72.7090629  53.1640531  20.5060700  72.6878340  52.0850082
  20.1192453  73.0764863  52.6450367  22.0626064  74.1285421  45.7160974
  21.5349083  74.2114165  45.0266683  22.5221772  74.8703293  45.7125619
  22.0527915  74.2506084  45.6135669  28.3984482  75.0752700  52.0171260
  28.1594252  75.0348534  51.1792044  28.5618383  75.9223852  52.1436981
  28.3874786  75.1944785  51.9124742  21.0828429  67.8317206  57.4554842
  20.5868990  68.0280880  56.7646409  21.8397491  68.2309874  57.2843644
  21.1215254  67.9194940  57.3274979  18.3531309  71.5059552  54.0458153
  18.3773796  70.9719664  53.3570933  18.6042782  70.9976861  54.7083743
  18.3941227  71.3520456  54.0422797  14.6332631  70.2330370  53.4263897
  14.6731002  70.7339577  54.1398604  13.8082295  70.3240764  53.1569820
  14.5172157  70.3212186  53.4914435  13.8630777  70.2399773  61.3594207
  14.4883481  69.6961906  61.6323639  13.4081257  69.7594690  60.7901997
  13.8879038  70.0889254  61.3155800  16.0362243  71.8227558  43.5565932
  16.3578084  71.3430640  42.9025195  16.2989187  72.6327204  43.3656744
  16.1228269  71.8717456  43.4321424  21.4321398  71.2099752  55.9189412
  21.8576470  70.7572278  55.3072938  20.8178391  70.6559823  56.1954199
  21.4050044  71.0613728  55.8694437  19.8715621  67.6814852  49.3279989
  19.2283939  67.5312498  49.8965127  19.5315028  67.4357197  48.5629093
  19.7260698  67.6226974  49.2983004  24.6243095  72.0930162  51.6600370
  24.9770705  71.6659885  52.3346169  23.7657897  72.0081006  51.7901447
  24.5492540  72.0174903  51.7795381  26.0567155  67.2148574  52.5884683
  25.5498020  66.5077713  52.5205860  26.8534589  66.8841763  52.7185759
  26.0994394  67.0621725  52.5983678  21.9731171  73.7215186  48.4858347
  21.7444864  73.7447888  47.6436705  22.2329247  72.8972653  48.6053357
  21.9777359  73.6031266  48.3783544  24.6987877  72.7115123  48.7361505
  24.6982104  72.5563780  49.5945781  24.4944057  73.5578110  48.6802890
  24.6687655  72.8135744  48.8549444  17.9928642  68.6278048  58.3634093
  18.1256548  67.8309041  58.6915068  18.3773795  69.1544451  58.9432368
  18.0684971  68.5877964  58.4977596  21.0660998  65.5508374  54.9615186
  20.2606961  65.4406103  55.2783024  20.9367733  65.6520829  54.1045052
  20.9281131  65.5492044  54.8823226  24.5226958  71.7153866  55.5554883
  23.9389947  72.2163072  55.1432450  24.8431252  71.2083422  54.9219206
  24.4840134  71.7145701  55.4013390  17.0621757  70.6294460  45.8313558
  17.8837452  70.7992773  45.5895253  16.5991408  70.7841721  45.1079855
  17.1152920  70.6776193  45.6885202  15.6517089  68.6237223  56.6111987
  16.1961502  68.2828349  57.2016328  15.7054025  69.4822684  56.7533271
  15.7406209  68.6992482  56.7193860   4.5258144  22.6906643  34.5995955
   4.4952148  23.5451280  34.7714224   5.1239492  22.3901936  35.1582099
   4.6095302  22.7723139  34.7070757   1.0351545  28.0468820  48.9609342
   1.7418312  27.5520850  49.0896276   1.2239481  28.4877901  48.2312000
   1.1679451  28.0387170  48.8718387   2.3474718  25.2658945  32.8714265
   2.2314244  26.0166631  33.3006403   3.1430605  25.0082898  33.1210352
   2.4479308  25.3393792  32.9718356   1.6610023  12.6146882  36.5688879
   1.3463464  13.3050361  37.0009302   1.1436965  12.5591665  35.8674380
   1.5374494  12.7081771  36.5285828   6.4570510  28.1897688  38.0559334
   5.6268213  28.4008332  38.2192751   6.4079762  27.3634742  37.7801618
   6.3277245  28.0987294  38.0396700   5.9524468  20.8368089  41.8509756
   5.1152889  20.9070276  42.0857350   5.9212699  20.8392583  40.9784058
   5.8242751  20.8478316  41.7569304   0.6754654  25.0323765  37.4421647
   1.4312169  25.4655279  37.4810556   0.7816978  24.3828535  38.0156283
   0.8024825  25.0001249  37.5319673   3.7134825  28.8597042  38.1924050
   3.2770057  28.8633785  38.9483021   3.3797741  29.5402541  37.7603628
   3.5997445  28.9609498  38.2404883   3.6332308  15.9010870  40.4353478
   4.2758216  15.9708975  41.0215393   3.8855329  15.2340093  39.9333020
   3.7654440  15.8137219  40.4480757   6.8479171  25.5777962  37.0843687
   7.5095605  25.0168631  36.9839596   6.2070583  25.0829993  37.4096378
   6.8508039  25.4214371  37.1176027   3.1344002  26.5943345  36.8255676
   3.3699591  26.7388543  35.9982527   3.2833566  27.3585753  37.2187190
   3.1909805  26.7282399  36.7619280   4.9634459  25.4345011  34.6625280
   5.2942676  25.9672651  34.0565375   5.5367547  25.4883898  35.3187231
   5.0968138  25.5214579  34.6703062   6.0713810  20.6755507  36.1665442
   5.8150375  19.8635449  35.9763324   6.9143124  20.6833075  35.9395629
   6.1579836  20.5567505  36.1050259   3.7538970  27.8305103  46.0023994
   3.5177607  26.9993168  45.8836055   4.3982199  27.7790711  46.5878838
   3.8133640  27.7002791  46.0709888   4.7775390  27.6149552  42.0652289
   4.4721207  28.3477609  42.4265604   4.0581606  27.2087482  41.7845075
   4.6262733  27.6631285  42.0765426  10.4777182  24.2542553  41.3920633
  10.4101683  24.2738512  40.5223219  10.4632845  25.0972880  41.6176303
  10.4655939  24.3816288  41.2973110   8.2635800  23.0286939  39.6667227
   8.8143721  22.3955008  39.9064319   8.2479915  23.5602332  40.3582732
   8.3420996  23.0135887  39.8046085   1.9664206  21.2683273  38.7771823
   1.6228972  20.5473608  39.1279073   2.0657248  21.0597124  37.9350182
   1.9306249  21.1307476  38.7043503   2.4277235  27.7308977  34.3195812
   2.9935268  28.3902187  34.2354355   1.7805138  28.0758675  34.7912214
   2.4155991  27.8790918  34.3768568   4.3612695  24.3942844  37.9392608
   4.2746670  24.5498270  38.7927387   3.9063175  25.0380920  37.5652013
   4.2815952  24.5118599  38.0099715   2.1286560  28.4236951  40.3504949
   1.9900919  29.1217997  40.8553691   1.3486558  28.2685607  39.9941131
   1.9929787  28.5037117  40.3731223   3.6239933  27.7815204  31.1121448
   3.2446742  26.9952342  31.1050737   2.9606178  28.3302061  30.9693092
   3.4698408  27.7460028  31.0902245   1.8700032  30.0260696  31.4473134
   1.9519869  30.8327682  31.1234585   2.3549774  30.0456655  32.1713907
   1.9537190  30.1481358  31.5060033   1.3775232  28.7858114  51.5291460
   2.1910097  28.5143263  51.6896592   1.2170198  28.4865654  50.7251656
   1.4745180  28.7013040  51.4336866   1.3896476  29.8464404  46.8014300
   2.0276196  29.3524600  46.4676756   0.7470568  29.7741805  46.2166527
   1.3890702  29.7623413  46.6656655   3.1153476  21.6953550  41.3680216
   2.6881084  21.6079899  40.6128316   2.4779529  21.8031326  41.9535060
   2.9583083  21.6986210  41.3425658   1.4450733  30.5384212  43.4419657
   2.2343111  30.1873277  43.5621739   1.6194330  31.3520601  43.1796291
   1.5871014  30.6070069  43.4207525   3.5518244  15.1025533  37.4838841
   2.9392558  15.5895935  37.8692573   3.6482419  14.4269024  38.0276492
   3.4756142  15.0743842  37.6217699   7.1943272  26.1742470  42.9116357
   7.2526396  26.6229119  43.6576334   6.5609740  26.5841283  42.4746437
   7.1094568  26.3016205  42.9568905   4.1464952  24.1958758  40.9982047
   3.9063175  23.3565173  41.0024474   4.6256959  24.2758924  41.7222821
   4.1817136  24.0840157  41.1056850   6.1470139  20.9760215  38.9511307
   5.9079909  20.9356049  38.1132091   6.3104040  21.8231367  39.0777028
   6.1360442  21.0952300  38.8464789   2.7516169  25.3610164  44.8816352
   3.4750368  24.9082691  44.7027372   2.4866131  25.6414830  44.0988680
   2.8197442  25.3361133  44.7395067   5.1851483  24.3236575  43.3846901
   5.7769323  24.9633826  43.4165099   5.6210477  23.6259612  43.6738968
   5.3369914  24.3154925  43.4327734   2.2100624  21.5381794  35.6850044
   1.5391814  22.0811496  35.5563109   2.9040375  22.0076649  35.4431739
   2.2129492  21.6880065  35.6305572   2.3728752  17.9937677  38.5940417
   2.7256362  17.5667400  39.2686216   1.5143553  17.9088521  38.7241494
   2.2978196  17.9182418  38.7135428   3.8052812  13.1156089  39.5224730
   3.2983677  12.4085229  39.4545907   4.6020246  12.7849278  39.6525806
   3.8480051  12.9629241  39.5323725   6.0072952  27.6321016  32.5065594
   6.3906558  28.3812372  32.7363691   5.2117065  27.8786835  32.2477583
   5.9466734  27.7790710  32.5023168   2.4473534  18.6122639  35.6701552
   2.4467760  18.4571295  36.5285828   2.2429714  19.4585626  35.6142937
   2.4173312  18.7143259  35.7889491   2.2366205  26.0423828  42.0114887
   2.6621276  25.5198250  41.4585312   1.8723125  26.6404665  41.4903510
   2.2452807  26.0534055  41.8523897   0.9121789  31.3659406  50.5208117
   1.0218754  30.5767966  50.8764864   1.2412686  31.2765342  49.7182455
   0.9774195  31.2365259  50.4550508   2.2712615  17.6161381  42.4894930
   1.6875604  18.1170587  42.0772497   2.5916909  17.1090937  41.8559253
   2.2325790  17.6153216  42.3353437  15.4990727  38.2091951  34.5995955
  15.4684732  39.0636588  34.7714224  16.0972076  37.9087243  35.1582099
  15.5827885  38.2908447  34.7070757   8.6990412  37.2967602  39.3548885
   7.8428308  37.4576100  39.4058002   8.7458066  36.4259666  39.3753946
   8.5789524  37.1918404  39.3654951   3.0831552  46.8330320  35.1186117
   2.3314451  46.4545858  34.8902162   3.5317564  46.8648753  34.3704927
   3.0381219  46.7815927  34.9743619  12.0084129  43.5654127  48.9609342
  12.7150896  43.0706158  49.0896276  12.1972064  44.0063209  48.2312000
  12.1412034  43.5572478  48.8718387   8.5356512  47.2555689  30.5471664
   8.2007880  47.9332611  30.1115886   9.0483382  46.8661001  29.9588536
   8.5622093  47.2980267  30.3958456   8.0760803  49.2069958  36.4882776
   8.4600182  49.7756857  35.9487551   8.0119944  48.4819468  36.0088592
   8.1234230  49.1845421  36.3376638  11.5442233  39.3559646  41.9980537
  12.0898193  40.0344732  42.0574507  11.4859109  39.2147107  41.1382119
  11.6158148  39.4351647  41.8792598   4.6616308  46.8448712  37.3848889
   4.7626671  46.0349066  37.6946017   4.0658053  46.7505658  36.7548568
   4.5888847  46.7113740  37.3375128  13.3207302  40.7844253  32.8714265
  13.2046828  41.5351939  33.3006403  14.1163189  40.5268206  33.1210352
  13.4211891  40.8579100  32.9718356   4.5017048  51.7626301  38.7863746
   5.1454503  52.2039465  39.1759904   4.8273303  50.9579727  38.6994004
   4.6448876  51.7091496  38.8309223   5.2037627  44.7738276  34.1583607
   5.5253468  45.3143483  33.5544915   5.8509724  44.2035047  34.2905897
   5.3463683  44.7697451  34.0890643   7.2539335  36.7754271  34.2417994
   7.9519500  36.9542398  34.7339457   7.5691668  36.2524610  33.6188383
   7.4034673  36.7248043  34.2220004   7.4427271  43.1624716  34.2297785
   7.8820906  42.5541816  34.6752558   7.2931934  42.7832089  33.4583250
   7.4848736  43.0163187  34.1816953   4.9098914  41.7568728  41.4316611
   5.5547916  41.2641171  41.1127559   5.1500691  41.8993514  42.2582689
   5.0409499  41.7046170  41.5066144   7.4485005  44.6023634  41.0823503
   7.7308248  43.8075039  40.8610259   8.1771166  45.0804221  41.1028564
   7.5974569  44.5558230  41.0526519   5.4266199  32.1446668  38.3239269
   5.0969529  32.5957811  37.6542967   4.7511201  32.0662831  38.8712275
   5.2776635  32.1997803  38.3062492  11.0436607  41.5151897  31.1828555
  10.9587902  42.3712864  31.3278124  11.5320991  41.2396221  31.8510714
  11.1025505  41.6009219  31.3030636  12.6342607  28.1332190  36.5688879
  12.3196048  28.8235669  37.0009302  12.1169548  28.0776973  35.8674380
  12.5107077  28.2267079  36.5285828  11.9755041  38.1336691  32.6826290
  11.4466512  38.3496325  33.3423596  12.4980061  38.8272830  32.6027259
  11.9743494  38.2679828  32.7681889  17.4303094  43.7082996  38.0559334
  16.6000797  43.9193639  38.2192751  17.3812346  42.8820050  37.7801618
  17.3009829  43.6172602  38.0396700   3.8654648  42.0299908  31.4833758
   3.2811864  42.5349939  31.8899622   3.4624744  41.8042295  30.7430350
   3.7193952  42.0708156  31.4338783   5.4912831  46.5386850  40.8907244
   4.9739773  46.1794265  40.2868552   6.1887222  46.0149024  40.9013310
   5.5178412  46.4084538  40.8037502   9.1476423  46.9881664  46.8523417
   9.2359769  46.8007804  47.7001627   9.5766136  46.3419094  46.4528264
   9.2238525  46.8644672  46.9195168   6.7146883  46.2712824  45.8341079
   6.1517718  45.8585434  46.3580740   7.4767906  46.1965730  46.2534222
   6.7441331  46.1990225  45.9734079   8.3231863  38.2765560  29.9602678
   8.5627867  38.4843544  29.1478021   8.6447704  37.4723069  30.0691623
   8.4069021  38.1879661  29.8563231   3.6322153  30.2058956  33.8062216
   4.3868121  30.5737273  33.5679266   3.4549688  30.5798510  34.5741396
   3.7176631  30.3157144  33.8847105   2.2742874  48.2610845  38.4377709
   2.9763454  47.7462834  38.4950466   2.1940357  48.5884997  39.2424584
   2.3666635  48.2325071  38.5650501  16.9257052  36.3553396  41.8509756
  16.0885473  36.4255584  42.0857350  16.8945283  36.3577891  40.9784058
  16.7975334  36.3663623  41.7569304   3.3221781  38.4986432  47.5658124
   3.4942285  38.3892327  48.4143406   3.8591138  39.1440838  47.3289317
   3.4266785  38.5778434  47.6563221   1.9879218  32.6129275  30.5040329
   1.8054791  32.8301156  29.6781322   2.8504831  32.7268288  30.5598944
   2.0883807  32.6619173  30.3894816   1.5993650  44.4517197  37.9463317
   2.4382549  44.6840130  37.9937079   1.6305419  43.5821509  37.8770353
   1.7275367  44.3574144  37.9427962   2.2246353  44.8718072  42.2476623
   2.7644578  44.7289203  42.9179995   1.5416299  45.2714823  42.6160649
   2.2038507  44.9097743  42.4011044   7.6678937  29.6155686  33.5389353
   8.3965097  29.4371641  33.0927509   7.7573830  30.4573765  33.7496531
   7.7885599  29.7139564  33.5042871  11.6487238  40.5509073  37.4421647
  12.4044753  40.9840587  37.4810556  11.7549562  39.9013843  38.0156283
  11.7757408  40.5186557  37.5319673  14.6867409  44.3782350  38.1924050
  14.2502641  44.3819093  38.9483021  14.3530324  45.0587849  37.7603628
  14.5730029  44.4794806  38.2404883   9.2596482  46.4190683  49.5167200
  10.0436899  46.5321531  49.8822943   9.0593077  45.5931820  49.7125886
   9.3462508  46.3137402  49.6001586  14.6064892  31.4196178  40.4353478
  15.2490800  31.4894283  41.0215393  14.8587912  30.7525401  39.9333020
  14.7387024  31.3322527  40.4480757   1.5341245  35.8903448  29.0162802
   0.8199422  35.6041627  29.4285235   2.0185213  36.2300073  29.6569190
   1.5000608  35.8985097  29.1718437   2.3782104  34.6296741  45.0478052
   1.6853901  34.1593721  45.2938784   2.9942431  34.4035046  45.6219759
   2.3666634  34.5263873  45.1687205   9.4166876  48.3300785  43.1633656
   8.6182121  48.0900285  43.4207525   9.8652887  48.3815178  43.9100704
   9.3641487  48.3023176  43.3118580   8.7088563  44.3933402  29.3924611
   9.1239711  44.0618425  28.7009106   7.8780492  44.1602304  29.2644747
   8.6476571  44.3104657  29.2715458  14.1076586  42.1128653  36.8255676
  14.3432175  42.2573851  35.9982527  14.2566149  42.8771061  37.2187190
  14.1642389  42.2467707  36.7619280   1.1022663  38.5962145  46.1904897
   1.8262635  38.5815176  46.6769792   1.2038800  39.3057501  45.6926865
   1.2240872  38.6986849  46.1883684  15.9367042  40.9530318  34.6625280
  16.2675259  41.4857959  34.0565375  16.5100130  41.0069206  35.3187231
  16.0700721  41.0399887  34.6703062   8.4767613  42.0761230  51.0553844
   7.6840593  42.3904742  51.2406464   8.5916540  42.2912698  50.2174629
   8.3763023  42.1545067  50.9592179  11.1498931  38.7995221  35.3448860
  11.2445786  39.5384515  35.7988485  10.5257775  38.3712697  35.7783425
  11.0707962  38.8456542  35.4757008   9.4051405  41.9781434  45.9939141
   9.9790267  41.3408678  46.1487705   9.3266209  41.9785516  45.1248799
   9.4784640  41.8846545  45.8885552  11.4021953  40.6443961  28.5785812
  11.3202115  40.7146148  29.4440799  12.0401673  41.2073705  28.3869553
  11.4841790  40.7382932  28.6775762   4.7615124  40.4104699  38.0460338
   4.5034368  39.5776434  38.0191638   4.8163607  40.6362312  37.2052839
   4.7314902  40.3202470  37.9180475   9.8416174  32.5133150  38.1464431
   9.1372501  32.0242335  38.3048350   9.8901148  32.5255624  37.2752875
   9.7446226  32.4422798  38.0403771   3.7349836  37.9642461  38.5325233
   3.1599427  38.1234630  39.1689194   3.3585512  37.3277870  38.0693684
   3.5952648  37.8940274  38.5579791   7.4023125  36.4365811  43.3917612
   7.0137557  36.0120028  42.7369803   6.7377823  36.6847960  43.8994638
   7.2470053  36.4104532  43.3705479  17.0446394  36.1940815  36.1665442
  16.7882959  35.3820757  35.9763324  17.8875708  36.2018382  35.9395629
  17.1312419  36.0752813  36.1050259  11.2249486  30.1340439  40.9041596
  11.6059998  29.4518610  41.2909470  10.4212771  29.8450041  40.7217260
  11.1625948  29.9907488  40.9345652   8.5062063  40.6664415  31.5894418
   9.3202702  40.9579308  31.4777190   8.4421204  40.0124278  31.0152711
   8.6164802  40.6129610  31.4883256  14.7271553  43.3490411  46.0023994
  14.4910191  42.5178476  45.8836055  15.3714782  43.2976019  46.5878838
  14.7866224  43.2188099  46.0709888   4.3769971  44.1385933  36.7166731
   5.0143918  43.8997680  37.2618524   4.8025043  44.3423092  35.9819891
   4.5346138  44.1336943  36.6883888   5.0172786  39.3588222  31.0541620
   5.4017939  39.1395929  31.8058165   4.7684407  40.1851168  31.1842696
   5.0374859  39.4486369  31.1842696   5.1841327  32.6394638  50.7704204
   4.8694768  33.4094200  50.5073767   4.8631259  32.0764894  50.1856431
   5.0900246  32.6704906  50.6445554  15.7507974  43.1334860  42.0652289
  15.4453791  43.8662917  42.4265604  15.0314189  42.7272790  41.7845075
  15.5995316  43.1816593  42.0765426   6.7591443  44.6158355  38.3960517
   6.8330451  44.4533527  39.2502367   7.5760950  44.8048545  38.1520998
   6.8907802  44.6195098  38.4858542   2.7373224  31.0285159  36.3850400
   1.8695649  31.1007759  36.4508010   3.0248428  31.8307238  36.5738376
   2.6512972  31.1579306  36.4225167  11.8606112  31.1763019  44.7161722
  12.6059704  30.9872829  44.3025148  11.4443417  31.7021256  44.1575579
  11.9091087  31.2265164  44.5726296   5.2996029  47.5793098  33.1273990
   5.5894327  47.1882080  32.4033217   6.0299510  47.7609803  33.5679266
   5.4502913  47.5486912  33.0856797   5.8890774  42.3810844  44.2127121
   5.3902468  43.0926612  44.2912009   6.6990998  42.7011511  44.1745283
   5.9346881  42.5337693  44.2183689   3.2401945  49.5560481  36.1934140
   3.0202240  49.2657835  36.9860807   3.0196467  48.8975436  35.6652052
   3.1749539  49.4160189  36.2323049   2.1518892  41.6433797  38.4589842
   1.8632140  41.0171269  38.9935569   3.0202240  41.5854085  38.5254522
   2.2379144  41.5421342  38.5480796  12.9396789  36.7868581  38.7771823
  12.5961555  36.0658916  39.1279073  13.0389832  36.5782432  37.9350182
  12.9038832  36.6492784  38.7043503   5.4069900  50.9289871  34.9764832
   6.0593958  50.3966313  35.2055858   4.7095509  50.5758523  35.3632706
   5.4000618  50.7979394  35.0677000   2.3551165  43.2829048  34.3832207
   3.1097133  43.6642087  34.5967669   1.7621778  43.7340192  34.8378903
   2.3787879  43.4057876  34.4815085  13.4009819  43.2494285  34.3195812
  13.9667851  43.9087495  34.2354355  12.7537722  43.5943983  34.7912214
  13.3888575  43.3976226  34.3768568   4.8157832  35.2391889  49.5089419
   4.0057608  35.5449668  49.3979261   5.2932519  35.9597471  49.6242003
   4.7661311  35.3906490  49.5096490   3.6749392  44.4537610  39.7572322
   3.1530145  44.5937901  40.4424187   4.0623412  43.6948274  39.9474439
   3.6553093  44.3623134  39.8873399   9.8716397  46.1933069  33.7432891
   9.6303073  45.4600930  33.3359956  10.0517730  46.7419926  33.0899224
   9.8624021  46.1655460  33.5863114   5.1015717  41.4841629  35.1553813
   4.9058500  42.0916363  34.5614116   5.3250063  40.7909573  34.6745487
   5.1050358  41.4719154  34.9969894   3.4994247  38.3696367  35.2734681
   4.2216899  38.5337525  34.8138487   3.0202240  39.0906031  35.1674021
   3.5357978  38.4994596  35.1900295  11.4587755  34.7060165  40.6531366
  10.6198856  34.7321444  40.4169630  11.5292122  35.3530901  41.2336713
  11.3456148  34.8056291  40.7040483   1.1501864  40.7754439  44.3788821
   1.6622961  41.0538692  43.7297581   0.8638207  41.5143733  44.7451634
   1.1836727  40.9256793  44.3378699   9.9057033  31.6045542  35.3858982
  10.6083386  31.4053291  34.9078941   9.6401222  30.8321485  35.6927826
   9.9703665  31.4608508  35.3604424  15.3345279  39.9128152  37.9392608
  15.2479253  40.0683578  38.7927387  14.8795759  40.5566228  37.5652013
  15.2548535  40.0303907  38.0099715   4.6685589  32.8680828  44.4389863
   4.4768786  32.8835962  45.2889286   5.5184185  33.0644502  44.4156518
   4.7661311  32.8995179  44.5613158   9.2071095  37.2338899  36.5618168
   8.9605809  37.1534650  37.3954957   9.5356218  36.4492367  36.3680695
   9.2192338  37.1065165  36.6565691  13.1019144  43.9422259  40.3504949
  12.9633503  44.6403304  40.8553691  12.3219142  43.7870915  39.9941131
  12.9662370  44.0222425  40.3731223  11.4397229  40.2418634  46.6027331
  11.4345267  39.3698451  46.6069757  12.1458223  40.4406803  46.1296786
  11.5442233  40.1422508  46.5334366   5.1668122  39.9695618  45.9741151
   5.3111498  40.5496826  45.3384261   5.5143771  40.3471915  46.6791005
   5.2395583  40.1116322  45.9840146   7.3388039  39.1685786  43.7566282
   6.5911353  39.3616801  43.3514560   7.4929565  38.3431006  43.5190404
   7.2510467  39.0750898  43.6611688   4.2395877  48.1598390  42.8402178
   4.3885441  47.6001306  42.1875582   5.0195879  48.2390391  43.2234696
   4.3769971  48.0883955  42.7999127  14.5972516  43.3000512  31.1121448
  14.2179325  42.5137650  31.1050737  13.9338762  43.8487369  30.9693092
  14.4430991  43.2645336  31.0902245   6.7649178  48.3313033  44.1186668
   6.6892849  47.6621843  44.6737457   6.6939037  49.0330821  44.6327335
   6.7429785  48.3357940  44.2763516   7.5789816  33.0636337  44.6461686
   8.0362431  33.7960311  44.7734478   7.6546145  32.6402802  45.4048942
   7.6580786  33.1093575  44.7762763  12.0517142  26.2426212  38.5155529
  12.1700711  26.7002675  37.7822832  11.8779318  25.4371473  38.2291747
  12.0436313  26.1919984  38.3656463   7.4219425  46.8514031  34.9510274
   8.1869316  46.5823675  34.6292939   7.3197515  46.3664042  35.6680337
   7.5200920  46.7403596  35.0090102   5.4572194  35.0538441  41.4903510
   4.6668269  34.8729901  41.8120846   5.8532817  34.2765393  41.4733805
   5.3989071  34.9125902  41.5356058   9.9438085  43.8826215  26.9310224
  10.7111070  43.9426340  26.5216075   9.4969394  43.3106657  26.4466542
   9.9911512  43.8062791  26.7987934  10.8415881  42.6880871  39.2162956
  10.1660882  42.4566103  39.7176343  10.8508257  42.0802054  38.5905061
  10.7434385  42.5639796  39.1979108   7.9710025  37.5298700  45.9727009
   7.9069166  38.3908656  45.8447146   8.1107212  37.2130693  45.1722560
   7.9825495  37.6098867  45.8355222  12.8432615  45.5446003  31.4473134
  12.9252453  46.3512990  31.1234585  13.3282357  45.5641963  32.1713907
  12.9269773  45.6666666  31.5060033   6.6529119  40.2230839  40.1143212
   6.2291368  40.4235338  39.3782230   6.4773974  39.3759687  40.2267512
   6.5639999  40.1279621  40.0216902   6.1540812  51.7381352  42.5764669
   6.6436742  51.0392142  42.3940334   5.5825044  51.4405222  43.1640726
   6.1425342  51.5907576  42.6365710   1.9411564  40.7182891  35.5471184
   2.0976183  40.6529694  36.4027176   2.2812157  41.4931443  35.3349864
   2.0144798  40.8232089  35.6425779   8.4790708  40.0940774  34.4164548
   9.0206254  39.5911155  34.8803168   8.7937267  40.0405969  33.6054033
   8.6055105  40.0120195  34.3648360  12.3507816  44.3043422  51.5291460
  13.1642681  44.0328571  51.6896592  12.1902782  44.0050962  50.7251656
  12.4477764  44.2198348  51.4336866   6.6477158  45.4858126  31.7004576
   6.7169978  44.6272664  31.8397576   7.4265613  45.7030007  31.3723600
   6.7730008  45.3910990  31.6721733   9.6279978  34.9877079  44.4686848
   9.8421947  34.3487993  43.9150202   9.0113877  35.4322903  44.0394710
   9.5685307  34.9587223  44.3237279  11.0384645  47.9095827  35.9141069
  10.6464437  47.6062542  35.1963935  11.1937718  48.7464917  35.7246023
  11.0038235  47.9879664  35.7797566  11.7919066  36.5966144  45.4070155
  10.9795747  36.2892034  45.4883328  12.2509000  36.1165144  45.9712867
  11.7399450  36.4802636  45.5024749  11.2024320  44.4745816  35.8547100
  10.8438975  44.6460459  36.6311132  10.7163031  44.9359022  35.2975098
  11.0783017  44.5684787  35.8872369   9.0194706  28.0977015  39.4574191
   8.1488264  28.0715736  39.4107500   9.2735047  27.9254207  38.6400037
   8.9288266  28.0687158  39.3294328   5.9912686  40.1544981  28.3947334
   6.2805210  40.9309864  28.6690908   6.0784484  39.6433713  29.0961833
   6.0466942  40.1936900  28.5389832   8.8872573  38.0026216  50.1898857
   9.3572204  38.6268332  50.5766732   8.9334453  37.3343191  50.7492072
   8.9640449  37.9960896  50.3298929   6.0443847  30.1083243  40.9147661
   5.5282335  29.4163434  41.0399240   5.4837776  30.7754020  40.8610260
   5.8850360  30.1046501  40.9253727   8.1136080  30.6476203  42.7440514
   7.7267833  30.6725235  43.5254044   7.6269017  30.0817882  42.2915030
   7.9848589  30.5671954  42.7928418  12.3629060  45.3649712  46.8014300
  13.0008780  44.8709908  46.4676756  11.7203151  45.2927112  46.2166527
  12.3623286  45.2808721  46.6656655  14.0886060  37.2138858  41.3680216
  13.6613668  37.1265207  40.6128316  13.4512113  37.3216633  41.9535060
  13.9315667  37.2171518  41.3425658   7.7793222  27.5343189  45.0350774
   8.4086340  28.0703489  44.7571844   7.9479085  27.4420547  45.8864339
   7.8971016  27.6004551  45.1199302   7.5807137  32.3214383  47.3077185
   8.4080566  32.0499532  47.3635800   7.6014983  33.1175225  47.6641003
   7.7059987  32.3994137  47.3692368  12.4183316  46.0569520  43.4419657
  13.2075694  45.7058585  43.5621739  12.5926914  46.8705909  43.1796291
  12.5603598  46.1255377  43.4207525   2.1576627  39.4678246  40.4947446
   1.3164633  39.3682120  40.7026340   2.3666635  40.2373726  40.8461767
   2.0641319  39.5670289  40.5774761  11.2717140  30.0679077  38.0036076
  11.4766734  30.0001385  38.8493073  10.9443564  30.8737898  37.9357253
  11.2532388  30.1765017  38.1195731   5.9693291  37.3959645  39.7445044
   5.6656429  36.8415633  40.3455451   5.2672712  37.5751855  39.2573078
   5.8209501  37.3404428  39.7614749   5.0259389  34.7060165  34.3089745
   5.3019123  33.9879078  33.8967313   5.6258058  35.3045085  34.1010851
   5.1552653  34.6880536  34.2170507   4.0311642  44.6109366  44.4517141
   3.9231997  44.6211428  45.3179199   4.2407424  45.4364146  44.2622095
   4.0461753  44.7350441  44.5521233  14.5250828  30.6210841  37.4838841
  13.9125142  31.1081243  37.8692573  14.6215003  29.9454332  38.0276492
  14.4488726  30.5929150  37.6217699   8.5269909  32.3773682  32.5836340
   8.9813656  32.5484243  33.3084185   9.0009955  31.7641793  32.1834116
   8.6638229  32.3124568  32.6310102   2.0485434  41.8622008  41.9139079
   1.4573368  42.5031507  41.8842094   2.8106458  42.2859626  41.8870378
   2.0733695  42.0197847  41.9054226   2.4446057  33.0224006  42.5807096
   2.9047539  33.0962936  43.3182220   2.4902164  33.8205260  42.2306918
   2.5196613  33.1518153  42.6379853   4.0929407  33.6890701  47.1479124
   3.7014972  33.0424048  47.5834901   4.2615270  34.2802136  47.7673379
   4.0600317  33.6804969  47.3041830  18.1675856  41.6927778  42.9116357
  18.2258980  42.1414427  43.6576334  17.5342324  42.1026591  42.4746437
  18.0827151  41.8201513  42.9568905  11.8074951  47.3131320  39.3471103
  11.6094639  47.8022134  38.6527315  11.1862662  47.5172561  39.9255237
  11.6862515  47.4147858  39.3294327   5.8682929  39.0816217  33.6881348
   6.6124974  39.4690493  33.9264297   6.0143625  38.2373642  33.8521835
   5.9993514  39.0146690  33.7475317   7.7862504  30.8766476  38.7213209
   6.9398550  31.0489283  38.5954559   7.7833637  30.0715819  39.0579037
   7.6609654  30.7827505  38.7524336   8.8560805  34.6541690  39.5875267
   8.3820759  34.1283452  40.0980578   9.2278941  34.1071163  39.0190128
   8.8410694  34.4957687  39.5790414  15.1197535  39.7144066  40.9982047
  14.8795758  38.8750481  41.0024474  15.5989543  39.7944232  41.7222821
  15.1549719  39.6025465  41.1056850  10.7844305  35.5478245  32.6501021
  10.2567323  35.6306989  31.9606730  11.2440013  36.2896116  32.6465665
  10.7746155  35.6698907  32.5475716  17.1202722  36.4945523  38.9511307
  16.8812492  36.4541357  38.1132091  17.2836624  37.3416675  39.0777028
  17.1093026  36.6137608  38.8464789  13.7248753  40.8795472  44.8816352
  14.4482951  40.4267999  44.7027372  13.4598715  41.1600138  44.0988680
  13.7930026  40.8546441  44.7395067   2.5935621  35.4755646  41.6169231
   1.9688691  35.4874038  41.0095184   2.2581216  35.9515821  42.2660471
   2.4521113  35.5474163  41.6225799   2.7777370  33.8180764  27.6741916
   2.4290174  34.4700489  28.1373465   2.2973815  33.8037877  26.9465787
   2.6547614  33.9123818  27.6353007  10.3381387  44.1181808  31.7810678
  11.0615586  44.5839921  31.6375251   9.8981978  44.1855418  31.0308275
  10.3797079  44.1965645  31.6495459   9.5067542  40.9779350  43.0311367
   8.8924535  40.4337401  43.3260002  10.0234827  40.4643587  42.5517183
   9.4923205  40.8215759  43.0035595   8.7463839  42.0483620  40.7655665
   8.3191447  41.4233339  40.3321101   8.7388784  41.7658542  41.5914673
   8.6822980  41.9136401  40.8235493   1.8626366  37.0848794  43.8344099
   2.0219853  36.3292118  44.2395821   1.6819260  37.6339733  44.4884837
   1.8591725  37.0542607  43.9906805   9.8046669  29.2510029  44.3894889
   9.3087231  29.4473703  43.6986456  10.5615731  29.6502697  44.2183691
   9.8433494  29.3387763  44.2615026   7.0749549  32.9252375  40.9798199
   7.0992036  32.3912487  40.2910979   7.3261023  32.4169684  41.6423790
   7.1159468  32.7713279  40.9762844   3.3550871  31.6523193  40.3603944
   3.3949243  32.1532400  41.0738651   2.5300536  31.7433587  40.0909867
   3.2390397  31.7405010  40.4254482   5.5380484  41.2183933  48.4624238
   4.6876115  41.3555648  48.5981883   5.7008612  40.4847711  48.9071940
   5.4364348  41.1298034  48.5479837   4.7765235  38.1683703  42.6577843
   3.9457164  38.3357521  42.4513091   4.7216752  37.7919654  43.4426728
   4.6454649  38.1373434  42.7426371   2.5849018  31.6592596  48.2934253
   3.2101721  31.1154729  48.5663686   2.1299498  31.1787514  47.7242044
   2.6097278  31.5082077  48.2495847   3.1501278  36.4439295  33.1867960
   3.2904239  36.9411759  33.8896602   3.6483811  35.7425589  33.3282174
   3.2442359  36.4141273  33.3119539   3.1801501  37.3106406  30.5160537
   3.8146580  37.9066831  30.4509999   3.2627112  37.0109863  31.3306407
   3.2858052  37.3547314  30.6263624  16.1584067  39.8421883  43.3846901
  16.7501907  40.4819134  43.4165099  16.5943061  39.1444920  43.6738968
  16.3102498  39.8340233  43.4327734   4.7580484  33.2420381  30.4905979
   5.0796325  32.7623464  29.8365242   5.0207427  34.0520027  30.2996791
   4.8446509  33.2910279  30.3661471   7.9877456  44.2639255  44.0104795
   7.4802548  44.8175102  44.4545426   7.6904103  44.3247545  43.1923570
   7.8682341  44.3545567  43.9553252  10.1539639  32.6292575  42.8529458
  10.5794710  32.1765101  42.2412985   9.5396632  32.0752646  43.1294246
  10.1268284  32.4806551  42.8034484  10.5985237  48.1802513  31.9408739
   9.8814546  48.0063375  31.4755976  11.2491974  47.9455085  31.4084225
  10.5887087  48.1198306  31.7937957   8.5933861  29.1007675  36.2620035
   7.9502179  28.9505321  36.8305174   8.2533268  28.8550020  35.4969140
   8.4478939  29.0419797  36.2323050   7.2319942  49.1963814  40.9161802
   7.0085596  48.4382643  41.2845829   6.7429785  49.2261835  40.1942242
   7.1263391  49.0886038  40.8638543  13.3461335  33.5122985  38.5940417
  13.6988945  33.0852708  39.2686216  12.4876137  33.4273829  38.7241494
  13.2710780  33.4367726  38.7135428   2.0445020  36.1430505  36.6523264
   1.3257010  36.5594638  36.9196127   2.4157383  36.7084744  36.1014902
   1.9936952  36.2879786  36.6106071  11.3444601  36.7758354  42.5425259
  11.3242529  36.5941649  43.3960038  11.3923802  37.6470372  42.5184843
  11.3479242  36.8774892  42.6648554   9.2890931  43.3645546  48.4673736
   9.2486786  42.7195223  47.8818892  10.1014249  43.3082163  48.7799148
   9.4034085  43.2604513  48.4270685   5.8798399  49.4164272  38.3698887
   5.4658797  48.7538402  37.9802729   6.5645773  49.5642131  37.8494581
   5.9196770  49.3404930  38.2355384   9.2463693  48.5754357  39.1222503
   8.8479976  48.6856627  38.3543324   8.6314912  48.7836423  39.7049063
   9.0962582  48.6227925  39.0953803   7.8191595  35.1828505  31.9896643
   7.2256434  35.5045501  31.4381210   7.8566872  34.3369600  31.7817749
   7.7365984  35.1052833  31.8779414  14.7785395  28.6341397  39.5224730
  14.2716260  27.9270537  39.4545907  15.5752829  28.3034586  39.6525806
  14.8212635  28.4814549  39.5323725  10.6949411  35.1408009  35.4198393
  10.4663104  35.1640711  34.5776752  10.9547488  34.3165476  35.5393404
  10.6995599  35.0224089  35.3123591   4.9768640  36.9942482  45.0223494
   4.4647543  36.3863665  45.3808525   4.8048136  37.7099075  45.4897469
   4.8758277  37.0105782  45.1439717   3.7494174  33.6784556  36.7152589
   4.2251540  34.0401635  36.0802770   3.2482773  34.3341023  36.9952732
   3.7459533  33.8278744  36.6629330  16.9805535  43.1506324  32.5065594
  17.3639141  43.8997680  32.7363691  16.1849649  43.3972143  32.2477583
  16.9199318  43.2976018  32.5023168   8.8537710  34.9166727  47.4625749
   9.4109140  34.6880537  46.8304215   8.5298775  35.6772393  47.1860962
   8.8884120  34.9950564  47.3282246   6.5720827  38.0034380  48.4277756
   7.3232154  38.3186057  48.7417310   6.7643404  37.8013551  47.6011678
   6.7112242  38.0201762  48.3521152   5.7920827  35.8225755  30.0825973
   6.1719792  35.8405385  29.2977088   5.0513423  36.2679744  29.9616820
   5.7389665  35.8907530  29.9489541  13.4206118  34.1307947  35.6701552
  13.4200344  33.9756603  36.5285828  13.2162298  34.9770934  35.6142937
  13.3905895  34.2328567  35.7889491  11.1446970  38.8105448  39.3237759
  11.6400635  38.0928444  39.2841779  10.3346745  38.5076246  39.2092246
  11.0990863  38.6603095  39.3011484   6.5905581  42.6603262  31.4734763
   5.7816904  42.3369935  31.4268073   7.0980490  41.9536484  31.4063012
   6.5455248  42.5084578  31.4565057  13.2098788  41.5609136  42.0114887
  13.6353860  41.0383558  41.4585312  12.8455708  42.1589973  41.4903510
  13.2185391  41.5719363  41.8523897   2.8452868  49.8573353  40.7712233
   3.1599427  50.6709742  40.7790015   3.2546282  49.4723572  41.4394392
   2.9520966  49.9202056  40.8716324   9.7977388  45.2743400  38.3416045
  10.2688566  45.9883663  38.5106030  10.1337566  44.6742150  38.8775914
   9.9172503  45.2914865  38.4448421  11.8854372  46.8844714  50.5208117
  11.9951338  46.0953274  50.8764864  12.2145269  46.7950650  49.7182455
  11.9506778  46.7550567  50.4550508   6.7146883  30.0470871  45.2974140
   6.8474788  29.2501864  45.6255115   7.0992036  30.5737274  45.8772415
   6.7903212  30.0070788  45.4317643  10.4351334  45.0661334  45.1043737
   9.8872280  44.4419218  44.8363803  10.8964363  45.2555606  44.3887817
  10.4218544  45.0020385  44.9594169   9.7879238  26.9701197  41.8955233
   8.9825202  26.8598927  42.2123071   9.6585973  27.0713653  41.0385099
   9.6499371  26.9684867  41.8163273  13.2445199  33.1346689  42.4894930
  12.6608187  33.6355895  42.0772497  13.5649493  32.6276245  41.8559253
  13.2058374  33.1338524  42.3353437   5.7839998  32.0487284  32.7653605
   6.6055692  32.2185597  32.5235299   5.3209649  32.2034545  32.0419902
   5.8371160  32.0969017  32.6225249   4.3735330  30.0430046  43.5452033
   4.9179743  29.7021173  44.1356375   4.4272265  30.9015507  43.6873318
   4.4624449  30.1185305  43.6533907  10.0009661  46.0712407  41.6353079
  10.8208034  45.9275373  41.8969374   9.7203738  46.6958606  42.1769517
  10.0806404  46.1422759  41.7541018  19.6722996  52.8152910  39.3548885
  18.8160891  52.9761408  39.4058002  19.7190649  51.9444974  39.3753946
  19.5522107  52.7103712  39.3654951  14.0564135  62.3515628  35.1186117
  13.3047035  61.9731166  34.8902162  14.5050147  62.3834061  34.3704927
  14.0113802  62.3001235  34.9743619  22.9816712  59.0839435  48.9609342
  23.6883480  58.5891466  49.0896276  23.1704648  59.5248517  48.2312000
  23.1144618  59.0757786  48.8718387  19.5089095  62.7740997  30.5471664
  19.1740464  63.4517919  30.1115886  20.0215966  62.3846308  29.9588536
  19.5354676  62.8165575  30.3958456  19.0493387  64.7255266  36.4882776
  19.4332766  65.2942164  35.9487551  18.9852528  64.0004776  36.0088592
  19.0966814  64.7030729  36.3376638  22.5174817  54.8744954  41.9980537
  23.0630777  55.5530040  42.0574507  22.4591693  54.7332415  41.1382119
  22.5890731  54.9536955  41.8792598  15.6348892  62.3634020  37.3848889
  15.7359255  61.5534374  37.6946017  15.0390637  62.2690966  36.7548568
  15.5621430  62.2299048  37.3375128  24.2939885  56.3029561  32.8714265
  24.1779411  57.0537247  33.3006403  25.0895772  56.0453514  33.1210352
  24.3944475  56.3764408  32.9718356  15.4749631  67.2811609  38.7863746
  16.1187087  67.7224773  39.1759904  15.8005887  66.4765035  38.6994004
  15.6181460  67.2276804  38.8309223   8.8313936  58.3854306  37.0101223
   8.5964120  57.5521959  36.9033492   8.9699577  58.6658972  36.1962424
   8.8169598  58.3037810  36.8743578  11.1304023  50.5540037  39.9085531
  10.5109055  49.9632684  39.7395546  11.0287887  51.1451472  39.2749854
  11.0241699  50.5544119  39.7890520  16.1770211  60.2923584  34.1583607
  16.4986052  60.8328791  33.5544915  16.8242307  59.7220355  34.2905897
  16.3196266  60.2882759  34.0890643  18.2271919  52.2939579  34.2417994
  18.9252084  52.4727706  34.7339457  18.5424252  51.7709918  33.6188383
  18.3767256  52.2433351  34.2220004  10.8573156  54.0992319  42.1529100
  10.7331853  54.6854764  42.7878919  11.5091441  53.6052514  42.4541375
  10.9346806  54.1131123  42.2915029  18.4159854  58.6810024  34.2297785
  18.8553490  58.0727124  34.6752558  18.2664517  58.3017397  33.4583250
  18.4581320  58.5348495  34.1816953  15.8831497  57.2754036  41.4316611
  16.5280500  56.7826479  41.1127559  16.1233274  57.4178822  42.2582689
  16.0142082  57.2231478  41.5066144  18.4217589  60.1208941  41.0823503
  18.7040832  59.3260347  40.8610259  19.1503749  60.5989529  41.1028564
  18.5707152  60.0743538  41.0526519  16.3998783  47.6631975  38.3239269
  16.0702113  48.1143119  37.6542967  15.7243784  47.5848139  38.8712275
  16.2509219  47.7183111  38.3062492  22.0169191  57.0337205  31.1828555
  21.9320486  57.8898172  31.3278124  22.5053574  56.7581529  31.8510714
  22.0758088  57.1194527  31.3030636  22.9487624  53.6521999  32.6826290
  22.4199096  53.8681633  33.3423596  23.4712644  54.3458138  32.6027259
  22.9476077  53.7865136  32.7681889  14.8387232  57.5485216  31.4833758
  14.2544447  58.0535247  31.8899622  14.4357327  57.3227603  30.7430350
  14.6926536  57.5893464  31.4338783  10.3931261  63.2639977  38.2857429
   9.9098839  63.9890467  38.2617013  11.2054579  63.5616107  38.3967587
  10.4422008  63.4142331  38.2984709  16.4645415  62.0572158  40.8907244
  15.9472356  61.6979573  40.2868552  17.1619806  61.5334332  40.9013310
  16.4910996  61.9269846  40.8037502  20.1209007  62.5066972  46.8523417
  20.2092352  62.3193112  47.7001627  20.5498719  61.8604401  46.4528264
  20.1971109  62.3829980  46.9195168  17.6879466  61.7898132  45.8341079
  17.1250301  61.3770742  46.3580740  18.4500490  61.7151038  46.2534222
  17.7173915  61.7175532  45.9734079  19.2964446  53.7950868  29.9602678
  19.5360450  54.0028852  29.1478021  19.6180287  52.9908377  30.0691623
  19.3801604  53.7064969  29.8563231  14.6054737  45.7244264  33.8062216
  15.3600705  46.0922581  33.5679266  14.4282271  46.0983818  34.5741396
  14.6909215  45.8342452  33.8847105  13.2475458  63.7796153  38.4377709
  13.9496037  63.2648142  38.4950466  13.1672941  64.1070304  39.2424584
  13.3399218  63.7510379  38.5650501  27.8989635  51.8738704  41.8509756
  27.0618056  51.9440891  42.0857350  27.8677866  51.8763199  40.9784058
  27.7707918  51.8848931  41.7569304  14.2954364  54.0171740  47.5658124
  14.4674868  53.9077635  48.4143406  14.8323722  54.6626145  47.3289317
  14.3999368  54.0963742  47.6563221  12.9611801  48.1314583  30.5040329
  12.7787375  48.3486464  29.6781322  13.8237414  48.2453596  30.5598944
  13.0616391  48.1804481  30.3894816  12.5726233  59.9702505  37.9463317
  13.4115133  60.2025438  37.9937079  12.6038002  59.1006816  37.8770353
  12.7007951  59.8759452  37.9427962  13.1978936  60.3903380  42.2476623
  13.7377161  60.2474511  42.9179995  12.5148883  60.7900131  42.6160649
  13.1771090  60.4283051  42.4011044  18.6411520  45.1340994  33.5389353
  19.3697681  44.9556948  33.0927509  18.7306413  45.9759073  33.7496531
  18.7618183  45.2324872  33.5042871  22.6219821  56.0694381  37.4421647
  23.3777336  56.5025895  37.4810556  22.7282146  55.4199151  38.0156283
  22.7489992  56.0371865  37.5319673  25.6599992  59.8967658  38.1924050
  25.2235224  59.9004401  38.9483021  25.3262908  60.5773157  37.7603628
  25.5462612  59.9980114  38.2404883  20.2329066  61.9375991  49.5167200
  21.0169483  62.0506839  49.8822943  20.0325660  61.1117128  49.7125886
  20.3195091  61.8322710  49.6001586   8.6016081  56.6103671  42.4011044
   8.3354497  55.7942788  42.5602035   8.6154645  56.6556827  41.5306560
   8.5640804  56.4960576  42.2964526  12.5073828  51.4088755  29.0162802
  11.7932005  51.1226935  29.4285235  12.9917797  51.7485381  29.6569190
  12.4733192  51.4170405  29.1718437  13.3514688  50.1482049  45.0478052
  12.6586484  49.6779029  45.2938784  13.9675015  49.9220354  45.6219759
  13.3399218  50.0449181  45.1687205  20.3899459  63.8486093  43.1633656
  19.5914705  63.6085593  43.4207525  20.8385471  63.9000486  43.9100704
  20.3374070  63.8208484  43.3118580  19.6821146  59.9118709  29.3924611
  20.0972295  59.5803733  28.7009106  18.8513076  59.6787612  29.2644747
  19.6209155  59.8289965  29.2715458   9.0109495  57.3962450  39.6822789
   8.8285068  57.3709336  38.8295081   9.7459164  57.8661388  39.7211697
   9.0923559  57.4623813  39.5620707  12.0755247  54.1147453  46.1904897
  12.7995219  54.1000484  46.6769792  12.1771383  54.8242809  45.6926865
  12.1973456  54.2172157  46.1883684  19.4500196  57.5946538  51.0553844
  18.6573177  57.9090050  51.2406464  19.5649123  57.8098006  50.2174629
  19.3495607  57.6730375  50.9592179  22.1231515  54.3180529  35.3448860
  22.2178369  55.0569823  35.7988485  21.4990359  53.8898005  35.7783425
  22.0440545  54.3641850  35.4757008  20.3783989  57.4966742  45.9939141
  20.9522851  56.8593986  46.1487705  20.2998793  57.4970824  45.1248799
  20.4517224  57.4031853  45.8885552   8.9780405  54.2755951  39.8321855
   9.5553908  54.1392402  40.4714100   8.2794467  53.8191735  40.0867439
   8.9601427  54.1878217  39.9644145  22.3754536  56.1629269  28.5785812
  22.2934699  56.2331456  29.4440799  23.0134257  56.7259013  28.3869553
  22.4574374  56.2568240  28.6775762  15.7347708  55.9290007  38.0460338
  15.4766952  55.0961742  38.0191638  15.7896190  56.1547620  37.2052839
  15.7047485  55.8387778  37.9180475  20.8148758  48.0318458  38.1464431
  20.1105084  47.5427643  38.3048350  20.8633732  48.0440932  37.2752875
  20.7178809  47.9608105  38.0403771  14.7082420  53.4827769  38.5325233
  14.1332011  53.6419938  39.1689194  14.3318096  52.8463178  38.0693684
  14.5685232  53.4125582  38.5579791  18.3755708  51.9551119  43.3917612
  17.9870141  51.5305336  42.7369803  17.7110407  52.2033268  43.8994638
  18.2202636  51.9289840  43.3705479   4.4539239  53.1267844  36.5469674
   4.5399490  52.7499712  37.3283204   5.0815036  52.7528290  36.0689632
   4.5595790  53.0153326  36.5915151  22.1982070  45.6525747  40.9041596
  22.5792582  44.9703918  41.2909470  21.3945354  45.3635349  40.7217260
  22.1358532  45.5092796  40.9345652  19.4794647  56.1849723  31.5894418
  20.2935285  56.4764616  31.4777190  19.4153788  55.5309585  31.0152711
  19.5897386  56.1314918  31.4883256  25.7004137  58.8675719  46.0023994
  25.4642774  58.0363784  45.8836055  26.3447366  58.8161326  46.5878838
  25.7598807  58.7373407  46.0709888  15.3502555  59.6571241  36.7166731
  15.9876502  59.4182988  37.2618524  15.7757626  59.8608400  35.9819891
  15.5078721  59.6522251  36.6883888  10.0415197  61.8959577  40.6001034
  10.0819342  62.1674428  39.7720814  10.6009721  62.4201485  41.0158822
  10.1298543  62.0135332  40.5392922  15.9905370  54.8773530  31.0541620
  16.3750523  54.6581237  31.8058165  15.7416990  55.7036476  31.1842696
  16.0107442  54.9671677  31.1842696  16.1573910  48.1579946  50.7704204
  15.8427351  48.9279508  50.5073767  15.8363843  47.5950202  50.1856431
  16.0632829  48.1890214  50.6445554  26.7240557  58.6520168  42.0652289
  26.4186374  59.3848225  42.4265604  26.0046773  58.2458098  41.7845075
  26.5727900  58.7001901  42.0765426  17.7324027  60.1343663  38.3960517
  17.8063035  59.9718835  39.2502367  18.5493533  60.3233853  38.1520998
  17.8640385  60.1380406  38.4858542  32.4242350  55.2913169  41.3920633
  32.3566850  55.3109128  40.5223219  32.4098012  56.1343496  41.6176303
  32.4121106  55.4186903  41.2973110  11.4929783  60.4801526  35.4254960
  10.6667901  60.7263263  35.2989239  11.5541775  60.4013607  36.2917018
  11.3803950  60.5046475  35.5343905  13.7105807  46.5470467  36.3850400
  12.8428233  46.6193067  36.4508010  13.9981012  47.3492546  36.5738376
  13.6245555  46.6764614  36.4225167  22.8338696  46.6948326  44.7161722
  23.5792288  46.5058137  44.3025148  22.4176001  47.2206564  44.1575579
  22.8823670  46.7450472  44.5726296  16.2728612  63.0978406  33.1273990
  16.5626911  62.7067388  32.4033217  17.0032093  63.2795111  33.5679266
  16.4235497  63.0672220  33.0856797  16.8623358  57.8996152  44.2127121
  16.3635051  58.6111920  44.2912009  17.6723582  58.2196819  44.1745283
  16.9079464  58.0523001  44.2183689  14.2134528  65.0745789  36.1934140
  13.9934823  64.7843143  36.9860807  13.9929050  64.4160744  35.6652052
  14.1482122  64.9345497  36.2323049  13.1251475  57.1619105  38.4589842
  12.8364724  56.5356576  38.9935569  13.9934823  57.1039393  38.5254522
  13.2111727  57.0606649  38.5480796  23.9129373  52.3053889  38.7771823
  23.5694139  51.5844224  39.1279073  24.0122416  52.0967740  37.9350182
  23.8771416  52.1678092  38.7043503  16.3802484  66.4475179  34.9764832
  17.0326542  65.9151621  35.2055858  15.6828093  66.0943831  35.3632706
  16.3733202  66.3164702  35.0677000  13.3283749  58.8014356  34.3832207
  14.0829717  59.1827395  34.5967669  12.7354361  59.2525500  34.8378903
  13.3520462  58.9243184  34.4815085  24.3742402  58.7679593  34.3195812
  24.9400435  59.4272803  34.2354355  23.7270306  59.1129291  34.7912214
  24.3621159  58.9161534  34.3768568  15.7890416  50.7577197  49.5089419
  14.9790191  51.0634976  49.3979261  16.2665102  51.4782779  49.6242003
  15.7393894  50.9091798  49.5096490  14.6481975  59.9722918  39.7572322
  14.1262729  60.1123209  40.4424187  15.0355996  59.2133582  39.9474439
  14.6285676  59.8808441  39.8873399  11.6373159  50.0228726  33.8267277
  11.3497955  49.6529997  33.0899224  12.3243628  50.4923582  33.5650982
  11.6962057  50.0375696  33.6782352  20.8448980  61.7118377  33.7432891
  20.6035656  60.9786238  33.3359956  21.0250313  62.2605234  33.0899224
  20.8356604  61.6840768  33.5863114  16.0748301  57.0026937  35.1553813
  15.8791084  57.6101671  34.5614116  16.2982646  56.3094881  34.6745487
  16.0782942  56.9904462  34.9969894  14.4726831  53.8881675  35.2734681
  15.1949483  54.0522833  34.8138487  13.9934824  54.6091339  35.1674021
  14.5090562  54.0179904  35.1900295  22.4320338  50.2245473  40.6531366
  21.5931439  50.2506752  40.4169630  22.5024706  50.8716209  41.2336713
  22.3188732  50.3241599  40.7040483  12.1234448  56.2939747  44.3788821
  12.6355545  56.5724000  43.7297581  11.8370790  57.0329041  44.7451634
  12.1569311  56.4442101  44.3378699  20.8789617  47.1230850  35.3858982
  21.5815970  46.9238599  34.9078941  20.6133805  46.3506793  35.6927826
  20.9436249  46.9793816  35.3604424   9.2101354  50.8009939  34.6752558
   9.3117490  51.6036100  35.0033533  10.0057241  50.5997275  34.3775638
   9.3429260  50.8895838  34.6787913  15.6418173  48.3866136  44.4389863
  15.4501370  48.4021270  45.2889286  16.4916769  48.5829810  44.4156518
  15.7393895  48.4180487  44.5613158  10.0265086  50.9157117  42.4173679
   9.8850578  50.0641058  42.5418187  10.3105649  50.9585778  41.5935885
  10.0472932  50.7956867  42.3141303  20.1803678  52.7524207  36.5618168
  19.9338393  52.6719958  37.3954957  20.5088801  51.9677675  36.3680695
  20.1924922  52.6250473  36.6565691  24.0751727  59.4607567  40.3504949
  23.9366086  60.1588612  40.8553691  23.2951725  59.3056223  39.9941131
  23.9394954  59.5407733  40.3731223  22.4129812  55.7603942  46.6027331
  22.4077851  54.8883758  46.6069757  23.1190806  55.9592111  46.1296786
  22.5174816  55.6607816  46.5334366  16.1400706  55.4880926  45.9741151
  16.2844081  56.0682134  45.3384261  16.4876354  55.8657223  46.6791005
  16.2128167  55.6301630  45.9840146  18.3120623  54.6871094  43.7566282
  17.5643937  54.8802109  43.3514560  18.4662148  53.8616314  43.5190404
  18.2243051  54.5936206  43.6611688  15.2128461  63.6783698  42.8402178
  15.3618024  63.1186614  42.1875582  15.9928463  63.7575699  43.2234696
  15.3502554  63.6069263  42.7999127  25.5705100  58.8185820  31.1121448
  25.1911909  58.0322958  31.1050737  24.9071345  59.3672677  30.9693092
  25.4163575  58.7830644  31.0902245  17.7381761  63.8498341  44.1186668
  17.6625432  63.1807151  44.6737457  17.6671620  64.5516129  44.6327335
  17.7162368  63.8543248  44.2763516  18.5522400  48.5821645  44.6461686
  19.0095014  49.3145619  44.7734478  18.6278729  48.1588110  45.4048942
  18.6313370  48.6278883  44.7762763  10.7955391  48.8287465  45.7351130
  10.2597581  48.2167823  46.0511897  10.8573156  49.4035601  46.3884796
  10.7251024  48.8234392  45.8786556  18.3952008  62.3699339  34.9510274
  19.1601899  62.1008983  34.6292939  18.2930098  61.8849350  35.6680337
  18.4933504  62.2588904  35.0090102  16.4304778  50.5723749  41.4903510
  15.6400853  50.3915209  41.8120846  16.8265401  49.7950701  41.4733805
  16.3721654  50.4311210  41.5356058  20.9170669  59.4011523  26.9310224
  21.6843654  59.4611648  26.5216075  20.4701978  58.8291965  26.4466542
  20.9644096  59.3248099  26.7987934  21.8148464  58.2066179  39.2162956
  21.1393466  57.9751411  39.7176343  21.8240840  57.5987362  38.5905061
  21.7166969  58.0825104  39.1979108  18.9442608  53.0484008  45.9727009
  18.8801749  53.9093964  45.8447146  19.0839796  52.7316001  45.1722560
  18.9558078  53.1284175  45.8355222  23.8165199  61.0631311  31.4473134
  23.8985036  61.8698298  31.1234585  24.3014941  61.0827271  32.1713907
  23.9002357  61.1851974  31.5060033  17.6261702  55.7416147  40.1143212
  17.2023951  55.9420646  39.3782230  17.4506557  54.8944995  40.2267512
  17.5372583  55.6464929  40.0216902  17.1273396  67.2566660  42.5764669
  17.6169326  66.5577450  42.3940334  16.5557628  66.9590530  43.1640726
  17.1157926  67.1092884  42.6365710  12.9144147  56.2368199  35.5471184
  13.0708766  56.1715002  36.4027176  13.2544740  57.0116751  35.3349864
  12.9877382  56.3417397  35.6425779  19.4523292  55.6126082  34.4164548
  19.9938837  55.1096463  34.8803168  19.7669851  55.5591277  33.6054033
  19.5787689  55.5305503  34.3648360  23.3240399  59.8228730  51.5291460
  24.1375264  59.5513879  51.6896592  23.1635365  59.5236270  50.7251656
  23.4210348  59.7383656  51.4336866  17.6209741  61.0043434  31.7004576
  17.6902562  60.1457972  31.8397576  18.3998197  61.2215315  31.3723600
  17.7462591  60.9096298  31.6721733  20.6012561  50.5062387  44.4686848
  20.8154531  49.8673301  43.9150202  19.9846460  50.9508211  44.0394710
  20.5417890  50.4772531  44.3237279  22.0117229  63.4281135  35.9141069
  21.6197021  63.1247850  35.1963935  22.1670301  64.2650225  35.7246023
  21.9770819  63.5064972  35.7797566   9.4878409  53.4203149  35.8631952
   9.8677373  53.8387694  35.1992219   8.9133773  54.0016605  36.1700795
   9.4589733  53.5681008  35.8108693  22.7651649  52.1151452  45.4070155
  21.9528331  51.8077342  45.4883328  23.2241584  51.6350452  45.9712867
  22.7132034  51.9987944  45.5024749  22.1756904  59.9931124  35.8547100
  21.8171559  60.1645767  36.6311132  21.6895615  60.4544330  35.2975098
  22.0515601  60.0870095  35.8872369  19.9927290  43.6162322  39.4574191
  19.1220848  43.5901044  39.4107500  20.2467631  43.4439515  38.6400037
  19.9020850  43.5872466  39.3294328  16.9645269  55.6730289  28.3947334
  17.2537794  56.4495172  28.6690908  17.0517068  55.1619021  29.0961833
  17.0199525  55.7122208  28.5389832  19.8605157  53.5211523  50.1898857
  20.3304788  54.1453640  50.5766732  19.9067037  52.8528499  50.7492072
  19.9373032  53.5146204  50.3298929  17.0176430  45.6268551  40.9147661
  16.5014919  44.9348742  41.0399240  16.4570359  46.2939328  40.8610260
  16.8582943  45.6231809  40.9253727  19.0868664  46.1661511  42.7440514
  18.7000417  46.1910542  43.5254044  18.6001601  45.6003190  42.2915030
  18.9581173  46.0857262  42.7928418  23.3361643  60.8835020  46.8014300
  23.9741364  60.3895216  46.4676756  22.6935735  60.8112420  46.2166527
  23.3355870  60.7994028  46.6656655  25.0618643  52.7324166  41.3680216
  24.6346251  52.6450514  40.6128316  24.4244696  52.8401941  41.9535060
  24.9048250  52.7356826  41.3425658  18.7525805  43.0528496  45.0350774
  19.3818923  43.5888796  44.7571844  18.9211668  42.9605855  45.8864339
  18.8703600  43.1189859  45.1199302  18.5539720  47.8399691  47.3077185
  19.3813150  47.5684840  47.3635800  18.5747566  48.6360533  47.6641003
  18.6792570  47.9179445  47.3692368  23.3915900  61.5754828  43.4419657
  24.1808278  61.2243893  43.5621739  23.5659498  62.3891217  43.1796291
  23.5336181  61.6440685  43.4207525  13.1309210  54.9863554  40.4947446
  12.2897217  54.8867428  40.7026340  13.3399218  55.7559034  40.8461767
  13.0373903  55.0855597  40.5774761  10.6084777  52.6083091  38.3232197
  10.2141475  52.6826103  37.5482306  10.0524894  52.9941037  38.8740558
  10.4687589  52.6764866  38.2899856  16.9425875  52.9144953  39.7445044
  16.6389013  52.3600941  40.3455451  16.2405296  53.0937163  39.2573078
  16.7942085  52.8589735  39.7614749  15.9991972  50.2245473  34.3089745
  16.2751706  49.5064385  33.8967313  16.5990641  50.8230393  34.1010851
  16.1285237  50.2065844  34.2170507  15.0044226  60.1294674  44.4517141
  14.8964581  60.1396736  45.3179199  15.2140007  60.9549454  44.2622095
  15.0194337  60.2535749  44.5521233  19.5002493  47.8958990  32.5836340
  19.9546239  48.0669551  33.3084185  19.9742538  47.2827101  32.1834116
  19.6370813  47.8309876  32.6310102  13.0218018  57.3807316  41.9139079
  12.4305951  58.0216814  41.8842094  13.7839042  57.8044934  41.8870378
  13.0466279  57.5383155  41.9054226  13.4178641  48.5409314  42.5807096
  13.8780122  48.6148243  43.3182220  13.4634748  49.3390568  42.2306918
  13.4929196  48.6703461  42.6379853  15.0661991  49.2076009  47.1479124
  14.6747556  48.5609356  47.5834901  15.2347853  49.7987444  47.7673379
  15.0332901  49.1990277  47.3041830  29.1408440  57.2113086  42.9116357
  29.1991563  57.6599735  43.6576334  28.5074907  57.6211899  42.4746437
  29.0559735  57.3386821  42.9568905  22.7807534  62.8316628  39.3471103
  22.5827223  63.3207442  38.6527315  22.1595245  63.0357869  39.9255237
  22.6595099  62.9333166  39.3294327  16.8415513  54.6001525  33.6881348
  17.5857558  54.9875801  33.9264297  16.9876209  53.7558950  33.8521835
  16.9726098  54.5331997  33.7475317  18.7595088  46.3951784  38.7213209
  17.9131133  46.5674591  38.5954559  18.7566221  45.5901127  39.0579037
  18.6342238  46.3012813  38.7524336  19.8293388  50.1726998  39.5875267
  19.3553343  49.6468760  40.0980578  20.2011524  49.6256471  39.0190128
  19.8143277  50.0142995  39.5790414  10.2066419  52.1698505  44.9558813
  11.0692032  52.0694214  44.8696143   9.8758202  51.5893214  44.3944385
  10.2851615  52.0690131  44.8604219  26.0930119  55.2329374  40.9982047
  25.8528342  54.3935789  41.0024474  26.5722126  55.3129540  41.7222821
  26.1282303  55.1210773  41.1056850  21.7576888  51.0663553  32.6501021
  21.2299907  51.1492297  31.9606730  22.2172596  51.8081424  32.6465665
  21.7478739  51.1884215  32.5475716  28.0935306  52.0130831  38.9511307
  27.8545076  51.9726665  38.1132091  28.2569207  52.8601983  39.0777028
  28.0825610  52.1322916  38.8464789  24.6981336  56.3980780  44.8816352
  25.4215535  55.9453307  44.7027372  24.4331298  56.6785446  44.0988680
  24.7662609  56.3731749  44.7395067  13.5668205  50.9940954  41.6169231
  12.9421275  51.0059346  41.0095184  13.2313799  51.4701129  42.2660471
  13.4253696  51.0659471  41.6225799  13.7509953  49.3366072  27.6741916
  13.4022758  49.9885797  28.1373465  13.2706399  49.3223185  26.9465787
  13.6280197  49.4309126  27.6353007  10.2793880  59.0541414  43.0572995
   9.7493805  58.3633853  43.1067970  10.5518973  59.0451599  42.2285704
  10.2418602  58.9508546  42.9420411  21.3113971  59.6367116  31.7810678
  22.0348169  60.1025229  31.6375251  20.8714562  59.7040726  31.0308275
  21.3529663  59.7150953  31.6495459  20.4800126  56.4964658  43.0311367
  19.8657119  55.9522709  43.3260002  20.9967411  55.9828895  42.5517183
  20.4655788  56.3401067  43.0035595  19.7196423  57.5668928  40.7655665
  19.2924031  56.9418647  40.3321101  19.7121367  57.2843850  41.5914673
  19.6555564  57.4321709  40.8235493  12.8358950  52.6034101  43.8344099
  12.9952437  51.8477426  44.2395821  12.6551844  53.1525041  44.4884837
  12.8324309  52.5727915  43.9906805  20.7779253  44.7695337  44.3894889
  20.2819814  44.9659011  43.6986456  21.5348315  45.1688005  44.2183691
  20.8166078  44.8573071  44.2615026  18.0482133  48.4437683  40.9798199
  18.0724620  47.9097795  40.2910979  18.2993606  47.9354992  41.6423790
  18.0892051  48.2898587  40.9762844   5.5589722  55.7269178  40.4141343
   5.4533171  55.6816022  39.5493428   4.8089942  56.0722958  40.6955628
   5.4325325  55.7710086  40.3278673  14.3283455  47.1708501  40.3603944
  14.3681826  47.6717708  41.0738651  13.5033119  47.2618895  40.0909867
  14.2122981  47.2590318  40.4254482  16.5113068  56.7369241  48.4624238
  15.6608698  56.8740955  48.5981883  16.6741195  56.0033019  48.9071940
  16.4096931  56.6483342  48.5479837  15.7497818  53.6869011  42.6577843
  14.9189748  53.8542829  42.4513091  15.6949335  53.3104962  43.4426728
  15.6187233  53.6558742  42.7426371  13.5581601  47.1777904  48.2934253
  14.1834305  46.6340037  48.5663686  13.1032081  46.6972822  47.7242044
  13.5829862  47.0267385  48.2495847  14.1233862  51.9624603  33.1867960
  14.2636823  52.4597067  33.8896602  14.6216395  51.2610897  33.3282174
  14.2174943  51.9326581  33.3119539  14.1534084  52.8291714  30.5160537
  14.7879164  53.4252139  30.4509999  14.2359695  52.5295171  31.3306407
  14.2590635  52.8732622  30.6263624  27.1316650  55.3607191  43.3846901
  27.7234490  56.0004442  43.4165099  27.5675645  54.6630228  43.6738968
  27.2835081  55.3525541  43.4327734  15.7313067  48.7605689  30.4905979
  16.0528908  48.2808772  29.8365242  15.9940011  49.5705335  30.2996791
  15.8179093  48.8095587  30.3661471  18.9610040  59.7824563  44.0104795
  18.4535131  60.3360410  44.4545426  18.6636686  59.8432853  43.1923570
  18.8414925  59.8730875  43.9553252  21.1272222  48.1477883  42.8529458
  21.5527294  47.6950409  42.2412985  20.5129215  47.5937954  43.1294246
  21.1000868  47.9991859  42.8034484  10.6587072  55.0259554  33.7850083
  11.1679302  55.6224062  34.1661389  11.1321345  54.7585528  33.1026503
  10.8030448  55.0745370  33.7404606  21.5717820  63.6987821  31.9408739
  20.8547130  63.5248683  31.4755976  22.2224558  63.4640393  31.4084225
  21.5619671  63.6383614  31.7937957  19.5666445  44.6192983  36.2620035
  18.9234763  44.4690629  36.8305174  19.2265852  44.3735328  35.4969140
  19.4211522  44.5605105  36.2323050  24.1565792  52.5752410  35.6850044
  23.4856981  53.1182112  35.5563109  24.8505542  53.0447265  35.4431739
  24.1594659  52.7250681  35.6305572  18.2052525  64.7149122  40.9161802
  17.9818180  63.9567951  41.2845829  17.7162369  64.7447143  40.1942242
  18.0995974  64.6071346  40.8638543  24.3193919  49.0308293  38.5940417
  24.6721529  48.6038016  39.2686216  23.4608720  48.9459137  38.7241494
  24.2443364  48.9553034  38.7135428  13.0177604  51.6615813  36.6523264
  12.2989593  52.0779945  36.9196127  13.3889966  52.2270052  36.1014902
  12.9669536  51.8065094  36.6106071  22.3177185  52.2943662  42.5425259
  22.2975112  52.1126957  43.3960038  22.3656386  53.1655680  42.5184843
  22.3211826  52.3960200  42.6648554  20.2623515  58.8830854  48.4673736
  20.2219370  58.2380531  47.8818892  21.0746833  58.8267471  48.7799148
  20.3766668  58.7789821  48.4270685  16.8530982  64.9349580  38.3698887
  16.4391381  64.2723710  37.9802729  17.5378356  65.0827438  37.8494581
  16.8929354  64.8590238  38.2355384  20.2196276  64.0939665  39.1222503
  19.8212560  64.2041935  38.3543324  19.6047496  64.3021731  39.7049063
  20.0695166  64.1413233  39.0953803  18.7924178  50.7013813  31.9896643
  18.1989018  51.0230809  31.4381210  18.8299456  49.8554908  31.7817749
  18.7098567  50.6238141  31.8779414  21.6681995  50.6593317  35.4198393
  21.4395688  50.6826019  34.5776752  21.9280071  49.8350784  35.5393404
  21.6728183  50.5409397  35.3123591  15.9501223  52.5127790  45.0223494
  15.4380126  51.9048973  45.3808525  15.7780720  53.2284383  45.4897469
  15.8490860  52.5291090  45.1439717  10.7966938  50.9565366  47.6725855
  10.6269528  51.6166740  47.1274062  10.3532888  51.1671927  48.3938344
  10.7066272  51.0851348  47.6987485  14.7226757  49.1969864  36.7152589
  15.1984124  49.5586943  36.0802770  14.2215357  49.8526331  36.9952732
  14.7192116  49.3464052  36.6629330  19.8270294  50.4352035  47.4625749
  20.3841724  50.2065845  46.8304215  19.5031359  51.1957701  47.1860962
  19.8616704  50.5135872  47.3282246   7.6969003  53.8612231  42.9314345
   7.1495722  53.1912877  43.0495214   8.4861381  53.4942079  42.9957812
   7.7321186  53.7077218  42.9583046  17.5453411  53.5219688  48.4277756
  18.2964738  53.8371365  48.7417310  17.7375987  53.3198859  47.6011678
  17.6844825  53.5387070  48.3521152  16.7653411  51.3411063  30.0825973
  17.1452375  51.3590693  29.2977088  16.0246007  51.7865052  29.9616820
  16.7122248  51.4092838  29.9489541   6.4555972  53.0733039  40.0860368
   6.2777733  52.6209648  40.8115284   6.1674994  53.8759200  40.2698846
   6.3868925  53.1255597  40.2203871  22.1179553  54.3290756  39.3237759
  22.6133218  53.6113751  39.2841779  21.3079329  54.0261554  39.2092246
  22.0723446  54.1788403  39.3011484  17.5638165  58.1788570  31.4734763
  16.7549487  57.8555243  31.4268073  18.0713074  57.4721792  31.4063012
  17.5187831  58.0269886  31.4565057   8.1928442  55.6060763  37.1982127
   7.3273961  55.5946453  37.0864899   8.2927258  55.4190986  38.0453267
   8.0802609  55.5766824  37.3071072  24.1831372  57.0794444  42.0114887
  24.6086444  56.5568866  41.4585312  23.8188292  57.6775281  41.4903510
  24.1917975  57.0904671  41.8523897  13.8185452  65.3758661  40.7712233
  14.1332011  66.1895050  40.7790015  14.2278865  64.9908880  41.4394392
  13.9253550  65.4387364  40.8716324  20.7709971  60.7928708  38.3416045
  21.2421150  61.5068971  38.5106030  21.1070150  60.1927458  38.8775914
  20.8905087  60.8100172  38.4448421  22.8586956  62.4030022  50.5208117
  22.9683922  61.6138582  50.8764864  23.1877853  62.3135958  49.7182455
  22.9239362  62.2735874  50.4550508  17.6879466  45.5656179  45.2974140
  17.8207372  44.7687172  45.6255115  18.0724619  46.0922582  45.8772415
  17.7635795  45.5256095  45.4317643  21.4083918  60.5846642  45.1043737
  20.8604864  59.9604526  44.8363803  21.8696947  60.7740914  44.3887817
  21.3951127  60.5205692  44.9594169  20.7611822  42.4886505  41.8955233
  19.9557785  42.3784235  42.2123071  20.6318557  42.5898961  41.0385099
  20.6231954  42.4870175  41.8163273  24.2177782  48.6531997  42.4894930
  23.6340771  49.1541203  42.0772497  24.5382076  48.1461553  41.8559253
  24.1790957  48.6523832  42.3353437  16.7572581  47.5672592  32.7653605
  17.5788276  47.7370904  32.5235299  16.2942232  47.7219853  32.0419902
  16.8103744  47.6154325  32.6225249  15.3467913  45.5615354  43.5452033
  15.8912326  45.2206481  44.1356375  15.4004849  46.4200815  43.6873318
  15.4357033  45.6370613  43.6533907  11.1598472  59.3231770  40.4190841
  11.7643329  59.2827604  39.7904662  10.9525784  60.1702922  40.4494897
  11.2187369  59.4419772  40.3306958  20.9742244  61.5897715  41.6353079
  21.7940618  61.4460681  41.8969374  20.6936322  62.2143914  42.1769517
  21.0538987  61.6608067  41.7541018   6.3949754  58.3066387  40.2889764
   6.2974032  57.4962659  40.5979821   7.1778624  58.2858181  39.9036032
   6.4965891  58.1833478  40.2776627  37.4455894  69.2462567  34.5995955
  37.4149899  70.1007203  34.7714224  38.0437243  68.9457859  35.1582099
  37.5293052  69.3279063  34.7070757  30.6455579  68.3338218  39.3548885
  29.7893475  68.4946716  39.4058002  30.6923233  67.4630282  39.3753946
  30.5254691  68.2289020  39.3654951  33.9549296  74.6024743  48.9609342
  34.6616063  74.1076774  49.0896276  34.1437231  75.0433825  48.2312000
  34.0877201  74.5943094  48.8718387  33.4907400  70.3930262  41.9980537
  34.0363360  71.0715348  42.0574507  33.4324277  70.2517723  41.1382119
  33.5623315  70.4722263  41.8792598  35.2672469  71.8214869  32.8714265
  35.1511995  72.5722555  33.3006403  36.0628356  71.5638822  33.1210352
  35.3677058  71.8949716  32.9718356  22.1036607  66.0725345  39.9085531
  21.4841639  65.4817992  39.7395546  22.0020471  66.6636780  39.2749854
  21.9974282  66.0729427  39.7890520  27.1502795  75.8108892  34.1583607
  27.4718636  76.3514099  33.5544915  27.7974891  75.2405663  34.2905897
  27.2928850  75.8068067  34.0890643  29.2004503  67.8124887  34.2417994
  29.8984667  67.9913014  34.7339457  29.5156835  67.2895226  33.6188383
  29.3499840  67.7618659  34.2220004  21.8305740  69.6177627  42.1529100
  21.7064437  70.2040072  42.7878919  22.4824024  69.1237822  42.4541375
  21.9079389  69.6316431  42.2915029  29.3892438  74.1995332  34.2297785
  29.8286073  73.5912432  34.6752558  29.2397101  73.8202705  33.4583250
  29.4313904  74.0533803  34.1816953  26.8564081  72.7939344  41.4316611
  27.5013083  72.3011787  41.1127559  27.0965858  72.9364130  42.2582689
  26.9874666  72.7416786  41.5066144  29.3950172  75.6394249  41.0823503
  29.6773415  74.8445655  40.8610259  30.1236333  76.1174837  41.1028564
  29.5439736  75.5928846  41.0526519  27.3731366  63.1817283  38.3239269
  27.0434696  63.6328427  37.6542967  26.6976368  63.1033447  38.8712275
  27.2241802  63.2368419  38.3062492  32.9901775  72.5522513  31.1828555
  32.9053070  73.4083480  31.3278124  33.4786158  72.2766837  31.8510714
  33.0490672  72.6379834  31.3030636  33.9220208  69.1707307  32.6826290
  33.3931679  69.3866941  33.3423596  34.4445228  69.8643446  32.6027259
  33.9208661  69.3050444  32.7681889  39.3768261  74.7453612  38.0559334
  38.5465964  74.9564255  38.2192751  39.3277513  73.9190666  37.7801618
  39.2474996  74.6543218  38.0396700  25.8119816  73.0670524  31.4833758
  25.2277031  73.5720555  31.8899622  25.4089911  72.8412911  30.7430350
  25.6659119  73.1078772  31.4338783  31.0941590  78.0252280  46.8523417
  31.1824936  77.8378420  47.7001627  31.5231303  77.3789709  46.4528264
  31.1703693  77.9015288  46.9195168  30.2697030  69.3136176  29.9602678
  30.5093034  69.5214160  29.1478021  30.5912871  68.5093685  30.0691623
  30.3534188  69.2250277  29.8563231  25.5787320  61.2429572  33.8062216
  26.3333288  61.6107889  33.5679266  25.4014855  61.6169126  34.5741396
  25.6641799  61.3527760  33.8847105  38.8722219  67.3924012  41.8509756
  38.0350640  67.4626199  42.0857350  38.8410450  67.3948507  40.9784058
  38.7440501  67.4034239  41.7569304  25.2686948  69.5357048  47.5658124
  25.4407452  69.4262943  48.4143406  25.8056306  70.1811453  47.3289317
  25.3731952  69.6149050  47.6563221  23.9344385  63.6499891  30.5040329
  23.7519958  63.8671772  29.6781322  24.7969998  63.7638903  30.5598944
  24.0348974  63.6989789  30.3894816  33.5952405  71.5879689  37.4421647
  34.3509920  72.0211203  37.4810556  33.7014729  70.9384459  38.0156283
  33.7222575  71.5557173  37.5319673  36.6332576  75.4152966  38.1924050
  36.1967808  75.4189708  38.9483021  36.2995491  76.0958465  37.7603628
  36.5195196  75.5165422  38.2404883  31.2061649  77.4561299  49.5167200
  31.9902066  77.5692147  49.8822943  31.0058244  76.6302436  49.7125886
  31.2927675  77.3508018  49.6001586  19.5748665  72.1288979  42.4011044
  19.3087080  71.3128096  42.5602035  19.5887229  72.1742135  41.5306560
  19.5373387  72.0145884  42.2964526  36.5530059  62.4566794  40.4353478
  37.1955967  62.5264898  41.0215393  36.8053079  61.7896017  39.9333020
  36.6852191  62.3693143  40.4480757  23.4806412  66.9274063  29.0162802
  22.7664589  66.6412243  29.4285235  23.9650381  67.2670689  29.6569190
  23.4465775  66.9355713  29.1718437  24.3247271  65.6667357  45.0478052
  23.6319068  65.1964337  45.2938784  24.9407599  65.4405662  45.6219759
  24.3131801  65.5634489  45.1687205  39.7676922  72.1333886  37.0843687
  40.4293356  71.5724554  36.9839596  39.1268334  71.6385917  37.4096378
  39.7705790  71.9770295  37.1176027  30.6553730  75.4304017  29.3924611
  31.0704878  75.0989041  28.7009106  29.8245659  75.1972920  29.2644747
  30.5941739  75.3475273  29.2715458  19.9842079  72.9147758  39.6822789
  19.8017652  72.8894644  38.8295081  20.7191748  73.3846696  39.7211697
  20.0656142  72.9809121  39.5620707  36.0541753  73.1499268  36.8255676
  36.2897342  73.2944467  35.9982527  36.2031316  73.9141676  37.2187190
  36.1107556  73.2838323  36.7619280  23.0487830  69.6332761  46.1904897
  23.7727803  69.6185792  46.6769792  23.1503967  70.3428117  45.6926865
  23.1706039  69.7357464  46.1883684  37.8832210  71.9900934  34.6625280
  38.2140427  72.5228574  34.0565375  38.4565298  72.0439822  35.3187231
  38.0165889  72.0770503  34.6703062  30.4232780  73.1131846  51.0553844
  29.6305760  73.4275358  51.2406464  30.5381707  73.3283314  50.2174629
  30.3228190  73.1915683  50.9592179  33.0964099  69.8365837  35.3448860
  33.1910953  70.5755131  35.7988485  32.4722942  69.4083312  35.7783425
  33.0173129  69.8827158  35.4757008  31.3516572  73.0152050  45.9939141
  31.9255434  72.3779294  46.1487705  31.2731376  73.0156132  45.1248799
  31.4249807  72.9217161  45.8885552  19.9512989  69.7941259  39.8321855
  20.5286492  69.6577710  40.4714100  19.2527051  69.3377043  40.0867439
  19.9334010  69.7063525  39.9644145  33.3487120  71.6814577  28.5785812
  33.2667282  71.7516764  29.4440799  33.9866840  72.2444321  28.3869553
  33.4306957  71.7753548  28.6775762  26.7080291  71.4475315  38.0460338
  26.4499535  70.6147050  38.0191638  26.7628774  71.6732928  37.2052839
  26.6780069  71.3573086  37.9180475  31.7881341  63.5503765  38.1464431
  31.0837668  63.0612951  38.3048350  31.8366316  63.5626240  37.2752875
  31.6911393  63.4793413  38.0403771  25.6815003  69.0013077  38.5325233
  25.1064595  69.1605246  39.1689194  25.3050680  68.3648486  38.0693684
  25.5417816  68.9310890  38.5579791  29.3488292  67.4736426  43.3917612
  28.9602725  67.0490644  42.7369803  28.6842990  67.7218576  43.8994638
  29.1935220  67.4475148  43.3705479  38.9911561  67.2311431  36.1665442
  38.7348126  66.4191373  35.9763324  39.8340875  67.2388998  35.9395629
  39.0777586  67.1123429  36.1050259  15.4271822  68.6453152  36.5469674
  15.5132074  68.2685020  37.3283204  16.0547620  68.2713598  36.0689632
  15.5328373  68.5338634  36.5915151  33.1714653  61.1711055  40.9041596
  33.5525165  60.4889226  41.2909470  32.3677938  60.8820657  40.7217260
  33.1091115  61.0278104  40.9345652  30.4527230  71.7035031  31.5894418
  31.2667869  71.9949924  31.4777190  30.3886371  71.0494893  31.0152711
  30.5629969  71.6500226  31.4883256  36.6736720  74.3861027  46.0023994
  36.4375358  73.5549092  45.8836055  37.3179949  74.3346634  46.5878838
  36.7331391  74.2558715  46.0709888  26.3235138  75.1756549  36.7166731
  26.9609085  74.9368296  37.2618524  26.7490210  75.3793707  35.9819891
  26.4811305  75.1707559  36.6883888  26.9637953  70.3958838  31.0541620
  27.3483106  70.1766545  31.8058165  26.7149574  71.2221784  31.1842696
  26.9840026  70.4856985  31.1842696  27.1306494  63.6765253  50.7704204
  26.8159935  64.4464816  50.5073767  26.8096426  63.1135510  50.1856431
  27.0365413  63.7075522  50.6445554  37.6973141  74.1705476  42.0652289
  37.3918958  74.9033533  42.4265604  36.9779357  73.7643405  41.7845075
  37.5460483  74.2187209  42.0765426  28.7056610  75.6528971  38.3960517
  28.7795619  75.4904143  39.2502367  29.5226117  75.8419161  38.1520998
  28.8372969  75.6565714  38.4858542  43.3974933  70.8098477  41.3920633
  43.3299433  70.8294436  40.5223219  43.3830595  71.6528804  41.6176303
  43.3853690  70.9372211  41.2973110  24.6838391  62.0655775  36.3850400
  23.8160816  62.1378374  36.4508010  24.9713595  62.8677854  36.5738376
  24.5978139  62.1949922  36.4225167  33.8071280  62.2133634  44.7161722
  34.5524872  62.0243445  44.3025148  33.3908584  62.7391872  44.1575579
  33.8556254  62.2635780  44.5726296  41.1833550  69.5842863  39.6667227
  41.7341472  68.9510932  39.9064319  41.1677666  70.1158256  40.3582732
  41.2618747  69.5691811  39.8046085  27.8355941  73.4181460  44.2127121
  27.3367635  74.1297228  44.2912009  28.6456166  73.7382127  44.1745283
  27.8812048  73.5708309  44.2183689  24.0984059  72.6804413  38.4589842
  23.8097307  72.0541884  38.9935569  24.9667407  72.6224701  38.5254522
  24.1844311  72.5791957  38.5480796  34.8861957  67.8239197  38.7771823
  34.5426723  67.1029532  39.1279073  34.9854999  67.6153048  37.9350182
  34.8503999  67.6863400  38.7043503  24.3016332  74.3199664  34.3832207
  25.0562300  74.7012703  34.5967669  23.7086945  74.7710808  34.8378903
  24.3253046  74.4428492  34.4815085  35.3474986  74.2864901  34.3195812
  35.9133018  74.9458110  34.2354355  34.7002889  74.6314599  34.7912214
  35.3353742  74.4346842  34.3768568  26.7622999  66.2762505  49.5089419
  25.9522775  66.5820284  49.3979261  27.2397686  66.9968087  49.6242003
  26.7126478  66.4277106  49.5096490  22.6105743  65.5414034  33.8267277
  22.3230539  65.1715305  33.0899224  23.2976211  66.0108890  33.5650982
  22.6694640  65.5561004  33.6782352  31.8181564  77.2303685  33.7432891
  31.5768240  76.4971545  33.3359956  31.9982897  77.7790542  33.0899224
  31.8089188  77.2026076  33.5863114  27.0480884  72.5212245  35.1553813
  26.8523667  73.1286979  34.5614116  27.2715230  71.8280189  34.6745487
  27.0515525  72.5089770  34.9969894  25.4459414  69.4066983  35.2734681
  26.1682066  69.5708141  34.8138487  24.9667407  70.1276647  35.1674021
  25.4823145  69.5365212  35.1900295  33.4052922  65.7430781  40.6531366
  32.5664023  65.7692060  40.4169630  33.4757289  66.3901517  41.2336713
  33.2921316  65.8426907  40.7040483  23.0967031  71.8125055  44.3788821
  23.6088128  72.0909308  43.7297581  22.8103374  72.5514349  44.7451634
  23.1301894  71.9627409  44.3378699  37.2810446  70.9498768  37.9392608
  37.1944420  71.1054194  38.7927387  36.8260926  71.5936844  37.5652013
  37.2013703  71.0674523  38.0099715  20.1833937  66.3195247  34.6752558
  20.2850074  67.1221408  35.0033533  20.9789824  66.1182583  34.3775638
  20.3161843  66.4081146  34.6787913  26.6150757  63.9051443  44.4389863
  26.4233954  63.9206578  45.2889286  27.4649353  64.1015118  44.4156518
  26.7126478  63.9365795  44.5613158  20.9997670  66.4342425  42.4173679
  20.8583161  65.5826366  42.5418187  21.2838233  66.4771086  41.5935885
  21.0205516  66.3142175  42.3141303  31.1536262  68.2709515  36.5618168
  30.9070976  68.1905266  37.3954957  31.4821385  67.4862983  36.3680695
  31.1657506  68.1435780  36.6565691  35.0484311  74.9792874  40.3504949
  34.9098670  75.6773920  40.8553691  34.2684309  74.8241531  39.9941131
  34.9127538  75.0593041  40.3731223  33.3862396  71.2789250  46.6027331
  33.3810434  70.4069066  46.6069757  34.0923390  71.4777419  46.1296786
  33.4907400  71.1793124  46.5334366  27.1133289  71.0066234  45.9741151
  27.2576665  71.5867442  45.3384261  27.4608938  71.3842530  46.6791005
  27.1860751  71.1486938  45.9840146  29.2853207  70.2056402  43.7566282
  28.5376521  70.3987417  43.3514560  29.4394732  69.3801622  43.5190404
  29.1975634  70.1121514  43.6611688  36.5437684  74.3371128  31.1121448
  36.1644492  73.5508266  31.1050737  35.8803929  74.8857985  30.9693092
  36.3896158  74.3015952  31.0902245  29.5254984  64.1006953  44.6461686
  29.9827598  64.8330927  44.7734478  29.6011312  63.6773418  45.4048942
  29.6045953  64.1464191  44.7762763  21.7687975  64.3472773  45.7351130
  21.2330164  63.7353131  46.0511897  21.8305740  64.9220909  46.3884796
  21.6983607  64.3419700  45.8786556  33.9982310  57.2796828  38.5155529
  34.1165878  57.7373291  37.7822832  33.8244485  56.4742089  38.2291747
  33.9901481  57.2290600  38.3656463  27.4037362  66.0909057  41.4903510
  26.6133436  65.9100517  41.8120846  27.7997984  65.3136009  41.4733805
  27.3454238  65.9496518  41.5356058  31.8903252  74.9196831  26.9310224
  32.6576237  74.9796956  26.5216075  31.4434561  74.3477273  26.4466542
  31.9376680  74.8433407  26.7987934  32.7881048  73.7251487  39.2162956
  32.1126050  73.4936719  39.7176343  32.7973424  73.1172670  38.5905061
  32.6899552  73.6010412  39.1979108  29.9175192  68.5669316  45.9727009
  29.8534333  69.4279272  45.8447146  30.0572380  68.2501309  45.1722560
  29.9290662  68.6469483  45.8355222  34.7897782  76.5816619  31.4473134
  34.8717620  77.3883605  31.1234585  35.2747525  76.6012579  32.1713907
  34.8734940  76.7037282  31.5060033  28.5994286  71.2601455  40.1143212
  28.1756535  71.4605954  39.3782230  28.4239141  70.4130303  40.2267512
  28.5105166  71.1650237  40.0216902  23.8876731  71.7553507  35.5471184
  24.0441350  71.6900309  36.4027176  24.2277324  72.5302059  35.3349864
  23.9609966  71.8602705  35.6425779  30.4255875  71.1311390  34.4164548
  30.9671421  70.6281771  34.8803168  30.7402434  71.0776585  33.6054033
  30.5520272  71.0490811  34.3648360  34.2972983  75.3414038  51.5291460
  35.1107848  75.0699186  51.6896592  34.1367949  75.0421578  50.7251656
  34.3942931  75.2568964  51.4336866  28.5942325  76.5228742  31.7004576
  28.6635145  75.6643280  31.8397576  29.3730780  76.7400623  31.3723600
  28.7195175  76.4281606  31.6721733  31.5745145  66.0247695  44.4686848
  31.7887114  65.3858609  43.9150202  30.9579044  66.4693519  44.0394710
  31.5150474  65.9957838  44.3237279  20.4610992  68.9388457  35.8631952
  20.8409957  69.3573002  35.1992219  19.8866357  69.5201913  36.1700795
  20.4322317  69.0866316  35.8108693  33.7384233  67.6336760  45.4070155
  32.9260914  67.3262650  45.4883328  34.1974167  67.1535760  45.9712867
  33.6864617  67.5173252  45.5024749  33.1489487  75.5116432  35.8547100
  32.7904142  75.6831075  36.6311132  32.6628198  75.9729638  35.2975098
  33.0248184  75.6055403  35.8872369  27.9377853  71.1915597  28.3947334
  28.2270378  71.9680480  28.6690908  28.0249652  70.6804329  29.0961833
  27.9932109  71.2307516  28.5389832  30.8337740  69.0396831  50.1898857
  31.3037371  69.6638948  50.5766732  30.8799620  68.3713807  50.7492072
  30.9105616  69.0331512  50.3298929  27.9909014  61.1453859  40.9147661
  27.4747502  60.4534050  41.0399240  27.4302943  61.8124636  40.8610260
  27.8315527  61.1417116  40.9253727  34.3094227  76.4020328  46.8014300
  34.9473947  75.9080524  46.4676756  33.6668318  76.3297728  46.2166527
  34.3088453  76.3179336  46.6656655  36.0351227  68.2509474  41.3680216
  35.6078835  68.1635822  40.6128316  35.3977280  68.3587249  41.9535060
  35.8780834  68.2542134  41.3425658  29.7258389  58.5713804  45.0350774
  30.3551507  59.1074104  44.7571844  29.8944252  58.4791163  45.8864339
  29.8436184  58.6375167  45.1199302  29.5272304  63.3584999  47.3077185
  30.3545733  63.0870148  47.3635800  29.5480150  64.1545841  47.6641003
  29.6525154  63.4364753  47.3692368  34.3648483  77.0940136  43.4419657
  35.1540861  76.7429201  43.5621739  34.5392081  77.9076525  43.1796291
  34.5068765  77.1625993  43.4207525  24.1041794  70.5048862  40.4947446
  23.2629800  70.4052736  40.7026340  24.3131802  71.2744342  40.8461767
  24.0106486  70.6040905  40.5774761  21.5817361  68.1268399  38.3232197
  21.1874058  68.2011411  37.5482306  21.0257478  68.5126345  38.8740558
  21.4420173  68.1950173  38.2899856  27.9158459  68.4330261  39.7445044
  27.6121596  67.8786249  40.3455451  27.2137879  68.6122471  39.2573078
  27.7674668  68.3775043  39.7614749  26.9724556  65.7430781  34.3089745
  27.2484290  65.0249693  33.8967313  27.5723225  66.3415701  34.1010851
  27.1017820  65.7251152  34.2170507  23.9950602  72.8992624  41.9139079
  23.4038535  73.5402122  41.8842094  24.7571625  73.3230241  41.8870378
  24.0198862  73.0568463  41.9054226  24.3911224  64.0594622  42.5807096
  24.8512706  64.1333551  43.3182220  24.4367331  64.8575876  42.2306918
  24.4661780  64.1888769  42.6379853  26.0394574  64.7261317  47.1479124
  25.6480139  64.0794664  47.5834901  26.2080437  65.3172752  47.7673379
  26.0065484  64.7175585  47.3041830  40.1141023  72.7298394  42.9116357
  40.1724147  73.1785043  43.6576334  39.4807491  73.1397207  42.4746437
  40.0292318  72.8572129  42.9568905  33.7540118  78.3501936  39.3471103
  33.5559806  78.8392750  38.6527315  33.1327829  78.5543177  39.9255237
  33.6327682  78.4518474  39.3294327  27.8148096  70.1186833  33.6881348
  28.5590141  70.5061109  33.9264297  27.9608792  69.2744258  33.8521835
  27.9458681  70.0517305  33.7475317  29.7327672  61.9137092  38.7213209
  28.8863717  62.0859899  38.5954559  29.7298804  61.1086435  39.0579037
  29.6074822  61.8198120  38.7524336  30.8025972  65.6912306  39.5875267
  30.3285926  65.1654068  40.0980578  31.1744108  65.1441779  39.0190128
  30.7875861  65.5328303  39.5790414  21.1799002  67.6883813  44.9558813
  22.0424615  67.5879522  44.8696143  20.8490785  67.1078522  44.3944385
  21.2584199  67.5875439  44.8604219  37.0662703  70.7514682  40.9982047
  36.8260925  69.9121097  41.0024474  37.5454710  70.8314848  41.7222821
  37.1014886  70.6396081  41.1056850  32.7309472  66.5848860  32.6501021
  32.2032490  66.6677604  31.9606730  33.1905180  67.3266732  32.6465665
  32.7211322  66.7069523  32.5475716  39.0667890  67.5316139  38.9511307
  38.8277660  67.4911973  38.1132091  39.2301791  68.3787291  39.0777028
  39.0558193  67.6508224  38.8464789  35.6713920  71.9166088  44.8816352
  36.3948119  71.4638614  44.7027372  35.4063882  72.1970754  44.0988680
  35.7395193  71.8917057  44.7395067  24.5400788  66.5126262  41.6169231
  23.9153858  66.5244654  41.0095184  24.2046383  66.9886437  42.2660471
  24.3986280  66.5844779  41.6225799  24.7242537  64.8551380  27.6741916
  24.3755341  65.5071105  28.1373465  24.2438983  64.8408493  26.9465787
  24.6012781  64.9494434  27.6353007  32.2846554  75.1552424  31.7810678
  33.0080753  75.6210537  31.6375251  31.8447145  75.2226034  31.0308275
  32.3262246  75.2336261  31.6495459  31.4532709  72.0149966  43.0311367
  30.8389702  71.4708017  43.3260002  31.9699994  71.5014203  42.5517183
  31.4388372  71.8586375  43.0035595  30.6929006  73.0854236  40.7655665
  30.2656614  72.4603955  40.3321101  30.6853951  72.8029158  41.5914673
  30.6288148  72.9507017  40.8235493  23.8091534  68.1219409  43.8344099
  23.9685020  67.3662734  44.2395821  23.6284427  68.6710349  44.4884837
  23.8056892  68.0913223  43.9906805  31.7511837  60.2880645  44.3894889
  31.2552398  60.4844319  43.6986456  32.5080899  60.6873313  44.2183691
  31.7898661  60.3758379  44.2615026  29.0214716  63.9622991  40.9798199
  29.0457203  63.4283103  40.2910979  29.2726190  63.4540300  41.6423790
  29.0624635  63.8083895  40.9762844  16.5322306  71.2454486  40.4141343
  16.4265755  71.2001330  39.5493428  15.7822526  71.5908266  40.6955628
  16.4057909  71.2895394  40.3278673  25.3016038  62.6893809  40.3603944
  25.3414410  63.1903016  41.0738651  24.4765703  62.7804203  40.0909867
  25.1855564  62.7775625  40.4254482  27.4845651  72.2554549  48.4624238
  26.6341282  72.3926263  48.5981883  27.6473779  71.5218327  48.9071940
  27.3829515  72.1668650  48.5479837  26.7230402  69.2054319  42.6577843
  25.8922331  69.3728137  42.4513091  26.6681919  68.8290270  43.4426728
  26.5919817  69.1744050  42.7426371  24.5314185  62.6963212  48.2934253
  25.1566888  62.1525345  48.5663686  24.0764665  62.2158129  47.7242044
  24.5562446  62.5452693  48.2495847  25.0966446  67.4809911  33.1867960
  25.2369407  67.9782375  33.8896602  25.5948978  66.7796205  33.3282174
  25.1907526  67.4511889  33.3119539  25.1266668  68.3477022  30.5160537
  25.7611747  68.9437447  30.4509999  25.2092279  68.0480479  31.3306407
  25.2323219  68.3917930  30.6263624  38.1049234  70.8792499  43.3846901
  38.6967074  71.5189750  43.4165099  38.5408228  70.1815536  43.6738968
  38.2567665  70.8710849  43.4327734  26.7045651  64.2790997  30.4905979
  27.0261492  63.7994079  29.8365242  26.9672595  65.0890643  30.2996791
  26.7911676  64.3280895  30.3661471  29.9342624  75.3009871  44.0104795
  29.4267715  75.8545718  44.4545426  29.6369270  75.3618161  43.1923570
  29.8147509  75.3916182  43.9553252  32.1004806  63.6663191  42.8529458
  32.5259877  63.2135717  42.2412985  31.4861799  63.1123262  43.1294246
  32.0733451  63.5177167  42.8034484  21.6319656  70.5444862  33.7850083
  22.1411885  71.1409370  34.1661389  22.1053928  70.2770836  33.1026503
  21.7763032  70.5930678  33.7404606  35.1298375  68.0937718  35.6850044
  34.4589565  68.6367420  35.5563109  35.8238125  68.5632573  35.4431739
  35.1327243  68.2435989  35.6305572  35.2926503  64.5493601  38.5940417
  35.6454113  64.1223324  39.2686216  34.4341304  64.4644445  38.7241494
  35.2175947  64.4738342  38.7135428  23.9910188  67.1801121  36.6523264
  23.2722177  67.5965253  36.9196127  24.3622550  67.7455360  36.1014902
  23.9402119  67.3250402  36.6106071  33.2909768  67.8128970  42.5425259
  33.2707696  67.6312265  43.3960038  33.3388969  68.6840988  42.5184843
  33.2944409  67.9145508  42.6648554  31.2356098  74.4016162  48.4673736
  31.1951953  73.7565839  47.8818892  32.0479416  74.3452779  48.7799148
  31.3499252  74.2975129  48.4270685  29.7656762  66.2199121  31.9896643
  29.1721601  66.5416117  31.4381210  29.8032040  65.3740216  31.7817749
  29.6831151  66.1423449  31.8779414  36.7250563  59.6712013  39.5224730
  36.2181427  58.9641153  39.4545907  37.5217996  59.3405202  39.6525806
  36.7677802  59.5185164  39.5323725  32.6414579  66.1778625  35.4198393
  32.4128272  66.2011327  34.5776752  32.9012655  65.3536092  35.5393404
  32.6460767  66.0594705  35.3123591  26.9233807  68.0313098  45.0223494
  26.4112710  67.4234281  45.3808525  26.7513303  68.7469691  45.4897469
  26.8223444  68.0476398  45.1439717  21.7699522  66.4750674  47.6725855
  21.6002112  67.1352048  47.1274062  21.3265472  66.6857235  48.3938344
  21.6798855  66.6036656  47.6987485  25.6959341  64.7155172  36.7152589
  26.1716707  65.0772251  36.0802770  25.1947941  65.3711639  36.9952732
  25.6924700  64.8649360  36.6629330  38.9270703  74.1876940  32.5065594
  39.3104308  74.9368296  32.7363691  38.1314816  74.4342759  32.2477583
  38.8664485  74.3346633  32.5023168  30.8002877  65.9537343  47.4625749
  31.3574307  65.7251152  46.8304215  30.4763942  66.7143009  47.1860962
  30.8349287  66.0321180  47.3282246  18.6701586  69.3797539  42.9314345
  18.1228306  68.7098185  43.0495214  19.4593964  69.0127387  42.9957812
  18.7053770  69.2262526  42.9583046  28.5185995  69.0404996  48.4277756
  29.2697322  69.3556673  48.7417310  28.7108571  68.8384167  47.6011678
  28.6577409  69.0572378  48.3521152  27.7385994  66.8596371  30.0825973
  28.1184959  66.8776001  29.2977088  26.9978590  67.3050360  29.9616820
  27.6854832  66.9278146  29.9489541  35.3671285  65.1678563  35.6701552
  35.3665511  65.0127219  36.5285828  35.1627465  66.0141550  35.6142937
  35.3371063  65.2699183  35.7889491  17.4288556  68.5918347  40.0860368
  17.2510317  68.1394956  40.8115284  17.1407578  69.3944508  40.2698846
  17.3601509  68.6440905  40.2203871  33.0912137  69.8476064  39.3237759
  33.5865802  69.1299059  39.2841779  32.2811912  69.5446862  39.2092246
  33.0456030  69.6973711  39.3011484  28.5370748  73.6973878  31.4734763
  27.7282071  73.3740551  31.4268073  29.0445657  72.9907100  31.4063012
  28.4920415  73.5455194  31.4565057  19.1661026  71.1246071  37.1982127
  18.3006545  71.1131761  37.0864899  19.2659841  70.9376294  38.0453267
  19.0535192  71.0952132  37.3071072  35.1563956  72.5979752  42.0114887
  35.5819027  72.0754174  41.4585312  34.7920875  73.1960589  41.4903510
  35.1650558  72.6089979  41.8523897  31.7442555  76.3114016  38.3416045
  32.2153733  77.0254279  38.5106030  32.0802734  75.7112766  38.8775914
  31.8637670  76.3285480  38.4448421  33.8319540  77.9215329  50.5208117
  33.9416505  77.1323890  50.8764864  34.1610436  77.8321266  49.7182455
  33.8971945  77.7921182  50.4550508  28.6612050  61.0841487  45.2974140
  28.7939956  60.2872480  45.6255115  29.0457203  61.6107890  45.8772415
  28.7368379  61.0441403  45.4317643  32.3816501  76.1031950  45.1043737
  31.8337447  75.4789834  44.8363803  32.8429530  76.2926222  44.3887817
  32.3683711  76.0391000  44.9594169  31.7344405  58.0071813  41.8955233
  30.9290369  57.8969542  42.2123071  31.6051141  58.1084269  41.0385099
  31.5964538  58.0055483  41.8163273  35.1910366  64.1717305  42.4894930
  34.6073355  64.6726511  42.0772497  35.5114660  63.6646861  41.8559253
  35.1523541  64.1709140  42.3353437  27.7305165  63.0857900  32.7653605
  28.5520859  63.2556212  32.5235299  27.2674816  63.2405160  32.0419902
  27.7836327  63.1339632  32.6225249  26.3200497  61.0800662  43.5452033
  26.8644910  60.7391789  44.1356375  26.3737432  61.9386123  43.6873318
  26.4089616  61.1555921  43.6533907  31.9474828  77.1083023  41.6353079
  32.7673201  76.9645989  41.8969374  31.6668905  77.7329222  42.1769517
  32.0271571  77.1793375  41.7541018  38.3463950  78.7002591  38.3239269
  38.0167280  79.1513735  37.6542967  37.6708952  78.6218755  38.8712275
  38.1974386  78.7553726  38.3062492  45.5540358  74.6888114  36.5688879
  45.2393799  75.3791593  37.0009302  45.0367299  74.6332896  35.8674380
  45.4304828  74.7823003  36.5285828  36.5519904  76.7614880  33.8062216
  37.3065872  77.1293197  33.5679266  36.3747438  77.1354434  34.5741396
  36.6374382  76.8713068  33.8847105  49.8454803  82.9109320  41.8509756
  49.0083224  82.9811507  42.0857350  49.8143033  82.9133815  40.9784058
  49.7173085  82.9219547  41.7569304  40.5876688  76.1711609  33.5389353
  41.3162848  75.9927564  33.0927509  40.6771581  77.0129689  33.7496531
  40.7083350  76.2695488  33.5042871  47.5262642  77.9752102  40.4353478
  48.1688551  78.0450206  41.0215393  47.7785663  77.3081325  39.9333020
  47.6584774  77.8878450  40.4480757  42.7613925  79.0689073  38.1464431
  42.0570252  78.5798259  38.3048350  42.8098899  79.0811548  37.2752875
  42.6643976  78.9978721  38.0403771  49.9644145  82.7496739  36.1665442
  49.7080709  81.9376681  35.9763324  50.8073459  82.7574306  35.9395629
  50.0510170  82.6308737  36.1050259  44.1447237  76.6896363  40.9041596
  44.5257749  76.0074534  41.2909470  43.3410521  76.4005965  40.7217260
  44.0823699  76.5463412  40.9345652  38.1039077  79.1950561  50.7704204
  37.7892518  79.9650124  50.5073767  37.7829010  78.6320817  50.1856431
  38.0097997  79.2260830  50.6445554  35.6570974  77.5841083  36.3850400
  34.7893400  77.6563682  36.4508010  35.9446179  78.3863162  36.5738376
  35.5710722  77.7135230  36.4225167  44.7803863  77.7318942  44.7161722
  45.5257455  77.5428753  44.3025148  44.3641168  78.2577180  44.1575579
  44.8288837  77.7821088  44.5726296  44.3785506  81.2616089  40.6531366
  43.5396606  81.2877368  40.4169630  44.4489873  81.9086825  41.2336713
  44.2653899  81.3612215  40.7040483  42.8254784  78.1601466  35.3858982
  43.5281137  77.9609215  34.9078941  42.5598973  77.3877409  35.6927826
  42.8901416  78.0164432  35.3604424  37.5883340  79.4236751  44.4389863
  37.3966537  79.4391886  45.2889286  38.4381936  79.6200426  44.4156518
  37.6859062  79.4551103  44.5613158  40.4987567  79.6192261  44.6461686
  40.9560181  80.3516235  44.7734478  40.5743896  79.1958726  45.4048942
  40.5778537  79.6649499  44.7762763  44.9714893  72.7982136  38.5155529
  45.0898461  73.2558599  37.7822832  44.7977069  71.9927397  38.2291747
  44.9634064  72.7475908  38.3656463  41.9392457  74.6532938  39.4574191
  41.0686015  74.6271659  39.4107500  42.1932798  74.4810131  38.6400037
  41.8486017  74.6243082  39.3294328  38.9641597  76.6639167  40.9147661
  38.4480086  75.9719358  41.0399240  38.4035526  77.3309944  40.8610260
  38.8048111  76.6602424  40.9253727  41.0333831  77.2032127  42.7440514
  40.6465584  77.2281158  43.5254044  40.5466768  76.6373805  42.2915030
  40.9046340  77.1227878  42.7928418  40.6990973  74.0899112  45.0350774
  41.3284091  74.6259412  44.7571844  40.8676835  73.9976471  45.8864339
  40.8168767  74.1560475  45.1199302  40.5004887  78.8770307  47.3077185
  41.3278317  78.6055456  47.3635800  40.5212733  79.6731149  47.6641003
  40.6257738  78.9550061  47.3692368  44.1914891  76.6235001  38.0036076
  44.3964484  76.5557309  38.8493073  43.8641315  77.4293822  37.9357253
  44.1730139  76.7320941  38.1195731  47.4448579  77.1766765  37.4838841
  46.8322892  77.6637167  37.8692573  47.5412754  76.5010256  38.0276492
  47.3686476  77.1485074  37.6217699  41.4467660  78.9329606  32.5836340
  41.9011406  79.1040167  33.3084185  41.9207705  78.3197717  32.1834116
  41.5835980  78.8680491  32.6310102  40.7060255  77.4322399  38.7213209
  39.8596300  77.6045207  38.5954559  40.7031388  76.6271743  39.0579037
  40.5807405  77.3383428  38.7524336  41.7758556  81.2097614  39.5875267
  41.3018510  80.6839376  40.0980578  42.1476691  80.6627087  39.0190128
  41.7608445  81.0513610  39.5790414  50.0400473  83.0501447  38.9511307
  49.8010243  83.0097281  38.1132091  50.2034374  83.8972599  39.0777028
  50.0290777  83.1693532  38.8464789  42.7244420  75.8065953  44.3894889
  42.2284981  76.0029627  43.6986456  43.4813482  76.2058621  44.2183691
  42.7631245  75.8943687  44.2615026  39.9947300  79.4808299  40.9798199
  40.0189787  78.9468411  40.2910979  40.2458773  78.9725608  41.6423790
  40.0357218  79.3269203  40.9762844  36.2748622  78.2079117  40.3603944
  36.3146994  78.7088324  41.0738651  35.4498287  78.2989511  40.0909867
  36.1588148  78.2960933  40.4254482  35.5046769  78.2148520  48.2934253
  36.1299472  77.6710653  48.5663686  35.0497248  77.7343437  47.7242044
  35.5295029  78.0638001  48.2495847  43.0737389  79.1848499  42.8529458
  43.4992461  78.7321025  42.2412985  42.4594382  78.6308570  43.1294246
  43.0466035  79.0362475  42.8034484  41.5131612  75.6563599  36.2620035
  40.8699930  75.5061245  36.8305174  41.1731019  75.4105944  35.4969140
  41.3676690  75.5975721  36.2323050  46.2659086  80.0678909  38.5940417
  46.6186696  79.6408632  39.2686216  45.4073888  79.9829753  38.7241494
  46.1908531  79.9923650  38.7135428  47.6983146  75.1897321  39.5224730
  47.1914011  74.4826460  39.4545907  48.4950580  74.8590510  39.6525806
  47.7410385  75.0370472  39.5323725  43.6147162  81.6963933  35.4198393
  43.3860855  81.7196635  34.5776752  43.8745238  80.8721400  35.5393404
  43.6193350  81.5780013  35.3123591  46.3403868  80.6863870  35.6701552
  46.3398095  80.5312527  36.5285828  46.1360048  81.5326858  35.6142937
  46.3103646  80.7884491  35.7889491  39.6344634  76.6026795  45.2974140
  39.7672539  75.8057788  45.6255115  40.0189786  77.1293198  45.8772415
  39.7100962  76.5626711  45.4317643  42.7076989  73.5257121  41.8955233
  41.9022952  73.4154850  42.2123071  42.5783724  73.6269576  41.0385099
  42.5697122  73.5240791  41.8163273  46.1642949  79.6902613  42.4894930
  45.5805938  80.1911819  42.0772497  46.4847243  79.1832169  41.8559253
  46.1256125  79.6894448  42.3353437  38.7037748  78.6043207  32.7653605
  39.5253443  78.7741520  32.5235299  38.2407399  78.7590468  32.0419902
  38.7568911  78.6524940  32.6225249  37.2933080  76.5985970  43.5452033
  37.8377493  76.2577096  44.1356375  37.3470016  77.4571431  43.6873318
  37.3822200  76.6741229  43.6533907  15.1941551  15.1470082  21.5336002
  15.1635556  16.0014719  21.7054271  15.7922900  14.8465375  22.0922145
  15.2778709  15.2286579  21.6410804   8.3941236  14.2345733  26.2888932
   7.5379132  14.3954231  26.3398049   8.4408890  13.3637797  26.3093993
   8.2740348  14.1296535  26.2994998   2.7782376  23.7708451  22.0526164
   2.0265275  23.3923989  21.8242209   3.2268387  23.8026885  21.3044974
   2.7332043  23.7194058  21.9083666  11.7034953  20.5032259  35.8949388
  12.4101720  20.0084289  36.0236323  11.8922888  20.9441340  35.1652046
  11.8362858  20.4950609  35.8058434   8.2307336  24.1933820  17.4811711
   7.8958704  24.8710742  17.0455933   8.7434206  23.8039132  16.8928583
   8.2572917  24.2358399  17.3298502   7.7711627  26.1448089  23.4222822
   8.1551006  26.7134988  22.8827598   7.7070768  25.4197599  22.9428639
   7.8185054  26.1223553  23.2716685  11.2393057  16.2937777  28.9320584
  11.7849017  16.9722864  28.9914554  11.1809933  16.1525238  28.0722165
  11.3108971  16.3729779  28.8132644   4.3567132  23.7826843  24.3188936
   4.4577495  22.9727197  24.6286064   3.7608877  23.6883789  23.6888615
   4.2839671  23.6491871  24.2715175  13.0158126  17.7222384  19.8054312
  12.8997652  18.4730070  20.2346450  13.8114012  17.4646337  20.0550399
  13.1162715  17.7957231  19.9058403   4.1967872  28.7004432  25.7203792
   4.8405327  29.1417596  26.1099951   4.5224127  27.8957858  25.6334051
   4.3399700  28.6469627  25.7649270   4.8988451  21.7116407  21.0923654
   5.2204292  22.2521614  20.4884962   5.5460548  21.1413178  21.2245944
   5.0414506  21.7075582  21.0230689   6.9490159  13.7132402  21.1758041
   7.6470324  13.8920530  21.6679504   7.2642492  13.1902741  20.5528430
   7.0985497  13.6626174  21.1560051   7.1378095  20.1002847  21.1637832
   7.5771730  19.4919948  21.6092605   6.9882758  19.7210220  20.3923297
   7.1799560  19.9541318  21.1157000   4.6049738  18.6946859  28.3656658
   5.2498740  18.2019302  28.0467606   4.8451515  18.8371645  29.1922736
   4.7360323  18.6424301  28.4406191   7.1435829  21.5401765  28.0163550
   7.4259072  20.7453170  27.7950306   7.8721990  22.0182352  28.0368611
   7.2925393  21.4936362  27.9866565  10.7387431  18.4530028  18.1168601
  10.6538726  19.3090995  18.2618170  11.2271815  18.1774352  18.7850761
  10.7976329  18.5387350  18.2370683  11.6705865  15.0714823  19.6166337
  11.1417336  15.2874456  20.2763643  12.1930884  15.7650961  19.5367306
  11.6694318  15.2057959  19.7021936  17.1253917  20.6461127  24.9899381
  16.2951621  20.8571771  25.1532798  17.0763170  19.8198182  24.7141665
  16.9960653  20.5550733  24.9736747   5.1863655  23.4764981  27.8247291
   4.6690597  23.1172396  27.2208599   5.8838046  22.9527156  27.8353357
   5.2129236  23.3462669  27.7377549   6.4097707  23.2090955  32.7681126
   5.8468542  22.7963565  33.2920787   7.1718730  23.1343861  33.1874269
   6.4392155  23.1368356  32.9074126   1.9693698  25.1988976  25.3717756
   2.6714278  24.6840965  25.4290513   1.8891181  25.5263128  26.1764631
   2.0617459  25.1703203  25.4990548  16.6207876  13.2931528  28.7849802
  15.7836297  13.3633715  29.0197397  16.5896107  13.2956022  27.9124105
  16.4926158  13.3041755  28.6909350   3.0172605  15.4364563  34.4998171
   3.1893108  15.3270458  35.3483452   3.5541962  16.0818969  34.2629363
   3.1217609  15.5156565  34.5903268   1.2944474  21.3895328  24.8803364
   2.1333373  21.6218261  24.9277126   1.3256243  20.5199640  24.8110399
   1.4226191  21.2952275  24.8768009   1.9197177  21.8096204  29.1816670
   2.4595402  21.6667335  29.8520042   1.2367123  22.2092954  29.5500696
   1.8989331  21.8475874  29.3351091  11.3438062  17.4887204  24.3761694
  12.0995577  17.9218718  24.4150603  11.4500386  16.8391974  24.9496330
  11.4708232  17.4564688  24.4659719  14.3818233  21.3160481  25.1264097
  13.9453465  21.3197224  25.8823068  14.0481148  21.9965980  24.6943674
  14.2680853  21.4172937  25.1744929   8.9547306  23.3568814  36.4507247
   9.7387723  23.4699662  36.8162989   8.7543901  22.5309951  36.6465933
   9.0413332  23.2515534  36.5341633  14.3015716   8.3574309  27.3693525
  14.9441624   8.4272414  27.9555440  14.5538736   7.6903532  26.8673067
  14.4337848   8.2700658  27.3820804   9.1117700  25.2678916  30.0973703
   8.3132945  25.0278416  30.3547571   9.5603711  25.3193309  30.8440750
   9.0592311  25.2401307  30.2458627  17.5162579  18.0341401  24.0183734
  18.1779013  17.4732070  23.9179643  16.8753991  17.5393432  24.3436425
  17.5191446  17.8777810  24.0516074   8.4039387  21.3311533  16.3264657
   8.8190535  20.9996557  15.6349153   7.5731316  21.0980435  16.1984794
   8.3427395  21.2482789  16.2055505  13.8027410  19.0506784  23.7595723
  14.0382999  19.1951983  22.9322574  13.9516973  19.8149192  24.1527237
  13.8593213  19.1845838  23.6959327   0.7973487  15.5340277  33.1244944
   1.5213459  15.5193307  33.6109839   0.8989624  16.2435632  32.6266912
   0.9191696  15.6364980  33.1223731  15.6317866  17.8908450  21.5965327
  15.9626083  18.4236090  20.9905422  16.2050954  17.9447337  22.2527278
  15.7651545  17.9778018  21.6043108   8.1718436  19.0139361  37.9893891
   7.3791417  19.3282873  38.1746511   8.2867364  19.2290830  37.1514676
   8.0713847  19.0923198  37.8932226  10.8449755  15.7373352  22.2788907
  10.9396610  16.4762646  22.7328532  10.2208599  15.3090828  22.7123471
  10.7658786  15.7834673  22.4097054   9.1002229  18.9159565  32.9279188
   9.6741091  18.2786809  33.0827752   9.0217033  18.9163647  32.0588845
   9.1735464  18.8224676  32.8225599   4.4565948  17.3482830  24.9800385
   4.1985192  16.5154565  24.9531685   4.5114431  17.5740443  24.1392886
   4.4265726  17.2580601  24.8520522   9.5366998   9.4511281  25.0804478
   8.8323325   8.9620466  25.2388397   9.5851972   9.4633755  24.2092922
   9.4397050   9.3800929  24.9743818   3.4300660  14.9020593  25.4665280
   2.8550251  15.0612761  26.1029241   3.0536336  14.2656002  25.0033730
   3.2903472  14.8318405  25.4919838   7.0973949  13.3743942  30.3257658
   6.7088381  12.9498160  29.6709850   6.4328647  13.6226091  30.8334685
   6.9420876  13.3482663  30.3045526  16.7397218  13.1318946  23.1005488
  16.4833783  12.3198888  22.9103371  17.5826532  13.1396514  22.8735676
  16.8263243  13.0130944  23.0390305  10.9200310   7.0718571  27.8381643
  11.3010822   6.3896742  28.2249517  10.1163595   6.7828173  27.6557307
  10.8576772   6.9285619  27.8685698   8.2012887  17.6042546  18.5234465
   9.0153526  17.8957439  18.4117237   8.1372028  16.9502409  17.9492758
   8.3115626  17.5507741  18.4223303  14.4222377  20.2868543  32.9364041
  14.1861014  19.4556607  32.8176102  15.0665606  20.2354150  33.5218885
  14.4817048  20.1566230  33.0049934   4.0720795  21.0764064  23.6506777
   4.7094742  20.8375811  24.1958571   4.4975867  21.2801223  22.9159938
   4.2296961  21.0715074  23.6223935  15.4458798  20.0712991  28.9992335
  15.1404615  20.8041048  29.3605651  14.7265013  19.6650921  28.7185121
  15.2946140  20.1194724  29.0105473   6.4542267  21.5536486  25.3300564
   6.5281275  21.3911658  26.1842414   7.2711773  21.7426676  25.0861045
   6.5858626  21.5573229  25.4198589  21.1460590  16.7105992  28.3260680
  21.0785090  16.7301951  27.4563266  21.1316252  17.5536319  28.5516350
  21.1339346  16.8379727  28.2313157  11.5556936   8.1141150  31.6501769
  12.3010528   7.9250960  31.2365195  11.1394241   8.6399388  31.0915625
  11.6041911   8.1643295  31.5066342  18.9319207  15.4850378  26.6007274
  19.4827129  14.8518447  26.8404366  18.9163323  16.0165771  27.2922778
  19.0104404  15.4699326  26.7386132   5.5841598  19.3188975  31.1467168
   5.0853292  20.0304743  31.2252056   6.3941822  19.6389642  31.1085330
   5.6297705  19.4715824  31.1523736   2.9352768  26.4938612  23.1274187
   2.7153064  26.2035967  23.9200854   2.7147290  25.8353567  22.5992099
   2.8700363  26.3538320  23.1663095   1.8469716  18.5811928  25.3929888
   1.5582964  17.9549400  25.9275616   2.7153064  18.5232216  25.4594569
   1.9329968  18.4799473  25.4820843  12.6347613  13.7246712  25.7111870
  12.2912379  13.0037047  26.0619120  12.7340656  13.5160563  24.8690229
  12.5989656  13.5870915  25.6383550   5.1020724  27.8668002  21.9104879
   5.7544782  27.3344444  22.1395905   4.4046333  27.5136654  22.2972753
   5.0951442  27.7357525  22.0017047   2.0501989  20.2207180  21.3172253
   2.8047957  20.6020219  21.5307716   1.4572602  20.6718323  21.7718950
   2.0738703  20.3436007  21.4155132  13.0960643  20.1872416  21.2535858
  13.6618675  20.8465626  21.1694401  12.4488546  20.5322114  21.7252261
  13.0839399  20.3354357  21.3108615   4.5108656  12.1770020  36.4429466
   3.7008432  12.4827800  36.3319308   4.9883343  12.8975602  36.5582050
   4.4612135  12.3284621  36.4436537   3.3700216  21.3915741  26.6912369
   2.8480969  21.5316033  27.3764234   3.7574236  20.6326405  26.8814486
   3.3503917  21.3001265  26.8213445   9.5667221  23.1311200  20.6772938
   9.3253897  22.3979061  20.2700003   9.7468554  23.6798057  20.0239271
   9.5574845  23.1033591  20.5203161   4.7966541  18.4219760  22.0893860
   4.6009324  19.0294494  21.4954163   5.0200887  17.7287704  21.6085534
   4.8001182  18.4097285  21.9309941   3.1945071  15.3074498  22.2074728
   3.9167723  15.4715656  21.7478534   2.7153064  16.0284163  22.1014068
   3.2308802  15.4372727  22.1240342  11.1538579  11.6438297  27.5871413
  10.3149679  11.6699575  27.3509676  11.2242946  12.2909032  28.1676760
  11.0406972  11.7434422  27.6380530   9.6007857   8.5423674  22.3199029
  10.3034210   8.3431422  21.8418987   9.3352046   7.7699616  22.6267873
   9.6654489   8.3986640  22.2944471  15.0296103  16.8506283  24.8732655
  14.9430077  17.0061709  25.7267434  14.5746583  17.4944359  24.4992060
  14.9499359  16.9682038  24.9439762   4.3636413   9.8058959  31.3729910
   4.1719610   9.8214093  32.2229333   5.2135009  10.0022633  31.3496565
   4.4612135   9.8373310  31.4953204   8.9021919  14.1717030  23.4958214
   8.6556633  14.0912781  24.3295003   9.2307042  13.3870498  23.3020742
   8.9143162  14.0443296  23.5905738  12.7969968  20.8800390  27.2844996
  12.6584327  21.5781436  27.7893738  12.0169965  20.7249046  26.9281177
  12.6613194  20.9600556  27.3071270  11.1348053  17.1796765  33.5367377
  11.1296091  16.3076582  33.5409804  11.8409047  17.3784934  33.0636833
  11.2393057  17.0800639  33.4674413   4.8618946  16.9073749  32.9081198
   5.0062322  17.4874957  32.2724308   5.2094595  17.2850046  33.6131052
   4.9346407  17.0494453  32.9180192   7.0338863  16.1063917  30.6906329
   6.2862177  16.2994932  30.2854607   7.1880389  15.2809137  30.4530450
   6.9461291  16.0129029  30.5951735   3.9346701  25.0976521  29.7742224
   4.0836265  24.5379437  29.1215629   4.7146703  25.1768523  30.1574743
   4.0720795  25.0262086  29.7339173  14.2923340  20.2378644  18.0461495
  13.9130149  19.4515782  18.0390784  13.6289586  20.7865501  17.9033139
  14.1381815  20.2023468  18.0242292   6.4600002  25.2691164  31.0526715
   6.3843673  24.5999974  31.6077503   6.3889861  25.9708952  31.5667381
   6.4380609  25.2736071  31.2103563   7.2740640  10.0014468  31.5801733
   7.7313255  10.7338442  31.7074525   7.3496969   9.5780933  32.3388989
   7.3531610  10.0471706  31.7102809   7.1170249  23.7892163  21.8850321
   7.8820140  23.5201806  21.5632985   7.0148339  23.3042173  22.6020384
   7.2151744  23.6781727  21.9430149   5.1523018  11.9916572  28.4243557
   4.3619093  11.8108032  28.7460893   5.5483641  11.2143525  28.4073851
   5.0939895  11.8504033  28.4696105  10.5366705  19.6259002  26.1503003
   9.8611706  19.3944234  26.6516390  10.5459081  19.0180185  25.5245108
  10.4385209  19.5017927  26.1319155   7.6660849  14.4676831  32.9067056
   7.6019990  15.3286788  32.7787192   7.8058036  14.1508824  32.1062607
   7.6776319  14.5476998  32.7695269  12.5383439  22.4824135  18.3813181
  12.6203277  23.2891121  18.0574632  13.0233181  22.5020094  19.1053954
  12.6220597  22.6044797  18.4400079   6.3479942  17.1608971  27.0483259
   5.9242192  17.3613470  26.3122277   6.1724798  16.3137819  27.1607559
   6.2590823  17.0657752  26.9556949   5.8491636  28.6759484  29.5104716
   6.3387566  27.9770273  29.3280381   5.2775868  28.3783354  30.0980773
   5.8376166  28.5285707  29.5705757   1.6362387  17.6561022  22.4811231
   1.7927007  17.5907825  23.3367223   1.9762981  18.4309575  22.2689911
   1.7095622  17.7610220  22.5765825   8.1741532  17.0318906  21.3504594
   8.7157078  16.5289287  21.8143215   8.4888091  16.9784100  20.5394080
   8.3005929  16.9498326  21.2988407  12.0458639  21.2421553  38.4631507
  12.8593505  20.9706702  38.6236639  11.8853606  20.9429093  37.6591703
  12.1428588  21.1576479  38.3676912   6.3427982  22.4236257  18.6344622
   6.4120802  21.5650796  18.7737623   7.1216437  22.6408138  18.3063647
   6.4680832  22.3289121  18.6061780   9.3230801  11.9255210  31.4026895
   9.5372771  11.2866124  30.8490249   8.7064701  12.3701034  30.9734757
   9.2636131  11.8965354  31.2577326  10.7335469  24.8473958  22.8481116
  10.3415261  24.5440674  22.1303982  10.8888542  25.6843048  22.6586070
  10.6989059  24.9257795  22.7137613  11.4869889  13.5344275  32.3410202
  10.6746571  13.2270166  32.4223375  11.9459824  13.0543275  32.9052914
  11.4350274  13.4180768  32.4364796  10.8975144  21.4123947  22.7887146
  10.5389799  21.5838590  23.5651179  10.4113855  21.8737153  22.2315145
  10.7733841  21.5062918  22.8212415   8.5823397  14.9404347  37.1238904
   9.0523028  15.5646463  37.5106778   8.6285277  14.2721322  37.6832119
   8.6591273  14.9339027  37.2638976  12.0579883  22.3027843  33.7354347
  12.6959604  21.8088039  33.4016803  11.4153975  22.2305244  33.1506574
  12.0574110  22.2186852  33.5996702  13.7836884  14.1516989  28.3020263
  13.3564492  14.0643338  27.5468362  13.1462937  14.2594765  28.8875107
  13.6266491  14.1549649  28.2765704   7.2757961   9.2592514  34.2417232
   8.1031390   8.9877663  34.2975847   7.2965807  10.0553356  34.5981050
   7.4010811   9.3372269  34.3032415  12.1134140  22.9947651  30.3759704
  12.9026518  22.6436716  30.4961786  12.2877738  23.8084040  30.1136338
  12.2554422  23.0633509  30.3547572   1.8527451  16.4056377  27.4287493
   1.0115457  16.3060251  27.6366387   2.0617458  17.1751857  27.7801813
   1.7592143  16.5048421  27.5114808  10.9667964   7.0057208  24.9376122
  11.1717558   6.9379516  25.7833120  10.6394388   7.8116029  24.8697300
  10.9483212   7.1143149  25.0535777   5.6644115  14.3337776  26.6785090
   5.3607253  13.7793765  27.2795498   4.9623536  14.5129986  26.1913125
   5.5160325  14.2782559  26.6954796   3.7262466  21.5487497  31.3857188
   3.6182821  21.5589559  32.2519246   3.9358248  22.3742278  31.1962142
   3.7412577  21.6728572  31.4861280  14.2201652   7.5588972  24.4178888
  13.6075966   8.0459375  24.8032620  14.3165827   6.8832463  24.9616539
  14.1439550   7.5307281  24.5557746   1.7436258  18.8000140  28.8479126
   1.1524192  19.4409638  28.8182141   2.5057282  19.2237757  28.8210425
   1.7684519  18.9575978  28.8394273  17.8626680  18.6305909  29.8456404
  17.9209804  19.0792558  30.5916380  17.2293148  19.0404722  29.4086484
  17.7777975  18.7579644  29.8908952  11.5025775  24.2509451  26.2811150
  11.3045463  24.7400266  25.5867361  10.8813486  24.4550693  26.8595284
  11.3813339  24.3525989  26.2634373   5.5633753  16.0194348  20.6221394
   6.3075798  16.4068624  20.8604344   5.7094449  15.1751773  20.7861882
   5.6944338  15.9524821  20.6815364   8.5511629  11.5919821  26.5215314
   8.0771583  11.0661583  27.0320625   8.9229765  11.0449294  25.9530175
   8.5361518  11.4335818  26.5130461  14.8148359  16.6522197  27.9322094
  14.5746582  15.8128612  27.9364521  15.2940367  16.7322364  28.6562868
  14.8500543  16.5403597  28.0396897  16.8153546  13.4323654  25.8851353
  16.5763316  13.3919488  25.0472138  16.9787448  14.2794806  26.0117074
  16.8043850  13.5515739  25.7804835  13.4199577  17.8173603  31.8156398
  14.1433775  17.3646130  31.6367418  13.1549539  18.0978269  31.0328726
  13.4880850  17.7924572  31.6735114   2.2886445  12.4133777  28.5509278
   1.6639515  12.4252169  27.9435230   1.9532040  12.8893952  29.2000518
   2.1471937  12.4852294  28.5565846  10.0332211  21.0559939  18.7150725
  10.7566410  21.5218052  18.5715298   9.5932802  21.1233549  17.9648322
  10.0747903  21.1343776  18.5835506   9.2018366  17.9157482  29.9651414
   8.5875359  17.3715532  30.2600049   9.7185651  17.4021718  29.4857230
   9.1874028  17.7593891  29.9375642   8.4414663  18.9861752  27.6995712
   8.0142271  18.3611470  27.2661148   8.4339608  18.7036674  28.5254719
   8.3773804  18.8514532  27.7575540   1.5577190  14.0226925  30.7684146
   1.7170677  13.2670249  31.1735868   1.3770084  14.5717864  31.4224884
   1.5542549  13.9920738  30.9246852   9.4997493   6.1888160  31.3234936
   9.0038055   6.3851835  30.6326502  10.2566555   6.5880829  31.1523737
   9.5384318   6.2765894  31.1955072   6.7700373   9.8630506  27.9138246
   6.7942860   9.3290619  27.2251026   7.0211846   9.3547815  28.5763837
   6.8110292   9.7091410  27.9102891   5.2331308  18.1562064  35.3964285
   4.3826939  18.2933779  35.5321930   5.3959436  17.4225843  35.8411987
   5.1315172  18.0676166  35.4819884   4.4716059  15.1061834  29.5917890
   3.6407988  15.2735652  29.3853138   4.4167576  14.7297785  30.3766775
   4.3405473  15.0751566  29.6766418  15.8534891  16.7800014  30.3186948
  16.4452731  17.4197265  30.3505146  16.2893885  16.0823051  30.6079015
  16.0053322  16.7718365  30.3667781   7.6828280  21.2017387  30.9444842
   7.1753371  21.7553233  31.3885473   7.3854927  21.2625676  30.1263617
   7.5633165  21.2923698  30.8893299   9.8490463   9.5670706  29.7869505
  10.2745534   9.1143233  29.1753032   9.2347456   9.0130777  30.0634293
   9.8219108   9.4184682  29.7374530  10.2936061  25.1180644  18.8748786
   9.5765370  24.9441507  18.4096023  10.9442798  24.8833217  18.3424272
  10.2837911  25.0576437  18.7278004  12.8784032  13.9945233  22.6190091
  12.2075222  14.5374935  22.4903156  13.5723782  14.4640088  22.3771786
  12.8812899  14.1443504  22.5645619   6.9270766  26.1341945  27.8501849
   6.7036420  25.3760774  28.2185875   6.4380609  26.1639966  27.1282289
   6.8214215  26.0264169  27.7978590  13.0412159  10.4501116  25.5280464
  13.3939769  10.0230839  26.2026263  12.1826961  10.3651960  25.6581540
  12.9661604  10.3745857  25.6475474   1.7395844  13.0808636  23.5863311
   1.0207833  13.4972769  23.8536174   2.1108207  13.6462875  23.0354949
   1.6887776  13.2257918  23.5446117  11.0395425  13.7136485  29.4765306
  11.0193352  13.5319780  30.3300085  11.0874626  14.5848504  29.4524890
  11.0430066  13.8153023  29.5988601   8.9841755  20.3023677  35.4013783
   8.9437610  19.6573354  34.8158939   9.7965073  20.2460294  35.7139195
   9.0984909  20.1982644  35.3610732   5.5749223  26.3542403  25.3038934
   5.1609621  25.6916533  24.9142775   6.2596597  26.5020262  24.7834628
   5.6147594  26.2783061  25.1695431   8.9414517  25.5132488  26.0562550
   8.5430800  25.6234759  25.2883371   8.3265736  25.7214555  26.6389110
   8.7913406  25.5606056  26.0293850  14.4736219   5.5719528  26.4564776
  13.9667084   4.8648668  26.3885954  15.2703653   5.2412717  26.5865853
  14.5163459   5.4192680  26.4663771  10.3900235  12.0786141  22.3538440
  10.1613928  12.1018842  21.5116798  10.6498311  11.2543608  22.4733451
  10.3946423  11.9602220  22.2463638   4.6719464  13.9320614  31.9563540
   4.1598367  13.3241797  32.3148572   4.4998960  14.6477206  32.4237516
   4.5709101  13.9483913  32.0779764   3.4444998  10.6162687  23.6492636
   3.9202364  10.9779767  23.0142817   2.9433597  11.2719154  23.9292779
   3.4410357  10.7656876  23.5969377  16.6756359  20.0884455  19.4405641
  17.0589965  20.8375811  19.6703738  15.8800473  20.3350275  19.1817630
  16.6150142  20.2354149  19.4363214   8.5488534  11.8544858  34.3965796
   9.1059964  11.6258668  33.7644261   8.2249599  12.6150524  34.1201008
   8.5834944  11.9328695  34.2622293   6.2671651  14.9412512  35.3617803
   7.0182978  15.2564188  35.6757357   6.4594228  14.7391682  34.5351725
   6.4063065  14.9579893  35.2861199  13.1156941  11.0686078  22.6041599
  13.1151168  10.9134734  23.4625875  12.9113122  11.9149065  22.5482984
  13.0856719  11.1706699  22.7229538  10.8397794  15.7483580  26.2577805
  11.3351459  15.0306575  26.2181826  10.0297569  15.4454377  26.1432292
  10.7941687  15.5981226  26.2351531   6.2856405  19.5981393  18.4074810
   5.4767728  19.2748066  18.3608119   6.7931314  18.8914615  18.3403059
   6.2406072  19.4462709  18.3905104  12.9049612  18.4987267  28.9454934
  13.3304684  17.9761689  28.3925359  12.5406532  19.0968105  28.4243557
  12.9136215  18.5097494  28.7863944   2.5403692  26.7951485  27.7052280
   2.8550251  27.6087873  27.7130061   2.9497106  26.4101703  28.3734439
   2.6471790  26.8580187  27.8056371   9.4928212  22.2121531  25.2756092
   9.9639390  22.9261794  25.4446077   9.8288390  21.6120282  25.8115961
   9.6123327  22.2292996  25.3788468  11.5805196  23.8222845  37.4548164
  11.6902162  23.0331405  37.8104911  11.9096093  23.7328781  36.6522502
  11.6457602  23.6928698  37.3890554  10.1302158  22.0039466  32.0383784
   9.5823104  21.3797349  31.7703850  10.5915187  22.1933738  31.3227864
  10.1169368  21.9398516  31.8934215  12.9396023  10.0724820  29.4234977
  12.3559011  10.5734027  29.0112544  13.2600317   9.5654376  28.7899300
  12.9009198  10.0716655  29.2693484   9.6960484  23.0090538  28.5693125
  10.5158858  22.8653504  28.8309421   9.4154562  23.6336737  29.1109563
   9.7757228  23.0800890  28.6881065  26.1674135  30.6655390  21.5336002
  26.1368139  31.5200027  21.7054271  26.7655484  30.3650683  22.0922145
  26.2511293  30.7471887  21.6410804  19.3673820  29.7531041  26.2888932
  18.5111715  29.9139539  26.3398049  19.4141473  28.8823105  26.3093993
  19.2472931  29.6481843  26.2994998  13.7514959  39.2893759  22.0526164
  12.9997859  38.9109297  21.8242209  14.2000971  39.3212192  21.3044974
  13.7064626  39.2379366  21.9083666  19.2039919  39.7119128  17.4811711
  18.8691288  40.3896050  17.0455933  19.7166790  39.3224440  16.8928583
  19.2305500  39.7543707  17.3298502  18.7444211  41.6633397  23.4222822
  19.1283590  42.2320296  22.8827598  18.6803352  40.9382907  22.9428639
  18.7917638  41.6408860  23.2716685  15.3299716  39.3012151  24.3188936
  15.4310078  38.4912505  24.6286064  14.7341461  39.2069097  23.6888615
  15.2572254  39.1677179  24.2715175  23.9890709  33.2407692  19.8054312
  23.8730235  33.9915378  20.2346450  24.7846596  32.9831645  20.0550399
  24.0895299  33.3142539  19.9058403  15.1700455  44.2189740  25.7203792
  15.8137911  44.6602904  26.1099951  15.4956711  43.4143166  25.6334051
  15.3132284  44.1654935  25.7649270   8.5264760  35.3232438  23.9441270
   8.2914944  34.4900090  23.8373539   8.6650401  35.6037103  23.1302471
   8.5120422  35.2415941  23.8083625  10.8254847  27.4918168  26.8425578
  10.2059879  26.9010815  26.6735592  10.7238711  28.0829603  26.2089901
  10.7192523  27.4922251  26.7230567  15.8721035  37.2301715  21.0923654
  16.1936876  37.7706922  20.4884962  16.5193131  36.6598486  21.2245944
  16.0147090  37.2260890  21.0230689  17.9222743  29.2317710  21.1758041
  18.6202908  29.4105837  21.6679504  18.2375075  28.7088049  20.5528430
  18.0718080  29.1811482  21.1560051  10.5523980  31.0370450  29.0869147
  10.4282677  31.6232895  29.7218965  11.2042265  30.5430646  29.3881422
  10.6297630  31.0509254  29.2255076  18.1110678  35.6188155  21.1637832
  18.5504314  35.0105255  21.6092605  17.9615341  35.2395528  20.3923297
  18.1532144  35.4726626  21.1157000  15.5782321  34.2132167  28.3656658
  16.2231324  33.7204610  28.0467606  15.8184098  34.3556953  29.1922736
  15.7092906  34.1609609  28.4406191  18.1168413  37.0587073  28.0163550
  18.3991656  36.2638478  27.7950306  18.8454573  37.5367660  28.0368611
  18.2657976  37.0121670  27.9866565  16.0949607  24.6010107  25.2579315
  15.7652937  25.0521250  24.5883014  15.4194608  24.5226270  25.8052322
  15.9460043  24.6561242  25.2402539  21.7120015  33.9715336  18.1168601
  21.6271310  34.8276303  18.2618170  22.2004398  33.6959660  18.7850761
  21.7708912  34.0572658  18.2370683  23.3026014  20.5895629  23.5028926
  22.9879455  21.2799108  23.9349348  22.7852956  20.5340412  22.8014427
  23.1790485  20.6830518  23.4625875  22.6438448  30.5900130  19.6166337
  22.1149920  30.8059764  20.2763643  23.1663468  31.2836269  19.5367306
  22.6426901  30.7243267  19.7021936  14.5338056  34.4863347  18.4173805
  13.9495271  34.9913379  18.8239668  14.1308151  34.2605734  17.6770397
  14.3877360  34.5271596  18.3678830  10.0882085  40.2018108  25.2197476
   9.6049663  40.9268598  25.1957060  10.9005403  40.4994238  25.3307634
  10.1372832  40.3520462  25.2324755  16.1596239  38.9950289  27.8247291
  15.6423180  38.6357704  27.2208599  16.8570630  38.4712463  27.8353357
  16.1861820  38.8647977  27.7377549  18.9915270  30.7328999  16.8942725
  19.2311274  30.9406983  16.0818068  19.3131111  29.9286508  17.0031670
  19.0752428  30.6443100  16.7903278  12.9426282  40.7174284  25.3717756
  13.6446861  40.2026273  25.4290513  12.8623765  41.0448436  26.1764631
  13.0350042  40.6888510  25.4990548  13.9905188  30.9549871  34.4998171
  14.1625692  30.8455766  35.3483452  14.5274546  31.6004277  34.2629363
  14.0950192  31.0341873  34.5903268  12.6562625  25.0692714  17.4380376
  12.4738198  25.2864595  16.6121369  13.5188238  25.1831727  17.4938991
  12.7567215  25.1182612  17.3234863  12.2677057  36.9080636  24.8803364
  13.1065957  37.1403569  24.9277126  12.2988826  36.0384948  24.8110399
  12.3958775  36.8137583  24.8768009  12.8929760  37.3281511  29.1816670
  13.4327985  37.1852642  29.8520042  12.2099707  37.7278262  29.5500696
  12.8721914  37.3661182  29.3351091  18.3362344  22.0719125  20.4729400
  19.0648505  21.8935080  20.0267556  18.4257237  22.9137204  20.6836578
  18.4569006  22.1703003  20.4382918   8.2966905  33.5481802  29.3351091
   8.0305321  32.7320919  29.4942081   8.3105469  33.5934958  28.4646607
   8.2591628  33.4338707  29.2304573  12.2024652  28.3466887  15.9502849
  11.4882829  28.0605066  16.3625282  12.6868621  28.6863512  16.5909237
  12.1684016  28.3548536  16.1058484  13.0465512  27.0860181  31.9818099
  12.3537308  26.6157160  32.2278830  13.6625839  26.8598485  32.5559806
  13.0350042  26.9827312  32.1027251  19.3771970  36.8496841  16.3264657
  19.7923119  36.5181864  15.6349153  18.5463900  36.6165743  16.1984794
  19.3159979  36.7668097  16.2055505   8.7060319  34.3340582  26.6162835
   8.5235892  34.3087468  25.7635128   9.4409988  34.8039519  26.6551744
   8.7874383  34.4001944  26.4960754  11.7706071  31.0525584  33.1244944
  12.4946043  31.0378615  33.6109839  11.8722207  31.7620940  32.6266912
  11.8924280  31.1550288  33.1223731  26.6050450  33.4093758  21.5965327
  26.9358667  33.9421398  20.9905422  27.1783538  33.4632645  22.2527278
  26.7384129  33.4963326  21.6043108  19.1451020  34.5324669  37.9893891
  18.3524001  34.8468181  38.1746511  19.2599947  34.7476138  37.1514676
  19.0446431  34.6108506  37.8932226  21.8182339  31.2558660  22.2788907
  21.9129193  31.9947954  22.7328532  21.1941183  30.8276136  22.7123471
  21.7391369  31.3019981  22.4097054  22.0705360  33.1007400  15.5125859
  21.9885523  33.1709587  16.3780846  22.7085081  33.6637144  15.3209599
  22.1525198  33.1946371  15.6115808  15.4298531  32.8668138  24.9800385
  15.1717776  32.0339873  24.9531685  15.4847014  33.0925751  24.1392886
  15.3998309  32.7765909  24.8520522  20.5099582  24.9696589  25.0804478
  19.8055908  24.4805774  25.2388397  20.5584556  24.9819063  24.2092922
  20.4129633  24.8986237  24.9743818  14.4033244  30.4205900  25.4665280
  13.8282835  30.5798069  26.1029241  14.0268920  29.7841310  25.0033730
  14.2636056  30.3503713  25.4919838  18.0706532  28.8929250  30.3257658
  17.6820965  28.4683467  29.6709850  17.4061231  29.1411399  30.8334685
  17.9153460  28.8667971  30.3045526   4.1490062  30.0645975  23.4809720
   4.2350314  29.6877844  24.2623250   4.7765860  29.6906421  23.0029679
   4.2546613  29.9531457  23.5255198  19.1745471  33.1227854  18.5234465
  19.9886109  33.4142747  18.4117237  19.1104612  32.4687717  17.9492758
  19.2848210  33.0693049  18.4223303  15.0453379  36.5949372  23.6506777
  15.6827326  36.3561119  24.1958571  15.4708450  36.7986531  22.9159938
  15.2029545  36.5900382  23.6223935   9.7366021  38.8337708  27.5341081
   9.7770166  39.1052559  26.7060861  10.2960545  39.3579616  27.9498869
   9.8249367  38.9513463  27.4732969  15.6856194  31.8151662  17.9881667
  16.0701347  31.5959368  18.7398212  15.4367814  32.6414607  18.1182743
  15.7058266  31.9049808  18.1182743  15.8524734  25.0958077  37.7044251
  15.5378175  25.8657639  37.4413814  15.5314667  24.5328333  37.1196478
  15.7583653  25.1268345  37.5785601  17.4274851  37.0721794  25.3300564
  17.5013859  36.9096966  26.1842414  18.2444357  37.2611984  25.0861045
  17.5591209  37.0758537  25.4198589  11.1880607  37.4179657  22.3595007
  10.3618725  37.6641394  22.2329286  11.2492599  37.3391738  23.2257065
  11.0754774  37.4424606  22.4683952  13.4056631  23.4848598  23.3190447
  12.5379057  23.5571198  23.3848057  13.6931835  24.2870677  23.5078422
  13.3196379  23.6142745  23.3565214  15.9679436  40.0356537  20.0614037
  16.2577735  39.6445519  19.3373264  16.6982917  40.2173242  20.5019312
  16.1186321  40.0050351  20.0196844  16.5574182  34.8374283  31.1467168
  16.0585875  35.5490051  31.2252056  17.3674406  35.1574950  31.1085330
  16.6030288  34.9901132  31.1523736  13.9085352  42.0123920  23.1274187
  13.6885647  41.7221275  23.9200854  13.6879874  41.3538875  22.5992099
  13.8432946  41.8723628  23.1663095  12.8202299  34.0997236  25.3929888
  12.5315548  33.4734708  25.9275616  13.6885647  34.0417524  25.4594569
  12.9062551  33.9984781  25.4820843  16.0753308  43.3853310  21.9104879
  16.7277366  42.8529752  22.1395905  15.3778916  43.0321962  22.2972753
  16.0684026  43.2542833  22.0017047  13.0234573  35.7392487  21.3172253
  13.7780541  36.1205526  21.5307716  12.4305185  36.1903631  21.7718950
  13.0471286  35.8621315  21.4155132  24.0693226  35.7057724  21.2535858
  24.6351259  36.3650934  21.1694401  23.4221130  36.0507422  21.7252261
  24.0571983  35.8539665  21.3108615  15.4841240  27.6955328  36.4429466
  14.6741015  28.0013107  36.3319308  15.9615926  28.4160910  36.5582050
  15.4344718  27.8469929  36.4436537  14.3432799  36.9101049  26.6912369
  13.8213553  37.0501340  27.3764234  14.7306820  36.1511713  26.8814486
  14.3236500  36.8186573  26.8213445  11.3323983  26.9606858  20.7607324
  11.0448779  26.5908128  20.0239271  12.0194451  27.4301713  20.4991028
  11.3912881  26.9753827  20.6122399  20.5399804  38.6496508  20.6772938
  20.2986480  37.9164369  20.2700003  20.7201137  39.1983365  20.0239271
  20.5307428  38.6218899  20.5203161  15.7699125  33.9405068  22.0893860
  15.5741907  34.5479802  21.4954163  15.9933470  33.2473012  21.6085534
  15.7733766  33.9282593  21.9309941  14.1677655  30.8259806  22.2074728
  14.8900307  30.9900964  21.7478534  13.6885648  31.5469471  22.1014068
  14.2041386  30.9558035  22.1240342  11.8185272  33.2317878  31.3128868
  12.3306368  33.5102131  30.6637628  11.5321614  33.9707172  31.6791681
  11.8520135  33.3820232  31.2718746  20.5740441  24.0608982  22.3199029
  21.2766794  23.8616730  21.8418987  20.3084629  23.2884924  22.6267873
  20.6387073  23.9171948  22.2944471   8.9052178  27.7388070  21.6092605
   9.0068314  28.5414231  21.9373580   9.7008065  27.5375406  21.3115685
   9.0380083  27.8273969  21.6127960  15.3368997  25.3244267  31.3729910
  15.1452194  25.3399401  32.2229333  16.1867593  25.5207941  31.3496565
  15.4344719  25.3558618  31.4953204   9.7215910  27.8535248  29.3513726
   9.5801402  27.0019189  29.4758234  10.0056473  27.8963909  28.5275932
   9.7423756  27.7334998  29.2481350  19.8754502  29.6902338  23.4958214
  19.6289217  29.6098089  24.3295003  20.2039625  28.9055806  23.3020742
  19.8875746  29.5628604  23.5905738  15.8351530  32.4259057  32.9081198
  15.9794905  33.0060265  32.2724308  16.1827178  32.8035354  33.6131052
  15.9078991  32.5679761  32.9180192  18.0071447  31.6249225  30.6906329
  17.2594761  31.8180240  30.2854607  18.1612972  30.7994445  30.4530450
  17.9193875  31.5314337  30.5951735  14.9079285  40.6161829  29.7742224
  15.0568848  40.0564745  29.1215629  15.6879287  40.6953831  30.1574743
  15.0453378  40.5447394  29.7339173  25.2655924  35.7563952  18.0461495
  24.8862733  34.9701089  18.0390784  24.6022169  36.3050809  17.9033139
  25.1114399  35.7208775  18.0242292  18.2473224  25.5199776  31.5801733
  18.7045838  26.2523750  31.7074525  18.3229553  25.0966241  32.3388989
  18.3264194  25.5657014  31.7102809  10.4906215  25.7665596  32.6691177
   9.9548405  25.1545954  32.9851944  10.5523980  26.3413732  33.3224843
  10.4201848  25.7612524  32.8126603  22.7200550  18.6989651  25.4495576
  22.8384118  19.1566115  24.7162878  22.5462726  17.8934912  25.1631793
  22.7119721  18.6483423  25.2996509  18.0902832  39.3077471  21.8850321
  18.8552723  39.0387114  21.5632985  17.9880922  38.8227481  22.6020384
  18.1884328  39.1967035  21.9430149  16.1255602  27.5101880  28.4243557
  15.3351677  27.3293340  28.7460893  16.5216225  26.7328833  28.4073851
  16.0672478  27.3689341  28.4696105  20.6121493  36.3389654  13.8650270
  21.3794478  36.3989779  13.4556122  20.1652802  35.7670096  13.3806589
  20.6594920  36.2626230  13.7327981  21.5099288  35.1444310  26.1503003
  20.8344290  34.9129542  26.6516390  21.5191664  34.5365493  25.5245108
  21.4117793  35.0203235  26.1319155  18.6393432  29.9862139  32.9067056
  18.5752573  30.8472096  32.7787192  18.7790620  29.6694132  32.1062607
  18.6508902  30.0662306  32.7695269  23.5116023  38.0009443  18.3813181
  23.5935860  38.8076429  18.0574632  23.9965765  38.0205402  19.1053954
  23.5953181  38.1230105  18.4400079  17.3212526  32.6794278  27.0483259
  16.8974775  32.8798778  26.3122277  17.1457381  31.8323126  27.1607559
  17.2323407  32.5843060  26.9556949  16.8224220  44.1944791  29.5104716
  17.3120150  43.4955581  29.3280381  16.2508452  43.8968661  30.0980773
  16.8108749  44.0471015  29.5705757  12.6094971  33.1746330  22.4811231
  12.7659590  33.1093133  23.3367223  12.9495564  33.9494882  22.2689911
  12.6828206  33.2795528  22.5765825  19.1474116  32.5504213  21.3504594
  19.6889661  32.0474595  21.8143215  19.4620675  32.4969408  20.5394080
  19.2738513  32.4683634  21.2988407  17.3160565  37.9421565  18.6344622
  17.3853386  37.0836103  18.7737623  18.0949021  38.1593446  18.3063647
  17.4413415  37.8474429  18.6061780  21.7068053  40.3659266  22.8481116
  21.3147845  40.0625981  22.1303982  21.8621125  41.2028356  22.6586070
  21.6721643  40.4443103  22.7137613   9.1829233  30.3581280  22.7971998
   9.5628197  30.7765825  22.1332266   8.6084597  30.9394736  23.1040842
   9.1540557  30.5059139  22.7448739  21.8707728  36.9309255  22.7887146
  21.5122382  37.1023898  23.5651179  21.3846438  37.3922461  22.2315145
  21.7466425  37.0248226  22.8212415  19.6878114  20.5540454  26.3914238
  18.8171672  20.5279175  26.3447547  19.9418455  20.3817646  25.5740083
  19.5971674  20.5250597  26.2634374  16.6596093  32.6108421  15.3287381
  16.9488618  33.3873303  15.6030955  16.7467892  32.0997152  16.0301880
  16.7150349  32.6500339  15.4729879  19.5555981  30.4589655  37.1238904
  20.0255612  31.0831771  37.5106778  19.6017861  29.7906630  37.6832119
  19.6323856  30.4524335  37.2638976  16.7127254  22.5646682  27.8487708
  16.1965743  21.8726874  27.9739287  16.1521183  23.2317459  27.7950307
  16.5533767  22.5609940  27.8593774  18.7819488  23.1039642  29.6780561
  18.3951241  23.1288674  30.4594091  18.2952425  22.5381321  29.2255077
  18.6531997  23.0235393  29.7268464  18.4476629  19.9906628  31.9690821
  19.0769747  20.5266928  31.6911891  18.6162492  19.8983987  32.8204386
  18.5654424  20.0567990  32.0539349  18.2490544  24.7777822  34.2417232
  19.0763974  24.5062971  34.2975847  18.2698390  25.5738664  34.5981050
  18.3743394  24.8557577  34.3032415  12.8260034  31.9241685  27.4287493
  11.9848041  31.8245559  27.6366387  13.0350042  32.6937165  27.7801813
  12.7324727  32.0233728  27.5114808  10.3035601  29.5461222  25.2572243
   9.9092299  29.6204234  24.4822353   9.7475718  29.9319168  25.8080605
  10.1638413  29.6142997  25.2239903  21.9400548  22.5242516  24.9376122
  22.1450141  22.4564824  25.7833120  21.6126972  23.3301337  24.8697300
  21.9215796  22.6328457  25.0535777  16.6376699  29.8523084  26.6785090
  16.3339836  29.2979073  27.2795498  15.9356120  30.0315294  26.1913125
  16.4892909  29.7967867  26.6954796  15.6942796  27.1623604  21.2429792
  15.9702530  26.4442517  20.8307360  16.2941465  27.7608524  21.0350898
  15.8236061  27.1443975  21.1510553  14.6995050  37.0672805  31.3857188
  14.5915405  37.0774867  32.2519246  14.9090831  37.8927585  31.1962142
  14.7145161  37.1913880  31.4861280  25.1934236  23.0774280  24.4178888
  24.5808549  23.5644683  24.8032620  25.2898410  22.4017771  24.9616539
  25.1172133  23.0492589  24.5557746  19.1953317  24.8337121  19.5176387
  19.6497063  25.0047682  20.2424232  19.6693362  24.2205232  19.1174163
  19.3321637  24.7688007  19.5650149  12.7168842  34.3185447  28.8479126
  12.1256775  34.9594946  28.8182141  13.4789865  34.7423065  28.8210425
  12.7417103  34.4761286  28.8394273  13.1129465  25.4787445  29.5147143
  13.5730946  25.5526375  30.2522267  13.1585571  26.2768699  29.1646965
  13.1880020  25.6081592  29.5719900  14.7612814  26.1454140  34.0819170
  14.3698380  25.4987487  34.5174948  14.9298677  26.7365575  34.7013426
  14.7283725  26.1368408  34.2381876  22.4758358  39.7694759  26.2811150
  22.2778047  40.2585573  25.5867361  21.8546069  39.9736001  26.8595284
  22.3545923  39.8711297  26.2634373  16.5366337  31.5379656  20.6221394
  17.2808381  31.9253932  20.8604344  16.6827033  30.6937081  20.7861882
  16.6676922  31.4710129  20.6815364  18.4545912  23.3329915  25.6553256
  17.6081957  23.5052723  25.5294606  18.4517044  22.5279258  25.9919084
  18.3293062  23.2390944  25.6864383  19.5244212  27.1105129  26.5215314
  19.0504167  26.5846891  27.0320625  19.8962348  26.5634602  25.9530175
  19.5094101  26.9521126  26.5130461   9.9017243  29.1076636  31.8898860
  10.7642856  29.0072345  31.8036189   9.5709026  28.5271345  31.3284432
   9.9802439  29.0068263  31.7944265  21.4527712  28.0041684  19.5841068
  20.9250731  28.0870428  18.8946776  21.9123420  28.7459555  19.5805712
  21.4429563  28.1262346  19.4815763  13.2619029  27.9319085  28.5509278
  12.6372099  27.9437477  27.9435230  12.9264623  28.4079260  29.2000518
  13.1204520  28.0037602  28.5565846  13.4460777  26.2744203  14.6081963
  13.0973582  26.9263929  15.0713512  12.9657223  26.2601316  13.8805834
  13.3231021  26.3687257  14.5693054   9.9744704  35.9919545  29.9913042
   9.4444629  35.3011984  30.0408017  10.2469797  35.9829730  29.1625751
   9.9369426  35.8886677  29.8760458  21.0064795  36.5745247  18.7150725
  21.7298993  37.0403360  18.5715298  20.5665386  36.6418857  17.9648322
  21.0480487  36.6529084  18.5835506  19.4147247  34.5047060  27.6995712
  18.9874855  33.8796778  27.2661148  19.4072191  34.2221981  28.5254719
  19.3506388  34.3699840  27.7575540  12.5309774  29.5412233  30.7684146
  12.6903261  28.7855557  31.1735868  12.3502667  30.0903172  31.4224884
  12.5275133  29.5106046  30.9246852  20.4730077  21.7073468  31.3234936
  19.9770638  21.9037142  30.6326502  21.2299139  22.1066136  31.1523737
  20.5116902  21.7951202  31.1955072  17.7432956  25.3815814  27.9138246
  17.7675444  24.8475926  27.2251026  17.9944430  24.8733123  28.5763837
  17.7842875  25.2276718  27.9102891   5.2540546  32.6647309  27.3481390
   5.1483995  32.6194153  26.4833474   4.5040766  33.0101090  27.6295675
   5.1276149  32.7088217  27.2618720  14.0234279  24.1086632  27.2943991
  14.0632650  24.6095839  28.0078698  13.1983943  24.1997026  27.0249914
  13.9073805  24.1968449  27.3594529  16.2063892  33.6747372  35.3964285
  15.3559522  33.8119087  35.5321930  16.3692019  32.9411151  35.8411987
  16.1047755  33.5861474  35.4819884  15.4448642  30.6247142  29.5917890
  14.6140572  30.7920960  29.3853138  15.3900159  30.2483093  30.3766775
  15.3138057  30.5936873  29.6766418  13.2532425  24.1156035  35.2274300
  13.8785129  23.5718168  35.5003733  12.7982905  23.6350953  34.6582091
  13.2780686  23.9645516  35.1835894  13.8184686  28.9002734  20.1208007
  13.9587647  29.3975198  20.8236649  14.3167219  28.1989028  20.2622221
  13.9125767  28.8704713  20.2459586  13.8484908  29.7669845  17.4500584
  14.4829988  30.3630270  17.3850046  13.9310519  29.4673302  18.2646454
  13.9541459  29.8110753  17.5603671  15.4263891  25.6983820  17.4246026
  15.7479732  25.2186903  16.7705288  15.6890835  26.5083466  17.2336838
  15.5129917  25.7473718  17.3001518  18.6560864  36.7202695  30.9444842
  18.1485955  37.2738541  31.3885473  18.3587510  36.7810984  30.1263617
  18.5365749  36.8109006  30.8893299  10.3537896  31.9637686  20.7190130
  10.8630126  32.5602193  21.1001436  10.8272168  31.6963659  20.0366550
  10.4981272  32.0123501  20.6744653  21.2668644  40.6365952  18.8748786
  20.5497954  40.4626814  18.4096023  21.9175382  40.4018525  18.3424272
  21.2570495  40.5761745  18.7278004  19.2617269  21.5571114  23.1960082
  18.6185587  21.4068760  23.7645221  18.9216676  21.3113459  22.4309187
  19.1162346  21.4983236  23.1663097  17.9003349  41.6527253  27.8501849
  17.6769004  40.8946082  28.2185875  17.4113192  41.6825274  27.1282289
  17.7946798  41.5449477  27.7978590  24.0144743  25.9686424  25.5280464
  24.3672353  25.5416147  26.2026263  23.1559544  25.8837268  25.6581540
  23.9394188  25.8931165  25.6475474  12.7128428  28.5993944  23.5863311
  11.9940417  29.0158077  23.8536174  13.0840790  29.1648183  23.0354949
  12.6620360  28.7443226  23.5446117  16.5481806  41.8727711  25.3038934
  16.1342205  41.2101841  24.9142775  17.2329180  42.0205570  24.7834628
  16.5880178  41.7968369  25.1695431  19.9147100  41.0317796  26.0562550
  19.5163383  41.1420066  25.2883371  19.2998320  41.2399862  26.6389110
  19.7645990  41.0791364  26.0293850  18.4875002  27.6391944  18.9236690
  17.8939842  27.9608940  18.3721257  18.5250280  26.7933039  18.7157796
  18.4049391  27.5616272  18.8119461  25.4468803  21.0904836  26.4564776
  24.9399668  20.3833976  26.3885954  26.2436237  20.7598025  26.5865853
  25.4896042  20.9377988  26.4663771  21.3632819  27.5971448  22.3538440
  21.1346512  27.6204150  21.5116798  21.6230895  26.7728915  22.4733451
  21.3679007  27.4787528  22.2463638  15.6452047  29.4505922  31.9563540
  15.1330950  28.8427104  32.3148572  15.4731543  30.1662514  32.4237516
  15.5441684  29.4669221  32.0779764  10.4917762  27.8943497  34.6065902
  10.3220352  28.5544872  34.0614109  10.0483712  28.1050058  35.3278391
  10.4017096  28.0229479  34.6327532  14.4177581  26.1347995  23.6492636
  14.8934948  26.4965075  23.0142817  13.9166181  26.7904462  23.9292779
  14.4142940  26.2842184  23.5969377  27.6488943  35.6069763  19.4405641
  28.0322549  36.3561119  19.6703738  26.8533056  35.8535583  19.1817630
  27.5882725  35.7539457  19.4363214  19.5221118  27.3730166  34.3965796
  20.0792548  27.1443976  33.7644261  19.1982183  28.1335832  34.1201008
  19.5567528  27.4514003  34.2622293   7.3919827  30.7990362  29.8654392
   6.8446546  30.1291008  29.9835260   8.1812205  30.4320210  29.9297859
   7.4272010  30.6455349  29.8923093  17.2404235  30.4597819  35.3617803
  17.9915562  30.7749496  35.6757357  17.4326811  30.2576990  34.5351725
  17.3795649  30.4765201  35.2861199  16.4604235  28.2789195  17.0166020
  16.8403199  28.2968824  16.2317135  15.7196831  28.7243183  16.8956867
  16.4073072  28.3470969  16.8829588  24.0889525  26.5871386  22.6041599
  24.0883751  26.4320042  23.4625875  23.8845705  27.4334373  22.5482984
  24.0589303  26.6892007  22.7229538   6.1506796  30.0111170  27.0200415
   5.9728557  29.5587779  27.7455331   5.8625818  30.8137332  27.2038893
   6.0819749  30.0633728  27.1543918  17.2588989  35.1166701  18.4074810
  16.4500311  34.7933374  18.3608119  17.7663897  34.4099923  18.3403059
  17.2138655  34.9648017  18.3905104   7.8879266  32.5438894  24.1322174
   7.0224785  32.5324584  24.0204945   7.9878082  32.3569117  24.9793313
   7.7753433  32.5144955  24.2411119  13.5136276  42.3136793  27.7052280
  13.8282835  43.1273181  27.7130061  13.9229689  41.9287011  28.3734439
  13.6204374  42.3765495  27.8056371  20.4660795  37.7306839  25.2756092
  20.9371974  38.4447102  25.4446077  20.8020974  37.1305589  25.8115961
  20.5855910  37.7478304  25.3788468  17.3830290  22.5034310  32.2314186
  17.5158196  21.7065303  32.5595162  17.7675443  23.0300713  32.8112462
  17.4586619  22.4634227  32.3657689  20.4562646  19.4264636  28.8295280
  19.6508609  19.3162366  29.1463118  20.3269381  19.5277092  27.9725145
  20.3182778  19.4248306  28.7503320  16.4523405  24.5050723  19.6993651
  17.2739100  24.6749036  19.4575346  15.9893056  24.6597984  18.9759949
  16.5054567  24.5532456  19.5565296  15.0418737  22.4993485  30.4792080
  15.5863150  22.1584612  31.0696422  15.0955673  23.3578947  30.6213365
  15.1307857  22.5748744  30.5873954  10.8549296  36.2609901  27.3530888
  11.4594153  36.2205735  26.7244709  10.6476608  37.1081053  27.3834944
  10.9138193  36.3797904  27.2647005   6.0900578  35.2444519  27.2229811
   5.9924856  34.4340790  27.5319868   6.8729448  35.2236312  26.8376079
   6.1916715  35.1211609  27.2116674  37.1406718  46.1840698  21.5336002
  37.1100723  47.0385335  21.7054271  37.7388067  45.8835990  22.0922145
  37.2243876  46.2657194  21.6410804  24.7247543  54.8079067  22.0526164
  23.9730442  54.4294605  21.8242209  25.1733555  54.8397500  21.3044974
  24.6797210  54.7564674  21.9083666  30.1772503  55.2304436  17.4811711
  29.8423871  55.9081358  17.0455933  30.6899373  54.8409748  16.8928583
  30.2038084  55.2729014  17.3298502  29.7176794  57.1818705  23.4222822
  30.1016173  57.7505604  22.8827598  29.6535935  56.4568215  22.9428639
  29.7650221  57.1594168  23.2716685  33.1858224  47.3308393  28.9320584
  33.7314184  48.0093479  28.9914554  33.1275101  47.1895854  28.0722165
  33.2574139  47.4100395  28.8132644  26.3032299  54.8197459  24.3188936
  26.4042662  54.0097813  24.6286064  25.7074044  54.7254405  23.6888615
  26.2304838  54.6862487  24.2715175  34.9623293  48.7593000  19.8054312
  34.8462819  49.5100686  20.2346450  35.7579180  48.5016953  20.0550399
  35.0627882  48.8327847  19.9058403  26.1433039  59.7375048  25.7203792
  26.7870494  60.1788212  26.1099951  26.4689294  58.9328474  25.6334051
  26.2864867  59.6840243  25.7649270  19.4997343  50.8417745  23.9441270
  19.2647528  50.0085398  23.8373539  19.6382984  51.1222411  23.1302471
  19.4853006  50.7601249  23.8083625  21.7987431  43.0103476  26.8425578
  21.1792463  42.4196123  26.6735592  21.6971294  43.6014911  26.2089901
  21.6925106  43.0107559  26.7230567  26.8453618  52.7487023  21.0923654
  27.1669460  53.2892230  20.4884962  27.4925715  52.1783794  21.2245944
  26.9879674  52.7446198  21.0230689  28.8955327  44.7503018  21.1758041
  29.5935491  44.9291145  21.6679504  29.2107659  44.2273357  20.5528430
  29.0450664  44.6996790  21.1560051  21.5256564  46.5555758  29.0869147
  21.4015261  47.1418203  29.7218965  22.1774848  46.0615954  29.3881422
  21.6030213  46.5694562  29.2255076  29.0843262  51.1373463  21.1637832
  29.5236897  50.5290563  21.6092605  28.9347925  50.7580836  20.3923297
  29.1264728  50.9911934  21.1157000  26.5514905  49.7317475  28.3656658
  27.1963907  49.2389918  28.0467606  26.7916682  49.8742261  29.1922736
  26.6825490  49.6794917  28.4406191  29.0900996  52.5772381  28.0163550
  29.3724239  51.7823786  27.7950306  29.8187157  53.0552968  28.0368611
  29.2390560  52.5306978  27.9866565  27.0682190  40.1195415  25.2579315
  26.7385520  40.5706558  24.5883014  26.3927192  40.0411578  25.8052322
  26.9192626  40.1746550  25.2402539  32.6852598  49.4900644  18.1168601
  32.6003894  50.3461611  18.2618170  33.1736982  49.2144968  18.7850761
  32.7441496  49.5757966  18.2370683  33.6171032  46.1085438  19.6166337
  33.0882503  46.3245072  20.2763643  34.1396052  46.8021577  19.5367306
  33.6159485  46.2428575  19.7021936  25.5070639  50.0048655  18.4173805
  24.9227855  50.5098687  18.8239668  25.1040735  49.7791042  17.6770397
  25.3609943  50.0456903  18.3678830  21.0614668  55.7203416  25.2197476
  20.5782246  56.4453906  25.1957060  21.8737986  56.0179546  25.3307634
  21.1105416  55.8705770  25.2324755  27.1328822  54.5135597  27.8247291
  26.6155764  54.1543012  27.2208599  27.8303213  53.9897771  27.8353357
  27.1594403  54.3833285  27.7377549  29.9647854  46.2514307  16.8942725
  30.2043858  46.4592291  16.0818068  30.2863695  45.4471816  17.0031670
  30.0485012  46.1628408  16.7903278  25.2738144  38.1807703  20.7402263
  26.0284112  38.5486020  20.5019313  25.0965679  38.5547257  21.5081443
  25.3592623  38.2905891  20.8187152  23.9158865  56.2359592  25.3717756
  24.6179445  55.7211581  25.4290513  23.8356348  56.5633744  26.1764631
  24.0082626  56.2073818  25.4990548  23.6295209  40.5878022  17.4380376
  23.4470782  40.8049903  16.6121369  24.4920822  40.7017035  17.4938991
  23.7299798  40.6367920  17.3234863  23.2409641  52.4265944  24.8803364
  24.0798540  52.6588877  24.9277126  23.2721410  51.5570256  24.8110399
  23.3691358  52.3322891  24.8768009  23.8662344  52.8466819  29.1816670
  24.4060569  52.7037950  29.8520042  23.1832290  53.2463570  29.5500696
  23.8454498  52.8846490  29.3351091  29.3094928  37.5904433  20.4729400
  30.0381088  37.4120388  20.0267556  29.3989821  38.4322512  20.6836578
  29.4301590  37.6888311  20.4382918  19.2699489  49.0667110  29.3351091
  19.0037904  48.2506227  29.4942081  19.2838053  49.1120266  28.4646607
  19.2324211  48.9524015  29.2304573  23.1757236  43.8652195  15.9502849
  22.4615413  43.5790374  16.3625282  23.6601205  44.2048820  16.5909237
  23.1416599  43.8733844  16.1058484  30.3504554  52.3682149  16.3264657
  30.7655702  52.0367172  15.6349153  29.5196483  52.1351051  16.1984794
  30.2892562  52.2853405  16.2055505  19.6792903  49.8525890  26.6162835
  19.4968476  49.8272776  25.7635128  20.4142571  50.3224827  26.6551744
  19.7606966  49.9187252  26.4960754  22.7438654  46.5710892  33.1244944
  23.4678627  46.5563923  33.6109839  22.8454791  47.2806248  32.6266912
  22.8656863  46.6735596  33.1223731  32.7914923  46.7743968  22.2788907
  32.8861777  47.5133262  22.7328532  32.1673766  46.3461444  22.7123471
  32.7123953  46.8205289  22.4097054  19.6463813  46.7319390  26.7661902
  20.2237315  46.5955841  27.4054147  18.9477875  46.2755174  27.0207486
  19.6284834  46.6441656  26.8984192  33.0437944  48.6192708  15.5125859
  32.9618106  48.6894895  16.3780846  33.6817664  49.1822452  15.3209599
  33.1257781  48.7131679  15.6115808  26.4031115  48.3853446  24.9800385
  26.1450359  47.5525181  24.9531685  26.4579598  48.6111059  24.1392886
  26.3730893  48.2951217  24.8520522  31.4832165  40.4881897  25.0804478
  30.7788492  39.9991082  25.2388397  31.5317140  40.5004371  24.2092922
  31.3862217  40.4171545  24.9743818  25.3765827  45.9391208  25.4665280
  24.8015418  46.0983377  26.1029241  25.0001503  45.3026617  25.0033730
  25.2368640  45.8689021  25.4919838  29.0439116  44.4114558  30.3257658
  28.6553549  43.9868775  29.6709850  28.3793814  44.6596707  30.8334685
  28.8886044  44.3853279  30.3045526  38.6862385  44.1689562  23.1005488
  38.4298950  43.3569504  22.9103371  39.5291699  44.1767130  22.8735676
  38.7728410  44.0501560  23.0390305  15.1222646  45.5831283  23.4809720
  15.2082898  45.2063151  24.2623250  15.7498444  45.2091729  23.0029679
  15.2279197  45.4716765  23.5255198  32.8665477  38.1089186  27.8381643
  33.2475989  37.4267358  28.2249517  32.0628762  37.8198789  27.6557307
  32.8041939  37.9656235  27.8685698  30.1478054  48.6413162  18.5234465
  30.9618693  48.9328055  18.4117237  30.0837195  47.9873025  17.9492758
  30.2580793  48.5878357  18.4223303  26.0185962  52.1134680  23.6506777
  26.6559909  51.8746427  24.1958571  26.4441034  52.3171839  22.9159938
  26.1762129  52.1085690  23.6223935  20.7098605  54.3523016  27.5341081
  20.7502750  54.6237867  26.7060861  21.2693129  54.8764924  27.9498869
  20.7981951  54.4698771  27.4732969  26.6588777  47.3336969  17.9881667
  27.0433930  47.1144676  18.7398212  26.4100398  48.1599915  18.1182743
  26.6790850  47.4235116  18.1182743  28.4007434  52.5907102  25.3300564
  28.4746443  52.4282274  26.1842414  29.2176941  52.7797292  25.0861045
  28.5323793  52.5943845  25.4198589  22.1613191  52.9364965  22.3595007
  21.3351309  53.1826702  22.2329286  22.2225182  52.8577046  23.2257065
  22.0487358  52.9609914  22.4683952  24.3789215  39.0033906  23.3190447
  23.5111640  39.0756506  23.3848057  24.6664419  39.8055985  23.5078422
  24.2928963  39.1328053  23.3565214  26.9412020  55.5541845  20.0614037
  27.2310318  55.1630827  19.3373264  27.6715501  55.7358550  20.5019312
  27.0918904  55.5235659  20.0196844  24.8817936  57.5309228  23.1274187
  24.6618231  57.2406583  23.9200854  24.6612458  56.8724183  22.5992099
  24.8165530  57.3908936  23.1663095  23.7934883  49.6182544  25.3929888
  23.5048131  48.9920016  25.9275616  24.6618231  49.5602832  25.4594569
  23.8795135  49.5170089  25.4820843  27.0485891  58.9038618  21.9104879
  27.7009949  58.3715060  22.1395905  26.3511500  58.5507270  22.2972753
  27.0416609  58.7728141  22.0017047  23.9967156  51.2577795  21.3172253
  24.7513124  51.6390834  21.5307716  23.4037769  51.7088939  21.7718950
  24.0203870  51.3806623  21.4155132  35.0425810  51.2243032  21.2535858
  35.6083842  51.8836242  21.1694401  34.3953713  51.5692730  21.7252261
  35.0304566  51.3724973  21.3108615  25.3165383  52.4286357  26.6912369
  24.7946136  52.5686648  27.3764234  25.7039403  51.6697021  26.8814486
  25.2969084  52.3371881  26.8213445  22.3056567  42.4792165  20.7607324
  22.0181363  42.1093436  20.0239271  22.9927035  42.9487021  20.4991028
  22.3645464  42.4939135  20.6122399  31.5132388  54.1681816  20.6772938
  31.2719064  53.4349677  20.2700003  31.6933721  54.7168673  20.0239271
  31.5040012  54.1404207  20.5203161  26.7431708  49.4590376  22.0893860
  26.5474491  50.0665110  21.4954163  26.9666054  48.7658320  21.6085534
  26.7466349  49.4467901  21.9309941  25.1410238  46.3445114  22.2074728
  25.8632890  46.5086272  21.7478534  24.6618231  47.0654778  22.1014068
  25.1773969  46.4743343  22.1240342  33.1003746  42.6808912  27.5871413
  32.2614847  42.7070191  27.3509676  33.1708113  43.3279648  28.1676760
  32.9872139  42.7805038  27.6380530  22.7917855  48.7503186  31.3128868
  23.3038952  49.0287439  30.6637628  22.5054198  49.4892480  31.6791681
  22.8252718  48.9005540  31.2718746  31.5473024  39.5794289  22.3199029
  32.2499377  39.3802038  21.8418987  31.2817213  38.8070232  22.6267873
  31.6119657  39.4357255  22.2944471  19.8784761  43.2573378  21.6092605
  19.9800898  44.0599539  21.9373580  20.6740648  43.0560714  21.3115685
  20.0112667  43.3459277  21.6127960  30.8487086  45.2087646  23.4958214
  30.6021800  45.1283397  24.3295003  31.1772209  44.4241114  23.3020742
  30.8608329  45.0813912  23.5905738  34.7435135  51.9171006  27.2844996
  34.6049494  52.6152051  27.7893738  33.9635133  51.7619662  26.9281177
  34.6078362  51.9971172  27.3071270  25.8811868  56.1347137  29.7742224
  26.0301432  55.5750053  29.1215629  26.6611870  56.2139138  30.1574743
  26.0185962  56.0632702  29.7339173  36.2388508  51.2749259  18.0461495
  35.8595316  50.4886397  18.0390784  35.5754753  51.8236116  17.9033139
  36.0846982  51.2394083  18.0242292  28.4065169  56.3061780  31.0526715
  28.3308840  55.6370590  31.6077503  28.3355028  57.0079568  31.5667381
  28.3845776  56.3106687  31.2103563  29.0635416  54.8262778  21.8850321
  29.8285307  54.5572422  21.5632985  28.9613506  54.3412789  22.6020384
  29.1616911  54.7152343  21.9430149  27.0988185  43.0287188  28.4243557
  26.3084260  42.8478648  28.7460893  27.4948808  42.2514140  28.4073851
  27.0405062  42.8874649  28.4696105  31.5854076  51.8574962  13.8650270
  32.3527061  51.9175087  13.4556122  31.1385385  51.2855404  13.3806589
  31.6327503  51.7811538  13.7327981  32.4831872  50.6629618  26.1503003
  31.8076874  50.4314850  26.6516390  32.4924248  50.0550801  25.5245108
  32.3850376  50.5388543  26.1319155  34.4848606  53.5194750  18.3813181
  34.5668444  54.3261737  18.0574632  34.9698349  53.5390710  19.1053954
  34.5685764  53.6415413  18.4400079  28.2945110  48.1979586  27.0483259
  27.8707359  48.3984085  26.3122277  28.1189965  47.3508434  27.1607559
  28.2055990  48.1028368  26.9556949  27.7956803  59.7130099  29.5104716
  28.2852733  59.0140889  29.3280381  27.2241035  59.4153969  30.0980773
  27.7841333  59.5656323  29.5705757  23.5827555  48.6931638  22.4811231
  23.7392174  48.6278441  23.3367223  23.9228148  49.4680190  22.2689911
  23.6560789  48.7980836  22.5765825  30.1206699  48.0689521  21.3504594
  30.6622245  47.5659903  21.8143215  30.4353258  48.0154716  20.5394080
  30.2471096  47.9868942  21.2988407  28.2893149  53.4606873  18.6344622
  28.3585969  52.6021411  18.7737623  29.0681604  53.6778754  18.3063647
  28.4145999  53.3659737  18.6061780  32.6800636  55.8844574  22.8481116
  32.2880428  55.5811289  22.1303982  32.8353709  56.7213664  22.6586070
  32.6454226  55.9628411  22.7137613  20.1561816  45.8766588  22.7971998
  20.5360781  46.2951133  22.1332266  19.5817181  46.4580044  23.1040842
  20.1273141  46.0244447  22.7448739  32.8440311  52.4494563  22.7887146
  32.4854966  52.6209206  23.5651179  32.3579022  52.9107769  22.2315145
  32.7199008  52.5433534  22.8212415  27.6328677  48.1293728  15.3287381
  27.9221201  48.9058611  15.6030955  27.7200476  47.6182460  16.0301880
  27.6882933  48.1685647  15.4729879  23.7992618  47.4426993  27.4287493
  22.9580624  47.3430867  27.6366387  24.0082626  48.2122473  27.7801813
  23.7057310  47.5419036  27.5114808  21.2768185  45.0646530  25.2572243
  20.8824882  45.1389542  24.4822353  20.7208301  45.4504476  25.8080605
  21.1370997  45.1328305  25.2239903  27.6109282  45.3708392  26.6785090
  27.3072420  44.8164381  27.2795498  26.9088703  45.5500602  26.1913125
  27.4625492  45.3153175  26.6954796  26.6675380  42.6808912  21.2429792
  26.9435114  41.9627825  20.8307360  27.2674049  43.2793832  21.0350898
  26.7968644  42.6629283  21.1510553  25.6727634  52.5858113  31.3857188
  25.5647988  52.5960175  32.2519246  25.8823415  53.4112893  31.1962142
  25.6877745  52.7099188  31.4861280  36.1666819  38.5959588  24.4178888
  35.5541133  39.0829990  24.8032620  36.2630994  37.9203079  24.9616539
  36.0904717  38.5677897  24.5557746  30.1685900  40.3522429  19.5176387
  30.6229647  40.5232990  20.2424232  30.6425946  39.7390540  19.1174163
  30.3054220  40.2873315  19.5650149  23.6901426  49.8370755  28.8479126
  23.0989359  50.4780254  28.8182141  24.4522449  50.2608373  28.8210425
  23.7149686  49.9946594  28.8394273  24.0862048  40.9972753  29.5147143
  24.5463530  41.0711683  30.2522267  24.1318155  41.7954007  29.1646965
  24.1612604  41.1266900  29.5719900  27.5098920  47.0564964  20.6221394
  28.2540965  47.4439240  20.8604344  27.6559616  46.2122389  20.7861882
  27.6409505  46.9895437  20.6815364  30.4976796  42.6290437  26.5215314
  30.0236750  42.1032199  27.0320625  30.8694932  42.0819910  25.9530175
  30.4826685  42.4706434  26.5130461  32.4260296  43.5226992  19.5841068
  31.8983314  43.6055736  18.8946776  32.8856004  44.2644863  19.5805712
  32.4162146  43.6447654  19.4815763  24.2351612  43.4504393  28.5509278
  23.6104682  43.4622785  27.9435230  23.8997207  43.9264568  29.2000518
  24.0937104  43.5222910  28.5565846  24.4193361  41.7929511  14.6081963
  24.0706165  42.4449236  15.0713512  23.9389807  41.7786624  13.8805834
  24.2963605  41.8872565  14.5693054  20.9477288  51.5104853  29.9913042
  20.4177212  50.8197292  30.0408017  21.2202381  51.5015038  29.1625751
  20.9102010  51.4071985  29.8760458  31.9797378  52.0930555  18.7150725
  32.7031577  52.5588668  18.5715298  31.5397969  52.1604165  17.9648322
  32.0213070  52.1714392  18.5835506  31.1483533  48.9528097  29.9651414
  30.5340526  48.4086148  30.2600049  31.6650818  48.4392334  29.4857230
  31.1339196  48.7964507  29.9375642  30.3879830  50.0232368  27.6995712
  29.9607438  49.3982086  27.2661148  30.3804775  49.7407289  28.5254719
  30.3238972  49.8885148  27.7575540  23.5042357  45.0597541  30.7684146
  23.6635844  44.3040865  31.1735868  23.3235251  45.6088480  31.4224884
  23.5007716  45.0291354  30.9246852  28.7165540  40.9001122  27.9138246
  28.7408027  40.3661234  27.2251026  28.9677014  40.3918431  28.5763837
  28.7575459  40.7462026  27.9102891  16.2273130  48.1832617  27.3481390
  16.1216579  48.1379461  26.4833474  15.4773350  48.5286398  27.6295675
  16.1008733  48.2273525  27.2618720  24.9966862  39.6271940  27.2943991
  25.0365234  40.1281147  28.0078698  24.1716527  39.7182334  27.0249914
  24.8806388  39.7153757  27.3594529  26.4181226  46.1432450  29.5917890
  25.5873155  46.3106268  29.3853138  26.3632743  45.7668401  30.3766775
  26.2870641  46.1122181  29.6766418  24.7917269  44.4188042  20.1208007
  24.9320231  44.9160506  20.8236649  25.2899802  43.7174336  20.2622221
  24.8858350  44.3890020  20.2459586  24.8217492  45.2855153  17.4500584
  25.4562571  45.8815578  17.3850046  24.9043103  44.9858610  18.2646454
  24.9274043  45.3296061  17.5603671  26.3996475  41.2169128  17.4246026
  26.7212316  40.7372211  16.7705288  26.6623418  42.0268774  17.2336838
  26.4862500  41.2659026  17.3001518  21.3270480  47.4822993  20.7190130
  21.8362709  48.0787501  21.1001436  21.8004752  47.2148967  20.0366550
  21.4713855  47.5308809  20.6744653  32.2401228  56.1551260  18.8748786
  31.5230538  55.9812122  18.4096023  32.8907965  55.9203832  18.3424272
  32.2303078  56.0947053  18.7278004  34.8249199  45.0315849  22.6190091
  34.1540389  45.5745551  22.4903156  35.5188949  45.5010704  22.3771786
  34.8278067  45.1814120  22.5645619  28.8735933  57.1712561  27.8501849
  28.6501587  56.4131390  28.2185875  28.3845776  57.2010582  27.1282289
  28.7679382  57.0634785  27.7978590  34.9877327  41.4871732  25.5280464
  35.3404937  41.0601455  26.2026263  34.1292128  41.4022576  25.6581540
  34.9126771  41.4116473  25.6475474  23.6861011  44.1179252  23.5863311
  22.9673001  44.5343385  23.8536174  24.0573374  44.6833491  23.0354949
  23.6352943  44.2628533  23.5446117  27.5214390  57.3913019  25.3038934
  27.1074788  56.7287149  24.9142775  28.2061764  57.5390878  24.7834628
  27.5612761  57.3153677  25.1695431  30.8879684  56.5503104  26.0562550
  30.4895967  56.6605374  25.2883371  30.2730903  56.7585170  26.6389110
  30.7378573  56.5976672  26.0293850  29.4607586  43.1577252  18.9236690
  28.8672425  43.4794248  18.3721257  29.4982864  42.3118347  18.7157796
  29.3781975  43.0801580  18.8119461  32.3365402  43.1156756  22.3538440
  32.1079095  43.1389458  21.5116798  32.5963479  42.2914223  22.4733451
  32.3411590  42.9972836  22.2463638  25.3910165  41.6533303  23.6492636
  25.8667531  42.0150383  23.0142817  24.8898765  42.3089770  23.9292779
  25.3875524  41.8027491  23.5969377  18.3652410  46.3175670  29.8654392
  17.8179130  45.6476316  29.9835260  19.1544788  45.9505518  29.9297859
  18.4004594  46.1640657  29.8923093  27.4336818  43.7974502  17.0166020
  27.8135783  43.8154132  16.2317135  26.6929414  44.2428491  16.8956867
  27.3805656  43.8656277  16.8829588  35.0622109  42.1056694  22.6041599
  35.0616335  41.9505350  23.4625875  34.8578289  42.9519681  22.5482984
  35.0321886  42.2077314  22.7229538  17.1239380  45.5296478  27.0200415
  16.9461141  45.0773087  27.7455331  16.8358402  46.3322640  27.2038893
  17.0552333  45.5819036  27.1543918  28.2321572  50.6352009  18.4074810
  27.4232895  50.3118682  18.3608119  28.7396481  49.9285231  18.3403059
  28.1871239  50.4833325  18.3905104  18.8611849  48.0624202  24.1322174
  17.9957369  48.0509892  24.0204945  18.9610665  47.8754425  24.9793313
  18.7486016  48.0330263  24.2411119  24.4868859  57.8322101  27.7052280
  24.8015418  58.6458489  27.7130061  24.8962273  57.4472319  28.3734439
  24.5936957  57.8950803  27.8056371  31.4393379  53.2492147  25.2756092
  31.9104557  53.9632410  25.4446077  31.7753557  52.6490897  25.8115961
  31.5588494  53.2663612  25.3788468  27.4255989  40.0236031  19.6993651
  28.2471683  40.1934344  19.4575346  26.9625640  40.1783292  18.9759949
  27.4787151  40.0717764  19.5565296  21.8281879  51.7795209  27.3530888
  22.4326737  51.7391043  26.7244709  21.6209192  52.6266361  27.3834944
  21.8870777  51.8983211  27.2647005  17.0633162  50.7629826  27.2229811
  16.9657440  49.9526098  27.5319868  17.8462031  50.7421620  26.8376079
  17.1649298  50.6396917  27.2116674  35.6980127  70.3264375  22.0526164
  34.9463026  69.9479913  21.8242209  36.1466138  70.3582808  21.3044974
  35.6529793  70.2749982  21.9083666  44.6232703  67.0588182  35.8949388
  45.3299471  66.5640213  36.0236323  44.8120639  67.4997264  35.1652046
  44.7560609  67.0506533  35.8058434  41.1505086  70.7489744  17.4811711
  40.8156455  71.4266666  17.0455933  41.6631957  70.3595055  16.8928583
  41.1770668  70.7914322  17.3298502  40.6909378  72.7004013  23.4222822
  41.0748757  73.2690912  22.8827598  40.6268519  71.9753523  22.9428639
  40.7382805  72.6779476  23.2716685  44.1590808  62.8493701  28.9320584
  44.7046768  63.5278787  28.9914554  44.1007684  62.7081162  28.0722165
  44.2306722  62.9285702  28.8132644  37.2764883  70.3382767  24.3188936
  37.3775246  69.5283121  24.6286064  36.6806628  70.2439713  23.6888615
  37.2037421  70.2047795  24.2715175  45.9355877  64.2778308  19.8054312
  45.8195402  65.0285994  20.2346450  46.7311763  64.0202261  20.0550399
  46.0360466  64.3513155  19.9058403  37.1165622  75.2560356  25.7203792
  37.7603078  75.6973520  26.1099951  37.4421878  74.4513782  25.6334051
  37.2597451  75.2025551  25.7649270  30.4729927  66.3603053  23.9441270
  30.2380111  65.5270706  23.8373539  30.6115568  66.6407719  23.1302471
  30.4585589  66.2786557  23.8083625  32.7720014  58.5288784  26.8425578
  32.1525046  57.9381431  26.6735592  32.6703878  59.1200219  26.2089901
  32.6657690  58.5292867  26.7230567  37.8186202  68.2672331  21.0923654
  38.1402043  68.8077538  20.4884962  38.4658299  67.6969102  21.2245944
  37.9612257  68.2631506  21.0230689  39.8687910  60.2688326  21.1758041
  40.5668075  60.4476453  21.6679504  40.1840243  59.7458665  20.5528430
  40.0183247  60.2182098  21.1560051  40.0575845  66.6558771  21.1637832
  40.4969481  66.0475871  21.6092605  39.9080508  66.2766144  20.3923297
  40.0997311  66.5097242  21.1157000  40.0633580  68.0957689  28.0163550
  40.3456823  67.3009094  27.7950306  40.7919740  68.5738276  28.0368611
  40.2123144  68.0492285  27.9866565  43.6585182  65.0085952  18.1168601
  43.5736477  65.8646919  18.2618170  44.1469565  64.7330276  18.7850761
  43.7174079  65.0943274  18.2370683  44.5903615  61.6270746  19.6166337
  44.0615087  61.8430380  20.2763643  45.1128635  62.3206885  19.5367306
  44.5892068  61.7613883  19.7021936  36.4803223  65.5233963  18.4173805
  35.8960438  66.0283994  18.8239668  36.0773318  65.2976350  17.6770397
  36.3342527  65.5642211  18.3678830  32.0347252  71.2388724  25.2197476
  31.5514830  71.9639214  25.1957060  32.8470570  71.5364854  25.3307634
  32.0837999  71.3891078  25.2324755  38.1061406  70.0320905  27.8247291
  37.5888347  69.6728320  27.2208599  38.8035797  69.5083079  27.8353357
  38.1326987  69.9018593  27.7377549  41.7624998  70.4815719  33.7863464
  41.8508344  70.2941859  34.6341674  42.1914710  69.8353149  33.3868310
  41.8387100  70.3578727  33.8535215  39.3295457  69.7646879  32.7681126
  38.7666292  69.3519489  33.2920787  40.0916481  69.6899785  33.1874269
  39.3589906  69.6924279  32.9074126  40.9380437  61.7699615  16.8942725
  41.1776441  61.9777599  16.0818068  41.2596278  60.9657124  17.0031670
  41.0217595  61.6813716  16.7903278  34.8891449  71.7544900  25.3717756
  35.5912028  71.2396889  25.4290513  34.8088932  72.0819051  26.1764631
  34.9815209  71.7259126  25.4990548  34.6027792  56.1063330  17.4380376
  34.4203366  56.3235211  16.6121369  35.4653405  56.2202343  17.4938991
  34.7032382  56.1553228  17.3234863  34.2142224  67.9451252  24.8803364
  35.0531124  68.1774185  24.9277126  34.2453994  67.0755564  24.8110399
  34.3423942  67.8508199  24.8768009  34.8394927  68.3652127  29.1816670
  35.3793152  68.2223258  29.8520042  34.1564874  68.7648878  29.5500696
  34.8187081  68.4031798  29.3351091  44.2635812  64.0443128  24.3761694
  45.0193327  64.4774642  24.4150603  44.3698137  63.3947898  24.9496330
  44.3905983  64.0120612  24.4659719  47.3015983  67.8716405  25.1264097
  46.8651215  67.8753148  25.8823068  46.9678899  68.5521904  24.6943674
  47.1878603  67.9728861  25.1744929  41.8745057  69.9124738  36.4507247
  42.6585474  70.0255586  36.8162989  41.6741652  69.0865875  36.6465933
  41.9611082  69.8071457  36.5341633  34.1489819  59.3837503  15.9502849
  33.4347997  59.0975682  16.3625282  34.6333788  59.7234128  16.5909237
  34.1149183  59.3919152  16.1058484  42.0315450  71.8234840  30.0973703
  41.2330696  71.5834340  30.3547571  42.4801462  71.8749233  30.8440750
  41.9790062  71.7957231  30.2458627  41.3237137  67.8867456  16.3264657
  41.7388286  67.5552480  15.6349153  40.4929067  67.6536359  16.1984794
  41.2625146  67.8038712  16.2055505  30.6525486  65.3711198  26.6162835
  30.4701059  65.3458084  25.7635128  31.3875155  65.8410135  26.6551744
  30.7339550  65.4372560  26.4960754  46.7225160  65.6062707  23.7595723
  46.9580749  65.7507906  22.9322574  46.8714724  66.3705115  24.1527237
  46.7790964  65.7401762  23.6959327  48.5515617  64.4464373  21.5965327
  48.8823834  64.9792014  20.9905422  49.1248705  64.5003261  22.2527278
  48.6849296  64.5333942  21.6043108  41.0916187  65.5695285  37.9893891
  40.2989168  65.8838797  38.1746511  41.2065114  65.7846753  37.1514676
  40.9911598  65.6479122  37.8932226  43.7647506  62.2929276  22.2788907
  43.8594361  63.0318570  22.7328532  43.1406350  61.8646752  22.7123471
  43.6856536  62.3390597  22.4097054  42.0199980  65.4715489  32.9279188
  42.5938842  64.8342733  33.0827752  41.9414784  65.4719571  32.0588845
  42.0933215  65.3780600  32.8225599  44.0170527  64.1378016  15.5125859
  43.9350690  64.2080203  16.3780846  44.6550248  64.7007760  15.3209599
  44.0990365  64.2316987  15.6115808  37.3763699  63.9038754  24.9800385
  37.1182943  63.0710489  24.9531685  37.4312181  64.1296367  24.1392886
  37.3463476  63.8136525  24.8520522  36.3498411  61.4576516  25.4665280
  35.7748002  61.6168685  26.1029241  35.9734087  60.8211925  25.0033730
  36.2101223  61.3874329  25.4919838  26.0955230  61.1016591  23.4809720
  26.1815481  60.7248459  24.2623250  26.7231027  60.7277037  23.0029679
  26.2011781  60.9902073  23.5255198  41.1210638  64.1598470  18.5234465
  41.9351276  64.4513363  18.4117237  41.0569779  63.5058333  17.9492758
  41.2313377  64.1063665  18.4223303  36.9918546  67.6319988  23.6506777
  37.6292493  67.3931735  24.1958571  37.4173617  67.8357147  22.9159938
  37.1494712  67.6270998  23.6223935  31.6831188  69.8708324  27.5341081
  31.7235334  70.1423175  26.7060861  32.2425712  70.3950232  27.9498869
  31.7714534  69.9884079  27.4732969  37.6321361  62.8522277  17.9881667
  38.0166514  62.6329984  18.7398212  37.3832981  63.6785223  18.1182743
  37.6523434  62.9420424  18.1182743  39.3740018  68.1092410  25.3300564
  39.4479026  67.9467582  26.1842414  40.1909524  68.2982600  25.0861045
  39.5056376  68.1129153  25.4198589  33.1345775  68.4550273  22.3595007
  32.3083892  68.7012010  22.2329286  33.1957766  68.3762354  23.2257065
  33.0219942  68.4795222  22.4683952  37.9144604  71.0727153  20.0614037
  38.2042902  70.6816135  19.3373264  38.6448084  71.2543858  20.5019312
  38.0651488  71.0420967  20.0196844  38.5039349  65.8744899  31.1467168
  38.0051042  66.5860667  31.2252056  39.3139573  66.1945566  31.1085330
  38.5495455  66.0271748  31.1523736  35.8550519  73.0494536  23.1274187
  35.6350815  72.7591890  23.9200854  35.6345041  72.3909491  22.5992099
  35.7898113  72.9094244  23.1663095  34.7667466  65.1367852  25.3929888
  34.4780715  64.5105323  25.9275616  35.6350814  65.0788140  25.4594569
  34.8527718  65.0355396  25.4820843  38.0218475  74.4223926  21.9104879
  38.6742533  73.8900368  22.1395905  37.3244084  74.0692578  22.2972753
  38.0149193  74.2913449  22.0017047  34.9699740  66.7763103  21.3172253
  35.7245708  67.1576142  21.5307716  34.3770352  67.2274247  21.7718950
  34.9936453  66.8991931  21.4155132  46.0158393  66.7428340  21.2535858
  46.5816426  67.4021550  21.1694401  45.3686297  67.0878038  21.7252261
  46.0037150  66.8910281  21.3108615  36.2897966  67.9471665  26.6912369
  35.7678720  68.0871956  27.3764234  36.6771987  67.1882329  26.8814486
  36.2701667  67.8557188  26.8213445  33.2789150  57.9977473  20.7607324
  32.9913946  57.6278744  20.0239271  33.9659619  58.4672329  20.4991028
  33.3378048  58.0124443  20.6122399  42.4864971  69.6867124  20.6772938
  42.2451647  68.9534985  20.2700003  42.6666304  70.2353981  20.0239271
  42.4772595  69.6589515  20.5203161  37.7164292  64.9775684  22.0893860
  37.5207075  65.5850418  21.4954163  37.9398638  64.2843628  21.6085534
  37.7198933  64.9653209  21.9309941  36.1142822  61.8630422  22.2074728
  36.8365474  62.0271580  21.7478534  35.6350815  62.5840086  22.1014068
  36.1506553  61.9928651  22.1240342  30.8517345  58.7758686  21.6092605
  30.9533481  59.5784847  21.9373580  31.6473232  58.5746022  21.3115685
  30.9845251  58.8644585  21.6127960  45.7167718  67.4356314  27.2844996
  45.5782078  68.1337359  27.7893738  44.9367716  67.2804970  26.9281177
  45.5810945  67.5156480  27.3071270  44.0545803  63.7352689  33.5367377
  44.0493842  62.8632505  33.5409804  44.7606797  63.9340858  33.0636833
  44.1590807  63.6356563  33.4674413  36.8544452  71.6532445  29.7742224
  37.0034015  71.0935361  29.1215629  37.6344454  71.7324446  30.1574743
  36.9918545  71.5818010  29.7339173  47.2121091  66.7934567  18.0461495
  46.8327900  66.0071705  18.0390784  46.5487337  67.3421424  17.9033139
  47.0579566  66.7579391  18.0242292  39.3797752  71.8247088  31.0526715
  39.3041423  71.1555898  31.6077503  39.3087611  72.5264876  31.5667381
  39.3578359  71.8291995  31.2103563  40.0367999  70.3448086  21.8850321
  40.8017890  70.0757730  21.5632985  39.9346089  69.8598097  22.6020384
  40.1349495  70.2337651  21.9430149  42.5586660  67.3760270  13.8650270
  43.3259645  67.4360395  13.4556122  42.1117969  66.8040712  13.3806589
  42.6060087  67.2996846  13.7327981  43.4564455  66.1814926  26.1503003
  42.7809457  65.9500158  26.6516390  43.4656831  65.5736109  25.5245108
  43.3582960  66.0573851  26.1319155  45.4581190  69.0380058  18.3813181
  45.5401027  69.8447045  18.0574632  45.9430932  69.0576018  19.1053954
  45.5418348  69.1600721  18.4400079  39.2677693  63.7164894  27.0483259
  38.8439942  63.9169393  26.3122277  39.0922548  62.8693742  27.1607559
  39.1788574  63.6213676  26.9556949  38.7689387  75.2315407  29.5104716
  39.2585317  74.5326197  29.3280381  38.1973619  74.9339277  30.0980773
  38.7573917  75.0841631  29.5705757  34.5560138  64.2116946  22.4811231
  34.7124757  64.1463749  23.3367223  34.8960731  64.9865498  22.2689911
  34.6293373  64.3166144  22.5765825  41.0939283  63.5874829  21.3504594
  41.6354828  63.0845210  21.8143215  41.4085842  63.5340024  20.5394080
  41.2203680  63.5054250  21.2988407  44.9656390  67.7977477  38.4631507
  45.7791255  67.5262626  38.6236639  44.8051357  67.4985017  37.6591703
  45.0626339  67.7132403  38.3676912  39.2625733  68.9792181  18.6344622
  39.3318553  68.1206719  18.7737623  40.0414188  69.1964062  18.3063647
  39.3878583  68.8845045  18.6061780  43.6533220  71.4029882  22.8481116
  43.2613012  71.0996597  22.1303982  43.8086292  72.2398972  22.6586070
  43.6186810  71.4813719  22.7137613  31.1294400  61.3951896  22.7971998
  31.5093365  61.8136441  22.1332266  30.5549764  61.9765352  23.1040842
  31.1005725  61.5429755  22.7448739  43.8172895  67.9679871  22.7887146
  43.4587550  68.1394514  23.5651179  43.3311606  68.4293077  22.2315145
  43.6931592  68.0618842  22.8212415  38.6061260  63.6479036  15.3287381
  38.8953785  64.4243919  15.6030955  38.6933059  63.1367768  16.0301880
  38.6615516  63.6870955  15.4729879  44.9777634  68.8583767  33.7354347
  45.6157355  68.3643963  33.4016803  44.3351726  68.7861167  33.1506574
  44.9771861  68.7742775  33.5996702  45.0331891  69.5503575  30.3759704
  45.8224269  69.1992640  30.4961786  45.2075489  70.3639964  30.1136338
  45.1752172  69.6189432  30.3547572  32.2500768  60.5831838  25.2572243
  31.8557466  60.6574850  24.4822353  31.6940885  60.9689784  25.8080605
  32.1103581  60.6513613  25.2239903  37.6407963  58.1994220  21.2429792
  37.9167698  57.4813133  20.8307360  38.2406633  58.7979140  21.0350898
  37.7701228  58.1814591  21.1510553  36.6460217  68.1043421  31.3857188
  36.5380572  68.1145483  32.2519246  36.8555999  68.9298201  31.1962142
  36.6610328  68.2284496  31.4861280  44.4223525  70.8065375  26.2811150
  44.2243214  71.2956189  25.5867361  43.8011236  71.0106616  26.8595284
  44.3011090  70.9081913  26.2634373  38.4831504  62.5750272  20.6221394
  39.2273549  62.9624548  20.8604344  38.6292200  61.7307697  20.7861882
  38.6142089  62.5080744  20.6815364  46.3397327  64.3729527  31.8156398
  47.0631526  63.9202054  31.6367418  46.0747290  64.6534193  31.0328726
  46.4078601  64.3480496  31.6735114  35.3925944  57.3114819  14.6081963
  35.0438749  57.9634544  15.0713512  34.9122390  57.2971932  13.8805834
  35.2696188  57.4057873  14.5693054  42.9529962  67.6115863  18.7150725
  43.6764161  68.0773976  18.5715298  42.5130553  67.6789473  17.9648322
  42.9945654  67.6899700  18.5835506  42.1216117  64.4713405  29.9651414
  41.5073110  63.9271456  30.2600049  42.6383402  63.9577642  29.4857230
  42.1071779  64.3149814  29.9375642  41.3612414  65.5417675  27.6995712
  40.9340022  64.9167394  27.2661148  41.3537358  65.2592597  28.5254719
  41.2971555  65.4070456  27.7575540  27.2005713  63.7017925  27.3481390
  27.0949163  63.6564769  26.4833474  26.4505933  64.0471706  27.6295675
  27.0741316  63.7458833  27.2618720  38.1529059  64.7117988  35.3964285
  37.3024689  64.8489702  35.5321930  38.3157186  63.9781766  35.8411987
  38.0512922  64.6232089  35.4819884  35.7649853  59.9373350  20.1208007
  35.9052814  60.4345814  20.8236649  36.2632386  59.2359644  20.2622221
  35.8590934  59.9075328  20.2459586  35.7950075  60.8040461  17.4500584
  36.4295155  61.4000886  17.3850046  35.8775686  60.5043918  18.2646454
  35.9006626  60.8481369  17.5603671  37.3729058  56.7354436  17.4246026
  37.6944899  56.2557519  16.7705288  37.6356002  57.5454082  17.2336838
  37.4595084  56.7844334  17.3001518  40.6026031  67.7573310  30.9444842
  40.0951122  68.3109157  31.3885473  40.3052677  67.8181600  30.1263617
  40.4830916  67.8479622  30.8893299  32.3003063  63.0008301  20.7190130
  32.8095293  63.5972809  21.1001436  32.7737336  62.7334275  20.0366550
  32.4446439  63.0494117  20.6744653  43.2133811  71.6736568  18.8748786
  42.4963121  71.4997430  18.4096023  43.8640549  71.4389140  18.3424272
  43.2035662  71.6132361  18.7278004  39.8468516  72.6897869  27.8501849
  39.6234171  71.9316698  28.2185875  39.3578360  72.7195890  27.1282289
  39.7411965  72.5820093  27.7978590  34.6593595  59.6364560  23.5863311
  33.9405584  60.0528693  23.8536174  35.0305957  60.2018799  23.0354949
  34.6085527  59.7813841  23.5446117  41.9039506  66.8579601  35.4013783
  41.8635361  66.2129278  34.8158939  42.7162824  66.8016218  35.7139195
  42.0182659  66.7538568  35.3610732  38.4946973  72.9098327  25.3038934
  38.0807372  72.2472457  24.9142775  39.1794348  73.0576186  24.7834628
  38.5345345  72.8338985  25.1695431  41.8612267  72.0688412  26.0562550
  41.4628551  72.1790682  25.2883371  41.2463487  72.2770478  26.6389110
  41.7111157  72.1161980  26.0293850  40.4340169  58.6762560  18.9236690
  39.8405009  58.9979556  18.3721257  40.4715447  57.8303655  18.7157796
  40.3514559  58.5986888  18.8119461  49.5954110  66.6440379  19.4405641
  49.9787716  67.3931735  19.6703738  48.7998223  66.8906198  19.1817630
  49.5347892  66.7910073  19.4363214  29.3384994  61.8360978  29.8654392
  28.7911713  61.1661624  29.9835260  30.1277372  61.4690826  29.9297859
  29.3737177  61.6825965  29.8923093  38.4069402  59.3159810  17.0166020
  38.7868367  59.3339440  16.2317135  37.6661998  59.7613799  16.8956867
  38.3538239  59.3841585  16.8829588  28.0971963  61.0481786  27.0200415
  27.9193724  60.5958395  27.7455331  27.8090985  61.8507947  27.2038893
  28.0284916  61.1004344  27.1543918  43.7595544  62.3039503  26.2577805
  44.2549210  61.5862498  26.2181826  42.9495320  62.0010301  26.1432292
  43.7139438  62.1537150  26.2351531  39.2054156  66.1537317  18.4074810
  38.3965478  65.8303990  18.3608119  39.7129065  65.4470539  18.3403059
  39.1603823  66.0018633  18.3905104  29.8344433  63.5809510  24.1322174
  28.9689952  63.5695200  24.0204945  29.9343249  63.3939733  24.9793313
  29.7218600  63.5515571  24.2411119  35.4601443  73.3507408  27.7052280
  35.7748002  74.1643797  27.7130061  35.8694856  72.9657627  28.3734439
  35.5669541  73.4136111  27.8056371  42.4125963  68.7677455  25.2756092
  42.8837141  69.4817718  25.4446077  42.7486141  68.1676205  25.8115961
  42.5321078  68.7848919  25.3788468  44.5002947  70.3778769  37.4548164
  44.6099913  69.5887329  37.8104911  44.8293844  70.2884705  36.6522502
  44.5655353  70.2484621  37.3890554  43.0499909  68.5595389  32.0383784
  42.5020855  67.9353273  31.7703850  43.5112938  68.7489661  31.3227864
  43.0367118  68.4954440  31.8934215  38.3988572  55.5421339  19.6993651
  39.2204267  55.7119652  19.4575346  37.9358223  55.6968600  18.9759949
  38.4519735  55.5903072  19.5565296  32.8014463  67.2980517  27.3530888
  33.4059320  67.2576351  26.7244709  32.5941776  68.1451669  27.3834944
  32.8603360  67.4168519  27.2647005  42.6158235  69.5646462  28.5693125
  43.4356609  69.4209428  28.8309421  42.3352313  70.1892661  29.1109563
  42.6954979  69.6356814  28.6881065  28.0365745  66.2815134  27.2229811
  27.9390023  65.4711406  27.5319868  28.8194615  66.2606928  26.8376079
  28.1381882  66.1582225  27.2116674  52.2871570  76.3086965  26.2888932
  51.4309466  76.4695463  26.3398049  52.3339224  75.4379029  26.3093993
  52.1670682  76.2037767  26.2994998  55.5965287  82.5773490  35.8949388
  56.3032054  82.0825521  36.0236323  55.7853222  83.0182572  35.1652046
  55.7293193  82.5691841  35.8058434  55.1323391  78.3679009  28.9320584
  55.6779351  79.0464095  28.9914554  55.0740268  78.2266470  28.0722165
  55.2039306  78.4471010  28.8132644  43.7452598  74.0474092  26.8425578
  43.1257630  73.4566739  26.6735592  43.6436462  74.6385527  26.2089901
  43.6390274  74.0478174  26.7230567  50.8420494  75.7873634  21.1758041
  51.5400658  75.9661761  21.6679504  51.1572826  75.2643973  20.5528430
  50.9915831  75.7367406  21.1560051  43.4721731  77.5926374  29.0869147
  43.3480428  78.1788819  29.7218965  44.1240016  77.0986569  29.3881422
  43.5495380  77.6065178  29.2255076  48.4980072  80.7688091  28.3656658
  49.1429075  80.2760534  28.0467606  48.7381849  80.9112877  29.1922736
  48.6290657  80.7165533  28.4406191  51.0366163  83.6142996  28.0163550
  51.3189406  82.8194402  27.7950306  51.7652324  84.0923584  28.0368611
  51.1855727  83.5677593  27.9866565  49.0147357  71.1566030  25.2579315
  48.6850687  71.6077174  24.5883014  48.3392359  71.0782194  25.8052322
  48.8657794  71.2117166  25.2402539  56.2223765  67.1451553  23.5028926
  55.9077206  67.8355032  23.9349348  55.7050707  67.0896336  22.8014427
  56.0988235  67.2386442  23.4625875  47.2203311  69.2178319  20.7402263
  47.9749279  69.5856636  20.5019313  47.0430846  69.5917873  21.5081443
  47.3057790  69.3276507  20.8187152  60.5138210  75.3672759  28.7849802
  59.6766631  75.4374946  29.0197397  60.4826441  75.3697254  27.9124105
  60.3856492  75.3782986  28.6909350  46.9102939  77.5105795  34.4998171
  47.0823443  77.4011690  35.3483452  47.4472297  78.1560200  34.2629363
  47.0147943  77.5897797  34.5903268  45.5760376  71.6248638  17.4380376
  45.3935949  71.8420519  16.6121369  46.4385989  71.7387651  17.4938991
  45.6764965  71.6738536  17.3234863  51.2560095  68.6275048  20.4729400
  51.9846256  68.4491003  20.0267556  51.3454988  69.4693128  20.6836578
  51.3766757  68.7258927  20.4382918  55.2368396  79.5628436  24.3761694
  55.9925911  79.9959950  24.4150603  55.3430720  78.9133206  24.9496330
  55.3638566  79.5305920  24.4659719  41.2164656  80.1037726  29.3351091
  40.9503071  79.2876843  29.4942081  41.2303220  80.1490882  28.4646607
  41.1789378  79.9894631  29.2304573  58.1946050  70.4315541  27.3693525
  58.8371958  70.5013646  27.9555440  58.4469071  69.7644764  26.8673067
  58.3268182  70.3441890  27.3820804  45.1222403  74.9022810  15.9502849
  44.4080580  74.6160990  16.3625282  45.6066372  75.2419436  16.5909237
  45.0881766  74.9104460  16.1058484  45.9663262  73.6416104  31.9818099
  45.2735059  73.1713084  32.2278830  46.5823590  73.4154409  32.5559806
  45.9547792  73.5383236  32.1027251  41.6258070  80.8896505  26.6162835
  41.4433643  80.8643391  25.7635128  42.3607739  81.3595443  26.6551744
  41.7072134  80.9557868  26.4960754  44.6903821  77.6081508  33.1244944
  45.4143794  77.5934539  33.6109839  44.7919958  78.3176864  32.6266912
  44.8122030  77.7106211  33.1223731  52.0648771  81.0880593  37.9893891
  51.2721752  81.4024105  38.1746511  52.1797698  81.3032061  37.1514676
  51.9644181  81.1664430  37.8932226  54.7380090  77.8114584  22.2788907
  54.8326944  78.5503878  22.7328532  54.1138933  77.3832060  22.7123471
  54.6589120  77.8575905  22.4097054  52.9932564  80.9900797  32.9279188
  53.5671425  80.3528041  33.0827752  52.9147367  80.9904879  32.0588845
  53.0665798  80.8965908  32.8225599  41.5928980  77.7690006  26.7661902
  42.1702483  77.6326457  27.4054147  40.8943042  77.3125790  27.0207486
  41.5750001  77.6812272  26.8984192  48.3496282  79.4224062  24.9800385
  48.0915526  78.5895797  24.9531685  48.4044765  79.6481675  24.1392886
  48.3196060  79.3321833  24.8520522  53.4297332  71.5252512  25.0804478
  52.7253659  71.0361698  25.2388397  53.4782307  71.5374987  24.2092922
  53.3327384  71.4542160  24.9743818  47.3230994  76.9761824  25.4665280
  46.7480586  77.1353993  26.1029241  46.9466671  76.3397233  25.0033730
  47.1833807  76.9059637  25.4919838  50.9904283  75.4485174  30.3257658
  50.6018716  75.0239391  29.6709850  50.3258981  75.6967323  30.8334685
  50.8351211  75.4223895  30.3045526  60.6327552  75.2060178  23.1005488
  60.3764117  74.3940120  22.9103371  61.4756866  75.2137745  22.8735676
  60.7193578  75.0872176  23.0390305  37.0687813  76.6201899  23.4809720
  37.1548065  76.2433767  24.2623250  37.6963611  76.2462345  23.0029679
  37.1744364  76.5087381  23.5255198  47.9651130  83.1505296  23.6506777
  48.6025076  82.9117043  24.1958571  48.3906201  83.3542454  22.9159938
  48.1227296  83.1456306  23.6223935  48.6053945  78.3707585  17.9881667
  48.9899097  78.1515292  18.7398212  48.3565565  79.1970531  18.1182743
  48.6256017  78.4605732  18.1182743  48.7722485  71.6514001  37.7044251
  48.4575926  72.4213563  37.4413814  48.4512418  71.0884257  37.1196478
  48.6781404  71.6824269  37.5785601  50.3472601  83.6277718  25.3300564
  50.4211610  83.4652890  26.1842414  51.1642108  83.8167908  25.0861045
  50.4788960  83.6314461  25.4198589  46.3254382  70.0404522  23.3190447
  45.4576807  70.1127121  23.3848057  46.6129586  70.8426601  23.5078422
  46.2394130  70.1698669  23.3565214  55.4487271  70.1882381  31.6501769
  56.1940863  69.9992192  31.2365195  55.0324575  70.7140619  31.0915625
  55.4972245  70.2384527  31.5066342  62.8249542  77.5591610  26.6007274
  63.3757463  76.9259679  26.8404366  62.8093657  78.0907003  27.2922778
  62.9034738  77.5440558  26.7386132  49.4771932  81.3930207  31.1467168
  48.9783626  82.1045975  31.2252056  50.2872157  81.7130874  31.1085330
  49.5228039  81.5457056  31.1523736  45.7400050  80.6553160  25.3929888
  45.4513299  80.0290631  25.9275616  46.6083398  80.5973448  25.4594569
  45.8260302  80.5540704  25.4820843  56.5277948  75.7987944  25.7111870
  56.1842714  75.0778279  26.0619120  56.6270990  75.5901795  24.8690229
  56.4919991  75.6612147  25.6383550  45.9432323  82.2948411  21.3172253
  46.6978291  82.6761450  21.5307716  45.3502936  82.7459555  21.7718950
  45.9669037  82.4177239  21.4155132  48.4038990  74.2511252  36.4429466
  47.5938766  74.5569031  36.3319308  48.8813677  74.9716834  36.5582050
  48.3542469  74.4025853  36.4436537  44.2521734  73.5162781  20.7607324
  43.9646530  73.1464052  20.0239271  44.9392202  73.9857637  20.4991028
  44.3110631  73.5309751  20.6122399  48.6896876  80.4960992  22.0893860
  48.4939658  81.1035726  21.4954163  48.9131221  79.8028936  21.6085534
  48.6931517  80.4838517  21.9309941  47.0875406  77.3815730  22.2074728
  47.8098057  77.5456888  21.7478534  46.6083398  78.1025394  22.1014068
  47.1239136  77.5113959  22.1240342  55.0468913  73.7179528  27.5871413
  54.2080014  73.7440807  27.3509676  55.1173280  74.3650264  28.1676760
  54.9337307  73.8175654  27.6380530  44.7383022  79.7873802  31.3128868
  45.2504119  80.0658055  30.6637628  44.4519365  80.5263096  31.6791681
  44.7717885  79.9376156  31.2718746  53.4938191  70.6164905  22.3199029
  54.1964544  70.4172654  21.8418987  53.2282380  69.8440848  22.6267873
  53.5584824  70.4727871  22.2944471  58.9226437  78.9247515  24.8732655
  58.8360412  79.0802941  25.7267434  58.4676917  79.5685591  24.4992060
  58.8429694  79.0423270  24.9439762  41.8249929  74.2943994  21.6092605
  41.9266065  75.0970155  21.9373580  42.6205815  74.0931330  21.3115685
  41.9577834  74.3829893  21.6127960  48.2566748  71.8800191  31.3729910
  48.0649945  71.8955325  32.2229333  49.1065344  72.0763865  31.3496565
  48.3542470  71.9114542  31.4953204  42.6413661  74.4091172  29.3513726
  42.4999152  73.5575113  29.4758234  42.9254224  74.4519833  28.5275932
  42.6621507  74.2890922  29.2481350  52.7952253  76.2458262  23.4958214
  52.5486967  76.1654013  24.3295003  53.1237376  75.4611730  23.3020742
  52.8073497  76.1184528  23.5905738  55.0278387  79.2537997  33.5367377
  55.0226425  78.3817813  33.5409804  55.7339381  79.4526166  33.0636833
  55.1323391  79.1541871  33.4674413  48.7549280  78.9814981  32.9081198
  48.8992656  79.5616189  32.2724308  49.1024929  79.3591277  33.6131052
  48.8276742  79.1235685  32.9180192  50.9269198  78.1805149  30.6906329
  50.1792512  78.3736164  30.2854607  51.0810723  77.3550369  30.4530450
  50.8391625  78.0870261  30.5951735  51.1670975  72.0755700  31.5801733
  51.6243589  72.8079674  31.7074525  51.2427303  71.6522165  32.3388989
  51.2461945  72.1212938  31.7102809  43.4103966  72.3221520  32.6691177
  42.8746155  71.7101878  32.9851944  43.4721731  72.8969656  33.3224843
  43.3399599  72.3168447  32.8126603  55.6398301  65.2545575  25.4495576
  55.7581869  65.7122038  24.7162878  55.4660476  64.4490836  25.1631793
  55.6317472  65.2039347  25.2996509  49.0453353  74.0657804  28.4243557
  48.2549427  73.8849264  28.7460893  49.4413975  73.2884756  28.4073851
  48.9870229  73.9245265  28.4696105  54.4297039  81.7000234  26.1503003
  53.7542041  81.4685466  26.6516390  54.4389415  81.0921417  25.5245108
  54.3315543  81.5759159  26.1319155  51.5591183  76.5418063  32.9067056
  51.4950324  77.4028019  32.7787192  51.6988371  76.2250056  32.1062607
  51.5706653  76.6218230  32.7695269  50.2410277  79.2350202  27.0483259
  49.8172526  79.4354701  26.3122277  50.0655132  78.3879050  27.1607559
  50.1521157  79.1398984  26.9556949  45.5292722  79.7302254  22.4811231
  45.6857341  79.6649056  23.3367223  45.8693315  80.5050806  22.2689911
  45.6025957  79.8351452  22.5765825  52.0671866  79.1060137  21.3504594
  52.6087412  78.6030518  21.8143215  52.3818425  79.0525332  20.5394080
  52.1936263  79.0239558  21.2988407  53.2161136  73.9996442  31.4026895
  53.4303105  73.3607356  30.8490249  52.5995035  74.4442266  30.9734757
  53.1566465  73.9706585  31.2577326  42.1026983  76.9137204  22.7971998
  42.4825948  77.3321749  22.1332266  41.5282348  77.4950660  23.1040842
  42.0738308  77.0615063  22.7448739  55.3800224  75.6085507  32.3410202
  54.5676905  75.3011397  32.4223375  55.8390158  75.1284507  32.9052914
  55.3280609  75.4921999  32.4364796  52.4753731  77.0145578  37.1238904
  52.9453362  77.6387695  37.5106778  52.5215611  76.3462554  37.6832119
  52.5521607  77.0080259  37.2638976  49.6325005  69.1202606  27.8487708
  49.1163493  68.4282797  27.9739287  49.0718934  69.7873383  27.7950307
  49.4731518  69.1165864  27.8593774  51.7017238  69.6595566  29.6780561
  51.3148991  69.6844597  30.4594091  51.2150176  69.0937245  29.2255077
  51.5729747  69.5791317  29.7268464  57.6767218  76.2258221  28.3020263
  57.2494826  76.1384569  27.5468362  57.0393271  76.3335996  28.8875107
  57.5196825  76.2290881  28.2765704  51.1688295  71.3333746  34.2417232
  51.9961724  71.0618895  34.2975847  51.1896141  72.1294588  34.5981050
  51.2941145  71.4113500  34.3032415  45.7457785  78.4797609  27.4287493
  44.9045791  78.3801483  27.6366387  45.9547793  79.2493089  27.7801813
  45.6522477  78.5789652  27.5114808  43.2233352  76.1017146  25.2572243
  42.8290049  76.1760158  24.4822353  42.6673469  76.4875092  25.8080605
  43.0836164  76.1698920  25.2239903  54.8598299  69.0798440  24.9376122
  55.0647892  69.0120748  25.7833120  54.5324723  69.8857261  24.8697300
  54.8413546  69.1884380  25.0535777  49.5574450  76.4079008  26.6785090
  49.2537587  75.8534996  27.2795498  48.8553870  76.5871218  26.1913125
  49.4090659  76.3523790  26.6954796  48.6140547  73.7179528  21.2429792
  48.8900281  72.9998440  20.8307360  49.2139216  74.3164448  21.0350898
  48.7433811  73.6999899  21.1510553  58.1131986  69.6330204  24.4178888
  57.5006300  70.1200606  24.8032620  58.2096161  68.9573695  24.9616539
  58.0369884  69.6048513  24.5557746  52.1151067  71.3893045  19.5176387
  52.5694814  71.5603606  20.2424232  52.5891113  70.7761156  19.1174163
  52.2519387  71.3243931  19.5650149  45.6366593  80.8741371  28.8479126
  45.0454526  81.5150869  28.8182141  46.3987616  81.2978988  28.8210425
  45.6614853  81.0317210  28.8394273  46.0327215  72.0343369  29.5147143
  46.4928697  72.1082298  30.2522267  46.0783322  72.8324623  29.1646965
  46.1077771  72.1637516  29.5719900  47.6810565  72.7010064  34.0819170
  47.2896130  72.0543411  34.5174948  47.8496428  73.2921499  34.7013426
  47.6481476  72.6924332  34.2381876  49.4564087  78.0935580  20.6221394
  50.2006132  78.4809856  20.8604344  49.6024783  77.2493005  20.7861882
  49.5874672  78.0266052  20.6815364  51.3743663  69.8885839  25.6553256
  50.5279708  70.0608646  25.5294606  51.3714795  69.0835182  25.9919084
  51.2490813  69.7946867  25.6864383  52.4441963  73.6661053  26.5215314
  51.9701917  73.1402815  27.0320625  52.8160099  73.1190526  25.9530175
  52.4291852  73.5077050  26.5130461  42.8214993  75.6632560  31.8898860
  43.6840606  75.5628269  31.8036189  42.4906776  75.0827269  31.3284432
  42.9000190  75.5624186  31.7944265  58.7078694  78.7263429  27.9322094
  58.4676917  77.8869844  27.9364521  59.1870701  78.8063595  28.6562868
  58.7430877  78.6144828  28.0396897  54.3725463  74.5597608  19.5841068
  53.8448481  74.6426352  18.8946776  54.8321171  75.3015479  19.5805712
  54.3627313  74.6818270  19.4815763  60.7083881  75.5064886  25.8851353
  60.4693651  75.4660720  25.0472138  60.8717782  76.3536038  26.0117074
  60.6974184  75.6256971  25.7804835  57.3129911  79.8914835  31.8156398
  58.0364110  79.4387362  31.6367418  57.0479873  80.1719501  31.0328726
  57.3811184  79.8665804  31.6735114  46.1816779  74.4875009  28.5509278
  45.5569849  74.4993401  27.9435230  45.8462374  74.9635184  29.2000518
  46.0402271  74.5593526  28.5565846  46.3658528  72.8300127  14.6081963
  46.0171332  73.4819852  15.0713512  45.8854974  72.8157240  13.8805834
  46.2428772  72.9243181  14.5693054  53.0948700  79.9898713  29.9651414
  52.4805693  79.4456764  30.2600049  53.6115985  79.4762950  29.4857230
  53.0804363  79.8335122  29.9375642  52.3344998  81.0602983  27.6995712
  51.9072606  80.4352702  27.2661148  52.3269942  80.7777905  28.5254719
  52.2704139  80.9255764  27.7575540  45.4507525  76.0968156  30.7684146
  45.6101011  75.3411481  31.1735868  45.2700418  76.6459096  31.4224884
  45.4472884  76.0661970  30.9246852  53.3927828  68.2629392  31.3234936
  52.8968389  68.4593066  30.6326502  54.1496890  68.6622060  31.1523737
  53.4314652  68.3507126  31.1955072  50.6630707  71.9371738  27.9138246
  50.6873194  71.4031850  27.2251026  50.9142181  71.4289047  28.5763837
  50.7040626  71.7832642  27.9102891  38.1738297  79.2203233  27.3481390
  38.0681746  79.1750077  26.4833474  37.4238517  79.5657013  27.6295675
  38.0473900  79.2644141  27.2618720  46.9432029  70.6642556  27.2943991
  46.9830401  71.1651763  28.0078698  46.1181694  70.7552950  27.0249914
  46.8271555  70.7524372  27.3594529  49.1261642  80.2303296  35.3964285
  48.2757273  80.3675010  35.5321930  49.2889770  79.4967074  35.8411987
  49.0245506  80.1417397  35.4819884  48.3646393  77.1803066  29.5917890
  47.5338322  77.3476884  29.3853138  48.3097910  76.8039017  30.3766775
  48.2335808  77.1492797  29.6766418  46.1730176  70.6711959  35.2274300
  46.7982879  70.1274092  35.5003733  45.7180656  70.1906876  34.6582091
  46.1978437  70.5201440  35.1835894  46.7382437  75.4558658  20.1208007
  46.8785398  75.9531122  20.8236649  47.2364969  74.7544952  20.2622221
  46.8323518  75.4260636  20.2459586  46.7682659  76.3225769  17.4500584
  47.4027738  76.9186194  17.3850046  46.8508270  76.0229226  18.2646454
  46.8739210  76.3666677  17.5603671  59.7465225  78.8541246  30.3186948
  60.3383065  79.4938497  30.3505146  60.1824219  78.1564283  30.6079015
  59.8983656  78.8459596  30.3667781  48.3461642  72.2539744  17.4246026
  48.6677483  71.7742826  16.7705288  48.6088586  73.0639390  17.2336838
  48.4327667  72.3029642  17.3001518  51.5758615  83.2758618  30.9444842
  51.0683706  83.8294465  31.3885473  51.2785261  83.3366908  30.1263617
  51.4563500  83.3664930  30.8893299  53.7420797  71.6411938  29.7869505
  54.1675868  71.1884464  29.1753032  53.1277790  71.0872009  30.0634293
  53.7149442  71.4925914  29.7374530  43.2735647  78.5193609  20.7190130
  43.7827876  79.1158117  21.1001436  43.7469919  78.2519583  20.0366550
  43.4179023  78.5679425  20.6744653  52.1815020  68.1127038  23.1960082
  51.5383338  67.9624684  23.7645221  51.8414427  67.8669383  22.4309187
  52.0360097  68.0539160  23.1663097  56.7714366  76.0686465  22.6190091
  56.1005556  76.6116167  22.4903156  57.4654116  76.5381320  22.3771786
  56.7743234  76.2184736  22.5645619  56.9342494  72.5242348  25.5280464
  57.2870104  72.0972071  26.2026263  56.0757295  72.4393192  25.6581540
  56.8591938  72.4487089  25.6475474  45.6326179  75.1549868  23.5863311
  44.9138168  75.5714000  23.8536174  46.0038541  75.7204107  23.0354949
  45.5818110  75.2999149  23.5446117  54.9325759  75.7877717  29.4765306
  54.9123687  75.6061012  30.3300085  54.9804960  76.6589735  29.4524890
  54.9360400  75.8894255  29.5988601  52.8772089  82.3764909  35.4013783
  52.8367944  81.7314586  34.8158939  53.6895408  82.3201526  35.7139195
  52.9915243  82.2723876  35.3610732  51.4072753  74.1947868  18.9236690
  50.8137592  74.5164864  18.3721257  51.4448031  73.3488963  18.7157796
  51.3247142  74.1172196  18.8119461  58.3666554  67.6460760  26.4564776
  57.8597418  66.9389900  26.3885954  59.1633987  67.3153949  26.5865853
  58.4093793  67.4933911  26.4663771  54.2830570  74.1527372  22.3538440
  54.0544263  74.1760074  21.5116798  54.5428646  73.3284839  22.4733451
  54.2876758  74.0343452  22.2463638  48.5649798  76.0061845  31.9563540
  48.0528701  75.3983028  32.3148572  48.3929294  76.7218438  32.4237516
  48.4639435  76.0225145  32.0779764  43.4115513  74.4499421  34.6065902
  43.2418103  75.1100795  34.0614109  42.9681463  74.6605982  35.3278391
  43.3214846  74.5785403  34.6327532  47.3375332  72.6903919  23.6492636
  47.8132698  73.0520998  23.0142817  46.8363932  73.3460386  23.9292779
  47.3340691  72.8398107  23.5969377  52.4418868  73.9286090  34.3965796
  52.9990299  73.6999899  33.7644261  52.1179933  74.6891756  34.1201008
  52.4765279  74.0069927  34.2622293  40.3117577  77.3546286  29.8654392
  39.7644297  76.6846932  29.9835260  41.1009955  76.9876134  29.9297859
  40.3469761  77.2011273  29.8923093  50.1601986  77.0153743  35.3617803
  50.9113313  77.3305420  35.6757357  50.3524562  76.8132914  34.5351725
  50.2993400  77.0321125  35.2861199  49.3801985  74.8345118  17.0166020
  49.7600950  74.8524748  16.2317135  48.6394581  75.2799107  16.8956867
  49.3270823  74.9026893  16.8829588  57.0087276  73.1427310  22.6041599
  57.0081502  72.9875966  23.4625875  56.8043456  73.9890297  22.5482984
  56.9787054  73.2447930  22.7229538  39.0704547  76.5667094  27.0200415
  38.8926308  76.1143703  27.7455331  38.7823569  77.3693255  27.2038893
  39.0017500  76.6189652  27.1543918  54.7328128  77.8224811  26.2577805
  55.2281793  77.1047806  26.2181826  53.9227904  77.5195609  26.1432292
  54.6872021  77.6722458  26.2351531  40.8077017  79.0994818  24.1322174
  39.9422536  79.0880508  24.0204945  40.9075832  78.9125041  24.9793313
  40.6951184  79.0700879  24.2411119  56.7979947  80.5728499  28.9454934
  57.2235018  80.0502921  28.3925359  56.4336867  81.1709336  28.4243557
  56.8066549  80.5838726  28.7863944  53.3858546  84.2862763  25.2756092
  53.8569724  85.0003026  25.4446077  53.7218725  83.6861513  25.8115961
  53.5053661  84.3034227  25.3788468  50.3028041  69.0590234  32.2314186
  50.4355947  68.2621227  32.5595162  50.6873194  69.5856637  32.8112462
  50.3784370  69.0190150  32.3657689  54.0232492  84.0780697  32.0383784
  53.4753438  83.4538581  31.7703850  54.4845521  84.2674969  31.3227864
  54.0099702  84.0139747  31.8934215  56.8326357  72.1466052  29.4234977
  56.2489346  72.6475258  29.0112544  57.1530651  71.6395608  28.7899300
  56.7939532  72.1457887  29.2693484  49.3721156  71.0606647  19.6993651
  50.1936850  71.2304959  19.4575346  48.9090807  71.2153908  18.9759949
  49.4252318  71.1088380  19.5565296  47.9616488  69.0549409  30.4792080
  48.5060901  68.7140536  31.0696422  48.0153424  69.9134870  30.6213365
  48.0505607  69.1304668  30.5873954  22.3718360  12.9595698  22.8289435
  23.0785127  12.4647729  22.9576370  22.5606296  13.4004779  22.0992093
  22.5046266  12.9514048  22.7398481  19.5110655  16.3823234  20.7203510
  19.5994000  16.1949375  21.5681721  19.9400367  15.7360664  20.3208357
  19.5872757  16.2586242  20.7875262  17.0781114  15.6654394  19.7021173
  16.5151949  15.2527004  20.2260834  17.8402138  15.5907300  20.1214316
  17.1075563  15.5931795  19.8414173  13.6856012   7.8928002  21.4338218
  13.8576516   7.7833897  22.2823499  14.2225370   8.5382408  21.1969410
  13.7901016   7.9720004  21.5243315  19.6230714  15.8132253  23.3847294
  20.4071130  15.9263101  23.7503036  19.4227308  14.9873390  23.5805980
  19.7096739  15.7078973  23.4681680  19.7801107  17.7242355  17.0313750
  18.9816353  17.4841855  17.2887618  20.2287119  17.7756748  17.7780797
  19.7275718  17.6964747  17.1798674  18.8401844  11.4702800  24.9233938
  18.0474825  11.7846312  25.1086557  18.9550771  11.6854269  24.0854722
  18.7397255  11.5486637  24.8272273  19.7685637  11.3723004  19.8619234
  20.3424498  10.7350248  20.0167798  19.6900441  11.3727086  18.9928892
  19.8418872  11.2788115  19.7565645  25.0905785  12.7431982  19.8704088
  24.8544422  11.9120046  19.7516148  25.7349014  12.6917589  20.4558932
  25.1500455  12.6129670  19.9389981  26.1142205  12.5276430  15.9332382
  25.8088022  13.2604487  16.2945698  25.3948421  12.1214360  15.6525168
  25.9629548  12.5758163  15.9445519  31.8143997   9.1669431  15.2600726
  31.7468498   9.1865390  14.3903313  31.7999660  10.0099758  15.4856397
  31.8022754   9.2943166  15.1653203  16.2525006  11.7752415  18.0807214
  15.7536699  12.4868182  18.1592103  17.0625230  12.0953081  18.0425377
  16.2981112  11.9279263  18.0863783  15.1792064   4.6333459  23.3769513
  14.3691839   4.9391239  23.2659355  15.6566750   5.3539041  23.4922097
  15.1295542   4.7848060  23.3776584  21.8031460   9.6360204  20.4707424
  21.7979499   8.7640021  20.4749851  22.5092454   9.8348373  19.9976880
  21.9076464   9.5364078  20.4014460  15.5302354   9.3637188  19.8421244
  15.6745729   9.9438396  19.2064354  15.8778002   9.7413485  20.5471099
  15.6029815   9.5057892  19.8520239  14.6030109  17.5539960  16.7082271
  14.7519672  16.9942876  16.0555676  15.3830111  17.6331962  17.0914790
  14.7404202  17.4825525  16.6679220  17.1283409  17.7254603  17.9866762
  17.0527080  17.0563413  18.5417550  17.0573268  18.4272391  18.5007428
  17.1064016  17.7299510  18.1443610  16.5175043  21.1322923  16.4444763
  17.0070974  20.4333712  16.2620427  15.9459276  20.8346793  17.0320820
  16.5059573  20.9849146  16.5045804  22.7142047  13.6984992  25.3971553
  23.5276912  13.4270141  25.5576686  22.5537013  13.3992532  24.5931749
  22.8111995  13.6139918  25.3016959  22.1553297   5.9907714  19.2750249
  21.3429979   5.6833605  19.3563422  22.6143232   5.5106714  19.8392961
  22.1033682   5.8744207  19.3704843  19.2506804   7.3967786  24.0578951
  19.7206436   8.0209902  24.4446825  19.2968685   6.7284761  24.6172166
  19.3274680   7.3902466  24.1979023  22.7263291  14.7591282  20.6694394
  23.3643012  14.2651478  20.3356850  22.0837383  14.6868683  20.0846621
  22.7257518  14.6750291  20.5336749  22.7817548  15.4511091  17.3099751
  23.5709926  15.1000155  17.4301832  22.9561145  16.2647479  17.0476385
  22.9237829  15.5196948  17.2887619  14.3945874  14.0050936  18.3197235
  14.2866229  14.0152998  19.1859293  14.6041655  14.8305717  18.1302189
  14.4095985  14.1292011  18.4201327  28.5310087  11.0869348  16.7796451
  28.5893211  11.5355997  17.5256427  27.8976555  11.4968161  16.3426531
  28.4461383  11.2143083  16.8248999  22.1709182  16.7072890  13.2151197
  21.9728871  17.1963705  12.5207408  21.5496893  16.9114132  13.7935330
  22.0496747  16.8089428  13.1974420  24.0882984  10.2737042  18.7496445
  24.8117183   9.8209569  18.5707465  23.8232946  10.5541708  17.9668773
  24.1564257  10.2488011  18.6075161  15.9014716  10.6125504  22.3304332
  15.0510346  10.7497218  22.4661977  16.0642843   9.8789282  22.7752034
  15.7998579  10.5239605  22.4159931  26.5218298   9.2363453  17.2526995
  27.1136138   9.8760704  17.2845193  26.9577293   8.5386490  17.5419062
  26.6736729   9.2281804  17.3007828  18.3511688  13.6580826  17.8784889
  17.8436779  14.2116673  18.3225519  18.0538334  13.7189116  17.0603664
  18.2316573  13.7487137  17.8233346  17.5954173  18.5905384  14.7841896
  17.3719828  17.8324213  15.1525922  17.1064016  18.6203405  14.0622336
  17.4897622  18.4827608  14.7318637  19.6525163  12.7587116  22.3353830
  19.6121017  12.1136793  21.7498985  20.4648481  12.7023734  22.6479242
  19.7668316  12.6546083  22.2950779  19.2171942   4.3108297  21.3305843
  19.7743372   4.0822107  20.6984308  18.8933007   5.0713963  21.0541055
  19.2518352   4.3892134  21.1962340  16.9355059   7.3975951  22.2957850
  17.6866386   7.7127627  22.6097404  17.1277635   7.1955122  21.4691772
  17.0746473   7.4143332  22.2201246  23.5733020  10.9550706  15.8794981
  23.9988091  10.4325128  15.3265406  23.2089940  11.5531544  15.3583604
  23.5819622  10.9660933  15.7203991  13.2087100  19.2514924  14.6392326
  13.5233659  20.0651312  14.6470108  13.6180513  18.8665142  15.3074486
  13.3155198  19.3143626  14.7396418  22.2488604  16.2786284  24.3888211
  22.3585569  15.4894844  24.7444958  22.5779501  16.1892220  23.5862549
  22.3141010  16.1492137  24.3230601  20.7985566  14.4602905  18.9723831
  20.2506512  13.8360788  18.7043896  21.2598594  14.6497177  18.2567910
  20.7852775  14.3961955  18.8274262  20.3643892  15.4653977  15.5033172
  21.1842266  15.3216943  15.7649467  20.0837970  16.0900176  16.0449610
  20.4440635  15.5364329  15.6221112  36.8357542  23.1218829   8.4676049
  36.8051547  23.9763466   8.6394318  37.4338891  22.8214122   9.0262192
  36.9194700  23.2035326   8.5750851  30.0357227  22.2094480  13.2228979
  29.1795123  22.3702978  13.2738096  30.0824881  21.3386544  13.2434040
  29.9156339  22.1045282  13.2335045  24.4198367  31.7457198   8.9866211
  23.6681266  31.3672736   8.7582256  24.8684379  31.7775632   8.2385021
  24.3748034  31.6942805   8.8423713  29.8723327  32.1682567   4.4151758
  29.5374695  32.8459489   3.9795980  30.3850197  31.7787879   3.8268629
  29.8988908  32.2107146   4.2638549  29.4127618  34.1196836  10.3562869
  29.7966997  34.6883735   9.8167645  29.3486759  33.3946346   9.8768685
  29.4601045  34.0972300  10.2056732  32.8809048  24.2686524  15.8660631
  33.4265008  24.9471611  15.9254600  32.8225925  24.1273985  15.0062212
  32.9524963  24.3478526  15.7472691  25.9983123  31.7575590  11.2528983
  26.0993486  30.9475944  11.5626111  25.4024868  31.6632537  10.6228662
  25.9255662  31.6240618  11.2055222  34.6574117  25.6971131   6.7394358
  34.5413643  26.4478817   7.1686497  35.4530004  25.4395084   6.9890446
  34.7578706  25.7705978   6.8398450  25.8383863  36.6753179  12.6543839
  26.4821318  37.1166343  13.0439998  26.1640118  35.8706605  12.5674098
  25.9815691  36.6218374  12.6989316  19.1948167  27.7795877  10.8781317
  18.9598352  26.9463529  10.7713586  19.3333808  28.0600542  10.0642518
  19.1803830  27.6979380  10.7423672  21.4938255  19.9481607  13.7765624
  20.8743286  19.3574255  13.6075639  21.3922118  20.5393042  13.1429948
  21.3875930  19.9485690  13.6570614  26.5404442  29.6865154   8.0263701
  26.8620283  30.2270361   7.4225009  27.1876539  29.1161925   8.1585991
  26.6830498  29.6824329   7.9570736  28.5906150  21.6881149   8.1098088
  29.2886315  21.8669277   8.6019551  28.9058483  21.1651488   7.4868477
  28.7401488  21.6374921   8.0900098  21.2207388  23.4933889  16.0209193
  21.0966085  24.0796334  16.6559012  21.8725672  22.9994085  16.3221468
  21.2981037  23.5072693  16.1595123  28.7794086  28.0751594   8.0977879
  29.2187721  27.4668695   8.5432652  28.6298749  27.6958967   7.3263344
  28.8215552  27.9290065   8.0497046  26.2465729  26.6695606  15.2996705
  26.8914731  26.1768049  14.9807653  26.4867506  26.8120393  16.1262783
  26.3776314  26.6173048  15.3746238  28.7851820  29.5150512  14.9503597
  29.0675063  28.7201918  14.7290353  29.5137981  29.9931099  14.9708658
  28.9341384  29.4685109  14.9206612  26.7633014  17.0573546  12.1919362
  26.4336344  17.5084689  11.5223061  26.0878016  16.9789709  12.7392369
  26.6143450  17.1124681  12.1742586  32.3803422  26.4278775   5.0508648
  32.2954718  27.2839742   5.1958217  32.8687806  26.1523099   5.7190807
  32.4392320  26.5136097   5.1710730  33.9709422  13.0459069  10.4368973
  33.6562863  13.7362547  10.8689395  33.4536363  12.9903851   9.7354474
  33.8473892  13.1393957  10.3965922  33.3121856  23.0463570   6.5506383
  32.7833327  23.2623203   7.2103690  33.8346876  23.7399708   6.4707353
  33.3110309  23.1806706   6.6361983  38.7669909  28.6209874  11.9239428
  37.9367612  28.8320518  12.0872844  38.7179161  27.7946929  11.6481711
  38.6376644  28.5299480  11.9076793  20.7565492  32.6581547  12.1537523
  20.2733070  33.3832037  12.1297107  21.5688810  32.9557677  12.2647681
  20.8056240  32.8083901  12.1664802  26.8279646  31.4513728  14.7587337
  26.3106588  31.0921143  14.1548645  27.5254037  30.9275903  14.7693404
  26.8545227  31.3211416  14.6717596  28.0513698  31.1839702  19.7021173
  27.4884533  30.7712312  20.2260834  28.8134721  31.1092608  20.1214316
  28.0808146  31.1117103  19.8414173  23.6109689  33.1737723  12.3057803
  24.3130269  32.6589712  12.3630559  23.5307172  33.5011875  13.1104678
  23.7033450  33.1451950  12.4330595  38.2623867  21.2680275  15.7189849
  37.4252288  21.3382462  15.9537444  38.2312098  21.2704769  14.8464152
  38.1342149  21.2790502  15.6249397  24.6588596  23.4113310  21.4338218
  24.8309100  23.3019205  22.2823499  25.1957953  24.0567716  21.1969410
  24.7633600  23.4905312  21.5243315  22.9360465  29.3644075  11.8143411
  23.7749364  29.5967008  11.8617172  22.9672234  28.4948387  11.7450446
  23.0642182  29.2701022  11.8108056  23.5613168  29.7844951  16.1156716
  24.1011393  29.6416082  16.7860089  22.8783114  30.1841701  16.4840743
  23.5405322  29.8224621  16.2691138  32.9854053  25.4635951  11.3101741
  33.7411568  25.8967466  11.3490649  33.0916377  24.8140721  11.8836377
  33.1124223  25.4313435  11.3999766  36.0234224  29.2909228  12.0604144
  35.5869456  29.2945971  12.8163115  35.6897139  29.9714727  11.6283721
  35.9096844  29.3921684  12.1084976  18.9650313  26.0045241  16.2691138
  18.6988728  25.1884358  16.4282128  18.9788877  26.0498397  15.3986653
  18.9275035  25.8902146  16.1644620  35.9431707  16.3323056  14.3033572
  36.5857615  16.4021161  14.8895487  36.1954727  15.6652279  13.8013114
  36.0753839  16.2449405  14.3160851  23.7148919  19.5423620  18.9158146
  23.0220716  19.0720599  19.1618877  24.3309247  19.3161924  19.4899853
  23.7033449  19.4390751  19.0367298  30.7533691  33.2427663  17.0313750
  29.9548936  33.0027163  17.2887618  31.2019702  33.2942056  17.7780797
  30.7008302  33.2150054  17.1798674  39.1578570  26.0090148  10.9523781
  39.8195004  25.4480817  10.8519689  38.5169982  25.5142179  11.2776472
  39.1607437  25.8526557  10.9856121  30.0455378  29.3060280   3.2604704
  30.4606526  28.9745304   2.5689200  29.2147307  29.0729182   3.1324841
  29.9843386  29.2231536   3.1395552  19.3743726  26.7904021  13.5502882
  19.1919300  26.7650907  12.6975174  20.1093395  27.2602959  13.5891791
  19.4557790  26.8565383  13.4300801  35.4443401  27.0255531  10.6935770
  35.6798990  27.1700730   9.8662620  35.5932964  27.7897939  11.0867283
  35.5009204  27.1594585  10.6299374  22.4389478  23.5089024  20.0584991
  23.1629450  23.4942054  20.5449886  22.5405615  24.2184379  19.5606959
  22.5607687  23.6113727  20.0563778  37.2733857  25.8657197   8.5305373
  37.6042074  26.3984837   7.9245468  37.8466946  25.9196084   9.1867324
  37.4067537  25.9526765   8.5383155  32.4865747  23.7122099   9.2128954
  32.5812601  24.4511393   9.6668579  31.8624590  23.2839575   9.6463518
  32.4074777  23.7583420   9.3437101  30.7418220  26.8908312  19.8619234
  31.3157082  26.2535556  20.0167798  30.6633024  26.8912394  18.9928892
  30.8151455  26.7973423  19.7565645  19.3414637  23.6697521  13.7001949
  19.9188139  23.5333972  14.3394194  18.6428699  23.2133306  13.9547533
  19.3235658  23.5819788  13.8324238  26.0981939  25.3231577  11.9140432
  25.8401183  24.4903312  11.8871731  26.1530422  25.5489190  11.0732932
  26.0681717  25.2329348  11.7860569  31.1782989  17.4260028  12.0144525
  30.4739316  16.9369213  12.1728444  31.2267963  17.4382502  11.1432969
  31.0813041  17.3549676  11.9083864  25.0716651  22.8769340  12.4005327
  24.4966242  23.0361508  13.0369288  24.6952327  22.2404749  11.9373777
  24.9319463  22.8067152  12.4259885  28.7389940  21.3492689  17.2597705
  28.3504373  20.9246907  16.6049896  28.0744638  21.5974838  17.7674732
  28.5836868  21.3231410  17.2385573  38.3813209  21.1067694  10.0345535
  38.1249774  20.2947635   9.8443418  39.2242523  21.1145261   9.8075722
  38.4679234  20.9879691   9.9730352  32.5616301  15.0467318  14.7721689
  32.9426813  14.3645489  15.1589564  31.7579586  14.7576920  14.5897354
  32.4992763  14.9034366  14.8025745  29.8428878  25.5791293   5.4574512
  30.6569517  25.8706186   5.3457283  29.7788019  24.9251156   4.8832805
  29.9531617  25.5256488   5.3563349  36.0638368  28.2617290  19.8704088
  35.8277006  27.4305354  19.7516148  36.7081597  28.2102897  20.4558932
  36.1233039  28.1314978  19.9389981  25.7136786  29.0512811  10.5846824
  26.3510733  28.8124558  11.1298618  26.1391858  29.2549970   9.8499985
  25.8712953  29.0463821  10.5563981  20.4049429  31.2901147  14.4681128
  20.4453574  31.5615998  13.6400908  20.9643953  31.8143055  14.8838916
  20.4932775  31.4076902  14.4073016  26.5208142  17.5521516  24.6384298
  26.2061583  18.3221079  24.3753860  26.1998074  16.9891772  24.0536525
  26.4267061  17.5831785  24.5125648  37.0874789  28.0461738  15.9332382
  36.7820606  28.7789795  16.2945698  36.3681004  27.6399668  15.6525168
  36.9362131  28.0943471  15.9445519  28.0958258  29.5285234  12.2640610
  28.1697267  29.3660405  13.1182460  28.9127765  29.7175423  12.0201092
  28.2274617  29.5321976  12.3538636  42.7876581  24.6854739  15.2600726
  42.7201081  24.7050698  14.3903313  42.7732243  25.5285066  15.4856397
  42.7755337  24.8128474  15.1653203  21.8564015  29.8743096   9.2935054
  21.0302133  30.1204834   9.1669333  21.9176006  29.7955177  10.1597112
  21.7438182  29.8988045   9.4023998  33.1972927  16.0889897  18.5841816
  33.9426519  15.8999707  18.1705241  32.7810232  16.6148135  18.0255672
  33.2457902  16.1392042  18.4406389  26.6362844  32.4919977   6.9954084
  26.9261142  32.1008958   6.2713310  27.3666325  32.6736681   7.4359359
  26.7869728  32.4613790   6.9536891  40.5735198  23.4599125  13.5347321
  41.1243120  22.8267194  13.7744413  40.5579314  23.9914518  14.2262825
  40.6520395  23.4448073  13.6726179  27.2257589  27.2937722  18.0807214
  26.7269283  28.0053490  18.1592103  28.0357813  27.6138389  18.0425377
  27.2713696  27.4464571  18.0863783  24.5768760  34.4687359  10.0614234
  24.3569055  34.1784714  10.8540901  24.3563282  33.8102314   9.5332146
  24.5116354  34.3287067  10.1003142  23.4885707  26.5560675  12.3269935
  23.1998955  25.9298147  12.8615663  24.3569055  26.4980963  12.3934616
  23.5745959  26.4548220  12.4160890  34.2763605  21.6995459  12.6451917
  33.9328370  20.9785794  12.9959167  34.3756647  21.4909310  11.8030275
  34.2405647  21.5619662  12.5723597  26.7436715  35.8416749   8.8444926
  27.3960773  35.3093191   9.0735952  26.0462324  35.4885401   9.2312800
  26.7367433  35.7106272   8.9357094  23.6917980  28.1955927   8.2512300
  24.4463948  28.5768966   8.4647763  23.0988593  28.6467070   8.7058997
  23.7154694  28.3184754   8.3495179  34.7376634  28.1621163   8.1875905
  35.3034666  28.8214373   8.1034448  34.0904537  28.5070861   8.6592307
  34.7255390  28.3103104   8.2448662  26.1524647  20.1518767  23.3769513
  25.3424423  20.4576547  23.2659355  26.6299334  20.8724349  23.4922097
  26.1028126  20.3033368  23.3776584  25.0116207  29.3664488  13.6252416
  24.4896960  29.5064780  14.3104280  25.3990227  28.6075152  13.8154533
  24.9919908  29.2750012  13.7553492  31.2083212  31.1059947   7.6112984
  30.9669888  30.3727808   7.2040049  31.3884545  31.6546804   6.9579318
  31.1990836  31.0782338   7.4543207  26.4382532  26.3968507   9.0233907
  26.2425315  27.0043241   8.4294210  26.6616878  25.7036451   8.5425581
  26.4417173  26.3846032   8.8649988  24.8361062  23.2823245   9.1414775
  25.5583714  23.4464403   8.6818581  24.3569055  24.0032910   9.0354115
  24.8724793  23.4121474   9.0580389  32.7954570  19.6187044  14.5211460
  31.9565671  19.6448323  14.2849723  32.8658937  20.2657779  15.1016807
  32.6822963  19.7183169  14.5720577  22.4868679  25.6881317  18.2468915
  22.9989776  25.9665571  17.5977675  22.2005022  26.4270611  18.6131728
  22.5203542  25.8383671  18.2058793  31.2423848  16.5172421   9.2539076
  31.9450201  16.3180169   8.7759034  30.9768037  15.7448363   9.5607919
  31.3070481  16.3735387   9.2284517  36.6712094  24.8255030  11.8072702
  36.5846068  24.9810456  12.6607481  36.2162574  25.4693106  11.4332107
  36.5915350  24.9430785  11.8779809  26.0052404  17.7807706  18.3069957
  25.8135601  17.7962840  19.1569380  26.8551000  17.9771380  18.2836611
  26.1028126  17.8122057  18.4293251  20.3899317  20.3098687  16.2853773
  20.2484809  19.4582628  16.4098281  20.6739881  20.3527348  15.4615979
  20.4107164  20.1898437  16.1821397  34.4385959  28.8549137  14.2185043
  34.3000318  29.5530183  14.7233785  33.6585957  28.6997793  13.8621224
  34.3029186  28.9349303  14.2411317  26.5034937  24.8822496  19.8421244
  26.6478313  25.4623704  19.2064354  26.8510586  25.2598793  20.5471099
  26.5762398  25.0243200  19.8520239  28.6754854  24.0812664  17.6246376
  27.9278168  24.2743679  17.2194654  28.8296380  23.2557884  17.3870497
  28.5877282  23.9877776  17.5291782  25.5762692  33.0725268  16.7082271
  25.7252256  32.5128184  16.0555676  26.3562694  33.1517270  17.0914790
  25.7136786  33.0010833  16.6679220  35.9339331  28.2127391   4.9801542
  35.5546140  27.4264529   4.9730831  35.2705577  28.7614248   4.8373186
  35.7797806  28.1772215   4.9582339  28.1015993  33.2439911  17.9866762
  28.0259664  32.5748721  18.5417550  28.0305852  33.9457699  18.5007428
  28.0796600  33.2484818  18.1443610  28.9156631  17.9763215  18.5141780
  29.3729246  18.7087190  18.6414572  28.9912960  17.5529680  19.2729035
  28.9947601  18.0220453  18.6442856  21.1589623  18.2229035  19.6031223
  20.6231812  17.6109393  19.9191991  21.2207387  18.7977171  20.2564890
  21.0885255  18.2175963  19.7466650  33.3883957  11.1553090  12.3835623
  33.5067526  11.6129554  11.6502925  33.2146133  10.3498352  12.0971840
  33.3803128  11.1046863  12.2336556  28.7586240  31.7640910   8.8190368
  29.5236131  31.4950553   8.4973032  28.6564330  31.2790920   9.5360431
  28.8567735  31.6530474   8.8770196  26.7939009  19.9665319  15.3583604
  26.0035084  19.7856779  15.6800939  27.1899632  19.1892272  15.3413898
  26.7355886  19.8252780  15.4036152  32.1782696  27.6007749  13.0843050
  31.5027698  27.3692982  13.5856437  32.1875072  26.9928932  12.4585155
  32.0801200  27.4766674  13.0659202  29.3076840  22.4425578  19.8407103
  29.2435981  23.3035535  19.7127239  29.4474027  22.1257571  19.0402654
  29.3192310  22.5225745  19.7035315  34.1799430  30.4572882   5.3153228
  34.2619268  31.2639868   4.9914678  34.6649172  30.4768841   6.0394001
  34.2636588  30.5793544   5.3740126  27.9895934  25.1357718  13.9823305
  27.5658183  25.3362217  13.2462324  27.8140789  24.2886566  14.0947605
  27.9006814  25.0406499  13.8896996  27.4907627  36.6508231  16.4444763
  27.9803557  35.9519020  16.2620427  26.9191859  36.3532101  17.0320820
  27.4792157  36.5034454  16.5045804  23.2778379  25.6309769   9.4151278
  23.4342998  25.5656572  10.2707270  23.6178972  26.4058322   9.2029958
  23.3511613  25.7358967   9.5105872  29.8157523  25.0067653   8.2844641
  30.3573069  24.5038034   8.7483262  30.1304082  24.9532847   7.4734127
  29.9421920  24.9247074   8.2328453  27.9843973  30.3985004   5.5684669
  28.0536793  29.5399543   5.7077670  28.7632428  30.6156885   5.2403694
  28.1096823  30.3037868   5.5401827  30.9646793  19.9003957  18.3366942
  31.1788762  19.2614871  17.7830296  30.3480692  20.3449781  17.9074803
  30.9052122  19.8714101  18.1917373  32.3751460  32.8222705   9.7821163
  31.9831252  32.5189421   9.0644029  32.5304533  33.6591795   9.5926116
  32.3405050  32.9006542   9.6477660  33.1285881  21.5093022  19.2750249
  32.3162562  21.2018913  19.3563422  33.5875815  21.0292022  19.8392961
  33.0766265  21.3929515  19.3704843  32.5391135  29.3872694   9.7227193
  32.1805790  29.5587337  10.4991226  32.0529846  29.8485900   9.1655192
  32.4149832  29.4811665   9.7552462  30.3561521  13.0103893  13.3254285
  29.4855079  12.9842614  13.2787594  30.6101862  12.8381085  12.5080130
  30.2655081  12.9814036  13.1974421  30.2239388  22.9153094  24.0578951
  30.6939019  23.5395210  24.4446825  30.2701268  22.2470069  24.6172166
  30.3007264  22.9087774  24.1979023  27.3810662  15.0210121  14.7827755
  26.8649150  14.3290313  14.9079334  26.8204591  15.6880898  14.7290354
  27.2217175  15.0173379  14.7933821  29.4502895  15.5603081  16.6120607
  29.0634648  15.5852113  17.3934137  28.9635832  14.9944760  16.1595124
  29.3215404  15.4798832  16.6608511  35.4252875  22.1265736  15.2360310
  34.9980483  22.0392085  14.4808409  34.7878928  22.2343512  15.8215154
  35.2682482  22.1298396  15.2105751  29.1160037  12.4470067  18.9030867
  29.7453155  12.9830367  18.6251938  29.2845900  12.3547426  19.7544433
  29.2337831  12.5131429  18.9879395  28.9173952  17.2341261  21.1757279
  29.7447381  16.9626410  21.2315893  28.9381798  18.0302103  21.5321097
  29.0426802  17.3121016  21.2372462  33.7550131  30.9696398  17.3099751
  34.5442509  30.6185463  17.4301832  33.9293729  31.7832787  17.0476385
  33.8970413  31.0382256  17.2887619  23.4943442  24.3805124  14.3627540
  22.6531448  24.2808998  14.5706433  23.7033450  25.1500605  14.7141860
  23.4008134  24.4797168  14.4454855  20.9719009  22.0024661  12.1912290
  20.5775706  22.0767673  11.4162400  20.4159125  22.3882608  12.7420652
  20.8321821  22.0706436  12.1579950  32.6083955  14.9805955  11.8716169
  32.8133549  14.9128263  12.7173166  32.2810379  15.7864776  11.8037347
  32.5899203  15.0891896  11.9875824  27.3060106  22.3086523  13.6125137
  27.0023244  21.7542512  14.2135545  26.6039527  22.4878733  13.1253171
  27.1576316  22.2531306  13.6294843  25.3678457  29.5236244  18.3197235
  25.2598812  29.5338306  19.1859293  25.5774239  30.3491025  18.1302189
  25.3828569  29.6477319  18.4201327  35.8617643  15.5337719  11.3518935
  35.2491957  16.0208122  11.7372666  35.9581818  14.8581210  11.8956586
  35.7855541  15.5056028  11.4897793  23.3852249  26.7748887  15.7819173
  22.7940183  27.4158385  15.7522188  24.1473273  27.1986504  15.7550472
  23.4100510  26.9324725  15.7734320  23.7812872  17.9350884  16.4487190
  24.2414354  18.0089814  17.1862314  23.8268979  18.7332138  16.0987011
  23.8563428  18.0645031  16.5059947  25.4296222  18.6017579  21.0159217
  25.0381787  17.9550926  21.4514995  25.5982085  19.1929014  21.6353473
  25.3967132  18.5931847  21.1721923  39.5042671  26.6054656  16.7796451
  39.5625795  27.0541305  17.5256427  38.8709139  27.0153469  16.3426531
  39.4193966  26.7328391  16.8248999  33.1441766  32.2258198  13.2151197
  32.9461454  32.7149013  12.5207408  32.5229477  32.4299440  13.7935330
  33.0229330  32.3274736  13.1974420  27.2049744  23.9943095   7.5561441
  27.9491789  24.3817371   7.7944391  27.3510440  23.1500520   7.7201929
  27.3360329  23.9273568   7.6155411  29.1229320  15.7893354  12.5893303
  28.2765365  15.9616162  12.4634652  29.1200452  14.9842698  12.9259131
  28.9976469  15.6954383  12.6204430  30.1927620  19.5668568  13.4555361
  29.7187574  19.0410330  13.9660672  30.5645756  19.0198041  12.8870222
  30.1777509  19.4084565  13.4470508  20.5700650  21.5640075  18.8238906
  21.4326263  21.4635784  18.7376236  20.2392433  20.9834784  18.2624479
  20.6485846  21.4631702  18.7284312  36.4564350  24.6270944  14.8662141
  36.2162573  23.7877359  14.8704568  36.9356358  24.7071111  15.5902915
  36.4916534  24.5152344  14.9736943  38.4569538  21.4072401  12.8191400
  38.2179307  21.3668235  11.9812185  38.6203439  22.2543553  12.9457121
  38.4459841  21.5264486  12.7144882  35.0615568  25.7922350  18.7496445
  35.7849767  25.3394877  18.5707465  34.7965530  26.0727016  17.9668773
  35.1296841  25.7673319  18.6075161  23.9302436  20.3882524  15.4849325
  23.3055506  20.4000916  14.8775277  23.5948031  20.8642699  16.1340565
  23.7887928  20.4601041  15.4905893  20.6428112  28.4482984  16.9253089
  20.1128036  27.7575423  16.9748064  20.9153205  28.4393169  16.0965797
  20.6052834  28.3450116  16.8100505  31.6748202  29.0308686   5.6490771
  32.3982401  29.4966799   5.5055345  31.2348793  29.0982296   4.8988368
  31.7163894  29.1092523   5.5175553  30.8434357  25.8906229  16.8991460
  30.2291350  25.3464279  17.1940096  31.3601642  25.3770465  16.4197277
  30.8290020  25.7342638  16.8715689  30.0830654  26.9610499  14.6335759
  29.6558262  26.3360217  14.2001194  30.0755599  26.6785421  15.4594766
  30.0189795  26.8263279  14.6915587  23.1993181  21.9975672  17.7024193
  23.3586668  21.2418996  18.1075915  23.0186075  22.5466611  18.3564931
  23.1958540  21.9669486  17.8586899  31.1413484  14.1636907  18.2574983
  30.6454046  14.3600582  17.5666549  31.8982546  14.5629576  18.0863784
  31.1800309  14.2514641  18.1295119  28.4116364  17.8379253  14.8478293
  28.4358851  17.3039366  14.1591073  28.6627838  17.3296562  15.5103884
  28.4526283  17.6840157  14.8442938  15.9223954  25.1210748  14.2821437
  15.8167403  25.0757593  13.4173521  15.1724174  25.4664529  14.5635722
  15.7959557  25.1651656  14.1958767  24.6917686  16.5650071  14.2284037
  24.7316058  17.0659278  14.9418745  23.8667351  16.6560465  13.9589960
  24.5757212  16.6531888  14.2934576  26.8747299  26.1310811  22.3304332
  26.0242930  26.2682526  22.4661977  27.0375427  25.3974590  22.7752034
  26.7731163  26.0424913  22.4159931  26.1132050  23.0810581  16.5257936
  25.2823979  23.2484399  16.3193184  26.0583567  22.7046532  17.3106822
  25.9821464  23.0500313  16.6106465  23.9215833  16.5719474  22.1614347
  24.5468536  16.0281607  22.4343779  23.4666313  16.0914392  21.5922137
  23.9464093  16.4208956  22.1175941  37.4950882  24.7548761  17.2526995
  38.0868722  25.3946012  17.2845193  37.9309876  24.0571798  17.5419062
  37.6469313  24.7467112  17.3007828  29.3244271  29.1766134  17.8784889
  28.8169363  29.7301980  18.3225519  29.0270918  29.2374424  17.0603664
  29.2049156  29.2672445  17.8233346  31.4906454  17.5419453  16.7209552
  31.9161525  17.0891980  16.1093078  30.8763447  16.9879524  16.9974339
  31.4635099  17.3933429  16.6714577  31.9352052  33.0929391   5.8088832
  31.2181361  32.9190254   5.3436070  32.5858789  32.8581964   5.2764319
  31.9253902  33.0325184   5.6618050  34.5200023  21.9693980   9.5530138
  33.8491213  22.5123682   9.4243203  35.2139773  22.4388835   9.3111832
  34.5228890  22.1192251   9.4985665  28.5686757  34.1090692  14.7841896
  28.3452411  33.3509521  15.1525922  28.0796600  34.1388713  14.0622336
  28.4630206  34.0012916  14.7318637  34.6828150  18.4249863  12.4620511
  35.0355761  17.9979586  13.1366310  33.8242952  18.3400707  12.5921587
  34.6077595  18.3494604  12.5815521  23.3811835  21.0557383  10.5203357
  22.6623825  21.4721516  10.7876221  23.7524198  21.6211622   9.9694995
  23.3303767  21.2006665  10.4786164  32.6811416  21.6885232  16.4105353
  32.6609344  21.5068527  17.2640132  32.7290617  22.5597251  16.3864937
  32.6846057  21.7901770  16.5328648  30.6257746  28.2772424  22.3353830
  30.5853601  27.6322101  21.7498985  31.4381064  28.2209041  22.6479242
  30.7400900  28.1731391  22.2950779  27.2165214  34.3291150  12.2378981
  26.8025612  33.6665280  11.8482822  27.9012588  34.4769009  11.7174675
  27.2563585  34.2531808  12.1035478  30.5830508  33.4881235  12.9902597
  30.1846791  33.5983506  12.2223417  29.9681727  33.6963302  13.5729157
  30.4329397  33.5354803  12.9633896  36.1152211  13.5468275  13.3904823
  35.6083075  12.8397415  13.3226001  36.9119644  13.2161464  13.5205900
  36.1579450  13.3941427  13.4003818  32.0316226  20.0534888   9.2878487
  31.8029919  20.0767589   8.4456845  32.2914303  19.2292355   9.4073498
  32.0362414  19.9350968   9.1803685  26.3135455  21.9069361  18.8903587
  25.8014358  21.2990544  19.2488619  26.1414951  22.6225953  19.3577563
  26.2125092  21.9232660  19.0119811  21.1601170  20.3506936  21.5405949
  20.9903760  21.0108311  20.9954156  20.7167119  20.5613497  22.2618438
  21.0700503  20.4792918  21.5667579  25.0860989  18.5911434  10.5832683
  25.5618355  18.9528514   9.9482864  24.5849589  19.2467901  10.8632825
  25.0826348  18.7405623  10.5309424  38.3172350  28.0633202   6.3745688
  38.7005956  28.8124558   6.6043785  37.5216464  28.3099022   6.1157677
  38.2566133  28.2102896   6.3703261  30.1904525  19.8293605  21.3305843
  30.7475955  19.6007415  20.6984308  29.8665590  20.5899271  21.0541055
  30.2250935  19.9077442  21.1962340  18.0603234  23.2553801  16.7994439
  17.5129953  22.5854447  16.9175307  18.8495612  22.8883649  16.8637906
  18.0955418  23.1018788  16.8263139  27.9087642  22.9161259  22.2957850
  28.6598969  23.2312935  22.6097404  28.1010219  22.7140429  21.4691772
  28.0479057  22.9328640  22.2201246  34.7572933  19.0434825   9.5381645
  34.7567159  18.8883481  10.3965922  34.5529113  19.8897812   9.4823031
  34.7272710  19.1455446   9.6569585  16.8190204  22.4674609  13.9540462
  16.6411965  22.0151218  14.6795377  16.5309226  23.2700771  14.1378939
  16.7503157  22.5197167  14.0883965  32.4813785  23.7232327  13.1917852
  32.9767450  23.0055322  13.1521872  31.6713560  23.4203124  13.0772339
  32.4357678  23.5729973  13.1691578  27.9272396  27.5730140   5.3414857
  27.1183719  27.2496813   5.2948166  28.4347305  26.8663362   5.2743105
  27.8822063  27.4211456   5.3245151  18.5562673  25.0002333  11.0662221
  17.6908193  24.9888024  10.9544992  18.6561489  24.8132556  11.9133360
  18.4436840  24.9708394  11.1751165  34.5465603  26.4736014  15.8794981
  34.9720675  25.9510436  15.3265406  34.1822523  27.0716852  15.3583604
  34.5552206  26.4846241  15.7203991  24.1819683  34.7700232  14.6392326
  24.4966242  35.5836620  14.6470108  24.5913097  34.3850450  15.3074486
  24.2887781  34.8328934  14.7396418  31.1344203  30.1870278  12.2096138
  31.6055381  30.9010541  12.3786124  31.4704381  29.5869029  12.7456008
  31.2539318  30.2041743  12.3128514  28.0513698  14.9597749  19.1654233
  28.1841603  14.1628742  19.4935209  28.4358851  15.4864152  19.7452509
  28.1270027  14.9197666  19.2997736  31.7718149  29.9788213  18.9723831
  31.2239095  29.3546096  18.7043896  32.2331178  30.1682485  18.2567910
  31.7585359  29.9147263  18.8274262  34.5812014  18.0473567  16.3575023
  33.9975002  18.5482774  15.9452591  34.9016308  17.5403123  15.7239347
  34.5425189  18.0465402  16.2033531  25.7102145  14.9556924  17.4132127
  26.2546558  14.6148051  18.0036469  25.7639080  15.8142386  17.5553412
  25.7991264  15.0312183  17.5214000  21.5232703  28.7173340  14.2870935
  22.1277561  28.6769174  13.6584756  21.3160016  29.5644492  14.3174991
  21.5821601  28.8361343  14.1987051  31.3376476  30.9839285  15.5033172
  32.1574849  30.8402251  15.7649467  31.0570553  31.6085484  16.0449610
  31.4173219  31.0549637  15.6221112  16.7583986  27.7007958  14.1569858
  16.6608264  26.8904229  14.4659915  17.5412855  27.6799751  13.7716126
  16.8600122  27.5775048  14.1456721  47.8090126  38.6404137   8.4676049
  47.7784130  39.4948774   8.6394318  48.4071475  38.3399430   9.0262192
  47.8927284  38.7220634   8.5750851  41.0089811  37.7279788  13.2228979
  40.1527706  37.8888286  13.2738096  41.0557464  36.8571852  13.2434040
  40.8888922  37.6230590  13.2335045  35.3930950  47.2642506   8.9866211
  34.6413850  46.8858044   8.7582256  35.8416962  47.2960939   8.2385021
  35.3480617  47.2128113   8.8423713  40.8455910  47.6867875   4.4151758
  40.5107279  48.3644797   3.9795980  41.3582781  47.2973187   3.8268629
  40.8721491  47.7292454   4.2638549  40.3860202  49.6382144  10.3562869
  40.7699581  50.2069043   9.8167645  40.3219343  48.9131654   9.8768685
  40.4333629  49.6157607  10.2056732  43.8541632  39.7871832  15.8660631
  44.3997592  40.4656919  15.9254600  43.7958508  39.6459293  15.0062212
  43.9257546  39.8663834  15.7472691  36.9715707  47.2760898  11.2528983
  37.0726070  46.4661252  11.5626111  36.3757452  47.1817844  10.6228662
  36.8988245  47.1425926  11.2055222  45.6306700  41.2156439   6.7394358
  45.5146226  41.9664125   7.1686497  46.4262587  40.9580392   6.9890446
  45.7311290  41.2891286   6.8398450  36.8116446  52.1938487  12.6543839
  37.4553902  52.6351651  13.0439998  37.1372702  51.3891913  12.5674098
  36.9548275  52.1403682  12.6989316  30.1680751  43.2981185  10.8781317
  29.9330935  42.4648837  10.7713586  30.3066392  43.5785850  10.0642518
  30.1536413  43.2164688  10.7423672  32.4670838  35.4666915  13.7765624
  31.8475870  34.8759562  13.6075639  32.3654702  36.0578350  13.1429948
  32.3608514  35.4670998  13.6570614  37.5137026  45.2050462   8.0263701
  37.8352867  45.7455669   7.4225009  38.1609122  44.6347233   8.1585991
  37.6563081  45.2009637   7.9570736  39.5638734  37.2066457   8.1098088
  40.2618899  37.3854585   8.6019551  39.8791067  36.6836796   7.4868477
  39.7134071  37.1560229   8.0900098  32.1939971  39.0119197  16.0209193
  32.0698668  39.5981642  16.6559012  32.8458256  38.5179393  16.3221468
  32.2713621  39.0258001  16.1595123  39.7526669  43.5936902   8.0977879
  40.1920305  42.9854003   8.5432652  39.6031332  43.2144275   7.3263344
  39.7948135  43.4475373   8.0497046  37.2198312  42.1880914  15.2996705
  37.8647315  41.6953357  14.9807653  37.4600089  42.3305700  16.1262783
  37.3508898  42.1358356  15.3746238  39.7584404  45.0335820  14.9503597
  40.0407647  44.2387225  14.7290353  40.4870564  45.5116407  14.9708658
  39.9073967  44.9870417  14.9206612  37.7365598  32.5758854  12.1919362
  37.4068928  33.0269997  11.5223061  37.0610599  32.4975017  12.7392369
  37.5876034  32.6309989  12.1742586  43.3536006  41.9464083   5.0508648
  43.2687301  42.8025050   5.1958217  43.8420389  41.6708407   5.7190807
  43.4124903  42.0321405   5.1710730  44.9442005  28.5644377  10.4368973
  44.6295446  29.2547855  10.8689395  44.4268947  28.5089159   9.7354474
  44.8206476  28.6579265  10.3965922  44.2854439  38.5648877   6.5506383
  43.7565911  38.7808511   7.2103690  44.8079459  39.2585016   6.4707353
  44.2842892  38.6992014   6.6361983  49.7402492  44.1395182  11.9239428
  48.9100195  44.3505826  12.0872844  49.6911744  43.3132236  11.6481711
  49.6109228  44.0484788  11.9076793  31.7298076  48.1766855  12.1537523
  31.2465654  48.9017345  12.1297107  32.5421394  48.4742985  12.2647681
  31.7788823  48.3269209  12.1664802  37.8012230  46.9699036  14.7587337
  37.2839171  46.6106451  14.1548645  38.4986621  46.4461211  14.7693404
  37.8277811  46.8396724  14.6717596  39.0246281  46.7025010  19.7021173
  38.4617116  46.2897620  20.2260834  39.7867305  46.6277916  20.1214316
  39.0540730  46.6302411  19.8414173  40.6331261  38.7077746   3.8282772
  40.8727265  38.9155730   3.0158115  40.9547102  37.9035255   3.9371717
  40.7168419  38.6191848   3.7243325  35.9421552  30.6371142   7.6742310
  36.6967520  31.0049459   7.4359360  35.7649086  31.0110696   8.4421490
  36.0276030  30.7469330   7.7527198  34.5842273  48.6923031  12.3057803
  35.2862852  48.1775020  12.3630559  34.5039756  49.0197183  13.1104678
  34.6766033  48.6637257  12.4330595  49.2356450  36.7865583  15.7189849
  48.3984871  36.8567770  15.9537444  49.2044681  36.7890077  14.8464152
  49.1074733  36.7975810  15.6249397  35.6321179  38.9298618  21.4338218
  35.8041683  38.8204513  22.2823499  36.1690537  39.5753024  21.1969410
  35.7366183  39.0090620  21.5243315  34.2978616  33.0441461   4.3720423
  34.1154190  33.2613342   3.5461416  35.1604229  33.1580474   4.4279037
  34.3983206  33.0931359   4.2574910  33.9093048  44.8829383  11.8143411
  34.7481948  45.1152316  11.8617172  33.9404817  44.0133695  11.7450446
  34.0374766  44.7886330  11.8108056  34.5345751  45.3030258  16.1156716
  35.0743976  45.1601390  16.7860089  33.8515698  45.7027009  16.4840743
  34.5137905  45.3409929  16.2691138  39.9778336  30.0467872   7.4069447
  40.7064496  29.8683827   6.9607603  40.0673228  30.8885952   7.6176625
  40.0984998  30.1451750   7.3722964  43.9586636  40.9821259  11.3101741
  44.7144151  41.4152773  11.3490649  44.0648961  40.3326029  11.8836377
  44.0856807  40.9498743  11.3999766  46.9966807  44.8094536  12.0604144
  46.5602039  44.8131279  12.8163115  46.6629723  45.4900035  11.6283721
  46.8829427  44.9106992  12.1084976  29.9382896  41.5230549  16.2691138
  29.6721312  40.7069666  16.4282128  29.9521461  41.5683705  15.3986653
  29.9007619  41.4087454  16.1644620  46.9164290  31.8508364  14.3033572
  47.5590199  31.9206469  14.8895487  47.1687311  31.1837587  13.8013114
  47.0486422  31.7634713  14.3160851  33.8440643  36.3215634   2.8842896
  33.1298820  36.0353813   3.2965328  34.3284612  36.6612260   3.5249283
  33.8100007  36.3297283   3.0398531  34.6881503  35.0608928  18.9158146
  33.9953300  34.5905907  19.1618877  35.3041830  34.8347232  19.4899853
  34.6766033  34.9576059  19.0367298  41.7266274  48.7612971  17.0313750
  40.9281520  48.5212471  17.2887618  42.1752286  48.8127364  17.7780797
  41.6740886  48.7335362  17.1798674  50.1311154  41.5275456  10.9523781
  50.7927588  40.9666125  10.8519689  49.4902566  41.0327487  11.2776472
  50.1340021  41.3711865  10.9856121  41.0187961  44.8245588   3.2604704
  41.4339110  44.4930611   2.5689200  40.1879891  44.5914490   3.1324841
  40.9575970  44.7416844   3.1395552  30.3476310  42.3089329  13.5502882
  30.1651883  42.2836215  12.6975174  31.0825979  42.7788267  13.5891791
  30.4290374  42.3750691  13.4300801  46.4175984  42.5440839  10.6935770
  46.6531573  42.6886038   9.8662620  46.5665548  43.3083247  11.0867283
  46.4741788  42.6779893  10.6299374  33.4122062  39.0274332  20.0584991
  34.1362034  39.0127362  20.5449886  33.5138198  39.7369687  19.5606959
  33.5340271  39.1299035  20.0563778  48.2466441  41.3842505   8.5305373
  48.5774658  41.9170145   7.9245468  48.8199529  41.4381392   9.1867324
  48.3800120  41.4712073   8.5383155  43.4598330  39.2307407   9.2128954
  43.5545184  39.9696701   9.6668579  42.8357174  38.8024883   9.6463518
  43.3807360  39.2768728   9.3437101  41.7150804  42.4093620  19.8619234
  42.2889666  41.7720864  20.0167798  41.6365608  42.4097702  18.9928892
  41.7884039  42.3158731  19.7565645  30.3147220  39.1882829  13.7001949
  30.8920723  39.0519280  14.3394194  29.6161282  38.7318613  13.9547533
  30.2968242  39.1005096  13.8324238  43.7121351  41.0756147   2.4465906
  43.6301514  41.1458334   3.3120893  44.3501072  41.6385891   2.2549646
  43.7941189  41.1695118   2.5455855  37.0714523  40.8416885  11.9140432
  36.8133767  40.0088620  11.8871731  37.1263005  41.0674498  11.0732932
  37.0414300  40.7514656  11.7860569  42.1515573  32.9445336  12.0144525
  41.4471899  32.4554521  12.1728444  42.2000547  32.9567810  11.1432969
  42.0545624  32.8734984  11.9083864  36.0449235  38.3954647  12.4005327
  35.4698826  38.5546816  13.0369288  35.6684911  37.7590057  11.9373777
  35.9052047  38.3252460  12.4259885  39.7122523  36.8677997  17.2597705
  39.3236956  36.4432215  16.6049896  39.0477222  37.1160146  17.7674732
  39.5569451  36.8416718  17.2385573  49.3545792  36.6253001  10.0345535
  49.0982357  35.8132943   9.8443418  50.1975106  36.6330569   9.8075722
  49.4411818  36.5064999   9.9730352  25.7906054  38.0394722  10.4149767
  25.8766305  37.6626591  11.1963297  26.4181851  37.6655168   9.9369726
  25.8962605  37.9280204  10.4595245  43.5348885  30.5652626  14.7721689
  43.9159397  29.8830797  15.1589564  42.7312169  30.2762228  14.5897354
  43.4725347  30.4219674  14.8025745  40.8161462  41.0976601   5.4574512
  41.6302100  41.3891494   5.3457283  40.7520603  40.4436464   4.8832805
  40.9264201  41.0441796   5.3563349  47.0370952  43.7802597  19.8704088
  46.8009589  42.9490662  19.7516148  47.6814181  43.7288205  20.4558932
  47.0965623  43.6500285  19.9389981  36.6869370  44.5698119  10.5846824
  37.3243317  44.3309866  11.1298618  37.1124441  44.7735278   9.8499985
  36.8445536  44.5649129  10.5563981  31.3782012  46.8086455  14.4681128
  31.4186158  47.0801306  13.6400908  31.9376536  47.3328363  14.8838916
  31.4665358  46.9262210  14.4073016  37.3272185  39.7900409   4.9221714
  37.7117338  39.5708115   5.6738259  37.0783805  40.6163354   5.0522790
  37.3474257  39.8798555   5.0522790  48.0607372  43.5647046  15.9332382
  47.7553189  44.2975103  16.2945698  47.3413588  43.1584976  15.6525168
  47.9094715  43.6128779  15.9445519  39.0690842  45.0470541  12.2640610
  39.1429850  44.8845713  13.1182460  39.8860348  45.2360731  12.0201092
  39.2007200  45.0507284  12.3538636  53.7609165  40.2040047  15.2600726
  53.6933665  40.2236006  14.3903313  53.7464827  41.0470374  15.4856397
  53.7487921  40.3313782  15.1653203  32.8296599  45.3928404   9.2935054
  32.0034716  45.6390141   9.1669333  32.8908590  45.3140485  10.1597112
  32.7170765  45.4173353   9.4023998  35.0472622  31.4597345  10.2530494
  34.1795048  31.5319945  10.3188103  35.3347827  32.2619424  10.4418469
  34.9612370  31.5891492  10.2905261  44.1705511  31.6075205  18.5841816
  44.9159103  31.4185015  18.1705241  43.7542816  32.1333443  18.0255672
  44.2190485  31.6577350  18.4406389  37.6095428  48.0105284   6.9954084
  37.8993726  47.6194266   6.2713310  38.3398908  48.1921989   7.4359359
  37.7602312  47.9799098   6.9536891  51.5467782  38.9784433  13.5347321
  52.0975703  38.3452502  13.7744413  51.5311897  39.5099826  14.2262825
  51.6252978  38.9633381  13.6726179  38.1990173  42.8123030  18.0807214
  37.7001866  43.5238798  18.1592103  39.0090397  43.1323697  18.0425377
  38.2446279  42.9649879  18.0863783  35.5501343  49.9872667  10.0614234
  35.3301639  49.6970022  10.8540901  35.3295865  49.3287622   9.5332146
  35.4848937  49.8472375  10.1003142  34.4618290  42.0745983  12.3269935
  34.1731539  41.4483455  12.8615663  35.3301638  42.0166271  12.3934616
  34.5478542  41.9733528  12.4160890  45.2496188  37.2180767  12.6451917
  44.9060954  36.4971102  12.9959167  45.3489231  37.0094618  11.8030275
  45.2138231  37.0804970  12.5723597  37.7169299  51.3602057   8.8444926
  38.3693357  50.8278499   9.0735952  37.0194908  51.0070709   9.2312800
  37.7100017  51.2291580   8.9357094  34.6650564  43.7141234   8.2512300
  35.4196532  44.0954274   8.4647763  34.0721176  44.1652378   8.7058997
  34.6887277  43.8370062   8.3495179  45.7109217  43.6806471   8.1875905
  46.2767250  44.3399681   8.1034448  45.0637121  44.0256169   8.6592307
  45.6987974  43.8288412   8.2448662  37.1257231  35.6704075  23.3769513
  36.3157006  35.9761855  23.2659355  37.6031917  36.3909657  23.4922097
  37.0760709  35.8218676  23.3776584  35.9848790  44.8849796  13.6252416
  35.4629544  45.0250087  14.3104280  36.3722811  44.1260460  13.8154533
  35.9652491  44.7935320  13.7553492  32.9739974  34.9355605   7.6947370
  32.6864770  34.5656875   6.9579318  33.6610443  35.4050460   7.4331075
  33.0328872  34.9502574   7.5462446  42.1815795  46.6245255   7.6112984
  41.9402471  45.8913116   7.2040049  42.3617128  47.1732112   6.9579318
  42.1723419  46.5967646   7.4543207  37.4115116  41.9153815   9.0233907
  37.2157899  42.5228549   8.4294210  37.6349461  41.2221759   8.5425581
  37.4149757  41.9031340   8.8649988  35.8093646  38.8008553   9.1414775
  36.5316298  38.9649711   8.6818581  35.3301639  39.5218218   9.0354115
  35.8457377  38.9306782   9.0580389  43.7687154  35.1372352  14.5211460
  42.9298254  35.1633630  14.2849723  43.8391521  35.7843087  15.1016807
  43.6555547  35.2368477  14.5720577  33.4601263  41.2066625  18.2468915
  33.9722360  41.4850878  17.5977675  33.1737605  41.9455919  18.6131728
  33.4936126  41.3568979  18.2058793  42.2156432  32.0357729   9.2539076
  42.9182785  31.8365477   8.7759034  41.9500621  31.2633671   9.5607919
  42.2803064  31.8920695   9.2284517  47.6444677  40.3440338  11.8072702
  47.5578652  40.4995764  12.6607481  47.1895157  40.9878414  11.4332107
  47.5647934  40.4616093  11.8779809  30.5468169  35.7136817   8.5432651
  30.6484305  36.5162978   8.8713627  31.3424056  35.5124153   8.2455732
  30.6796075  35.8022716   8.5468007  36.9784988  33.2993014  18.3069957
  36.7868185  33.3148148  19.1569380  37.8283584  33.4956688  18.2836611
  37.0760710  33.3307365  18.4293251  31.3631901  35.8283995  16.2853773
  31.2217393  34.9767936  16.4098281  31.6472464  35.8712656  15.4615979
  31.3839747  35.7083745  16.1821397  41.5170493  37.6651085  10.4298261
  41.2705208  37.5846836  11.2635050  41.8455616  36.8804553  10.2360789
  41.5291737  37.5377351  10.5245784  45.4118542  44.3734445  14.2185043
  45.2732902  45.0715491  14.7233785  44.6318540  44.2183101  13.8621224
  45.2761769  44.4534611  14.2411317  43.7496627  40.6730820  20.4707424
  43.7444666  39.8010637  20.4749851  44.4557621  40.8718989  19.9976880
  43.8541631  40.5734694  20.4014460  37.4767521  40.4007804  19.8421244
  37.6210896  40.9809012  19.2064354  37.8243169  40.7784101  20.5471099
  37.5494982  40.5428508  19.8520239  39.6487438  39.5997972  17.6246376
  38.9010752  39.7928987  17.2194654  39.8028963  38.7743192  17.3870497
  39.5609866  39.5063084  17.5291782  36.5495276  48.5910576  16.7082271
  36.6984839  48.0313492  16.0555676  37.3295278  48.6702578  17.0914790
  36.6869369  48.5196141  16.6679220  46.9071915  43.7312699   4.9801542
  46.5278724  42.9449836   4.9730831  46.2438160  44.2799556   4.8373186
  46.7530390  43.6957523   4.9582339  39.0748576  48.7625219  17.9866762
  38.9992247  48.0934029  18.5417550  39.0038435  49.4643007  18.5007428
  39.0529183  48.7670126  18.1443610  39.8889215  33.4948523  18.5141780
  40.3461829  34.2272497  18.6414572  39.9645544  33.0714988  19.2729035
  39.9680185  33.5405761  18.6442856  32.1322206  33.7414343  19.6031223
  31.5964396  33.1294701  19.9191991  32.1939971  34.3162479  20.2564890
  32.0617839  33.7361271  19.7466650  44.3616541  26.6738398  12.3835623
  44.4800109  27.1314862  11.6502925  44.1878717  25.8683660  12.0971840
  44.3535712  26.6232170  12.2336556  39.7318823  47.2826218   8.8190368
  40.4968714  47.0135861   8.4973032  39.6296913  46.7976228   9.5360431
  39.8300319  47.1715782   8.8770196  37.7671593  35.4850627  15.3583604
  36.9767668  35.3042087  15.6800939  38.1632216  34.7077580  15.3413898
  37.7088469  35.3438088  15.4036152  42.2537484  44.3138401   0.7990317
  43.0210469  44.3738526   0.3896169  41.8068793  43.7418843   0.3146636
  42.3010911  44.2374977   0.6668028  43.1515279  43.1193057  13.0843050
  42.4760281  42.8878289  13.5856437  43.1607655  42.5114240  12.4585155
  43.0533784  42.9951982  13.0659202  40.2809423  37.9610886  19.8407103
  40.2168564  38.8220843  19.7127239  40.4206611  37.6442879  19.0402654
  40.2924893  38.0411053  19.7035315  45.1532014  45.9758190   5.3153228
  45.2351851  46.7825176   4.9914678  45.6381756  45.9954149   6.0394001
  45.2369172  46.0978852   5.3740126  38.9628517  40.6543025  13.9823305
  38.5390766  40.8547525  13.2462324  38.7873372  39.8071873  14.0947605
  38.8739398  40.5591807  13.8896996  34.2510962  41.1495077   9.4151278
  34.4075581  41.0841880  10.2707270  34.5911555  41.9243629   9.2029958
  34.3244197  41.2544275   9.5105872  40.7890107  40.5252961   8.2844641
  41.3305652  40.0223342   8.7483262  41.1036666  40.4718155   7.4734127
  40.9154504  40.4432381   8.2328453  38.9576556  45.9170312   5.5684669
  39.0269377  45.0584851   5.7077670  39.7365012  46.1342193   5.2403694
  39.0829407  45.8223176   5.5401827  41.9379376  35.4189265  18.3366942
  42.1521346  34.7800179  17.7830296  41.3213275  35.8635089  17.9074803
  41.8784705  35.3899409  18.1917373  43.3484044  48.3408013   9.7821163
  42.9563836  48.0374728   9.0644029  43.5037116  49.1777103   9.5926116
  43.3137634  48.4191850   9.6477660  30.8245224  38.3330027   9.7312045
  31.2044188  38.7514572   9.0672313  30.2500588  38.9143483  10.0380889
  30.7956548  38.4807886   9.6788786  44.1018464  37.0278330  19.2750249
  43.2895146  36.7204221  19.3563422  44.5608399  36.5477330  19.8392961
  44.0498849  36.9114823  19.3704843  43.5123719  44.9058002   9.7227193
  43.1538374  45.0772645  10.4991226  43.0262430  45.3671208   9.1655192
  43.3882416  44.9996973   9.7552462  41.3294105  28.5289201  13.3254285
  40.4587663  28.5027922  13.2787594  41.5834446  28.3566393  12.5080130
  41.2387665  28.4999344  13.1974421  38.3012084  40.5857168   2.2627428
  38.5904609  41.3622050   2.5371002  38.3883883  40.0745899   2.9641927
  38.3566340  40.6249086   2.4069925  38.3543245  30.5395429  14.7827755
  37.8381734  29.8475621  14.9079334  37.7937174  31.2066206  14.7290354
  38.1949759  30.5358687  14.7933821  40.4235479  31.0788389  16.6120607
  40.0367232  31.1037421  17.3934137  39.9368416  30.5130068  16.1595124
  40.2947988  30.9984140  16.6608511  46.3985458  37.6451044  15.2360310
  45.9713066  37.5577393  14.4808409  45.7611511  37.7528820  15.8215154
  46.2415065  37.6483704  15.2105751  40.0892620  27.9655375  18.9030867
  40.7185738  28.5015675  18.6251938  40.2578483  27.8732734  19.7544433
  40.2070415  28.0316737  18.9879395  39.8906535  32.7526569  21.1757279
  40.7179965  32.4811718  21.2315893  39.9114381  33.5487411  21.5321097
  40.0159385  32.8306324  21.2372462  44.7282715  46.4881706  17.3099751
  45.5175093  46.1370771  17.4301832  44.9026313  47.3018095  17.0476385
  44.8702996  46.5567564  17.2887619  34.4676025  39.8990432  14.3627540
  33.6264032  39.7994306  14.5706433  34.6766033  40.6685912  14.7141860
  34.3740718  39.9982476  14.4454855  31.9451592  37.5209969  12.1912290
  31.5508290  37.5952981  11.4162400  31.3891709  37.9067915  12.7420652
  31.8054404  37.5891744  12.1579950  43.5816539  30.4991263  11.8716169
  43.7866132  30.4313571  12.7173166  43.2542963  31.3050084  11.8037347
  43.5631787  30.6077204  11.9875824  38.2792690  37.8271831  13.6125137
  37.9755828  37.2727820  14.2135545  37.5772111  38.0064041  13.1253171
  38.1308900  37.7716614  13.6294843  37.3358787  35.1372351   8.1769839
  37.6118521  34.4191264   7.7647407  37.9357456  35.7357271   7.9690945
  37.4652052  35.1192722   8.0850600  36.3411041  45.0421552  18.3197235
  36.2331396  45.0523614  19.1859293  36.5506823  45.8676332  18.1302189
  36.3561152  45.1662627  18.4201327  46.8350227  31.0523027  11.3518935
  46.2224540  31.5393430  11.7372666  46.9314402  30.3766518  11.8956586
  46.7588124  31.0241336  11.4897793  40.8369308  32.8085869   6.4516434
  41.2913054  32.9796429   7.1764279  41.3109353  32.1953979   6.0514210
  40.9737628  32.7436754   6.4990196  34.3584833  42.2934194  15.7819173
  33.7672766  42.9343693  15.7522188  35.1205857  42.7171812  15.7550472
  34.3833094  42.4510033  15.7734320  34.7545456  33.4536192  16.4487190
  35.2146937  33.5275122  17.1862314  34.8001563  34.2517446  16.0987011
  34.8296011  33.5830339  16.5059947  36.4028806  34.1202887  21.0159217
  36.0114371  33.4736234  21.4514995  36.5714668  34.7114322  21.6353473
  36.3699716  34.1117155  21.1721923  50.4775255  42.1239964  16.7796451
  50.5358378  42.5726613  17.5256427  49.8441722  42.5338777  16.3426531
  50.3926550  42.2513699  16.8248999  44.1174349  47.7443506  13.2151197
  43.9194038  48.2334321  12.5207408  43.4962060  47.9484748  13.7935330
  43.9961914  47.8460044  13.1974420  38.1782328  39.5128403   7.5561441
  38.9224373  39.9002679   7.7944391  38.3243024  38.6685828   7.7201929
  38.3092913  39.4458876   7.6155411  40.0961903  31.3078662  12.5893303
  39.2497948  31.4801470  12.4634652  40.0933036  30.5028006  12.9259131
  39.9709053  31.2139691  12.6204430  41.1660203  35.0853876  13.4555361
  40.6920158  34.5595638  13.9660672  41.5378339  34.5383349  12.8870222
  41.1510092  34.9269873  13.4470508  31.5433234  37.0825383  18.8238906
  32.4058847  36.9821092  18.7376236  31.2125017  36.5020092  18.2624479
  31.6218430  36.9817010  18.7284312  47.4296934  40.1456252  14.8662141
  47.1895157  39.3062667  14.8704568  47.9088941  40.2256419  15.5902915
  47.4649118  40.0337652  14.9736943  43.0943703  35.9790431   6.5181114
  42.5666722  36.0619175   5.8286823  43.5539411  36.7208302   6.5145759
  43.0845554  36.1011093   6.4155810  49.4302121  36.9257709  12.8191400
  49.1911891  36.8853543  11.9812185  49.5936022  37.7728861  12.9457121
  49.4192425  37.0449794  12.7144882  46.0348151  41.3107658  18.7496445
  46.7582350  40.8580185  18.5707465  45.7698114  41.5912324  17.9668773
  46.1029425  41.2858627  18.6075161  34.9035020  35.9067832  15.4849325
  34.2788090  35.9186224  14.8775277  34.5680614  36.3828007  16.1340565
  34.7620511  35.9786349  15.4905893  35.0876768  34.2492950   1.5422010
  34.7389573  34.9012676   2.0053559  34.6073214  34.2350063   0.8145881
  34.9647012  34.3436004   1.5033101  31.6160695  43.9668292  16.9253089
  31.0860620  43.2760731  16.9748064  31.8885788  43.9578477  16.0965797
  31.5785417  43.8635424  16.8100505  42.6480786  44.5493994   5.6490771
  43.3714985  45.0152107   5.5055345  42.2081377  44.6167604   4.8988368
  42.6896478  44.6277831   5.5175553  41.8166941  41.4091537  16.8991460
  41.2023934  40.8649587  17.1940096  42.3334226  40.8955773  16.4197277
  41.8022603  41.2527946  16.8715689  41.0563238  42.4795807  14.6335759
  40.6290846  41.8545525  14.2001194  41.0488182  42.1970728  15.4594766
  40.9922379  42.3448587  14.6915587  34.1725765  37.5160980  17.7024193
  34.3319252  36.7604304  18.1075915  33.9918659  38.0651919  18.3564931
  34.1691124  37.4854793  17.8586899  42.1146068  29.6822215  18.2574983
  41.6186629  29.8785889  17.5666549  42.8715130  30.0814884  18.0863784
  42.1532893  29.7699949  18.1295119  39.3848948  33.3564561  14.8478293
  39.4091435  32.8224673  14.1591073  39.6360421  32.8481870  15.5103884
  39.4258866  33.2025465  14.8442938  26.8956537  40.6396056  14.2821437
  26.7899986  40.5942900  13.4173521  26.1456757  40.9849837  14.5635722
  26.7692140  40.6836964  14.1958767  35.6650270  32.0835379  14.2284037
  35.7048641  32.5844586  14.9418745  34.8399934  32.1745773  13.9589960
  35.5489796  32.1717196  14.2934576  37.8479883  41.6496119  22.3304332
  36.9975513  41.7867834  22.4661977  38.0108010  40.9159898  22.7752034
  37.7463746  41.5610221  22.4159931  37.0864633  38.5995889  16.5257936
  36.2556563  38.7669707  16.3193184  37.0316150  38.2231840  17.3106822
  36.9554048  38.5685621  16.6106465  35.4600677  36.8751481   7.0548054
  35.6003638  37.3723945   7.7576695  35.9583210  36.1737775   7.1962268
  35.5541758  36.8453460   7.1799633  35.4900899  37.7418592   4.3840631
  36.1245979  38.3379017   4.3190093  35.5726510  37.4422049   5.1986501
  35.5957450  37.7859500   4.4943717  48.4683465  40.2734069  17.2526995
  49.0601305  40.9131320  17.2845193  48.9042460  39.5757106  17.5419062
  48.6201896  40.2652420  17.3007828  37.0679882  33.6732567   4.3586073
  37.3895723  33.1935650   3.7045335  37.3306826  34.4832213   4.1676885
  37.1545908  33.7222465   4.2341565  40.2976855  44.6951442  17.8784889
  39.7901946  45.2487288  18.3225519  40.0003501  44.7559731  17.0603664
  40.1781740  44.7857753  17.8233346  42.4639037  33.0604761  16.7209552
  42.8894109  32.6077288  16.1093078  41.8496030  32.5064832  16.9974339
  42.4367683  32.9118737  16.6714577  31.9953887  39.9386433   7.6530177
  32.5046117  40.5350940   8.0341482  32.4688160  39.6712406   6.9706597
  32.1397263  39.9872248   7.6084700  42.9084635  48.6114699   5.8088832
  42.1913945  48.4375561   5.3436070  43.5591373  48.3767272   5.2764319
  42.8986486  48.5510492   5.6618050  40.9033260  29.5319861  10.1300129
  40.2601578  29.3817507  10.6985267  40.5632667  29.2862206   9.3649234
  40.7578337  29.4731983  10.1003144  45.4932607  37.4879288   9.5530138
  44.8223796  38.0308990   9.4243203  46.1872357  37.9574143   9.3111832
  45.4961474  37.6377559   9.4985665  39.5419340  49.6276000  14.7841896
  39.3184995  48.8694829  15.1525922  39.0529184  49.6574021  14.0622336
  39.4362789  49.5198224  14.7318637  45.6560734  33.9435171  12.4620511
  46.0088344  33.5164894  13.1366310  44.7975536  33.8586015  12.5921587
  45.5810179  33.8679912  12.5815521  34.3544419  36.5742691  10.5203357
  33.6356408  36.9906824  10.7876221  34.7256781  37.1396930   9.9694995
  34.3036351  36.7191973  10.4786164  43.6544000  37.2070540  16.4105353
  43.6341927  37.0253835  17.2640132  43.7023201  38.0782559  16.3864937
  43.6578641  37.3087078  16.5328648  41.5990330  43.7957732  22.3353830
  41.5586185  43.1507409  21.7498985  42.4113648  43.7394349  22.6479242
  41.7133483  43.6916699  22.2950779  38.1897797  49.8476458  12.2378981
  37.7758196  49.1850588  11.8482822  38.8745171  49.9954317  11.7174675
  38.2296169  49.7717116  12.1035478  41.5563091  49.0066543  12.9902597
  41.1579375  49.1168814  12.2223417  40.9414311  49.2148609  13.5729157
  41.4061981  49.0540111  12.9633896  40.1290993  35.6140691   5.8576737
  39.5355833  35.9357688   5.3061304  40.1666271  34.7681786   5.6497843
  40.0465383  35.5365019   5.7459508  47.0884794  29.0653583  13.3904823
  46.5815659  28.3582723  13.3226001  47.8852228  28.7346772  13.5205900
  47.1312033  28.9126735  13.4003818  43.0048810  35.5720196   9.2878487
  42.7762503  35.5952897   8.4456845  43.2646886  34.7477663   9.4073498
  43.0094998  35.4536275   9.1803685  37.2868038  37.4254669  18.8903587
  36.7746941  36.8175852  19.2488619  37.1147535  38.1411261  19.3577563
  37.1857675  37.4417968  19.0119811  36.0593572  34.1096742  10.5832683
  36.5350939  34.4713822   9.9482864  35.5582172  34.7653209  10.8632825
  36.0558931  34.2590931  10.5309424  49.2904934  43.5818510   6.3745688
  49.6738540  44.3309866   6.6043785  48.4949047  43.8284330   6.1157677
  49.2298716  43.7288204   6.3703261  41.1637109  35.3478913  21.3305843
  41.7208539  35.1192723  20.6984308  40.8398174  36.1084579  21.0541055
  41.1983519  35.4262750  21.1962340  29.0335818  38.7739109  16.7994439
  28.4862537  38.1039755  16.9175307  29.8228196  38.4068957  16.8637906
  29.0688001  38.6204096  16.8263139  38.8820226  38.4346567  22.2957850
  39.6331553  38.7498243  22.6097404  39.0742802  38.2325737  21.4691772
  39.0211640  38.4513948  22.2201246  38.1020226  36.2537942   3.9506067
  38.4819190  36.2717571   3.1657181  37.3612822  36.6991930   3.8296914
  38.0489063  36.3219716   3.8169635  45.7305516  34.5620133   9.5381645
  45.7299743  34.4068789  10.3965922  45.5261696  35.4083120   9.4823031
  45.7005294  34.6640754   9.6569585  27.7922787  37.9859917  13.9540462
  27.6144548  37.5336526  14.6795377  27.5041809  38.7886079  14.1378939
  27.7235740  38.0382475  14.0883965  43.4546368  39.2417635  13.1917852
  43.9500033  38.5240630  13.1521872  42.6446144  38.9388432  13.0772339
  43.4090261  39.0915281  13.1691578  38.9004980  43.0915448   5.3414857
  38.0916302  42.7682121   5.2948166  39.4079889  42.3848670   5.2743105
  38.8554646  42.9396764   5.3245151  29.5295257  40.5187641  11.0662221
  28.6640776  40.5073331  10.9544992  29.6294073  40.3317864  11.9133360
  29.4169424  40.4893702  11.1751165  45.5198187  41.9921322  15.8794981
  45.9453259  41.4695744  15.3265406  45.1555107  42.5902160  15.3583604
  45.5284790  42.0031549  15.7203991  35.1552267  50.2885540  14.6392326
  35.4698826  51.1021928  14.6470108  35.5645680  49.9035758  15.3074486
  35.2620365  50.3514242  14.7396418  42.1076786  45.7055586  12.2096138
  42.5787965  46.4195849  12.3786124  42.4436965  45.1054337  12.7456008
  42.2271902  45.7227051  12.3128514  39.0246281  30.4783057  19.1654233
  39.1574187  29.6814050  19.4935209  39.4091434  31.0049460  19.7452509
  39.1002610  30.4382974  19.2997736  42.7450733  45.4973521  18.9723831
  42.1971679  44.8731404  18.7043896  43.2063762  45.6867793  18.2567910
  42.7317942  45.4332571  18.8274262  42.0978637  27.4013383  15.7635326
  41.2924600  27.2911113  16.0803165  41.9685372  27.5025839  14.9065192
  41.9598769  27.3997053  15.6843367  45.5544597  33.5658875  16.3575023
  44.9707586  34.0668081  15.9452591  45.8748891  33.0588431  15.7239347
  45.5157773  33.5650710  16.2033531  38.0939396  32.4799470   6.6333698
  38.9155091  32.6497783   6.3915393  37.6309047  32.6346731   5.9099996
  38.1470559  32.5281203   6.4905342  36.6834728  30.4742232  17.4132127
  37.2279141  30.1333359  18.0036469  36.7371664  31.3327694  17.5553412
  36.7723848  30.5497491  17.5214000  32.4965287  44.2358648  14.2870935
  33.1010144  44.1954482  13.6584756  32.2892600  45.0829800  14.3174991
  32.5554184  44.3546651  14.1987051  42.3109059  46.5024593  15.5033172
  43.1307433  46.3587559  15.7649467  42.0303137  47.1270792  16.0449610
  42.3905802  46.5734945  15.6221112  27.7316569  43.2193266  14.1569858
  27.6340847  42.4089537  14.4659915  28.5145439  43.1985059  13.7716126
  27.8332706  43.0960356  14.1456721  58.7822710  54.1589445   8.4676049
  58.7516714  55.0134082   8.6394318  59.3804058  53.8584738   9.0262192
  58.8659867  54.2405941   8.5750851  51.9822394  53.2465096  13.2228979
  51.1260290  53.4073594  13.2738096  52.0290048  52.3757160  13.2434040
  51.8621506  53.1415898  13.2335045  46.3663534  62.7827814   8.9866211
  45.6146434  62.4043352   8.7582256  46.8149546  62.8146247   8.2385021
  46.3213201  62.7313421   8.8423713  55.2916111  59.5151622  22.8289435
  55.9982878  59.0203652  22.9576370  55.4804046  59.9560703  22.0992093
  55.4244017  59.5069972  22.7398481  54.8274215  55.3057140  15.8660631
  55.3730175  55.9842226  15.9254600  54.7691092  55.1644601  15.0062212
  54.8990130  55.3849142  15.7472691  47.9448290  62.7946206  11.2528983
  48.0458653  61.9846560  11.5626111  47.3490036  62.7003152  10.6228662
  47.8720829  62.6611234  11.2055222  47.7849030  67.7123795  12.6543839
  48.4286485  68.1536959  13.0439998  48.1105285  66.9077221  12.5674098
  47.9280859  67.6588990  12.6989316  41.1413335  58.8166493  10.8781317
  40.9063519  57.9834145  10.7713586  41.2798975  59.0971158  10.0642518
  41.1268997  58.7349996  10.7423672  43.4403422  50.9852223  13.7765624
  42.8208454  50.3944870  13.6075639  43.3387286  51.5763658  13.1429948
  43.3341097  50.9856306  13.6570614  50.5371318  52.7251765   8.1098088
  51.2351482  52.9039892   8.6019551  50.8523650  52.2022104   7.4868477
  50.6866655  52.6745537   8.0900098  43.1672555  54.5304505  16.0209193
  43.0431252  55.1166950  16.6559012  43.8190840  54.0364701  16.3221468
  43.2446204  54.5443309  16.1595123  50.7259253  59.1122210   8.0977879
  51.1652888  58.5039310   8.5432652  50.5763916  58.7329583   7.3263344
  50.7680719  58.9660681   8.0497046  48.1930896  57.7066222  15.2996705
  48.8379899  57.2138665  14.9807653  48.4332673  57.8491008  16.1262783
  48.3241481  57.6543664  15.3746238  50.7316987  60.5521128  14.9503597
  51.0140230  59.7572533  14.7290353  51.4603148  61.0301715  14.9708658
  50.8806551  60.5055725  14.9206612  48.7098181  48.0944162  12.1919362
  48.3801511  48.5455305  11.5223061  48.0343183  48.0160325  12.7392369
  48.5608618  48.1495297  12.1742586  55.9174589  44.0829684  10.4368973
  55.6028030  44.7733163  10.8689395  55.4001531  44.0274467   9.7354474
  55.7939059  44.1764573  10.3965922  60.7135076  59.6580490  11.9239428
  59.8832779  59.8691134  12.0872844  60.6644328  58.8317544  11.6481711
  60.5841811  59.5670096  11.9076793  42.7030659  63.6952163  12.1537523
  42.2198237  64.4202653  12.1297107  43.5153977  63.9928293  12.2647681
  42.7521407  63.8454517  12.1664802  48.7744813  62.4884344  14.7587337
  48.2571755  62.1291759  14.1548645  49.4719205  61.9646518  14.7693404
  48.8010394  62.3582032  14.6717596  52.4308405  62.9379158  20.7203510
  52.5191751  62.7505298  21.5681721  52.8598118  62.2916588  20.3208357
  52.5070508  62.8142166  20.7875262  49.9978865  62.2210318  19.7021173
  49.4349700  61.8082928  20.2260834  50.7599889  62.1463224  20.1214316
  50.0273314  62.1487719  19.8414173  46.9154135  46.1556450   7.6742310
  47.6700103  46.5234767   7.4359360  46.7381670  46.5296004   8.4421490
  47.0008614  46.2654638   7.7527198  45.5574856  64.2108339  12.3057803
  46.2595436  63.6960328  12.3630559  45.4772340  64.5382491  13.1104678
  45.6498617  64.1822565  12.4330595  60.2089034  52.3050891  15.7189849
  59.3717455  52.3753078  15.9537444  60.1777265  52.3075385  14.8464152
  60.0807316  52.3161118  15.6249397  45.2711200  48.5626769   4.3720423
  45.0886773  48.7798650   3.5461416  46.1336813  48.6765782   4.4279037
  45.3715789  48.6116667   4.2574910  44.8825632  60.4014691  11.8143411
  45.7214531  60.6337624  11.8617172  44.9137401  59.5319003  11.7450446
  45.0107349  60.3071638  11.8108056  45.5078335  60.8215566  16.1156716
  46.0476560  60.6786697  16.7860089  44.8248281  61.2212317  16.4840743
  45.4870489  60.8595237  16.2691138  50.9510919  45.5653180   7.4069447
  51.6797080  45.3869135   6.9607603  51.0405812  46.4071259   7.6176625
  51.0717581  45.6637058   7.3722964  54.9319220  56.5006567  11.3101741
  55.6876735  56.9338081  11.3490649  55.0381544  55.8511337  11.8836377
  55.0589390  56.4684051  11.3999766  57.9699391  60.3279844  12.0604144
  57.5334623  60.3316587  12.8163115  57.6362306  61.0085343  11.6283721
  57.8562011  60.4292300  12.1084976  40.9115480  57.0415857  16.2691138
  40.6453895  56.2254974  16.4282128  40.9254044  57.0869013  15.3986653
  40.8740202  56.9272762  16.1644620  57.8896874  47.3693672  14.3033572
  58.5322782  47.4391777  14.8895487  58.1419895  46.7022895  13.8013114
  58.0219006  47.2820021  14.3160851  44.8173227  51.8400942   2.8842896
  44.1031404  51.5539121   3.2965328  45.3017196  52.1797567   3.5249283
  44.7832590  51.8482591   3.0398531  61.1043737  57.0460764  10.9523781
  61.7660171  56.4851433  10.8519689  60.4635149  56.5512795  11.2776472
  61.1072605  56.8897173  10.9856121  41.3208894  57.8274637  13.5502882
  41.1384467  57.8021523  12.6975174  42.0558563  58.2973574  13.5891791
  41.4022958  57.8935999  13.4300801  57.3908568  58.0626147  10.6935770
  57.6264157  58.2071345   9.8662620  57.5398131  58.8268555  11.0867283
  57.4474371  58.1965201  10.6299374  54.4330914  54.7492715   9.2128954
  54.5277768  55.4882009   9.6668579  53.8089757  54.3210191   9.6463518
  54.3539944  54.7954036   9.3437101  52.6883388  57.9278928  19.8619234
  53.2622249  57.2906172  20.0167798  52.6098191  57.9283010  18.9928892
  52.7616622  57.8344039  19.7565645  41.2879804  54.7068137  13.7001949
  41.8653307  54.5704588  14.3394194  40.5893866  54.2503921  13.9547533
  41.2700825  54.6190403  13.8324238  48.0447106  56.3602193  11.9140432
  47.7866350  55.5273928  11.8871731  48.0995589  56.5859806  11.0732932
  48.0146884  56.2699964  11.7860569  53.1248156  48.4630644  12.0144525
  52.4204483  47.9739829  12.1728444  53.1733131  48.4753118  11.1432969
  53.0278208  48.3920292  11.9083864  47.0181818  53.9139955  12.4005327
  46.4431410  54.0732124  13.0369288  46.6417495  53.2775365  11.9373777
  46.8784631  53.8437768  12.4259885  50.6855107  52.3863305  17.2597705
  50.2969540  51.9617522  16.6049896  50.0209805  52.6345454  17.7674732
  50.5302035  52.3602026  17.2385573  60.3278376  52.1438309  10.0345535
  60.0714941  51.3318251   9.8443418  61.1707690  52.1515877   9.8075722
  60.4144401  52.0250307   9.9730352  36.7638637  53.5580030  10.4149767
  36.8498889  53.1811899  11.1963297  37.3914435  53.1840476   9.9369726
  36.8695188  53.4465512  10.4595245  54.5081468  46.0837933  14.7721689
  54.8891980  45.4016105  15.1589564  53.7044753  45.7947536  14.5897354
  54.4457930  45.9404982  14.8025745  58.0103535  59.2987905  19.8704088
  57.7742173  58.4675970  19.7516148  58.6546764  59.2473513  20.4558932
  58.0698206  59.1685593  19.9389981  47.6601953  60.0883427  10.5846824
  48.2975900  59.8495174  11.1298618  48.0857025  60.2920586   9.8499985
  47.8178120  60.0834437  10.5563981  42.3514596  62.3271763  14.4681128
  42.3918741  62.5986614  13.6400908  42.9109120  62.8513671  14.8838916
  42.4397942  62.4447518  14.4073016  48.3004768  55.3085717   4.9221714
  48.6849921  55.0893423   5.6738259  48.0516389  56.1348662   5.0522790
  48.3206841  55.3983863   5.0522790  59.0339956  59.0832354  15.9332382
  58.7285773  59.8160411  16.2945698  58.3146172  58.6770284  15.6525168
  58.8827298  59.1314087  15.9445519  50.0423425  60.5655849  12.2640610
  50.1162434  60.4031021  13.1182460  50.8592932  60.7546039  12.0201092
  50.1739784  60.5692592  12.3538636  64.7341748  55.7225355  15.2600726
  64.6666248  55.7421314  14.3903313  64.7197411  56.5655682  15.4856397
  64.7220505  55.8499090  15.1653203  43.8029182  60.9113712   9.2935054
  42.9767300  61.1575449   9.1669333  43.8641173  60.8325793  10.1597112
  43.6903349  60.9358661   9.4023998  46.0205206  46.9782653  10.2530494
  45.1527631  47.0505253  10.3188103  46.3080410  47.7804732  10.4418469
  45.9344954  47.1076800  10.2905261  55.1438095  47.1260513  18.5841816
  55.8891687  46.9370323  18.1705241  54.7275399  47.6518751  18.0255672
  55.1923069  47.1762658  18.4406389  62.5200365  54.4969741  13.5347321
  63.0708287  53.8637810  13.7744413  62.5044481  55.0285134  14.2262825
  62.5985562  54.4818689  13.6726179  49.1722756  58.3308338  18.0807214
  48.6734450  59.0424106  18.1592103  49.9822981  58.6509005  18.0425377
  49.2178863  58.4835187  18.0863783  46.5233927  65.5057975  10.0614234
  46.3034222  65.2155330  10.8540901  46.3028449  64.8472930   9.5332146
  46.4581521  65.3657683  10.1003142  45.4350874  57.5931291  12.3269935
  45.1464123  56.9668763  12.8615663  46.3034222  57.5351579  12.3934616
  45.5211126  57.4918836  12.4160890  56.2228772  52.7366075  12.6451917
  55.8793538  52.0156410  12.9959167  56.3221814  52.5279926  11.8030275
  56.1870815  52.5990278  12.5723597  45.6383147  59.2326542   8.2512300
  46.3929115  59.6139581   8.4647763  45.0453760  59.6837686   8.7058997
  45.6619861  59.3555370   8.3495179  46.9581374  60.4035104  13.6252416
  46.4362127  60.5435395  14.3104280  47.3455394  59.6445768  13.8154533
  46.9385075  60.3120628  13.7553492  43.9472558  50.4540912   7.6947370
  43.6597354  50.0842183   6.9579318  44.6343026  50.9235768   7.4331075
  44.0061455  50.4687882   7.5462446  48.3847699  57.4339123   9.0233907
  48.1890482  58.0413857   8.4294210  48.6082045  56.7407067   8.5425581
  48.3882341  57.4216648   8.8649988  46.7826229  54.3193861   9.1414775
  47.5048881  54.4835019   8.6818581  46.3034222  55.0403526   9.0354115
  46.8189960  54.4492090   9.0580389  54.7419737  50.6557659  14.5211460
  53.9030838  50.6818938  14.2849723  54.8124104  51.3028395  15.1016807
  54.6288131  50.7553785  14.5720577  53.1889015  47.5543037   9.2539076
  53.8915368  47.3550785   8.7759034  52.9233204  46.7818979   9.5607919
  53.2535648  47.4106003   9.2284517  58.6177261  55.8625646  11.8072702
  58.5311235  56.0181072  12.6607481  58.1627741  56.5063722  11.4332107
  58.5380518  55.9801401  11.8779809  41.5200753  51.2322125   8.5432651
  41.6216889  52.0348286   8.8713627  42.3156639  51.0309461   8.2455732
  41.6528658  51.3208024   8.5468007  42.3364485  51.3469303  16.2853773
  42.1949976  50.4953244  16.4098281  42.6205048  51.3897964  15.4615979
  42.3572331  51.2269053  16.1821397  52.4903077  53.1836393  10.4298261
  52.2437791  53.1032144  11.2635050  52.8188200  52.3989861  10.2360789
  52.5024321  53.0562659  10.5245784  56.3851126  59.8919753  14.2185043
  56.2465485  60.5900799  14.7233785  55.6051124  59.7368409  13.8621224
  56.2494353  59.9719919  14.2411317  54.7229211  56.1916128  20.4707424
  54.7177249  55.3195945  20.4749851  55.4290205  56.3904297  19.9976880
  54.8274215  56.0920002  20.4014460  50.6220022  55.1183280  17.6246376
  49.8743336  55.3114295  17.2194654  50.7761547  54.2928500  17.3870497
  50.5342449  55.0248392  17.5291782  47.5227859  64.1095884  16.7082271
  47.6717423  63.5498800  16.0555676  48.3027861  64.1887885  17.0914790
  47.6601953  64.0381449  16.6679220  50.0481160  64.2810527  17.9866762
  49.9724831  63.6119337  18.5417550  49.9771019  64.9828315  18.5007428
  50.0261767  64.2855434  18.1443610  50.8621799  49.0133831  18.5141780
  51.3194413  49.7457805  18.6414572  50.9378127  48.5900296  19.2729035
  50.9412768  49.0591069  18.6442856  55.3349125  42.1923706  12.3835623
  55.4532693  42.6500170  11.6502925  55.1611300  41.3868967  12.0971840
  55.3268296  42.1417478  12.2336556  48.7404177  51.0035935  15.3583604
  47.9500251  50.8227395  15.6800939  49.1364799  50.2262888  15.3413898
  48.6821053  50.8623396  15.4036152  54.1247863  58.6378365  13.0843050
  53.4492865  58.4063597  13.5856437  54.1340239  58.0299548  12.4585155
  54.0266367  58.5137290  13.0659202  51.2542007  53.4796194  19.8407103
  51.1901148  54.3406151  19.7127239  51.3939195  53.1628187  19.0402654
  51.2657477  53.5596361  19.7035315  49.9361101  56.1728333  13.9823305
  49.5123350  56.3732832  13.2462324  49.7605956  55.3257181  14.0947605
  49.8471981  56.0777115  13.8896996  49.4372794  67.6878846  16.4444763
  49.9268724  66.9889636  16.2620427  48.8657026  67.3902716  17.0320820
  49.4257324  67.5405070  16.5045804  45.2243546  56.6680385   9.4151278
  45.3808165  56.6027188  10.2707270  45.5644139  57.4428937   9.2029958
  45.2976781  56.7729583   9.5105872  51.7622690  56.0438268   8.2844641
  52.3038236  55.5408650   8.7483262  52.0769249  55.9903463   7.4734127
  51.8887087  55.9617689   8.2328453  55.6339798  60.2540916  25.3971553
  56.4474663  59.9826065  25.5576686  55.4734764  59.9548456  24.5931749
  55.7309746  60.1695842  25.3016959  52.9111960  50.9374573  18.3366942
  53.1253929  50.2985487  17.7830296  52.2945859  51.3820397  17.9074803
  52.8517289  50.9084717  18.1917373  41.7977807  53.8515335   9.7312045
  42.1776772  54.2699880   9.0672313  41.2233172  54.4328791  10.0380889
  41.7689132  53.9993194   9.6788786  55.0751048  52.5463638  19.2750249
  54.2627729  52.2389529  19.3563422  55.5340982  52.0662638  19.8392961
  55.0231432  52.4300131  19.3704843  52.3026688  44.0474509  13.3254285
  51.4320246  44.0213230  13.2787594  52.5567030  43.8751701  12.5080130
  52.2120248  44.0184652  13.1974421  49.3275829  46.0580737  14.7827755
  48.8114317  45.3660929  14.9079334  48.7669758  46.7251514  14.7290354
  49.1682342  46.0543995  14.7933821  51.3968062  46.5973697  16.6120607
  51.0099815  46.6222729  17.3934137  50.9101000  46.0315376  16.1595124
  51.2680571  46.5169448  16.6608511  55.6461042  61.3147206  20.6694394
  56.2840762  60.8207402  20.3356850  55.0035133  61.2424607  20.0846621
  55.6455268  61.2306215  20.5336749  57.3718042  53.1636352  15.2360310
  56.9445650  53.0762701  14.4808409  56.7344095  53.2714128  15.8215154
  57.2147649  53.1669012  15.2105751  51.0625204  43.4840683  18.9030867
  51.6918322  44.0200983  18.6251938  51.2311067  43.3918042  19.7544433
  51.1802999  43.5502045  18.9879395  55.7015298  62.0067014  17.3099751
  56.4907676  61.6556079  17.4301832  55.8758896  62.8203403  17.0476385
  55.8435580  62.0752871  17.2887619  45.4408609  55.4175740  14.3627540
  44.5996615  55.3179614  14.5706433  45.6498617  56.1871220  14.7141860
  45.3473301  55.5167783  14.4454855  42.9184176  53.0395277  12.1912290
  42.5240873  53.1138289  11.4162400  42.3624293  53.4253223  12.7420652
  42.7786988  53.1077052  12.1579950  54.5549122  46.0176571  11.8716169
  54.7598716  45.9498879  12.7173166  54.2275546  46.8235392  11.8037347
  54.5364370  46.1262511  11.9875824  49.2525274  53.3457139  13.6125137
  48.9488411  52.7913128  14.2135545  48.5504694  53.5249349  13.1253171
  49.1041483  53.2901922  13.6294843  48.3091371  50.6557659   8.1769839
  48.5851105  49.9376572   7.7647407  48.9090040  51.2542579   7.9690945
  48.4384635  50.6378030   8.0850600  47.3143625  60.5606860  18.3197235
  47.2063980  60.5708922  19.1859293  47.5239406  61.3861640  18.1302189
  47.3293736  60.6847935  18.4201327  57.8082810  46.5708335  11.3518935
  57.1957124  47.0578737  11.7372666  57.9046985  45.8951826  11.8956586
  57.7320708  46.5426644  11.4897793  51.8101891  48.3271176   6.4516434
  52.2645638  48.4981737   7.1764279  52.2841937  47.7139287   6.0514210
  51.9470211  48.2622062   6.4990196  45.3317417  57.8119502  15.7819173
  44.7405350  58.4529001  15.7522188  46.0938440  58.2357120  15.7550472
  45.3565677  57.9695341  15.7734320  45.7278039  48.9721500  16.4487190
  46.1879521  49.0460430  17.1862314  45.7734146  49.7702754  16.0987011
  45.8028595  49.1015647  16.5059947  61.4507838  57.6425272  16.7796451
  61.5090962  58.0911921  17.5256427  60.8174306  58.0524085  16.3426531
  61.3659133  57.7699007  16.8248999  55.0906933  63.2628814  13.2151197
  54.8926621  63.7519628  12.5207408  54.4694644  63.4670055  13.7935330
  54.9694497  63.3645352  13.1974420  49.1514911  55.0313711   7.5561441
  49.8956956  55.4187987   7.7944391  49.2975607  54.1871136   7.7201929
  49.2825496  54.9644184   7.6155411  51.0694487  46.8263970  12.5893303
  50.2230532  46.9986777  12.4634652  51.0665619  46.0213313  12.9259131
  50.9441637  46.7324999  12.6204430  52.1392787  50.6039184  13.4555361
  51.6652741  50.0780946  13.9660672  52.5110923  50.0568657  12.8870222
  52.1242676  50.4455181  13.4470508  58.4029518  55.6641560  14.8662141
  58.1627741  54.8247975  14.8704568  58.8821525  55.7441726  15.5902915
  58.4381701  55.5522959  14.9736943  54.0676287  51.4975739   6.5181114
  53.5399305  51.5804483   5.8286823  54.5271995  52.2393610   6.5145759
  54.0578137  51.6196401   6.4155810  60.4034705  52.4443017  12.8191400
  60.1644475  52.4038851  11.9812185  60.5668606  53.2914169  12.9457121
  60.3925008  52.5635102  12.7144882  57.0080735  56.8292966  18.7496445
  57.7314934  56.3765493  18.5707465  56.7430697  57.1097632  17.9668773
  57.0762008  56.8043935  18.6075161  45.8767603  51.4253140  15.4849325
  45.2520673  51.4371532  14.8775277  45.5413198  51.9013315  16.1340565
  45.7353095  51.4971657  15.4905893  46.0609352  49.7678258   1.5422010
  45.7122156  50.4197984   2.0053559  45.5805798  49.7535371   0.8145881
  45.9379596  49.8621312   1.5033101  42.5893279  59.4853600  16.9253089
  42.0593203  58.7946039  16.9748064  42.8618372  59.4763785  16.0965797
  42.5518001  59.3820732  16.8100505  52.7899524  56.9276845  16.8991460
  52.1756517  56.3834895  17.1940096  53.3066809  56.4141081  16.4197277
  52.7755187  56.7713254  16.8715689  52.0295821  57.9981115  14.6335759
  51.6023429  57.3730833  14.2001194  52.0220766  57.7156036  15.4594766
  51.9654963  57.8633895  14.6915587  45.1458349  53.0346288  17.7024193
  45.3051835  52.2789612  18.1075915  44.9651242  53.5837227  18.3564931
  45.1423708  53.0040101  17.8586899  53.0878652  45.2007523  18.2574983
  52.5919213  45.3971197  17.5666549  53.8447714  45.6000191  18.0863784
  53.1265476  45.2885257  18.1295119  50.3581531  48.8749869  14.8478293
  50.3824018  48.3409981  14.1591073  50.6093005  48.3667178  15.5103884
  50.3991450  48.7210773  14.8442938  37.8689121  56.1581364  14.2821437
  37.7632570  56.1128208  13.4173521  37.1189341  56.5035145  14.5635722
  37.7424724  56.2022272  14.1958767  46.6382853  47.6020687  14.2284037
  46.6781225  48.1029894  14.9418745  45.8132518  47.6931081  13.9589960
  46.5222379  47.6902504  14.2934576  48.0597217  54.1181197  16.5257936
  47.2289146  54.2855015  16.3193184  48.0048734  53.7417148  17.3106822
  47.9286632  54.0870928  16.6106465  46.4333261  52.3936789   7.0548054
  46.5736222  52.8909253   7.7576695  46.9315793  51.6923083   7.1962268
  46.5274341  52.3638767   7.1799633  46.4633483  53.2603900   4.3840631
  47.0978562  53.8564325   4.3190093  46.5459094  52.9607357   5.1986501
  46.5690034  53.3044808   4.4943717  59.4416049  55.7919377  17.2526995
  60.0333889  56.4316628  17.2845193  59.8775043  55.0942414  17.5419062
  59.5934480  55.7837727  17.3007828  48.0412466  49.1917875   4.3586073
  48.3628307  48.7120958   3.7045335  48.3039410  50.0017521   4.1676885
  48.1278491  49.2407773   4.2341565  51.2709439  60.2136749  17.8784889
  50.7634530  60.7672596  18.3225519  50.9736085  60.2745039  17.0603664
  51.1514324  60.3043061  17.8233346  53.4371621  48.5790069  16.7209552
  53.8626692  48.1262596  16.1093078  52.8228614  48.0250140  16.9974339
  53.4100266  48.4304045  16.6714577  42.9686471  55.4571740   7.6530177
  43.4778700  56.0536248   8.0341482  43.4420743  55.1897714   6.9706597
  43.1129847  55.5057556   7.6084700  51.8765844  45.0505169  10.1300129
  51.2334162  44.9002815  10.6985267  51.5365251  44.8047514   9.3649234
  51.7310921  44.9917291  10.1003144  56.4665190  53.0064596   9.5530138
  55.7956380  53.5494298   9.4243203  57.1604940  53.4759451   9.3111832
  56.4694058  53.1562867   9.4985665  50.5151924  65.1461308  14.7841896
  50.2917578  64.3880137  15.1525922  50.0261767  65.1759329  14.0622336
  50.4095373  65.0383532  14.7318637  56.6293318  49.4620479  12.4620511
  56.9820928  49.0350202  13.1366310  55.7708119  49.3771323  12.5921587
  56.5542762  49.3865220  12.5815521  45.3277003  52.0927999  10.5203357
  44.6088992  52.5092132  10.7876221  45.6989365  52.6582238   9.9694995
  45.2768934  52.2377280  10.4786164  54.6276583  52.7255848  16.4105353
  54.6074511  52.5439143  17.2640132  54.6755784  53.5967866  16.3864937
  54.6311224  52.8272386  16.5328648  52.5722913  59.3143040  22.3353830
  52.5318768  58.6692717  21.7498985  53.3846232  59.2579657  22.6479242
  52.6866067  59.2102007  22.2950779  49.1630381  65.3661766  12.2378981
  48.7490779  64.7035896  11.8482822  49.8477755  65.5139625  11.7174675
  49.2028753  65.2902424  12.1035478  52.5295675  64.5251851  12.9902597
  52.1311958  64.6354121  12.2223417  51.9146895  64.7333917  13.5729157
  52.3794564  64.5725419  12.9633896  51.1023577  51.1325999   5.8576737
  50.5088416  51.4542995   5.3061304  51.1398855  50.2867094   5.6497843
  51.0197966  51.0550327   5.7459508  58.0617378  44.5838891  13.3904823
  57.5548242  43.8768031  13.3226001  58.8584811  44.2532080  13.5205900
  58.1044617  44.4312043  13.4003818  53.9781394  51.0905503   9.2878487
  53.7495087  51.1138205   8.4456845  54.2379470  50.2662970   9.4073498
  53.9827582  50.9721583   9.1803685  47.0326156  49.6282050  10.5832683
  47.5083522  49.9899130   9.9482864  46.5314756  50.2838517  10.8632825
  47.0291515  49.7776238  10.5309424  52.1369692  50.8664221  21.3305843
  52.6941122  50.6378031  20.6984308  51.8130757  51.6269887  21.0541055
  52.1716102  50.9448058  21.1962340  49.0752809  51.7723250   3.9506067
  49.4551774  51.7902879   3.1657181  48.3345405  52.2177238   3.8296914
  49.0221647  51.8405024   3.8169635  56.7038100  50.0805441   9.5381645
  56.7032326  49.9254097  10.3965922  56.4994280  50.9268428   9.4823031
  56.6737878  50.1826061   9.6569585  38.7655371  53.5045225  13.9540462
  38.5877132  53.0521834  14.6795377  38.4774393  54.3071387  14.1378939
  38.6968324  53.5567783  14.0883965  54.4278952  54.7602943  13.1917852
  54.9232617  54.0425938  13.1521872  53.6178727  54.4573740  13.0772339
  54.3822845  54.6100589  13.1691578  40.5027841  56.0372949  11.0662221
  39.6373360  56.0258639  10.9544992  40.6026656  55.8503172  11.9133360
  40.3902008  56.0079010  11.1751165  56.4930771  57.5106630  15.8794981
  56.9185842  56.9881052  15.3265406  56.1287690  58.1087467  15.3583604
  56.5017373  57.5216857  15.7203991  46.1284850  65.8070848  14.6392326
  46.4431409  66.6207236  14.6470108  46.5378264  65.4221066  15.3074486
  46.2352948  65.8699550  14.7396418  53.0809370  61.2240894  12.2096138
  53.5520548  61.9381157  12.3786124  53.4169549  60.6239644  12.7456008
  53.2004485  61.2412359  12.3128514  55.1686355  62.8342208  24.3888211
  55.2783320  62.0450768  24.7444958  55.4977251  62.7448144  23.5862549
  55.2338760  62.7048061  24.3230601  53.0711220  42.9198691  15.7635326
  52.2657184  42.8096421  16.0803165  52.9417956  43.0211147  14.9065192
  52.9331353  42.9182361  15.6843367  56.5277181  49.0844183  16.3575023
  55.9440170  49.5853389  15.9452591  56.8481475  48.5773739  15.7239347
  56.4890356  49.0836018  16.2033531  49.0671980  47.9984778   6.6333698
  49.8887674  48.1683091   6.3915393  48.6041631  48.1532039   5.9099996
  49.1203142  48.0466511   6.4905342  47.6567312  45.9927540  17.4132127
  48.2011725  45.6518667  18.0036469  47.7104248  46.8513002  17.5553412
  47.7456431  46.0682799  17.5214000  43.4697871  59.7543956  14.2870935
  44.0742728  59.7139790  13.6584756  43.2625183  60.6015108  14.3174991
  43.5286768  59.8731958  14.1987051  53.2841643  62.0209901  15.5033172
  54.1040017  61.8772867  15.7649467  53.0035720  62.6456100  16.0449610
  53.3638386  62.0920253  15.6221112  38.7049153  58.7378574  14.1569858
  38.6073431  57.9274845  14.4659915  39.4878023  58.7170367  13.7716126
  38.8065289  58.6145664  14.1456721  54.1405139  70.0489813  16.0209193
  54.0163835  70.6352258  16.6559012  54.7923423  69.5550008  16.3221468
  54.2178788  70.0628617  16.1595123  57.5786347  69.9669234  21.4338218
  57.7506850  69.8575129  22.2823499  58.1155704  70.6123640  21.1969410
  57.6831351  70.0461236  21.5243315  56.6346670  66.0979543  18.9158146
  55.9418467  65.6276523  19.1618877  57.2506997  65.8717848  19.4899853
  56.6231200  65.9946675  19.0367298  55.3587229  70.0644947  20.0584991
  56.0827201  70.0497978  20.5449886  55.4603365  70.7740303  19.5606959
  55.4805438  70.1669651  20.0563778  62.7332178  73.5444032  24.9233938
  61.9405159  73.8587544  25.1086557  62.8481105  73.7595500  24.0854722
  62.6327589  73.6227869  24.8272273  61.6587691  67.9048613  17.2597705
  61.2702123  67.4802830  16.6049896  60.9942389  68.1530762  17.7674732
  61.5034618  67.8787334  17.2385573  59.4405892  64.1077440  24.6384298
  59.1259334  64.8777002  24.3753860  59.1195825  63.5447696  24.0536525
  59.3464812  64.1387708  24.5125648  66.1170678  62.6445820  18.5841816
  66.8624270  62.4555631  18.1705241  65.7007983  63.1704058  18.0255672
  66.1655652  62.6947966  18.4406389  59.0722398  66.7074691  23.3769513
  58.2622174  67.0132470  23.2659355  59.5497085  67.4280273  23.4922097
  59.0225877  66.8589292  23.3776584  55.4066430  72.2437241  18.2468915
  55.9187527  72.5221494  17.5977675  55.1202772  72.9826535  18.6131728
  55.4401293  72.3939595  18.2058793  58.9250155  64.3363630  18.3069957
  58.7333352  64.3518764  19.1569380  59.7748751  64.5327304  18.2836611
  59.0225877  64.3677981  18.4293251  53.3097068  66.8654611  16.2853773
  53.1682560  66.0138552  16.4098281  53.5937632  66.9083272  15.4615979
  53.3304914  66.7454361  16.1821397  59.4232688  71.4378420  19.8421244
  59.5676064  72.0179628  19.2064354  59.7708336  71.8154717  20.5471099
  59.4960149  71.5799124  19.8520239  61.8354382  64.5319139  18.5141780
  62.2926996  65.2643113  18.6414572  61.9110711  64.1085604  19.2729035
  61.9145352  64.5776377  18.6442856  54.0787373  64.7784959  19.6031223
  53.5429563  64.1665317  19.9191991  54.1405138  65.3533095  20.2564890
  54.0083006  64.7731886  19.7466650  59.7136760  66.5221243  15.3583604
  58.9232835  66.3412703  15.6800939  60.1097383  65.7448195  15.3413898
  59.6553636  66.3808704  15.4036152  62.2274590  68.9981502  19.8407103
  62.1633732  69.8591458  19.7127239  62.3671778  68.6813495  19.0402654
  62.2390060  69.0781669  19.7035315  63.8844543  66.4559881  18.3366942
  64.0986513  65.8170795  17.7830296  63.2678442  66.9005705  17.9074803
  63.8249873  66.4270025  18.1917373  66.0483631  68.0648946  19.2750249
  65.2360313  67.7574836  19.3563422  66.5073566  67.5847946  19.8392961
  65.9964016  67.9485438  19.3704843  63.1437139  69.4709018  24.0578951
  63.6136770  70.0951134  24.4446825  63.1899019  68.8025993  24.6172166
  63.2205015  69.4643698  24.1979023  60.3008412  61.5766045  14.7827755
  59.7846901  60.8846236  14.9079334  59.7402341  62.2436822  14.7290354
  60.1414926  61.5729303  14.7933821  62.3700646  62.1159005  16.6120607
  61.9832399  62.1408037  17.3934137  61.8833583  61.5500684  16.1595124
  62.2413155  62.0354756  16.6608511  62.0357788  59.0025991  18.9030867
  62.6650906  59.5386291  18.6251938  62.2043650  58.9103349  19.7544433
  62.1535582  59.0687353  18.9879395  61.8371702  63.7897185  21.1757279
  62.6645132  63.5182334  21.2315893  61.8579549  64.5858027  21.5321097
  61.9624553  63.8676939  21.2372462  56.7010623  64.4906808  16.4487190
  57.1612105  64.5645738  17.1862314  56.7466730  65.2888062  16.0987011
  56.7761178  64.6200955  16.5059947  58.3493973  65.1573503  21.0159217
  57.9579538  64.5106850  21.4514995  58.5179835  65.7484938  21.6353473
  58.3164883  65.1487771  21.1721923  53.4898401  68.1195999  18.8238906
  54.3524014  68.0191708  18.7376236  53.1590184  67.5390708  18.2624479
  53.5683597  68.0187625  18.7284312  56.8500187  66.9438448  15.4849325
  56.2253257  66.9556840  14.8775277  56.5145782  67.4198623  16.1340565
  56.7085679  67.0156965  15.4905893  56.1190932  68.5531596  17.7024193
  56.2784419  67.7974920  18.1075915  55.9383826  69.1022535  18.3564931
  56.1156291  68.5225409  17.8586899  64.0611235  60.7192831  18.2574983
  63.5651796  60.9156505  17.5666549  64.8180297  61.1185499  18.0863784
  64.0998060  60.8070565  18.1295119  57.6115437  63.1205995  14.2284037
  57.6513809  63.6215202  14.9418745  56.7865102  63.2116389  13.9589960
  57.4954963  63.2087812  14.2934576  59.7945050  72.6866735  22.3304332
  58.9440680  72.8238449  22.4661977  59.9573178  71.9530513  22.7752034
  59.6928913  72.5980836  22.4159931  56.8413584  63.1275398  22.1614347
  57.4666287  62.5837531  22.4343779  56.3864064  62.6470316  21.5922137
  56.8661844  62.9764879  22.1175941  64.4104204  64.0975377  16.7209552
  64.8359276  63.6447903  16.1093078  63.7961197  63.5435448  16.9974339
  64.3832850  63.9489353  16.6714577  63.5455497  74.8328348  22.3353830
  63.5051352  74.1878025  21.7498985  64.3578815  74.7764965  22.6479242
  63.6598650  74.7287315  22.2950779  59.2333206  68.4625284  18.8903587
  58.7212109  67.8546467  19.2488619  59.0612702  69.1781877  19.3577563
  59.1322843  68.4788584  19.0119811  54.0798920  66.9062860  21.5405949
  53.9101511  67.5664235  20.9954156  53.6364870  67.1169421  22.2618438
  53.9898254  67.0348842  21.5667579  63.1102276  66.3849529  21.3305843
  63.6673706  66.1563339  20.6984308  62.7863341  67.1455195  21.0541055
  63.1448686  66.4633366  21.1962340  50.9800985  69.8109725  16.7994439
  50.4327704  69.1410371  16.9175307  51.7693363  69.4439573  16.8637906
  51.0153168  69.6574712  16.8263139  60.8285393  69.4717182  22.2957850
  61.5796720  69.7868859  22.6097404  61.0207970  69.2696353  21.4691772
  60.9676807  69.4884564  22.2201246  49.7387954  69.0230533  13.9540462
  49.5609715  68.5707142  14.6795377  49.4506976  69.8256694  14.1378939
  49.6700907  69.0753091  14.0883965  60.9711449  61.5153673  19.1654233
  61.1039354  60.7184666  19.4935209  61.3556601  62.0420076  19.7452509
  61.0467777  61.4753590  19.2997736  64.0443804  58.4383999  15.7635326
  63.2389767  58.3281729  16.0803165  63.9150539  58.5396455  14.9065192
  63.9063937  58.4367669  15.6843367  58.6299895  61.5112848  17.4132127
  59.1744308  61.1703975  18.0036469  58.6836831  62.3698309  17.5553412
  58.7189015  61.5868107  17.5214000  44.0134351  20.9344445   9.7629482
  44.7201119  20.4396476   9.8916416  44.2022287  21.3753526   9.0332140
  44.1462257  20.9262795   9.6738527  36.5067270  29.1316618  -0.4116114
  37.1504726  29.5729782  -0.0219956  36.8323526  28.3270045  -0.4985855
  36.6499099  29.0781813  -0.3670637  41.1526646  24.3571981   7.6543557
  41.2409991  24.1698122   8.5021768  41.5816358  23.7109411   7.2548404
  41.2288748  24.2334989   7.7215309  38.7197105  23.6403141   6.6361219
  38.1567940  23.2275751   7.1600881  39.4818129  23.5656047   7.0554363
  38.7491554  23.5680542   6.7754220  35.3272003  15.8676749   8.3678265
  35.4992507  15.7582644   9.2163546  35.8641361  16.5131155   8.1309457
  35.4317007  15.9468751   8.4583361  41.2646705  23.7881000  10.3187341
  42.0487121  23.9011848  10.6843083  41.0643299  22.9622137  10.5146027
  41.3512730  23.6827720  10.4021727  41.4217098  25.6991102   3.9653796
  40.6232344  25.4590602   4.2227665  41.8703110  25.7505495   4.7120844
  41.3691709  25.6713494   4.1138721  40.4817835  19.4451547  11.8573985
  39.6890816  19.7595059  12.0426604  40.5966762  19.6603016  11.0194769
  40.3813246  19.5235384  11.7612319  41.4101628  19.3471751   6.7959281
  41.9840490  18.7098995   6.9507845  41.3316432  19.3475833   5.9268939
  41.4834863  19.2536862   6.6905692  46.7321776  20.7180729   6.8044135
  46.4960413  19.8868793   6.6856195  47.3765005  20.6666336   7.3898979
  46.7916446  20.5878417   6.8730028  37.1891549  10.0084955  11.5724345
  36.8744990  10.7784518  11.3093907  36.8681482   9.4455211  10.9876572
  37.0950468  10.0395224  11.4465695  47.7558196  20.5025177   2.8672429
  47.4504013  21.2353234   3.2285745  47.0364412  20.0963107   2.5865215
  47.6045539  20.5506910   2.8785566  53.4559988  17.1418178   2.1940773
  53.3884489  17.1614137   1.3243360  53.4415651  17.9848505   2.4196444
  53.4438745  17.2691913   2.0993250  37.8940997  19.7501162   5.0147261
  37.3952690  20.4616929   5.0932150  38.7041221  20.0701828   4.9765424
  37.9397103  19.9028010   5.0203830  36.8208055  12.6082206  10.3109559
  36.0107830  12.9139986  10.1999402  37.2982741  13.3287788  10.4262143
  36.7711533  12.7596807  10.3116630  45.1069366  21.3112576   1.1525089
  44.9683725  22.0093622   1.6573832  44.3269364  21.1561232   0.7961271
  44.9712593  21.3912743   1.1751363  43.4447451  17.6108951   7.4047471
  43.4395490  16.7388768   7.4089897  44.1508445  17.8097120   6.9316927
  43.5492455  17.5112825   7.3354506  37.1718345  17.3385935   6.7761291
  37.3161720  17.9187143   6.1404401  37.5193993  17.7162232   7.4811146
  37.2445806  17.4806639   6.7860286  36.2446100  25.5288707   3.6422318
  36.3935663  24.9691623   2.9895722  37.0246102  25.6080709   4.0254837
  36.3820193  25.4574272   3.6019267  38.7699400  25.7003350   4.9206809
  38.6943071  25.0312160   5.4757597  38.6989259  26.4021138   5.4347475
  38.7480007  25.7048257   5.0783657  38.1591035  29.1071670   3.3784810
  38.6486965  28.4082459   3.1960474  37.5875267  28.8095540   3.9660867
  38.1475564  28.9597893   3.4385850  44.3558038  21.6733739  12.3311600
  45.1692903  21.4018888  12.4916733  44.1953004  21.3741279  11.5271796
  44.4527987  21.5888665  12.2357006  43.7969288  13.9656461   6.2090296
  42.9845970  13.6582352   6.2903468  44.2559223  13.4855462   6.7733008
  43.7449673  13.8492954   6.3044890  40.8922796  15.3716533  10.9918998
  41.3622427  15.9958649  11.3786872  40.9384676  14.7033508  11.5512213
  40.9690671  15.3651213  11.1319069  44.3679282  22.7340029   7.6034441
  45.0059003  22.2400225   7.2696897  43.7253374  22.6617430   7.0186668
  44.3673509  22.6499038   7.4676796  44.4233539  23.4259838   4.2439798
  45.2125917  23.0748902   4.3641879  44.5977137  24.2396226   3.9816431
  44.5653820  23.4945695   4.2227666  36.0361865  21.9799683   5.2537282
  35.9282220  21.9901745   6.1199340  36.2457646  22.8054464   5.0642236
  36.0511976  22.1040758   5.3541373  50.1726079  19.0618095   3.7136498
  50.2309202  19.5104744   4.4596474  49.5392546  19.4716908   3.2766578
  50.0877374  19.1891830   3.7589046  43.8125173  24.6821637   0.1491244
  43.6144862  25.1712452  -0.5452545  43.1912884  24.8862879   0.7275377
  43.6912738  24.7838175   0.1314467  45.7298975  18.2485790   5.6836492
  46.4533174  17.7958316   5.5047512  45.4648937  18.5290455   4.9008820
  45.7980248  18.2236758   5.5415207  41.5117765  18.3469668   3.8331507
  40.8974758  17.8027718   4.1280143  42.0285050  17.8333904   3.3537323
  41.4973427  18.1906077   3.8055736  37.5430707  18.5874251   9.2644379
  36.6926337  18.7245965   9.4002024  37.7058834  17.8538029   9.7092080
  37.4414570  18.4988352   9.3499978  48.1634289  17.2112200   4.1867042
  48.7552129  17.8509451   4.2185240  48.5993284  16.5135237   4.4759109
  48.3152720  17.2030551   4.2347874  39.9927679  21.6329573   4.8124936
  39.4852770  22.1865420   5.2565566  39.6954325  21.6937863   3.9943710
  39.8732564  21.7235884   4.7573392  39.2370164  26.5654131   1.7181943
  39.0135819  25.8072960   2.0865969  38.7480008  26.5952152   0.9962382
  39.1313613  26.4576355   1.6658684  41.2941154  20.7335863   9.2693876
  41.2537008  20.0885540   8.6839032  42.1064472  20.6772481   9.5819288
  41.4084307  20.6294830   9.2290826  41.2513915  25.9444674  -0.0757356
  40.8530199  26.0546945  -0.8436536  40.6365135  26.1526741   0.5069204
  41.1012805  25.9918242  -0.1026057  40.8587933  12.2857044   8.2645890
  41.4159363  12.0570854   7.6324355  40.5348998  13.0462710   7.9881102
  40.8934343  12.3640881   8.1302387  38.5771050  15.3724698   9.2297897
  39.3282377  15.6876375   9.5437451  38.7693626  15.1703869   8.4031818
  38.7162464  15.3892079   9.1541292  45.2149011  18.9299453   2.8135028
  45.6404083  18.4073875   2.2605453  44.8505931  19.5280291   2.2923651
  45.2235614  18.9409680   2.6544038  34.8503091  27.2263671   1.5732373
  35.1649650  28.0400059   1.5810155  35.2596504  26.8413889   2.2414532
  34.9571189  27.2892373   1.6736465  43.8904595  24.2535031  11.3228257
  44.0001560  23.4643591  11.6785005  44.2195492  24.1640967  10.5202595
  43.9557001  24.1240884  11.2570648  42.4401557  22.4351652   5.9063878
  41.8922503  21.8109535   5.6383943  42.9014585  22.6245924   5.1907957
  42.4268766  22.3710702   5.7614309  42.0059883  23.4402724   2.4373219
  42.8258257  23.2965690   2.6989514  41.7253961  24.0648923   2.9789657
  42.0856626  23.5113076   2.5561158  51.6773218  30.1843227   0.1569026
  50.8211114  30.3451725   0.2078143  51.7240872  29.3135291   0.1774087
  51.5572330  30.0794029   0.1675092  46.0614358  39.7205945  -4.0793743
  45.3097258  39.3421483  -4.3077698  46.5100370  39.7524379  -4.8274932
  46.0164025  39.6691552  -4.2236240  54.9866935  36.4529753   9.7629482
  55.6933702  35.9581783   9.8916416  55.1754870  36.8938834   9.0332140
  55.1194840  36.4448103   9.6738527  54.5225039  32.2435271   2.8000677
  55.0680999  32.9220358   2.8594647  54.4641916  32.1022732   1.9402259
  54.5940954  32.3227273   2.6812738  47.6399114  39.7324337  -1.8130970
  47.7409477  38.9224691  -1.5033842  47.0440859  39.6381284  -2.4431292
  47.5671653  39.5989365  -1.8604732  47.4799854  44.6501926  -0.4116114
  48.1237309  45.0915090  -0.0219956  47.8056109  43.8455352  -0.4985855
  47.6231682  44.5967121  -0.3670637  40.8364158  35.7544624  -2.1878636
  40.6014343  34.9212276  -2.2946368  40.9749799  36.0349289  -3.0017435
  40.8219821  35.6728127  -2.3236281  43.1354246  27.9230354   0.7105671
  42.5159278  27.3323002   0.5415686  43.0338110  28.5141790   0.0769994
  43.0291921  27.9234437   0.5910661  50.2322142  29.6629896  -4.9561866
  50.9302306  29.8418024  -4.4640402  50.5474474  29.1400235  -5.5791476
  50.3817479  29.6123668  -4.9759855  42.8623379  31.4682636   2.9549240
  42.7382076  32.0545082   3.5899059  43.5141663  30.9742832   3.2561515
  42.9397028  31.4821440   3.0935170  50.4210077  36.0500341  -4.9682074
  50.8603712  35.4417442  -4.5227301  50.2714740  35.6707714  -5.7396609
  50.4631543  35.9038812  -5.0162907  47.8881720  34.6444353   2.2336751
  48.5330722  34.1516796   1.9147700  48.1283497  34.7869140   3.0602830
  48.0192305  34.5921795   2.3086285  50.4267811  37.4899259   1.8843644
  50.7091054  36.6950665   1.6630400  51.1553972  37.9679846   1.9048705
  50.5757375  37.4433856   1.8546659  48.4049005  25.0322293  -0.8740591
  48.0752335  25.4833436  -1.5436892  47.7294007  24.9538456  -0.3267585
  48.2559441  25.0873428  -0.8917368  60.4085900  36.5958621  -1.1420525
  59.5783603  36.8069265  -0.9787109  60.3595152  35.7695676  -1.4178242
  60.2792635  36.5048227  -1.1583160  42.3981483  40.6330294  -0.9122430
  41.9149061  41.3580784  -0.9362847  43.2104801  40.9306425  -0.8012273
  42.4472231  40.7832648  -0.8995151  48.4695637  39.4262475   1.6927384
  47.9522579  39.0669890   1.0888692  49.1670028  38.9024650   1.7033450
  48.4961218  39.2960163   1.6057643  52.1259229  39.8757289   7.6543557
  52.2142575  39.6883430   8.5021768  52.5548942  39.2294719   7.2548404
  52.2021332  39.7520297   7.7215309  49.6929689  39.1588449   6.6361219
  49.1300524  38.7461059   7.1600881  50.4550712  39.0841355   7.0554363
  49.7224138  39.0865850   6.7754220  45.2525680  41.1486470  -0.7602150
  45.9546260  40.6338459  -0.7029394  45.1723163  41.4760622   0.0444725
  45.3449441  41.1200697  -0.6329358  59.9039858  29.2429022   2.6529896
  59.0668279  29.3131209   2.8877491  59.8728089  29.2453517   1.7804198
  59.7758140  29.2539249   2.5589444  46.3004587  31.3862057   8.3678265
  46.4725091  31.2767952   9.2163546  46.8373944  32.0316463   8.1309457
  46.4049591  31.4654059   8.4583361  44.5776456  37.3392822  -1.2516542
  45.4165355  37.5715755  -1.2042781  44.6088225  36.4697134  -1.3209507
  44.7058173  37.2449769  -1.2551898  45.2029159  37.7593698   3.0496763
  45.7427384  37.6164829   3.7200136  44.5199105  38.1590448   3.4180789
  45.1821313  37.7973369   3.2031185  54.6270044  33.4384698  -1.7558213
  55.3827559  33.8716213  -1.7169304  54.7332368  32.7889468  -1.1823576
  54.7540214  33.4062182  -1.6660187  57.6650215  37.2657975  -1.0055810
  57.2285447  37.2694718  -0.2496838  57.3313130  37.9463474  -1.4376232
  57.5512835  37.3670431  -0.9574977  52.2379288  39.3066308  10.3187341
  53.0219705  39.4197156  10.6843083  52.0375883  38.4807445  10.5146027
  52.3245314  39.2013028  10.4021727  40.6066304  33.9793988   3.2031185
  40.3404719  33.1633105   3.3622175  40.6204868  34.0247144   2.3326700
  40.5691026  33.8650893   3.0984667  57.5847698  24.3071803   1.2373618
  58.2273606  24.3769908   1.8235534  57.8370718  23.6401026   0.7353160
  57.7169830  24.2198152   1.2500898  45.3564910  27.5172367   5.8498192
  44.6636707  27.0469346   6.0958924  45.9725238  27.2910671   6.4239900
  45.3449440  27.4139498   5.9707345  52.3949682  41.2176410   3.9653796
  51.5964928  40.9775910   4.2227665  52.8435693  41.2690803   4.7120844
  52.3424293  41.1898801   4.1138721  60.7994561  33.9838895  -2.1136172
  61.4610995  33.4229564  -2.2140264  60.1585973  33.4890926  -1.7883481
  60.8023429  33.8275304  -2.0803832  41.0159718  34.7652768   0.4842929
  40.8335291  34.7399654  -0.3684779  41.7509386  35.2351706   0.5231838
  41.0973781  34.8314130   0.3640847  57.0859392  35.0004278  -2.3724184
  57.3214981  35.1449477  -3.1997333  57.2348955  35.7646686  -1.9792670
  57.1425195  35.1343332  -2.4360580  44.0805469  31.4837771   6.9925038
  44.8045442  31.4690801   7.4789932  44.1821606  32.1933126   6.4947006
  44.2023678  31.5862474   6.9903824  51.4550419  34.9636855  11.8573985
  50.6623399  35.2780367  12.0426604  51.5699346  35.1788324  11.0194769
  51.3545829  35.0420692  11.7612319  54.1281738  31.6870846  -3.8531000
  54.2228592  32.4260140  -3.3991374  53.5040581  31.2588322  -3.4196435
  54.0490768  31.7332167  -3.7222852  52.3834211  34.8657059   6.7959281
  52.9573073  34.2284303   6.9507845  52.3049015  34.8661141   5.9268939
  52.4567446  34.7722170   6.6905692  40.9830628  31.6446268   0.6341996
  41.5604131  31.5082719   1.2734241  40.2844690  31.1882053   0.8887580
  40.9651649  31.5568535   0.7664285  47.7397930  33.2980324  -1.1519521
  47.4817174  32.4652059  -1.1788222  47.7946413  33.5237937  -1.9927021
  47.7097708  33.2078095  -1.2799385  52.8198980  25.4008775  -1.0515429
  52.1155307  24.9117960  -0.8931509  52.8683955  25.4131249  -1.9226984
  52.7229032  25.3298423  -1.1576089  46.7132642  30.8518087  -0.6654627
  46.1382233  31.0110255  -0.0290666  46.3368319  30.2153496  -1.1286176
  46.5735455  30.7815900  -0.6400068  50.3805931  29.3241436   4.1937752
  49.9920364  28.8995654   3.5389943  49.7160629  29.5723586   4.7014779
  50.2252859  29.2980157   4.1725620  54.2032292  23.0216065   1.7061736
  54.5842804  22.3394236   2.0929610  53.3995577  22.7325667   1.5237401
  54.1408754  22.8783113   1.7365792  57.7054359  36.2366037   6.8044135
  57.4692997  35.4054101   6.6856195  58.3497588  36.1851644   7.3898979
  57.7649030  36.1063725   6.8730028  47.3552777  37.0261558  -2.4813129
  47.9926724  36.7873305  -1.9361336  47.7807849  37.2298717  -3.2159968
  47.5128944  37.0212568  -2.5095972  42.0465420  39.2649894   1.4021175
  42.0869565  39.5364745   0.5740954  42.6059944  39.7891802   1.8178963
  42.1348766  39.3825649   1.3413063  48.1624133  25.5270263  11.5724345
  47.8477574  26.2969826  11.3093907  47.8414065  24.9640519  10.9876572
  48.0683052  25.5580532  11.4465695  58.7290780  36.0210485   2.8672429
  58.4236597  36.7538542   3.2285745  58.0096996  35.6148415   2.5865215
  58.5778122  36.0692218   2.8785566  49.7374249  37.5033981  -0.8019343
  49.8113258  37.3409152   0.0522507  50.5543756  37.6924170  -1.0458861
  49.8690608  37.5070723  -0.7121317  64.4292572  32.6603486   2.1940773
  64.3617072  32.6799445   1.3243360  64.4148234  33.5033813   2.4196444
  64.4171329  32.7877221   2.0993250  43.4980006  37.8491843  -3.7724899
  42.6718124  38.0953581  -3.8990620  43.5591997  37.7703924  -2.9062841
  43.3854173  37.8736792  -3.6635955  54.8388919  24.0638644   5.5181863
  55.5842511  23.8748454   5.1045288  54.4226223  24.5896882   4.9595719
  54.8873893  24.1140789   5.3746436  62.2151189  31.4347872   0.4687368
  62.7659111  30.8015941   0.7084460  62.1995305  31.9663265   1.1602872
  62.2936386  31.4196820   0.6066226  48.8673580  35.2686470   5.0147261
  48.3685274  35.9802237   5.0932150  49.6773805  35.5887136   4.9765424
  48.9129687  35.4213318   5.0203830  46.2184751  42.4436106  -3.0045720
  45.9985046  42.1533461  -2.2119053  45.9979273  41.7851061  -3.5327807
  46.1532345  42.3035814  -2.9656811  45.1301698  34.5309423  -0.7390018
  44.8414946  33.9046894  -0.2044291  45.9985046  34.4729710  -0.6725338
  45.2161950  34.4296967  -0.6499063  55.9179596  29.6744206  -0.4208036
  55.5744361  28.9534541  -0.0700786  56.0172638  29.4658057  -1.2629678
  55.8821638  29.5368409  -0.4936356  45.3333971  36.1704674  -4.8147653
  46.0879939  36.5517713  -4.6012190  44.7404584  36.6215817  -4.3600956
  45.3570685  36.2933501  -4.7164775  47.7940638  28.1267514  10.3109559
  46.9840414  28.4325294  10.1999402  48.2715325  28.8473096  10.4262143
  47.7444117  28.2782115  10.3116630  46.6532198  37.3413235   0.5592462
  46.1312951  37.4813527   1.2444327  47.0406218  36.5823899   0.7494580
  46.6335899  37.2498759   0.6893539  48.0798523  34.3717254  -4.0426046
  47.8841306  34.9791988  -4.6365744  48.3032869  33.6785198  -4.5234373
  48.0833164  34.3594779  -4.2009966  46.4777053  31.2571992  -3.9245178
  47.1999705  31.4213150  -4.3841372  45.9985046  31.9781657  -4.0305838
  46.5140784  31.3870221  -4.0079564  54.4370561  27.5935791   1.4551507
  53.5981662  27.6197070   1.2189770  54.5074928  28.2406526   2.0356853
  54.3238955  27.6931916   1.5060624  44.1284670  33.6630064   5.1808962
  44.6405767  33.9414318   4.5317722  43.8421013  34.4019358   5.5471775
  44.1619533  33.8132418   5.1398840  58.3128085  32.8003777  -1.2587251
  58.2262059  32.9559203  -0.4052473  57.8578565  33.4441853  -1.6327846
  58.2331341  32.9179533  -1.1880145  47.6468396  25.7556453   5.2410003
  47.4551593  25.7711587   6.0909427  48.4966991  25.9520127   5.2176658
  47.7444117  25.7870804   5.3633298  42.0315309  28.2847434   3.2193820
  41.8900800  27.4331375   3.3438328  42.3155872  28.3276095   2.3956026
  42.0523155  28.1647184   3.1161444  52.1853901  30.1214525  -2.6361692
  51.9388615  30.0410275  -1.8024903  52.5139024  29.3367992  -2.8299164
  52.1975144  29.9940790  -2.5414169  56.0801950  36.8297884   1.1525089
  55.9416309  37.5278930   1.6573832  55.3001948  36.6746540   0.7961271
  55.9445177  36.9098051   1.1751363  54.4180035  33.1294259   7.4047471
  54.4128073  32.2574076   7.4089897  55.1241029  33.3282428   6.9316927
  54.5225039  33.0298133   7.3354506  48.1450928  32.8571243   6.7761291
  48.2894304  33.4372451   6.1404401  48.4926577  33.2347540   7.4811146
  48.2178390  32.9991947   6.7860286  50.3170846  32.0561412   4.5586423
  49.5694160  32.2492426   4.1534701  50.4712371  31.2306631   4.3210544
  50.2293273  31.9626523   4.4631829  47.2178683  41.0474015   3.6422318
  47.3668247  40.4876931   2.9895722  47.9978685  41.1266017   4.0254837
  47.3552777  40.9759580   3.6019267  49.7431984  41.2188658   4.9206809
  49.6675655  40.5497468   5.4757597  49.6721843  41.9206446   5.4347475
  49.7212591  41.2233565   5.0783657  50.5572623  25.9511962   5.4481826
  51.0145237  26.6835937   5.5754619  50.6328951  25.5278427   6.2069082
  50.6363592  25.9969200   5.5782903  42.8005614  26.1977782   6.5371270
  42.2647803  25.5858140   6.8532037  42.8623379  26.7725918   7.1904937
  42.7301246  26.1924710   6.6806697  48.4355000  27.9414066   2.2923651
  47.6451075  27.7605526   2.6140986  48.8315623  27.1641019   2.2753945
  48.3771877  27.8001527   2.3376199  53.8198687  35.5756496   0.0183096
  53.1443689  35.3441729   0.5196483  53.8291063  34.9677679  -0.6074799
  53.7217191  35.4515422  -0.0000751  50.9492831  30.4174325   6.7747149
  50.8851972  31.2784282   6.6467286  51.0890019  30.1006318   5.9742701
  50.9608301  30.4974492   6.6375362  49.6311925  33.1106465   0.9163352
  49.2074174  33.3110964   0.1802371  49.4556780  32.2635313   1.0287652
  49.5422805  33.0155246   0.8237042  49.1323618  44.6256978   3.3784810
  49.6219548  43.9267767   3.1960474  48.5607850  44.3280848   3.9660867
  49.1208148  44.4783201   3.4385850  44.9194370  33.6058516  -3.6508675
  45.0758989  33.5405319  -2.7952683  45.2594963  34.3807069  -3.8629996
  44.9927604  33.7107714  -3.5554081  51.4573514  32.9816400  -4.7815312
  51.9989060  32.4786781  -4.3176691  51.7720073  32.9281594  -5.5925827
  51.5837911  32.8995821  -4.8331500  55.3290622  37.1919047  12.3311600
  56.1425487  36.9204196  12.4916733  55.1685588  36.8926587  11.5271796
  55.4260570  37.1073973  12.2357006  52.6062784  27.8752704   5.2706989
  52.8204753  27.2363618   4.7170342  51.9896683  28.3198528   4.8414850
  52.5468113  27.8462848   5.1257420  41.4928631  30.7893467  -3.3347908
  41.8727596  31.2078011  -3.9987641  40.9183996  31.3706922  -3.0279065
  41.4639956  30.9371325  -3.3871167  54.7701872  29.4841769   6.2090296
  53.9578553  29.1767660   6.2903468  55.2291806  29.0040769   6.7733008
  54.7182256  29.3678262   6.3044890  51.9977512  20.9852640   0.2594331
  51.1271070  20.9591361   0.2127641  52.2517854  20.8129832  -0.5579823
  51.9071072  20.9562784   0.1314468  51.8655379  30.8901841  10.9918998
  52.3355010  31.5143957  11.3786872  51.9117259  30.2218816  11.5512213
  51.9423255  30.8836521  11.1319069  49.0226653  22.9958868   1.7167802
  48.5065141  22.3039060   1.8419381  48.4620582  23.6629645   1.6630400
  48.8633166  22.9922126   1.7273868  51.0918886  23.5351828   3.5460654
  50.7050639  23.5600860   4.3274184  50.6051824  22.9693507   3.0935171
  50.9631395  23.4547579   3.5948558  55.3411866  38.2525337   7.6034441
  55.9791586  37.7585533   7.2696897  54.6985957  38.1802738   7.0186668
  55.3406092  38.1684346   7.4676796  57.0668866  30.1014483   2.1700356
  56.6396474  30.0140832   1.4148456  56.4294919  30.2092259   2.7555201
  56.9098473  30.1047143   2.1445798  50.7576028  20.4218814   5.8370914
  51.3869146  20.9579114   5.5591985  50.9261891  20.3296173   6.6884480
  50.8753823  20.4880176   5.9219442  50.5589943  25.2090008   8.1097326
  51.3863372  24.9375157   8.1655940  50.5797789  26.0050850   8.4661144
  50.6842793  25.2869763   8.1712509  55.3966122  38.9445146   4.2439798
  56.1858500  38.5934210   4.3641879  55.5709720  39.7581534   3.9816431
  55.5386404  39.0131003   4.2227666  45.1359433  32.3553871   1.2967586
  44.2947439  32.2557745   1.5046480  45.3449441  33.1249352   1.6481907
  45.0424125  32.4545915   1.3794901  42.6135000  29.9773408  -0.8747663
  42.2191697  30.0516420  -1.6497553  42.0575116  30.3631355  -0.3239301
  42.4737812  30.0455183  -0.9080003  54.2499946  22.9554702  -1.1943784
  54.4549540  22.8877010  -0.3486787  53.9226370  23.7613523  -1.2622607
  54.2315194  23.0640643  -1.0784129  48.9476098  30.2835270   0.5465184
  48.6439235  29.7291259   1.1475592  48.2455518  30.4627480   0.0593218
  48.7992307  30.2280053   0.5634890  47.0094449  37.4984991   5.2537282
  46.9014803  37.5087053   6.1199340  47.2190230  38.3239772   5.0642236
  47.0244560  37.6226066   5.3541373  45.0268241  34.7497634   2.7159219
  44.4356174  35.3907132   2.6862234  45.7889264  35.1735251   2.6890519
  45.0516501  34.9073472   2.7074367  45.4228863  25.9099631   3.3827237
  45.8830345  25.9838561   4.1202361  45.4684970  26.7080885   3.0327058
  45.4979419  26.0393778   3.4399993  47.0712213  26.5766326   7.9499264
  46.6797778  25.9299673   8.3855042  47.2398076  27.1677761   8.5693519
  47.0383123  26.5680594   8.1061970  61.1458662  34.5803403   3.7136498
  61.2041786  35.0290052   4.4596474  60.5125130  34.9902216   3.2766578
  61.0609957  34.7077138   3.7589046  54.7857757  40.2006945   0.1491244
  54.5877445  40.6897760  -0.5452545  54.1645468  40.4048187   0.7275377
  54.6645321  40.3023483   0.1314467  48.8465735  31.9691842  -5.5098512
  49.5907780  32.3566118  -5.2715562  48.9926431  31.1249267  -5.3458024
  48.9776320  31.9022315  -5.4504542  50.7645311  23.7642101  -0.4766651
  49.9181356  23.9364909  -0.6025301  50.7616443  22.9591445  -0.1400822
  50.6392461  23.6703130  -0.4455524  51.8343611  27.5417315   0.3895407
  51.3603565  27.0159077   0.9000718  52.2061747  26.9946788  -0.1789731
  51.8193500  27.3833312   0.3810555  42.2116641  29.5388822   5.7578953
  43.0742254  29.4384531   5.6716283  41.8808424  28.9583531   5.1964525
  42.2901838  29.4380449   5.6624359  58.0980342  32.6019691   1.8002188
  57.8578564  31.7626106   1.8044614  58.5772349  32.6819858   2.5242961
  58.1332525  32.4901091   1.9076990  60.0985529  29.3821148  -0.2468553
  59.8595299  29.3416982  -1.0847768  60.2619430  30.2292300  -0.1202832
  60.0875832  29.5013233  -0.3515071  56.7031559  33.7671097   5.6836492
  57.4265758  33.3143624   5.5047512  56.4381521  34.0475763   4.9008820
  56.7712832  33.7422066   5.5415207  45.5718427  28.3631271   2.4189371
  44.9471497  28.3749663   1.8115324  45.2364022  28.8391446   3.0680612
  45.4303919  28.4349788   2.4245940  42.2844103  36.4231731   3.8593136
  41.7544027  35.7324170   3.9088110  42.5569196  36.4141916   3.0305844
  42.2468825  36.3198863   3.7440552  52.4850348  33.8654976   3.8331507
  51.8707341  33.3213026   4.1280143  53.0017633  33.3519212   3.3537323
  52.4706011  33.7091385   3.8055736  51.7246645  34.9359246   1.5675806
  51.2974253  34.3108964   1.1341241  51.7171590  34.6534168   2.3934813
  51.6605787  34.8012026   1.6255633  44.8409172  29.9724419   4.6364240
  45.0002659  29.2167743   5.0415962  44.6602066  30.5215358   5.2904977
  44.8374531  29.9418233   4.7926946  52.7829475  22.1385654   5.1915029
  52.2870037  22.3349329   4.5006596  53.5398538  22.5378323   5.0203831
  52.8216300  22.2263388   5.0635166  50.0532355  25.8128000   1.7818340
  50.0774842  25.2788113   1.0931120  50.3043829  25.3045309   2.4443930
  50.0942274  25.6588904   1.7782985  37.5639945  33.0959495   1.2161484
  37.4583394  33.0506340   0.3513568  36.8140165  33.4413276   1.4975769
  37.4375548  33.1400403   1.1298814  46.3333677  24.5398819   1.1624084
  46.3732049  25.0408025   1.8758792  45.5083342  24.6309212   0.8930007
  46.2173203  24.6280635   1.2274622  48.5163290  34.1059558   9.2644379
  47.6658921  34.2431273   9.4002024  48.6791418  33.3723337   9.7092080
  48.4147154  34.0173660   9.3499978  47.7548041  31.0559328   3.4597983
  46.9239970  31.2233146   3.2533231  47.6999558  30.6795279   4.2446868
  47.6237456  31.0249060   3.5446511  45.5631824  24.5468221   9.0954394
  46.1884527  24.0030354   9.3683826  45.1082304  24.0663139   8.5262184
  45.5880085  24.3957703   9.0515988  59.1366873  32.7297508   4.1867042
  59.7284713  33.3694759   4.2185240  59.5725867  32.0320545   4.4759109
  59.2885304  32.7215859   4.2347874  50.9660263  37.1514881   4.8124936
  50.4585354  37.7050728   5.2565566  50.6686909  37.2123171   3.9943710
  50.8465147  37.2421192   4.7573392  53.1322445  25.5168200   3.6549599
  53.5577516  25.0640727   3.0433125  52.5179438  24.9628271   3.9314386
  53.1051090  25.3682176   3.6054624  56.1616014  29.9442727  -3.5129816
  55.4907204  30.4872429  -3.6416750  56.8555764  30.4137582  -3.7548121
  56.1644882  30.0940998  -3.5674288  50.2102748  42.0839439   1.7181943
  49.9868402  41.3258268   2.0865969  49.7212591  42.1137460   0.9962382
  50.1046197  41.9761663   1.6658684  56.3244142  26.3998611  -0.6039442
  56.6771752  25.9728333   0.0706356  55.4658943  26.3149454  -0.4738366
  56.2493586  26.3243351  -0.4844432  45.0227827  29.0306130  -2.5456596
  44.3039816  29.4470263  -2.2783732  45.3940189  29.5960369  -3.0964958
  44.9719758  29.1755412  -2.5873789  54.3227407  29.6633979   3.3445400
  54.3025335  29.4817274   4.1980179  54.3706608  30.5345998   3.3204983
  54.3262048  29.7650517   3.4668695  52.2673737  36.2521171   9.2693876
  52.2269592  35.6070848   8.6839032  53.0797055  36.1957788   9.5819288
  52.3816891  36.1480138   9.2290826  48.8581205  42.3039897  -0.8280973
  48.4441603  41.6414027  -1.2177131  49.5428579  42.4517756  -1.3485279
  48.8979576  42.2280555  -0.9624476  52.2246499  41.4629982  -0.0757356
  51.8262782  41.5732253  -0.8436536  51.6097718  41.6712049   0.5069204
  52.0745388  41.5103550  -0.1026057  53.6732217  28.0283635  -3.7781466
  53.4445910  28.0516336  -4.6203108  53.9330294  27.2041102  -3.6586456
  53.6778406  27.9099715  -3.8856268  47.9551446  29.8818108   5.8243634
  47.4430349  29.2739291   6.1828665  47.7830942  30.5974700   6.2917610
  47.8541083  29.8981407   5.9459858  42.8017161  28.3255683   8.4745996
  42.6319751  28.9857058   7.9294202  42.3583110  28.5362244   9.1958485
  42.7116494  28.4541665   8.5007625  46.7276980  26.5660181  -2.4827271
  47.2034346  26.9277261  -3.1177089  46.2265580  27.2216648  -2.2027128
  46.7242339  26.7154370  -2.5350530  51.8320516  27.8042352   8.2645890
  52.3891946  27.5756162   7.6324355  51.5081581  28.5648018   7.9881102
  51.8666926  27.8826189   8.1302387  39.7019225  31.2302549   3.7334486
  39.1545945  30.5603194   3.8515354  40.4911603  30.8632396   3.7977953
  39.7371409  31.0767535   3.7603186  38.4606195  30.4423356   0.8880509
  38.2827956  29.9899965   1.6135424  38.1725217  31.2449518   1.0718986
  38.3919148  30.4945914   1.0224012  54.1229776  31.6981074   0.1257899
  54.6183441  30.9804069   0.0861919  53.3129551  31.3951871   0.0112386
  54.0773669  31.5478720   0.1031625  40.1978664  32.9751080  -1.9997732
  39.3324184  32.9636771  -2.1114961  40.2977480  32.7881303  -1.1526593
  40.0852831  32.9457141  -1.8908788  56.1881595  34.4484761   2.8135028
  56.6136666  33.9259183   2.2605453  55.8238514  35.0465599   2.2923651
  56.1968197  34.4594988   2.6544038  45.8235674  42.7448979   1.5732373
  46.1382233  43.5585367   1.5810155  46.2329088  42.3599197   2.2414532
  45.9303772  42.8077681   1.6736465  52.7760194  38.1619025  -0.8563815
  53.2471372  38.8759288  -0.6873830  53.1120373  37.5617776  -0.3203945
  52.8955309  38.1790490  -0.7531439  54.8637179  39.7720339  11.3228257
  54.9734144  38.9828899  11.6785005  55.1928075  39.6826275  10.5202595
  54.9289584  39.6426192  11.2570648  49.6929689  22.9346496   6.0994280
  49.8257595  22.1377489   6.4275256  50.0774842  23.4612899   6.6792556
  49.7686018  22.8946413   6.2337783  53.4134140  37.9536960   5.9063878
  52.8655086  37.3294843   5.6383943  53.8747169  38.1431232   5.1907957
  53.4001350  37.8896010   5.7614309  52.7662044  19.8576822   2.6975373
  51.9608008  19.7474552   3.0143212  52.6368780  19.9589278   1.8405239
  52.6282177  19.8560492   2.6183414  47.3518136  22.9305671   4.3472174
  47.8962549  22.5896798   4.9376515  47.4055071  23.7891133   4.4893458
  47.4407255  23.0060930   4.4554047  43.1648695  36.6922087   1.2210982
  43.7693552  36.6517921   0.5924802  42.9576007  37.5393239   1.2515038
  43.2237592  36.8110090   1.1327098  52.9792467  38.9588032   2.4373219
  53.7990840  38.8150998   2.6989514  52.6986544  39.5834231   2.9789657
  53.0589210  39.0298384   2.5561158  38.3999977  35.6756705   1.0909905
  38.3024255  34.8652976   1.3999961  39.1828846  35.6548498   0.7056173
  38.5016113  35.5523795   1.0796768  54.1086829  43.4415662   0.7105671
  53.4891861  42.8508309   0.5415686  54.0070693  44.0327097   0.0769994
  54.0024505  43.4419745   0.5910661  53.8355963  46.9867944   2.9549240
  53.7114659  47.5730389   3.5899059  54.4874247  46.4928140   3.2561515
  53.9129612  47.0006748   3.0935170  57.2737171  46.9047365   8.3678265
  57.4457674  46.7953260   9.2163546  57.8106528  47.5501771   8.1309457
  57.3782175  46.9839367   8.4583361  63.2111872  54.8251616  10.3187341
  63.9952289  54.9382464  10.6843083  63.0108467  53.9992753  10.5146027
  63.2977897  54.7198336  10.4021727  51.5798887  49.4979296   3.2031185
  51.3137303  48.6818413   3.3622175  51.5937452  49.5432452   2.3326700
  51.5423610  49.3836201   3.0984667  56.3297494  43.0357675   5.8498192
  55.6369291  42.5654654   6.0958924  56.9457821  42.8095979   6.4239900
  56.3182024  42.9324806   5.9707345  55.0538053  47.0023079   6.9925038
  55.7778025  46.9876109   7.4789932  55.1554189  47.7118434   6.4947006
  55.1756262  47.1047782   6.9903824  62.4283002  50.4822163  11.8573985
  61.6355983  50.7965675  12.0426604  62.5431929  50.6973632  11.0194769
  62.3278413  50.5606000  11.7612319  61.3538514  44.8426744   4.1937752
  60.9652947  44.4180962   3.5389943  60.6893213  45.0908893   4.7014779
  61.1985442  44.8165465   4.1725620  65.1764876  38.5401373   1.7061736
  65.5575388  37.8579544   2.0929610  64.3728160  38.2510975   1.5237401
  65.1141338  38.3968421   1.7365792  59.1356716  41.0455571  11.5724345
  58.8210157  41.8155134  11.3093907  58.8146649  40.4825827  10.9876572
  59.0415635  41.0765839  11.4465695  65.8121502  39.5823952   5.5181863
  66.5575094  39.3933762   5.1045288  65.3958807  40.1082190   4.9595719
  65.8606476  39.6326097   5.3746436  58.7673222  43.6452822  10.3109559
  57.9572998  43.9510602  10.1999402  59.2447909  44.3658404  10.4262143
  58.7176701  43.7967423  10.3116630  55.1017254  49.1815372   5.1808962
  55.6138351  49.4599625   4.5317722  54.8153596  49.9204666   5.5471775
  55.1352117  49.3317726   5.1398840  58.6200979  41.2741761   5.2410003
  58.4284176  41.2896895   6.0909427  59.4699575  41.4705435   5.2176658
  58.7176701  41.3056112   5.3633298  53.0047892  43.8032742   3.2193820
  52.8633384  42.9516683   3.3438328  53.2888456  43.8461403   2.3956026
  53.0255738  43.6832492   3.1161444  59.1183512  48.3756551   6.7761291
  59.2626888  48.9557759   6.1404401  59.4659160  48.7532848   7.4811146
  59.1910973  48.5177255   6.7860286  61.5305206  41.4697270   5.4481826
  61.9877820  42.2021244   5.5754619  61.6061535  41.0463735   6.2069082
  61.6096176  41.5154508   5.5782903  53.7738197  41.7163090   6.5371270
  53.2380387  41.1043448   6.8532037  53.8355962  42.2911226   7.1904937
  53.7033830  41.7110018   6.6806697  59.4087584  43.4599374   2.2923651
  58.6183659  43.2790834   2.6140986  59.8048207  42.6826327   2.2753945
  59.3504460  43.3186835   2.3376199  61.9225414  45.9359633   6.7747149
  61.8584556  46.7969590   6.6467286  62.0622602  45.6191626   5.9742701
  61.9340884  46.0159800   6.6375362  66.3023205  52.7104355  12.3311600
  67.1158071  52.4389504  12.4916733  66.1418172  52.4111895  11.5271796
  66.3993154  52.6259281  12.2357006  63.5795367  43.3938012   5.2706989
  63.7937337  42.7548926   4.7170342  62.9629266  43.8383836   4.8414850
  63.5200696  43.3648156   5.1257420  65.7434455  45.0027077   6.2090296
  64.9311137  44.6952968   6.2903468  66.2024390  44.5226077   6.7733008
  65.6914840  44.8863570   6.3044890  62.9710096  36.5037948   0.2594331
  62.1003654  36.4776669   0.2127641  63.2250437  36.3315140  -0.5579823
  62.8803656  36.4748091   0.1314468  62.8387963  46.4087149  10.9918998
  63.3087594  47.0329265  11.3786872  62.8849843  45.7404124  11.5512213
  62.9155839  46.4021829  11.1319069  59.9959236  38.5144176   1.7167802
  59.4797725  37.8224368   1.8419381  59.4353165  39.1814953   1.6630400
  59.8365750  38.5107434   1.7273868  62.0651470  39.0537136   3.5460654
  61.6783223  39.0786168   4.3274184  61.5784407  38.4878815   3.0935171
  61.9363979  38.9732887   3.5948558  61.7308612  35.9404122   5.8370914
  62.3601730  36.4764422   5.5591985  61.8994474  35.8481481   6.6884480
  61.8486406  36.0065484   5.9219442  61.5322526  40.7275316   8.1097326
  62.3595956  40.4560465   8.1655940  61.5530372  41.5236158   8.4661144
  61.6575376  40.8055071   8.1712509  56.3961447  41.4284939   3.3827237
  56.8562928  41.5023869   4.1202361  56.4417554  42.2266193   3.0327058
  56.4712002  41.5579086   3.4399993  58.0444797  42.0951634   7.9499264
  57.6530362  41.4484981   8.3855042  58.2130659  42.6863069   8.5693519
  58.0115707  42.0865902   8.1061970  53.1849225  45.0574130   5.7578953
  54.0474838  44.9569839   5.6716283  52.8541008  44.4768839   5.1964525
  53.2634421  44.9565757   5.6624359  56.5451011  43.8816579   2.4189371
  55.9204081  43.8934971   1.8115324  56.2096606  44.3576754   3.0680612
  56.4036503  43.9535096   2.4245940  55.8141756  45.4909727   4.6364240
  55.9735243  44.7353051   5.0415962  55.6334650  46.0400666   5.2904977
  55.8107115  45.4603540   4.7926946  63.7562059  37.6570962   5.1915029
  63.2602620  37.8534637   4.5006596  64.5131121  38.0563631   5.0203831
  63.7948884  37.7448696   5.0635166  61.0264939  41.3313308   1.7818340
  61.0507426  40.7973420   1.0931120  61.2776412  40.8230617   2.4443930
  61.0674857  41.1774212   1.7782985  57.3066261  40.0584126   1.1624084
  57.3464632  40.5593333   1.8758792  56.4815926  40.1494520   0.8930007
  57.1905787  40.1465943   1.2274622  59.4895874  49.6244866   9.2644379
  58.6391504  49.7616581   9.4002024  59.6524001  48.8908645   9.7092080
  59.3879737  49.5358968   9.3499978  58.7280624  46.5744636   3.4597983
  57.8972554  46.7418454   3.2533231  58.6732141  46.1980587   4.2446868
  58.5970039  46.5434368   3.5446511  56.5364408  40.0653529   9.0954394
  57.1617111  39.5215662   9.3683826  56.0814887  39.5848447   8.5262184
  56.5612668  39.9143011   9.0515988  64.1055028  41.0353508   3.6549599
  64.5310100  40.5826035   3.0433125  63.4912021  40.4813579   3.9314386
  64.0783674  40.8867484   3.6054624  63.2406321  51.7706479   9.2693876
  63.2002176  51.1256156   8.6839032  64.0529639  51.7143096   9.5819288
  63.3549474  51.6665446   9.2290826  58.9284029  45.4003416   5.8243634
  58.4162933  44.7924599   6.1828665  58.7563526  46.1160008   6.2917610
  58.8273666  45.4166715   5.9459858  53.7749744  43.8440991   8.4745996
  53.6052334  44.5042366   7.9294202  53.3315694  44.0547552   9.1958485
  53.6849078  43.9726973   8.5007625  62.8053100  43.3227660   8.2645890
  63.3624530  43.0941470   7.6324355  62.4814165  44.0833326   7.9881102
  62.8399510  43.4011497   8.1302387  50.6751809  46.7487856   3.7334486
  50.1278528  46.0788502   3.8515354  51.4644187  46.3817704   3.7977953
  50.7103992  46.5952843   3.7603186  60.5236217  46.4095314   9.2297897
  61.2747544  46.7246990   9.5437451  60.7158794  46.2074484   8.4031818
  60.6627631  46.4262695   9.1541292  49.4338778  45.9608664   0.8880509
  49.2560539  45.5085273   1.6135424  49.1457800  46.7634826   1.0718986
  49.3651731  46.0131222   1.0224012  60.6662273  38.4531804   6.0994280
  60.7990178  37.6562797   6.4275256  61.0507425  38.9798207   6.6792556
  60.7418601  38.4131721   6.2337783  63.7394628  35.3762130   2.6975373
  62.9340591  35.2659860   3.0143212  63.6101363  35.4774586   1.8405239
  63.6014761  35.3745800   2.6183414  58.3250719  38.4490979   4.3472174
  58.8695132  38.1082106   4.9376515  58.3787655  39.3076441   4.4893458
  58.4139839  38.5246238   4.4554047   2.0475556  58.8969461  36.2954240
   1.7328997  59.5872940  36.7274662   1.5302498  58.8414244  35.5939740
   1.9240027  58.9904350  36.2551189   6.3390001  67.1190667  41.5775116
   5.5018423  67.1892855  41.8122711   6.3078232  67.1215162  40.7049418
   6.2108284  67.1300895  41.4834664   4.0197841  62.1833449  40.1618838
   4.6623750  62.2531554  40.7480754   4.2720862  61.5162672  39.6598380
   4.1519973  62.0959798  40.1746118   6.4579344  66.9578086  35.8930802
   6.2015908  66.1458028  35.7028685   7.3008658  66.9655654  35.6660989
   6.5445369  66.8390084  35.8315619   1.2739062  61.9400290  44.4427083
   2.0192654  61.7510100  44.0290508   0.8576367  62.4658528  43.8840939
   1.3224036  61.9902435  44.2991656   8.6501333  69.3109518  39.3932588
   9.2009255  68.6777587  39.6329680   8.6345448  69.8424911  40.0848092
   8.7286529  69.2958466  39.5311446   2.3529739  67.5505852  38.5037184
   2.0094505  66.8296187  38.8544434   2.4522782  67.3419703  37.6615542
   2.3171782  67.4130055  38.4308864   1.4650092  57.0063483  38.2420889
   1.5833660  57.4639947  37.5088192   1.2912268  56.2008744  37.9557107
   1.4569263  56.9557255  38.0921823   3.9383778  61.3848112  37.2104201
   3.3258091  61.8718514  37.5957933   4.0347953  60.7091603  37.7541853
   3.8621675  61.3566421  37.3483060   6.5335672  67.2582794  38.6776667
   6.2945442  67.2178628  37.8397452   6.6969573  68.1053946  38.8042388
   6.5225976  67.3774879  38.5730149   2.7594285  64.2760256  38.3205778
   3.1121895  63.8489979  38.9951576   1.9009087  64.1911100  38.4506854
   2.6843730  64.2004997  38.4400788   4.1918345  59.3978668  39.2490090
   3.6849210  58.6907808  39.1811268   4.9885779  59.0671857  39.3791167
   4.2345584  59.2451820  39.2589085   2.8339067  64.8945218  35.3966912
   2.8333294  64.7393874  36.2551189   2.6295247  65.7408205  35.3408298
   2.8038845  64.9965838  35.5154852   2.6578148  63.8983960  42.2160290
   2.0741137  64.3993166  41.8037858   2.9782442  63.3913516  41.5824614
   2.6191324  63.8975795  42.0618797   4.6074501  45.9107353  21.2601362
   4.5768505  46.7651990  21.4319632   5.2055850  45.6102646  21.8187506
   4.6911659  45.9923850  21.3676165   1.1167902  51.2669530  35.6214749
   1.8234670  50.7721560  35.7501683   1.3055838  51.7078611  34.8917407
   1.2495808  51.2587880  35.5323794   2.4291075  48.4859655  19.5319672
   2.3130601  49.2367341  19.9611810   3.2246962  48.2283608  19.7815759
   2.5295665  48.5594502  19.6323764   1.7426380  35.8347593  23.2294287
   1.4279821  36.5251071  23.6614709   1.2253322  35.7792375  22.5279787
   1.6190851  35.9282481  23.1891236   6.5386867  51.4098398  24.7164742
   5.7084570  51.6209042  24.8798158   6.4896119  50.5835453  24.4407025
   6.4093603  51.3188004  24.7002107   6.0340825  44.0568799  28.5115163
   5.1969247  44.1270986  28.7462757   6.0029056  44.0593294  27.6389465
   5.9059108  44.0679026  28.4174711   0.7571011  48.2524475  24.1027054
   1.5128526  48.6855990  24.1415963   0.8633336  47.6029245  24.6761690
   0.8841182  48.2201959  24.1925080   3.7951182  52.0797752  24.8529457
   3.3586414  52.0834495  25.6088429   3.4614098  52.7603251  24.4209035
   3.6813802  52.1810208  24.9010290   3.7148665  39.1211580  27.0958885
   4.3574574  39.1909685  27.6820801   3.9671686  38.4540803  26.5938427
   3.8470797  39.0337929  27.1086165   6.9295529  48.7978672  23.7449095
   7.5911963  48.2369341  23.6445003   6.2886941  48.3030703  24.0701786
   6.9324396  48.6415081  23.7781435   3.2160359  49.8144055  23.4861083
   3.4515948  49.9589254  22.6587934   3.3649923  50.5786463  23.8792597
   3.2726163  49.9483109  23.4224687   5.0450816  48.6545721  21.3230687
   5.3759033  49.1873361  20.7170782   5.6183904  48.7084608  21.9792638
   5.1784495  48.7415290  21.3308469   6.1530168  43.8956218  22.8270849
   5.8966732  43.0836159  22.6368732   6.9959481  43.9033785  22.6001036
   6.2396193  43.7768215  22.7655666   3.8355327  51.0505814  32.6629401
   3.5993964  50.2193878  32.5441462   4.4798556  50.9991421  33.2484246
   3.8949998  50.9203502  32.7315295   4.8591747  50.8350262  28.7257696
   4.5537564  51.5678319  29.0871011   4.1397963  50.4288192  28.4450482
   4.7079090  50.8831995  28.7370833  10.5593540  47.4743263  28.0526040
  10.4918040  47.4939222  27.1828627  10.5449202  48.3173590  28.2781711
  10.5472296  47.6016998  27.9578517   8.3452157  46.2487649  26.3272635
   8.8960078  45.6155718  26.5669727   8.3296272  46.7803042  27.0188139
   8.4237353  46.2336597  26.4651493   2.0480563  44.4883983  25.4377231
   1.7045329  43.7674318  25.7884480   2.1473606  44.2797834  24.5955589
   2.0122606  44.3508186  25.3648911   2.5093592  50.9509687  20.9801219
   3.0751625  51.6102897  20.8959762   1.8621496  51.2959385  21.4517621
   2.4972349  51.0991628  21.0373975   4.4429052  47.6143554  24.5998015
   4.3563027  47.7698980  25.4532794   3.9879532  48.2581630  24.2257420
   4.3632309  47.7319310  24.6705122   2.2102917  51.6437661  27.0110356
   2.0717277  52.3418707  27.5159099   1.4302915  51.4886317  26.6546538
   2.0746144  51.7237828  27.0336630   3.7056290  51.0015915  17.7726855
   3.3263099  50.2153053  17.7656145   3.0422536  51.5502772  17.6298500
   3.5514765  50.9660739  17.7507652   1.1600916  33.9441614  25.1760936
   1.2784484  34.4018078  24.4428239   0.9863092  33.1386876  24.8897154
   1.1520087  33.8935387  25.0261870   1.9516389  53.2461406  18.1078541
   2.0336226  54.0528392  17.7839992   2.4366131  53.2657365  18.8319315
   2.0353547  53.3682068  18.1665440   1.4591589  52.0058824  38.1896867
   2.2726454  51.7343973  38.3502000   1.2986556  51.7066364  37.3857063
   1.5561538  51.9213750  38.0942273   1.4712833  53.0665114  33.4619708
   2.1092554  52.5725310  33.1282164   0.8286925  52.9942515  32.8771934
   1.4707060  52.9824123  33.3262063   3.1969833  44.9154260  28.0285623
   2.7697441  44.8280609  27.2733723   2.5595886  45.0232036  28.6140467
   3.0399441  44.9186920  28.0031065   1.5267090  53.7584923  30.1025064
   2.3159468  53.4073987  30.2227146   1.7010688  54.5721311  29.8401698
   1.6687371  53.8270780  30.0812932   3.6334602  38.3226244  24.1444248
   3.0208915  38.8096646  24.5297980   3.7298777  37.6469734  24.6881899
   3.5572499  38.2944552  24.2823106   7.2759630  49.3943180  29.5721764
   7.3342753  49.8429829  30.3181741   6.6426097  49.8041993  29.1351844
   7.1910925  49.5216915  29.6174313   4.2281309  47.4159468  27.6587455
   3.9879532  46.5765883  27.6629881   4.7073316  47.4959635  28.3828228
   4.2633493  47.3040868  27.7662257   6.2286496  44.1960925  25.6116714
   5.9896266  44.1556759  24.7737498   6.3920397  45.0432077  25.7382435
   6.2176800  44.3153010  25.5070196   2.8332526  48.5810874  31.5421759
   3.5566725  48.1283401  31.3632779   2.5682489  48.8615540  30.7594087
   2.9013800  48.5561843  31.4000474   5.2667840  47.5437285  30.0452309
   5.8585680  48.1834536  30.0770507   5.7026835  46.8460322  30.3344376
   5.4186271  47.5355636  30.0933141   2.2916982  44.7582504  22.3455451
   1.6208171  45.3012206  22.2168517   2.9856732  45.2277359  22.1037146
   2.2945849  44.9080775  22.2910979   2.4545109  41.2138388  25.2545824
   2.8072719  40.7868110  25.9291623   1.5959911  41.1289231  25.3846901
   2.3794554  41.1383128  25.3740835   3.8869169  36.3356799  26.1830137
   3.3800034  35.6285939  26.1151314   4.6836603  36.0049988  26.3131213
   3.9296408  36.1829951  26.1929132   6.0889309  50.8521726  19.1671001
   6.4722915  51.6013082  19.3969098   5.2933422  51.0987546  18.9082990
   6.0283091  50.9991420  19.1628575   2.5289891  41.8323349  22.3306959
   2.5284118  41.6772005  23.1891235   2.3246071  42.6786336  22.2748345
   2.4989669  41.9343970  22.4494898   2.3182562  49.2624538  28.6720295
   2.7437634  48.7398960  28.1190720   1.9539482  49.8605376  28.1508918
   2.3269165  49.2734765  28.5129304   0.9938146  54.5860116  37.1813524
   1.1035112  53.7968676  37.5370271   1.3229043  54.4966052  36.3787862
   1.0590552  54.4565969  37.1155915   2.3528972  40.8362091  29.1500337
   1.7691961  41.3371298  28.7377904   2.6733266  40.3291647  28.5164660
   2.3142148  40.8353926  28.9958844  15.5807085  61.4292661  21.2601362
  15.5501089  62.2837298  21.4319632  16.1788433  61.1287954  21.8187506
  15.6644242  61.5109158  21.3676165   8.7806769  60.5168312  26.0154293
   7.9244665  60.6776810  26.0663409   8.8274423  59.6460376  26.0359354
   8.6605881  60.4119114  26.0260359  12.0900486  66.7854838  35.6214749
  12.7967253  66.2906868  35.7501683  12.2788421  67.2263919  34.8917407
  12.2228392  66.7773188  35.5323794  11.6258590  62.5760356  28.6585944
  12.1714550  63.2545443  28.7179914  11.5675467  62.4347817  27.7987526
  11.6974505  62.6552358  28.5398005  13.4023659  64.0044963  19.5319672
  13.2863185  64.7552649  19.9611810  14.1979546  63.7468916  19.7815759
  13.5028249  64.0779810  19.6323764   7.3355693  59.9954981  20.9023401
   8.0335857  60.1743109  21.3944864   7.6508025  59.4725320  20.2793791
   7.4851030  59.9448753  20.8825411   7.5243628  66.3825426  20.8903193
   7.9637264  65.7742527  21.3357965   7.3748291  66.0032799  20.1188658
   7.5665094  66.2363897  20.8422360   4.9915271  64.9769438  28.0922018
   5.6364274  64.4841881  27.7732967   5.2317048  65.1194224  28.9188096
   5.1225856  64.9246880  28.1671551   7.5301362  67.8224344  27.7428911
   7.8124605  67.0275749  27.5215667   8.2587523  68.3004931  27.7633972
   7.6790926  67.7758941  27.7131926   5.5082556  55.3647378  24.9844676
   5.1785886  55.8158521  24.3148375   4.8327558  55.2863541  25.5317682
   5.3592993  55.4198513  24.9667899  11.1252965  64.7352607  17.8433962
  11.0404260  65.5913574  17.9883531  11.6137348  64.4596931  18.5116121
  11.1841862  64.8209929  17.9636043  12.7158964  51.3532901  23.2294287
  12.4012405  52.0436379  23.6614709  12.1985906  51.2977683  22.5279787
  12.5923434  51.4467789  23.1891236  12.0571398  61.3537402  19.3431697
  11.5282869  61.5697035  20.0029003  12.5796418  62.0473540  19.2632666
  12.0559851  61.4880538  19.4287296  17.5119451  66.9283706  24.7164742
  16.6817154  67.1394350  24.8798158  17.4628703  66.1020761  24.4407025
  17.3826186  66.8373312  24.7002107   9.2292780  70.2082374  33.5128824
   9.3176126  70.0208515  34.3607034   9.6582493  69.5619804  33.1133671
   9.3054883  70.0845382  33.5800576   8.4048220  61.4966270  16.6208086
   8.6444224  61.7044254  15.8083429   8.7264061  60.6923779  16.7297030
   8.4885378  61.4080372  16.5168639   3.7138510  53.4259666  20.4667624
   4.4684478  53.7937983  20.2284674   3.5366045  53.7999220  21.2346803
   3.7992989  53.5357854  20.5452512  17.0073409  59.5754107  28.5115163
  16.1701830  59.6456294  28.7462757  16.9761640  59.5778601  27.6389465
  16.8791691  59.5864334  28.4174711   3.4038138  61.7187142  34.2263532
   3.5758642  61.6093037  35.0748813   3.9407496  62.3641548  33.9894724
   3.5083142  61.7979144  34.3168628   2.0695575  55.8329985  17.1645737
   1.8871148  56.0501866  16.3386729   2.9321188  55.9468998  17.2204351
   2.1700164  55.8819883  17.0500224   7.7495294  52.8356396  20.1994760
   8.4781455  52.6572351  19.7532917   7.8390187  53.6774476  20.4101939
   7.8701956  52.9340274  20.1648278  11.7303595  63.7709783  24.1027054
  12.4861110  64.2041297  24.1415963  11.8365919  63.1214553  24.6761690
  11.8573765  63.7387267  24.1925080  14.7683766  67.5983060  24.8529457
  14.3318998  67.6019803  25.6088429  14.4346681  68.2788559  24.4209035
  14.6546386  67.6995516  24.9010290   9.3412840  69.6391393  36.1772608
  10.1253256  69.7522241  36.5428350   9.1409434  68.8132530  36.3731293
   9.4278865  69.5338113  36.2606994  14.6881249  54.6396888  27.0958885
  15.3307157  54.7094993  27.6820801  14.9404270  53.9726111  26.5938427
  14.8203381  54.5523237  27.1086165   2.4598461  57.8497452  31.7083459
   1.7670258  57.3794431  31.9544191   3.0758789  57.6235756  32.2825166
   2.4482991  57.7464583  31.8292612  17.9028112  64.3163980  23.7449095
  18.5644546  63.7554649  23.6445003  17.2619524  63.8216011  24.0701786
  17.9056980  64.1600389  23.7781435  14.1892943  65.3329363  23.4861083
  14.4248532  65.4774562  22.6587934  14.3382507  66.0971771  23.8792597
  14.2458746  65.4668417  23.4224687   1.1839020  61.8162856  32.8510304
   1.9078993  61.8015886  33.3375199   1.2855157  62.5258211  32.3532273
   1.3057229  61.9187559  32.8489091  16.0183400  64.1731029  21.3230687
  16.3491617  64.7058669  20.7170782  16.5916488  64.2269916  21.9792638
  16.1517079  64.2600597  21.3308469   8.5583970  65.2961940  37.7159251
   7.7656951  65.6105452  37.9011871   8.6732897  65.5113409  36.8780036
   8.4579380  65.3745777  37.6197586  11.2315289  62.0195931  22.0054267
  11.3262143  62.7585225  22.4593893  10.6074132  61.5913407  22.4388832
  11.1524319  62.0657252  22.1362415   9.4867763  65.1982144  32.6544548
  10.0606624  64.5609388  32.8093112   9.4082566  65.1986226  31.7854206
   9.5600997  65.1047255  32.5490959  11.4838310  63.8644671  15.2391219
  11.4018473  63.9346858  16.1046206  12.1218031  64.4274415  15.0474960
  11.5658147  63.9583642  15.3381169   4.8431481  63.6305409  24.7065746
   4.5850725  62.7977144  24.6797045   4.8979964  63.8563022  23.8658246
   4.8131259  63.5403180  24.5785882   9.9232531  55.7333860  24.8069838
   9.2188858  55.2443045  24.9653757   9.9717506  55.7456334  23.9358283
   9.8262583  55.6623508  24.7009178   3.8166193  61.1843172  25.1930640
   3.2415785  61.3435340  25.8294601   3.4401870  60.5478581  24.7299091
   3.6769006  61.1140984  25.2185199   7.4839482  59.6566521  30.0523019
   7.0953915  59.2320739  29.3975210   6.8194180  59.9048670  30.5600045
   7.3286410  59.6305242  30.0310887  17.1262751  59.4141525  22.8270849
  16.8699316  58.6021467  22.6368732  17.9692065  59.4219093  22.6001036
  17.2128777  59.2953523  22.7655666  11.3065844  53.3541150  27.5647003
  11.6876355  52.6719321  27.9514877  10.5029128  53.0650752  27.3822667
  11.2442305  53.2108198  27.5951059   8.5878420  63.8865125  18.2499826
   9.4019059  64.1780018  18.1382597   8.5237561  63.2324988  17.6758119
   8.6981159  63.8330320  18.1488663  14.8087910  66.5691122  32.6629401
  14.5726548  65.7379186  32.5441462  15.4531139  66.5176729  33.2484246
  14.8682581  66.4388809  32.7315295   4.4586328  67.3586643  23.3772138
   5.0960275  67.1198390  23.9223931   4.8841400  67.5623802  22.6425298
   4.6162495  67.3537653  23.3489295   5.2657684  55.8595348  37.4309611
   4.9511125  56.6294911  37.1679174   4.9447616  55.2965604  36.8461838
   5.1716603  55.8905616  37.3050961  15.8324331  66.3535570  28.7257696
  15.5270148  67.0863627  29.0871011  15.1130547  65.9473500  28.4450482
  15.6811673  66.4017303  28.7370833   6.8407800  67.8359065  25.0565924
   6.9146809  67.6734237  25.9107774   7.6577307  68.0249255  24.8126406
   6.9724159  67.8395808  25.1463950  21.5326123  62.9928571  28.0526040
  21.4650623  63.0124530  27.1828627  21.5181786  63.8358898  28.2781711
  21.5204880  63.1202306  27.9578517   2.8189581  54.2485869  23.0455808
   1.9512006  54.3208469  23.1113417   3.1064785  55.0507948  23.2343783
   2.7329329  54.3780016  23.0830574  11.9422470  54.3963729  31.3767130
  12.6876062  54.2073539  30.9630555  11.5259774  54.9221967  30.8180986
  11.9907444  54.4465874  31.2331703  19.3184740  61.7672957  26.3272635
  19.8692662  61.1341026  26.5669727  19.3028856  62.2988350  27.0188139
  19.3969937  61.7521905  26.4651493   5.9707131  65.6011554  30.8732528
   5.4718825  66.3127322  30.9517416   6.7807356  65.9212221  30.8350690
   6.0163238  65.7538403  30.8789096   2.2335249  64.8634507  25.1195249
   1.9448498  64.2371979  25.6540976   3.1018597  64.8054795  25.1859929
   2.3195501  64.7622052  25.2086203  13.0213147  60.0069291  25.4377231
  12.6777913  59.2859626  25.7884480  13.1206189  59.7983142  24.5955589
  12.9855190  59.8693494  25.3648911  13.4826176  66.4694995  20.9801219
  14.0484208  67.1288205  20.8959762  12.8354079  66.8144693  21.4517621
  13.4704932  66.6176936  21.0373975   4.8974189  58.4592599  36.1694826
   4.0873965  58.7650379  36.0584669   5.3748876  59.1798181  36.2847410
   4.8477668  58.6107200  36.1701897   3.7565749  67.6738320  26.4177729
   3.2346502  67.8138612  27.1029594   4.1439769  66.9148984  26.6079847
   3.7369450  67.5823844  26.5478806   9.9532754  69.4133779  20.4038298
   9.7119430  68.6801640  19.9965363  10.1334087  69.9620636  19.7504631
   9.9440378  69.3856170  20.2468521   5.1832075  64.7042339  21.8159220
   4.9874857  65.3117073  21.2219523   5.4066420  64.0110283  21.3350894
   5.1866716  64.6919864  21.6575301   3.5810605  61.5897077  21.9340089
   4.3033256  61.7538235  21.4743895   3.1018597  62.3106742  21.8279428
   3.6174335  61.7195306  21.8505703  11.5404112  57.9260876  27.3136774
  10.7015213  57.9522154  27.0775037  11.6108479  58.5731611  27.8942120
  11.4272506  58.0257001  27.3645890   1.2318221  63.9955149  31.0394229
   1.7439318  64.2739402  30.3902988   0.9454564  64.7344443  31.4057042
   1.2653084  64.1457503  30.9984107   9.9873390  54.8246253  22.0464390
  10.6899743  54.6254001  21.5684348   9.7217579  54.0522195  22.3533233
  10.0520023  54.6809219  22.0209831  15.4161636  63.1328862  24.5998015
  15.3295610  63.2884288  25.4532794  14.9612116  63.7766938  24.2257420
  15.3364893  63.2504617  24.6705122   4.7501947  56.0881538  31.0995270
   4.5585144  56.1036672  31.9494694   5.6000543  56.2845212  31.0761925
   4.8477669  56.1195889  31.2218565   9.2887452  60.4539609  23.2223575
   9.0422166  60.3735360  24.0560364   9.6172575  59.6693077  23.0286102
   9.3008696  60.3265875  23.3171098  13.1835501  67.1622969  27.0110356
  13.0449860  67.8604015  27.5159099  12.4035499  67.0071625  26.6546538
  13.0478728  67.2423135  27.0336630  11.5213586  63.4619344  33.2632738
  11.5161624  62.5899161  33.2675164  12.2274580  63.6607513  32.7902194
  11.6258590  63.3623218  33.1939773   5.2484479  63.1896328  32.6346558
   5.3927855  63.7697536  31.9989668   5.5960128  63.5672625  33.3396413
   5.3211941  63.3317032  32.6445553   7.4204397  62.3886496  30.4171690
   6.6727711  62.5817511  30.0119968   7.5745922  61.5631716  30.1795811
   7.3326824  62.2951608  30.3217095  14.6788874  66.5201223  17.7726855
  14.2995682  65.7338360  17.7656145  14.0155119  67.0688080  17.6298500
  14.5247348  66.4846047  17.7507652   7.6606174  56.2837047  31.3067093
   8.1178788  57.0161021  31.4339886   7.7362502  55.8603512  32.0654349
   7.7397144  56.3294285  31.4368170  12.1333500  49.4626922  25.1760936
  12.2517068  49.9203386  24.4428239  11.9595675  48.6572184  24.8897154
  12.1252671  49.4120694  25.0261870   5.5388552  58.2739151  28.1508917
   4.7484626  58.0930611  28.4726253   5.9349174  57.4966104  28.1339212
   5.4805428  58.1326612  28.1961466  10.9232238  65.9081581  25.8768363
  10.2477240  65.6766813  26.3781750  10.9324614  65.3002764  25.2510468
  10.8250742  65.7840506  25.8584515   8.0526382  60.7499410  32.6332416
   7.9885523  61.6109367  32.5052553   8.1923570  60.4331403  31.8327968
   8.0641852  60.8299577  32.4960629  12.9248972  68.7646714  18.1078541
  13.0068810  69.5713700  17.7839992  13.4098715  68.7842673  18.8319315
  13.0086130  68.8867376  18.1665440   6.7345476  63.4431550  26.7748619
   6.3107725  63.6436049  26.0387637   6.5590331  62.5960398  26.8872919
   6.6456356  63.3480331  26.6822309   2.0227921  63.9383601  22.2076592
   2.1792540  63.8730404  23.0632584   2.3628514  64.7132154  21.9955271
   2.0961156  64.0432799  22.3031186   8.5607065  63.3141485  21.0769955
   9.1022611  62.8111866  21.5408575   8.8753624  63.2606679  20.2659440
   8.6871462  63.2320905  21.0253767  12.4324173  67.5244132  38.1896867
  13.2459038  67.2529281  38.3502000  12.2719139  67.2251672  37.3857063
  12.5294121  67.4399058  38.0942273   9.7096335  58.2077789  31.1292255
   9.9238304  57.5688703  30.5755609   9.0930234  58.6523613  30.7000117
   9.6501664  58.1787933  30.9842686  11.8735423  59.8166854  32.0675562
  11.0612104  59.5092745  32.1488735  12.3325357  59.3365854  32.6318275
  11.8215807  59.7003347  32.1630157  11.2840677  67.6946526  22.5152507
  10.9255332  67.8661169  23.2916539  10.7979388  68.1559732  21.9580505
  11.1599374  67.7885497  22.5477776   9.1011063  51.3177725  26.1179598
   8.2304621  51.2916446  26.0712908   9.3551405  51.1454917  25.3005444
   9.0104623  51.2887868  25.9899735   8.9688930  61.2226926  36.8504265
   9.4388561  61.8469042  37.2372139   9.0150810  60.5543901  37.4097479
   9.0456806  61.2161606  36.9904336   6.1260204  53.3283953  27.5753069
   5.6098692  52.6364145  27.7004648   5.5654133  53.9954730  27.5215667
   5.9666717  53.3247211  27.5859135   8.1952437  53.8676913  29.4045921
   7.8084190  53.8925945  30.1859451   7.7085375  53.3018592  28.9520438
   8.0664946  53.7872664  29.4533825  12.4445417  68.5850422  33.4619708
  13.0825137  68.0910618  33.1282164  11.8019508  68.5127823  32.8771934
  12.4439643  68.5009431  33.3262063  14.1702417  60.4339568  28.0285623
  13.7430025  60.3465917  27.2733723  13.5328470  60.5417344  28.6140467
  14.0132024  60.4372228  28.0031065   7.8609579  50.7543899  31.6956181
   8.4902697  51.2904199  31.4177251   8.0295442  50.6621258  32.5469747
   7.9787374  50.8205261  31.7804709   7.6623494  55.5415093  33.9682593
   8.4896923  55.2700242  34.0241207   7.6831340  56.3375935  34.3246411
   7.7876344  55.6194848  34.0297776  12.4999673  69.2770230  30.1025064
  13.2892052  68.9259295  30.2227146  12.6743271  70.0906619  29.8401698
  12.6419955  69.3456088  30.0812932   2.2392984  62.6878956  27.1552853
   1.3980990  62.5882830  27.3631747   2.4482992  63.4574436  27.5067174
   2.1457676  62.7871000  27.2380168  11.3533498  53.2879787  24.6641483
  11.5583091  53.2202095  25.5098480  11.0259921  54.0938608  24.5962660
  11.3348745  53.3965728  24.7801138   6.0509649  60.6160355  26.4050451
   5.7472786  60.0616344  27.0060858   5.3489069  60.7952565  25.9178485
   5.9025858  60.5605138  26.4220156   5.1075746  57.9260875  20.9695153
   5.3835480  57.2079788  20.5572720   5.7074415  58.5245795  20.7616259
   5.2369010  57.9081246  20.8775914  14.6067185  53.8411551  24.1444248
  13.9941499  54.3281954  24.5297980  14.7031360  53.1655042  24.6881899
  14.5305083  53.8129860  24.2823106   8.6086266  55.5974393  19.2441748
   9.0630013  55.7684953  19.9689592   9.0826312  54.9842503  18.8439523
   8.7454586  55.5325278  19.2915509   2.1301792  65.0822719  28.5744486
   1.5389725  65.7232217  28.5447501   2.8922815  65.5060336  28.5475786
   2.1550052  65.2398557  28.5659633   2.5262414  56.2424716  29.2412504
   2.9863896  56.3163646  29.9787628   2.5718521  57.0405970  28.8912325
   2.6012970  56.3718863  29.2985260   4.1745764  56.9091411  33.8084531
   3.7831329  56.2624758  34.2440309   4.3431627  57.5002846  34.4278786
   4.1416675  56.9005679  33.9647237  18.2492213  64.9128488  29.5721764
  18.3075337  65.3615137  30.3181741  17.6158681  65.3227301  29.1351844
  18.1643508  65.0402223  29.6174313  11.8891308  70.5332030  26.0076511
  11.6910997  71.0222845  25.3132722  11.2679019  70.7373272  26.5860644
  11.7678872  70.6348568  25.9899734   5.9499286  62.3016927  20.3486755
   6.6941331  62.6891203  20.5869705   6.0959982  61.4574352  20.5127243
   6.0809871  62.2347400  20.4080725   7.8678862  54.0967186  25.3818616
   7.0214907  54.2689994  25.2559966   7.8649994  53.2916530  25.7184445
   7.7426012  54.0028215  25.4129743   8.9377162  57.8742400  26.2480674
   8.4637116  57.3484162  26.7585985   9.3095298  57.3271873  25.6795536
   8.9227051  57.7158397  26.2395821  15.2013893  62.9344776  27.6587455
  14.9612116  62.0951191  27.6629881  15.6805900  63.0144943  28.3828228
  15.2366076  62.8226176  27.7662257  10.8660662  58.7678955  19.3106428
  10.3383680  58.8507699  18.6212137  11.3256370  59.5096826  19.3071073
  10.8562512  58.8899617  19.2081123  17.2019080  59.7146233  25.6116714
  16.9628850  59.6742067  24.7737498  17.3652981  60.5617385  25.7382435
  17.1909383  59.8338318  25.5070196  13.8065110  64.0996182  31.5421759
  14.5299309  63.6468709  31.3632779  13.5415072  64.3800848  30.7594087
  13.8746383  64.0747151  31.4000474   2.6751978  58.6956356  28.2774638
   2.0505048  58.7074748  27.6700591   2.3397573  59.1716531  28.9265878
   2.5337470  58.7674873  28.2831207  10.4197744  67.3382518  18.4416085
  11.1431943  67.8040631  18.2980658   9.9798335  67.4056128  17.6913682
  10.4613436  67.4166355  18.3100866   9.5883899  64.1980061  29.6916774
   8.9740892  63.6538111  29.9865409  10.1051184  63.6844297  29.2122590
   9.5739562  64.0416470  29.6641002   8.8280196  65.2684331  27.4261073
   8.4007805  64.6434049  26.9926508   8.8205141  64.9859253  28.2520080
   8.7639338  65.1337111  27.4840900   1.9442724  60.3049504  30.4949507
   2.1036210  59.5492828  30.9001229   1.7635617  60.8540443  31.1490244
   1.9408083  60.2743317  30.6512213   9.8863027  52.4710739  31.0500296
   9.3903588  52.6674413  30.3591863  10.6432089  52.8703408  30.8789098
   9.9249851  52.5588473  30.9220433   7.1565906  56.1453085  27.6403607
   7.1808393  55.6113197  26.9516387   7.4077380  55.6370394  28.3029197
   7.1975825  55.9913989  27.6368251   3.4367228  54.8723903  27.0209351
   3.4765600  55.3733110  27.7344058   2.6116893  54.9634297  26.7515274
   3.3206754  54.9605720  27.0859889   5.6196841  64.4384643  35.1229646
   4.7692472  64.5756358  35.2587290   5.7824969  63.7048422  35.5677347
   5.5180705  64.3498745  35.2085245   4.8581592  61.3884413  29.3183250
   4.0273521  61.5558231  29.1118498   4.8033109  61.0120364  30.1032135
   4.7271007  61.3574145  29.4031778   2.6665375  54.8793306  34.9539661
   3.2918078  54.3355439  35.2269093   2.2115855  54.3988224  34.3847451
   2.6913636  54.7282788  34.9101255   3.2317636  59.6640005  19.8473368
   3.3720597  60.1612469  20.5502009   3.7300168  58.9626299  19.9887581
   3.3258717  59.6341984  19.9724947  16.2400424  63.0622593  30.0452309
  16.8318264  63.7019844  30.0770507  16.6759418  62.3645630  30.3344376
  16.3918855  63.0540944  30.0933141   4.8396841  56.4621091  17.1511387
   5.1612682  55.9824174  16.4970649   5.1023785  57.2720737  16.9602198
   4.9262866  56.5110989  17.0266879   8.0693814  67.4839966  30.6710203
   7.5618905  68.0375812  31.1150833   7.7720460  67.5448255  29.8528977
   7.9498699  67.5746277  30.6158659  10.2355996  55.8493285  29.5134866
  10.6611067  55.3965812  28.9018392   9.6212989  55.2953356  29.7899653
  10.2084641  55.7007261  29.4639891   8.6750219  52.3208385  22.9225443
   8.0318537  52.1706031  23.4910581   8.3349626  52.0750730  22.1574547
   8.5295296  52.2620507  22.8928458  13.2649565  60.2767812  22.3455451
  12.5940755  60.8197514  22.2168517  13.9589315  60.7462667  22.1037146
  13.2678433  60.4266083  22.2910979  13.4277693  56.7323695  25.2545824
  13.7805303  56.3053418  25.9291623  12.5692494  56.6474539  25.3846901
  13.3527137  56.6568436  25.3740835   2.1261378  59.3631215  23.3128671
   1.4073367  59.7795348  23.5801535   2.4973740  59.9285454  22.7620309
   2.0753309  59.5080497  23.2711478  11.4260958  59.9959064  29.2030667
  11.4058886  59.8142359  30.0565446  11.4740159  60.8671083  29.1790250
  11.4295599  60.0975602  29.3253961   9.3707288  66.5846256  35.1279143
   9.3303143  65.9395933  34.5424299  10.1830607  66.5282873  35.4404555
   9.4850442  66.4805223  35.0876092   7.9007952  58.4029215  18.6502050
   7.3072791  58.7246212  18.0986617   7.9383230  57.5570310  18.4423157
   7.8182341  58.3253543  18.5384822  14.8601753  51.8542107  26.1830137
  14.3532617  51.1471247  26.1151314  15.6569186  51.5235296  26.3131213
  14.9028992  51.7015259  26.1929132  10.7765769  58.3608720  22.0803801
  10.5479462  58.3841421  21.2382159  11.0363845  57.5366187  22.1998811
  10.7811957  58.2424799  21.9728998   5.0584997  60.2143193  31.6828901
   4.5463900  59.6064376  32.0413932   4.8864493  60.9299785  32.1502877
   4.9574634  60.2306492  31.8045125   3.8310531  56.8985266  23.3757996
   4.3067897  57.2602346  22.7408177   3.3299131  57.5541733  23.6558139
   3.8275890  57.0479455  23.3234737  17.0621893  66.3707034  19.1671001
  17.4455498  67.1198390  19.3969098  16.2666006  66.6172854  18.9082990
  17.0015675  66.5176728  19.1628575   8.9354067  58.1367437  34.1231156
   9.4925498  57.9081247  33.4909622   8.6115132  58.8973103  33.8466369
   8.9700478  58.2151274  33.9887654   6.6537185  61.2235091  35.0883164
   7.4048512  61.5386767  35.4022718   6.8459761  61.0214261  34.2617085
   6.7928599  61.2402472  35.0126559   5.8737184  59.0426466  16.7431380
   6.2536149  59.0606095  15.9582495   5.1329780  59.4880454  16.6222228
   5.8206022  59.1108240  16.6094948  13.5022475  57.3508657  22.3306959
  13.5016701  57.1957313  23.1891235  13.2978655  58.1971644  22.2748345
  13.4722253  57.4529278  22.4494898  11.2263327  62.0306159  25.9843166
  11.7216992  61.3129154  25.9447186  10.4163103  61.7276956  25.8697653
  11.1807220  61.8803805  25.9616892  13.2915146  64.7809846  28.6720295
  13.7170217  64.2584268  28.1190720  12.9272066  65.3790684  28.1508918
  13.3001748  64.7920073  28.5129304   9.8793745  68.4944110  25.0021452
  10.3504923  69.2084373  25.1711437  10.2153924  67.8942861  25.5381322
   9.9988860  68.5115575  25.1053828  11.9670730  70.1045424  37.1813524
  12.0767695  69.3153984  37.5370271  12.2961626  70.0151360  36.3787862
  12.0323136  69.9751277  37.1155915   6.7963240  53.2671581  31.9579547
   6.9291146  52.4702574  32.2860522   7.1808393  53.7937984  32.5377822
   6.8719569  53.2271498  32.0923050  10.5167691  68.2862045  31.7649145
   9.9688637  67.6619928  31.4969210  10.9780720  68.4756317  31.0493224
  10.5034901  68.2221095  31.6199576   9.8695595  50.1901907  28.5560640
   9.0641559  50.0799637  28.8728478   9.7402331  50.2914363  27.6990506
   9.7315728  50.1885577  28.4768681  13.3261556  56.3547399  29.1500337
  12.7424545  56.8556606  28.7377904  13.6465850  55.8476955  28.5164660
  13.2874731  56.3539234  28.9958844   5.8656355  55.2687994  19.4259012
   6.6872049  55.4386307  19.1840707   5.4026006  55.4235255  18.7025309
   5.9187517  55.3169727  19.2830656   4.4551687  53.2630756  30.2057441
   4.9996100  52.9221883  30.7961782   4.5088623  54.1216218  30.3478725
   4.5440806  53.3386015  30.3139314  10.0826018  69.2913117  28.2958486
  10.9024392  69.1476083  28.5574781   9.8020095  69.9159316  28.8374924
  10.1622761  69.3623469  28.4146425  16.4815140  70.8832686  24.9844676
  16.1518470  71.3343829  24.3148375  15.8060142  70.8048849  25.5317682
  16.3325576  70.9383821  24.9667899  23.6891548  66.8718208  23.2294287
  23.3744989  67.5621687  23.6614709  23.1718489  66.8162991  22.5279787
  23.5656018  66.9653097  23.1891236  14.6871094  68.9444974  20.4667624
  15.4417062  69.3123291  20.2284674  14.5098628  69.3184528  21.2346803
  14.7725572  69.0543162  20.5452512  27.9805993  75.0939415  28.5115163
  27.1434414  75.1641602  28.7462757  27.9494224  75.0963909  27.6389465
  27.8524275  75.1049642  28.4174711  13.0428159  71.3515293  17.1645737
  12.8603732  71.5687174  16.3386729  13.9053772  71.4654306  17.2204351
  13.1432748  71.4005191  17.0500224  18.7227878  68.3541704  20.1994760
  19.4514038  68.1757659  19.7532917  18.8122771  69.1959783  20.4101939
  18.8434540  68.4525582  20.1648278  25.6613832  70.1582196  27.0958885
  26.3039741  70.2280301  27.6820801  25.9136853  69.4911419  26.5938427
  25.7935965  70.0708545  27.1086165  20.8965115  71.2519168  24.8069838
  20.1921442  70.7628353  24.9653757  20.9450089  71.2641642  23.9358283
  20.7995166  71.1808816  24.7009178  28.0995335  74.9326833  22.8270849
  27.8431900  74.1206775  22.6368732  28.9424649  74.9404401  22.6001036
  28.1861360  74.8138831  22.7655666  22.2798427  68.8726457  27.5647003
  22.6608939  68.1904629  27.9514877  21.4761711  68.5836060  27.3822667
  22.2174889  68.7293506  27.5951059  16.2390268  71.3780656  37.4309611
  15.9243709  72.1480218  37.1679174  15.9180200  70.8150912  36.8461838
  16.1449187  71.4090924  37.3050961  13.7922164  69.7671177  23.0455808
  12.9244590  69.8393777  23.1113417  14.0797369  70.5693256  23.2343783
  13.7061913  69.8965324  23.0830574  22.9155053  69.9149037  31.3767130
  23.6608645  69.7258847  30.9630555  22.4992358  70.4407275  30.8180986
  22.9640027  69.9651182  31.2331703  23.9945730  75.5254599  25.4377231
  23.6510496  74.8044934  25.7884480  24.0938773  75.3168450  24.5955589
  23.9587773  75.3878802  25.3648911  22.5136696  73.4446184  27.3136774
  21.6747796  73.4707462  27.0775037  22.5841063  74.0916919  27.8942120
  22.4005089  73.5442309  27.3645890  20.9605974  70.3431561  22.0464390
  21.6632327  70.1439309  21.5684348  20.6950163  69.5707503  22.3533233
  21.0252606  70.1994527  22.0209831  15.7234530  71.6066846  31.0995270
  15.5317727  71.6221980  31.9494694  16.5733126  71.8030520  31.0761925
  15.8210252  71.6381197  31.2218565  18.6338757  71.8022355  31.3067093
  19.0911371  72.5346329  31.4339886  18.7095086  71.3788820  32.0654349
  18.7129727  71.8479593  31.4368170  23.1066083  64.9812230  25.1760936
  23.2249651  65.4388694  24.4428239  22.9328259  64.1757491  24.8897154
  23.0985254  64.9306002  25.0261870  20.0743647  66.8363033  26.1179598
  19.2037205  66.8101754  26.0712908  20.3283988  66.6640225  25.3005444
  19.9837207  66.8073176  25.9899735  17.0992787  68.8469261  27.5753069
  16.5831276  68.1549453  27.7004648  16.5386716  69.5140038  27.5215667
  16.9399301  68.8432519  27.5859135  19.1685021  69.3862221  29.4045921
  18.7816774  69.4111253  30.1859451  18.6817958  68.8203900  28.9520438
  19.0397530  69.3057972  29.4533825  18.8342163  66.2729207  31.6956181
  19.4635281  66.8089507  31.4177251  19.0028025  66.1806566  32.5469747
  18.9519957  66.3390569  31.7804709  18.6356078  71.0600401  33.9682593
  19.4629507  70.7885550  34.0241207  18.6563924  71.8561243  34.3246411
  18.7608928  71.1380156  34.0297776  22.3266081  68.8065095  24.6641483
  22.5315674  68.7387403  25.5098480  21.9992505  69.6123916  24.5962660
  22.3081329  68.9151036  24.7801138  25.5799769  69.3596859  24.1444248
  24.9674082  69.8467261  24.5297980  25.6763944  68.6840350  24.6881899
  25.5037666  69.3315168  24.2823106  19.5818850  71.1159700  19.2441748
  20.0362596  71.2870261  19.9689592  20.0558896  70.5027811  18.8439523
  19.7187170  71.0510586  19.2915509  18.8411445  69.6152494  25.3818616
  17.9947490  69.7875302  25.2559966  18.8382578  68.8101837  25.7184445
  18.7158595  69.5213523  25.4129743  19.9109746  73.3927708  26.2480674
  19.4369700  72.8669470  26.7585985  20.2827881  72.8457181  25.6795536
  19.8959635  73.2343705  26.2395821  28.1751663  75.2331541  25.6116714
  27.9361433  75.1927375  24.7737498  28.3385565  76.0802693  25.7382435
  28.1641967  75.3523626  25.5070196  20.8595610  67.9896047  31.0500296
  20.3636171  68.1859721  30.3591863  21.6164672  68.3888715  30.8789098
  20.8982435  68.0773781  30.9220433  18.1298490  71.6638393  27.6403607
  18.1540977  71.1298505  26.9516387  18.3809963  71.1555702  28.3029197
  18.1708408  71.5099297  27.6368251  14.4099812  70.3909211  27.0209351
  14.4498184  70.8918418  27.7344058  13.5849477  70.4819605  26.7515274
  14.2939338  70.4791028  27.0859889  13.6397959  70.3978614  34.9539661
  14.2650662  69.8540747  35.2269093  13.1848439  69.9173532  34.3847451
  13.6646219  70.2468095  34.9101255  21.2088579  71.3678593  29.5134866
  21.6343651  70.9151120  28.9018392  20.5945573  70.8138664  29.7899653
  21.1817225  71.2192569  29.4639891  19.6482802  67.8393693  22.9225443
  19.0051120  67.6891339  23.4910581  19.3082209  67.5936038  22.1574547
  19.5027880  67.7805815  22.8928458  24.4010276  72.2509003  25.2545824
  24.7537886  71.8238726  25.9291623  23.5425078  72.1659847  25.3846901
  24.3259721  72.1753744  25.3740835  25.8334336  67.3727415  26.1830137
  25.3265201  66.6656555  26.1151314  26.6301770  67.0420604  26.3131213
  25.8761575  67.2200567  26.1929132  21.7498352  73.8794027  22.0803801
  21.5212045  73.9026729  21.2382159  22.0096428  73.0551494  22.1998811
  21.7544540  73.7610107  21.9728998  24.4755058  72.8693965  22.3306959
  24.4749285  72.7142621  23.1891235  24.2711238  73.7156952  22.2748345
  24.4454836  72.9714586  22.4494898  17.7695824  68.7856889  31.9579547
  17.9023729  67.9887882  32.2860522  18.1540976  69.3123292  32.5377822
  17.8452152  68.7456806  32.0923050  20.8428179  65.7087215  28.5560640
  20.0374143  65.5984945  28.8728478  20.7134914  65.8099671  27.6990506
  20.7048312  65.7070885  28.4768681  24.2994139  71.8732707  29.1500337
  23.7157128  72.3741913  28.7377904  24.6198433  71.3662263  28.5164660
  24.2607315  71.8724542  28.9958844  16.8388939  70.7873302  19.4259012
  17.6604633  70.9571615  19.1840707  16.3758589  70.9420563  18.7025309
  16.8920101  70.8355035  19.2830656  15.4284270  68.7816064  30.2057441
  15.9728683  68.4407191  30.7961782  15.4821206  69.6401526  30.3478725
  15.5173390  68.8571323  30.3139314   0.8118726  28.2047661  22.5554796
   1.5185494  27.7099692  22.6841730   1.0006662  28.6456742  21.8257454
   0.9446632  28.1966011  22.4663841   3.5306151  27.9883945  19.5969448
   3.2944788  27.1572010  19.4781509   4.1749380  27.9369552  20.1824292
   3.5900822  27.8581633  19.6655342   4.5542571  27.7728394  15.6597743
   4.2488388  28.5056450  16.0211058   3.8348787  27.3666323  15.3790529
   4.4029914  27.8210127  15.6710880  10.2544364  24.4121394  14.9866087
  10.1868864  24.4317353  14.1168674  10.2400026  25.2551721  15.2121757
  10.2423120  24.5395129  14.8918564   1.1542413  28.9436955  25.1236914
   1.9677278  28.6722104  25.2842046   0.9937379  28.6444495  24.3197110
   1.2512362  28.8591881  25.0282320   1.2217914  30.6963054  17.0365111
   2.0110292  30.3452118  17.1567193   1.3961512  31.5099442  16.7741745
   1.3638195  30.7648911  17.0152979   6.9710454  26.3321311  16.5061811
   7.0293577  26.7807960  17.2521788   6.3376921  26.7420124  16.0691891
   6.8861749  26.4595046  16.5514360   2.5283350  25.5189006  18.4761806
   3.2517549  25.0661532  18.2972826   2.2633313  25.7993671  17.6934134
   2.5964623  25.4939974  18.3340521   4.9618664  24.4815416  16.9792356
   5.5536504  25.1212667  17.0110554   5.3977659  23.7838453  17.2684422
   5.1137095  24.4733767  17.0273188   2.0133386  26.2002669  15.6060341
   2.4388458  25.6777091  15.0530766   1.6490306  26.7983507  15.0848964
   2.0219989  26.2112896  15.4469351   0.6888970  31.5238247  24.1153571
   0.7985936  30.7346808  24.4710318   1.0179867  31.4344183  23.3127909
   0.7541376  31.3944100  24.0495962  15.2757908  38.3670792   8.1941409
  15.2451913  39.2215429   8.3659678  15.8739257  38.0666085   8.7527553
  15.3595066  38.4487289   8.3016211   8.4757593  37.4546443  12.9494340
   7.6195489  37.6154941  13.0003456   8.5225247  36.5838507  12.9699401
   8.3556705  37.3497245  12.9600406  11.7851310  43.7232969  22.5554796
  12.4918077  43.2285000  22.6841730  11.9739245  44.1642050  21.8257454
  11.9179215  43.7151319  22.4663841   7.8527984  49.3648799  10.0828230
   8.2367364  49.9335698   9.5433005   7.7887125  48.6398310   9.6034046
   7.9001411  49.3424263   9.9322092  11.3209414  39.5138487  15.5925991
  11.8665374  40.1923574  15.6519961  11.2626291  39.3725948  14.7327573
  11.3925329  39.5930489  15.4738052   4.4383489  47.0027553  10.9794344
   4.5393852  46.1927907  11.2891471   3.8425234  46.9084500  10.3494022
   4.3656028  46.8692581  10.9320582  13.0974483  40.9423094   6.4659719
  12.9814009  41.6930780   6.8951857  13.8930370  40.6847048   6.7155806
  13.1979072  41.0157941   6.5663811   4.2784229  51.9205142  12.3809200
   4.9221684  52.3618306  12.7705358   4.6040484  51.1158569  12.2939458
   4.4216057  51.8670337  12.4254677   7.0306517  36.9333112   7.8363448
   7.7286681  37.1121240   8.3284911   7.3458849  36.4103452   7.2133837
   7.1801854  36.8826884   7.8165458   7.2194452  43.3203557   7.8243239
   7.6588087  42.7120658   8.2698012   7.0699115  42.9410931   7.0528705
   7.2615918  43.1742028   7.7762407   4.6866095  41.9147569  15.0262065
   5.3315098  41.4220012  14.7073014   4.9267872  42.0572356  15.8528143
   4.8176680  41.8625011  15.1011598   7.2252186  44.7602475  14.6768958
   7.5075429  43.9653881  14.4555713   7.9538347  45.2383062  14.6974019
   7.3741750  44.7137072  14.6471973   5.2033380  32.3025509  11.9184723
   4.8736710  32.7536652  11.2488421   4.5278382  32.2241672  12.4657729
   5.0543816  32.3576644  11.9007946  10.8203789  41.6730738   4.7774009
  10.7355084  42.5291705   4.9223578  11.3088172  41.3975063   5.4456168
  10.8792686  41.7588060   4.8976090  11.7522222  38.2915533   6.2771744
  11.2233693  38.5075166   6.9369050  12.2747242  38.9851671   6.1972713
  11.7510675  38.4258670   6.3627343  17.2070275  43.8661837  11.6504788
  16.3767978  44.0772481  11.8138205  17.1579527  43.0398892  11.3747072
  17.0777010  43.7751443  11.6342154   5.2680012  46.6965691  14.4852698
   4.7506954  46.3373106  13.8814006   5.9654403  46.1727866  14.4958764
   5.2945593  46.5663379  14.3982957   8.9243604  47.1460505  20.4468871
   9.0126950  46.9586646  21.2947081   9.3533317  46.4997935  20.0473718
   9.0005707  47.0223513  20.5140622   6.4914064  46.4291665  19.4286533
   5.9284899  46.0164275  19.9526194   7.2535087  46.3544571  19.8479676
   6.5208513  46.3569066  19.5679533   2.0510055  48.4189686  12.0323163
   2.7530635  47.9041676  12.0895920   1.9707539  48.7463838  12.8370038
   2.1433816  48.3903913  12.1595955  16.7024233  36.5132238  15.4455210
  15.8652654  36.5834425  15.6802804  16.6712464  36.5156733  14.5729512
  16.5742515  36.5242465  15.3514758   3.0988962  38.6565273  21.1603578
   3.2709466  38.5471168  22.0088860   3.6358320  39.3019679  20.9234771
   3.2033966  38.7357275  21.2508675   1.3760831  44.6096038  11.5408771
   2.2149730  44.8418971  11.5882533   1.4072600  43.7400350  11.4715807
   1.5042548  44.5152985  11.5373416   2.0013534  45.0296914  15.8422077
   2.5411759  44.8868045  16.5125449   1.3183480  45.4293664  16.2106103
   1.9805688  45.0676585  15.9956499  11.4254419  40.7087914  11.0367101
  12.1811934  41.1419429  11.0756010  11.5316743  40.0592684  11.6101737
  11.5524589  40.6765398  11.1265127  14.4634590  44.5361192  11.7869504
  14.0269822  44.5397934  12.5428476  14.1297505  45.2166691  11.3549082
  14.3497210  44.6373647  11.8350337   9.0363663  46.5769524  23.1112654
   9.8204080  46.6900372  23.4768397   8.8360258  45.7510661  23.3071340
   9.1229689  46.4716244  23.1947040  14.3832073  31.5775019  14.0298932
  15.0257981  31.6473124  14.6160847  14.6355093  30.9104242  13.5278474
  14.5154205  31.4901368  14.0426211   2.1549285  34.7875583  18.6423506
   1.4621082  34.3172562  18.8884238   2.7709613  34.5613887  19.2165213
   2.1433815  34.6842715  18.7632659   9.1934057  48.4879626  16.7579110
   8.3949303  48.2479126  17.0152979   9.6420068  48.5394019  17.5046158
   9.1408668  48.4602018  16.9064034  17.5978936  41.2542111  10.6789141
  18.2595370  40.6932780  10.5785050  16.9570348  40.7594142  11.0041833
  17.6007804  41.0978520  10.7121482  13.8843767  42.2707494  10.4201130
  14.1199356  42.4152693   9.5927981  14.0333330  43.0349902  10.8132644
  13.9409570  42.4046548  10.3564734   0.8789844  38.7540987  19.7850351
   1.6029817  38.7394017  20.2715246   0.9805981  39.4636342  19.2872319
   1.0008053  38.8565690  19.7829138  15.7134224  41.1109160   8.2570734
  16.0442441  41.6436800   7.6510829  16.2867312  41.1648048   8.9132685
  15.8467903  41.1978729   8.2648516   8.2534794  42.2340071  24.6499298
   7.4607774  42.5483583  24.8351918   8.3683721  42.4491540  23.8120083
   8.1530204  42.3123908  24.5537633  10.9266113  38.9574062   8.9394314
  11.0212967  39.6963357   9.3933940  10.3024956  38.5291538   9.3728879
  10.8475143  39.0035383   9.0702462   9.1818586  42.1360275  19.5884595
   9.7557448  41.4987519  19.7433159   9.1033390  42.1364358  18.7194253
   9.2551821  42.0425387  19.4831006   4.5382305  40.5683540  11.6405792
   4.2801549  39.7355275  11.6137092   4.5930788  40.7941153  10.7998293
   4.5082083  40.4781311  11.5125929   9.6183355  32.6711991  11.7409885
   8.9139682  32.1821176  11.8993804   9.6668330  32.6834465  10.8698330
   9.5213407  32.6001639  11.6349225   3.5117017  38.1221303  12.1270687
   2.9366609  38.2813471  12.7634648   3.1352694  37.4856712  11.6639138
   3.3719830  38.0519116  12.1525246   7.1790306  36.5944652  16.9863066
   6.7904739  36.1698870  16.3315257   6.5145004  36.8426802  17.4940092
   7.0237234  36.5683373  16.9650934  16.8213575  36.3519657   9.7610896
  16.5650140  35.5399598   9.5708778  17.6642889  36.3597224   9.5341083
  16.9079600  36.2331654   9.6995713  11.0016667  30.2919281  14.4987050
  11.3827179  29.6097452  14.8854924  10.1979952  30.0028883  14.3162714
  10.9393129  30.1486329  14.5291106   8.2829244  40.8243257   5.1839873
   9.0969883  41.1158149   5.0722644   8.2188385  40.1703119   4.6098166
   8.3931983  40.7708451   5.0828710  14.5038734  43.5069253  19.5969448
  14.2677372  42.6757317  19.4781509  15.1481963  43.4554860  20.1824292
  14.5633405  43.3766941  19.6655342   4.1537152  44.2964774  10.3112185
   4.7911099  44.0576522  10.8563978   4.5792224  44.5001933   9.5765345
   4.3113319  44.2915784  10.2829342   4.9608508  32.7973479  24.3649658
   4.6461949  33.5673042  24.1019221   4.6398440  32.2343735  23.7801885
   4.8667427  32.8283748  24.2391008  15.5275155  43.2913701  15.6597743
  15.2220972  44.0241758  16.0211058  14.8081371  42.8851631  15.3790529
  15.3762497  43.3395434  15.6710880   6.5358624  44.7737197  11.9905971
   6.6097633  44.6112368  12.8447821   7.3528131  44.9627386  11.7466453
   6.6674983  44.7773939  12.0803997  21.2276947  39.9306702  14.9866087
  21.1601447  39.9502661  14.1168674  21.2132610  40.7737029  15.2121757
  21.2155704  40.0580437  14.8918564  11.6373294  31.3341860  18.3107176
  12.3826886  31.1451670  17.8970602  11.2210598  31.8600098  17.7521033
  11.6858268  31.3844005  18.1671750  19.0135564  38.7051088  13.2612681
  19.5643486  38.0719157  13.5009773  18.9979680  39.2366481  13.9528186
  19.0920761  38.6900036  13.3991540   5.6657955  42.5389686  17.8072575
   5.1669649  43.2505453  17.8857463   6.4758180  42.8590352  17.7690737
   5.7114062  42.6916534  17.8129143   1.9286073  41.8012639  12.0535296
   1.6399321  41.1750110  12.5881023   2.7969421  41.7432926  12.1199976
   2.0146325  41.7000183  12.1426250  12.7163971  36.9447422  12.3717278
  12.3728737  36.2237757  12.7224527  12.8157013  36.7361273  11.5295636
  12.6806014  36.8071625  12.2988958  13.1777000  43.4073126   7.9141266
  13.7435032  44.0666336   7.8299809  12.5304903  43.7522824   8.3857668
  13.1655756  43.5555067   7.9714022   4.5925013  35.3970730  23.1034873
   3.7824789  35.7028510  22.9924715   5.0699700  36.1176312  23.2187457
   4.5428492  35.5485331  23.1041944   3.4516573  44.6116451  13.3517776
   2.9297326  44.7516743  14.0369641   3.8390593  43.8527115  13.5419893
   3.4320274  44.5201975  13.4818853   9.6483578  46.3511910   7.3378345
   9.4070254  45.6179771   6.9305410   9.8284911  46.8998767   6.6844678
   9.6391202  46.3234301   7.1808568   4.8782898  41.6420470   8.7499267
   4.6825681  42.2495205   8.1559570   5.1017244  40.9488414   8.2690941
   4.8817539  41.6297996   8.5915348   3.2761428  38.5275208   8.8680136
   3.9984080  38.6916366   8.4083942   2.7969421  39.2484873   8.7619475
   3.3125159  38.6573438   8.7845750  11.2354936  34.8639007  14.2476820
  10.3966037  34.8900286  14.0115084  11.3059303  35.5109742  14.8282167
  11.1223330  34.9635133  14.2985937   9.6824214  31.7624384   8.9804436
  10.3850567  31.5632132   8.5024395   9.4168403  30.9900326   9.2873280
   9.7470847  31.6187350   8.9549878  15.1112460  40.0706994  11.5338062
  15.0246434  40.2262420  12.3872841  14.6562940  40.7145069  11.1597467
  15.0315717  40.1882749  11.6045169   4.4452771  33.0259669  18.0335317
   4.2535968  33.0414803  18.8834740   5.2951367  33.2223343  18.0101972
   4.5428493  33.0574020  18.1558612   8.9838276  37.3917741  10.1563622
   8.7372990  37.3113492  10.9900411   9.3123399  36.6071208   9.9626149
   8.9959520  37.2644006  10.2511145  12.8786325  44.1001100  13.9450403
  12.7400684  44.7982146  14.4499145  12.0986323  43.9449756  13.5886585
  12.7429552  44.1801267  13.9676677  11.2164410  40.3997475  20.1972785
  11.2112448  39.5277292  20.2015211  11.9225404  40.5985644  19.7242240
  11.3209414  40.3001350  20.1279820   4.9435303  40.1274459  19.5686605
   5.0878679  40.7075667  18.9329715   5.2910952  40.5050756  20.2736459
   5.0162765  40.2695163  19.5785600   7.1155221  39.3264628  17.3511736
   6.3678535  39.5195642  16.9460014   7.2696746  38.5009847  17.1135858
   7.0277648  39.2329739  17.2557142   4.0163058  48.3177231  16.4347632
   4.1652622  47.7580147  15.7821036   4.7963060  48.3969233  16.8180150
   4.1537152  48.2462797  16.3944581  14.3739698  43.4579354   4.7066902
  13.9946506  42.6716492   4.6996192  13.7105943  44.0066211   4.5638546
  14.2198172  43.4224178   4.6847699   6.5416359  48.4891874  17.7132122
   6.4660030  47.8200684  18.2682911   6.4706218  49.1909662  18.2272789
   6.5196966  48.4936781  17.8708971   7.3556998  33.2215178  18.2407140
   7.8129612  33.9539153  18.3679932   7.4313326  32.7981644  18.9994396
   7.4347967  33.2672416  18.3708217  11.8284324  26.4005054  12.1100983
  11.9467892  26.8581517  11.3768286  11.6546499  25.5950315  11.8237201
  11.8203495  26.3498826  11.9601917   7.1986606  47.0092873   8.5455728
   7.9636497  46.7402517   8.2238393   7.0964696  46.5242883   9.2625791
   7.2968101  46.8982437   8.6035556   5.2339376  35.2117282  15.0848964
   4.4435450  35.0308742  15.4066300   5.6299998  34.4344235  15.0679259
   5.1756252  35.0704743  15.1301512  10.6183062  42.8459712  12.8108410
   9.9428064  42.6144945  13.3121797  10.6275438  42.2380895  12.1850515
  10.5201566  42.7218638  12.7924562   7.7477206  37.6877541  19.5672463
   7.6836347  38.5487498  19.4392600   7.8874394  37.3709535  18.7668014
   7.7592676  37.7677708  19.4300676  12.6199796  45.7024845   5.0418588
  12.7019634  46.5091831   4.7180039  13.1049539  45.7220804   5.7659361
  12.7036954  45.8245507   5.1005487   6.4296300  40.3809681  13.7088666
   6.0058549  40.5814180  12.9727684   6.2541155  39.5338529  13.8212966
   6.3407180  40.2858462  13.6162356   5.9307993  51.8960194  16.1710123
   6.4203923  51.1970983  15.9885788   5.3592225  51.5984064  16.7586181
   5.9192523  51.7486417  16.2311164   1.7178745  40.8761732   9.1416638
   1.8743364  40.8108535   9.9972631   2.0579338  41.6510285   8.9295318
   1.7911980  40.9810930   9.2371233   8.2557889  40.2519616   8.0110002
   8.7973435  39.7489997   8.4748622   8.5704448  40.1984810   7.1999487
   8.3822286  40.1699037   7.9593814  12.1274997  44.4622263  25.1236914
  12.9409862  44.1907412  25.2842046  11.9669963  44.1629803  24.3197110
  12.2244945  44.3777189  25.0282320   9.4047159  35.1455920  18.0632302
   9.6189128  34.5066834  17.5095656   8.7881058  35.5901744  17.6340164
   9.3452488  35.1166064  17.9182733  10.8151827  48.0674669   9.5086523
  10.4231618  47.7641384   8.7909389  10.9704899  48.9043758   9.3191477
  10.7805416  48.1458505   9.3743020  11.5686247  36.7544985  19.0015609
  10.7562928  36.4470876  19.0828782  12.0276181  36.2743986  19.5658321
  11.5166631  36.6381478  19.0970203  10.9791501  44.6324657   9.4492554
  10.6206156  44.8039300  10.2256586  10.4930212  45.0937863   8.8920552
  10.8550198  44.7263628   9.4817823   8.7961887  28.2555856  13.0519645
   7.9255445  28.2294577  13.0052954   9.0502229  28.0833048  12.2345491
   8.7055447  28.2266000  12.9239782   8.6639754  38.1605057  23.7844312
   9.1339385  38.7847173  24.1712186   8.7101634  37.4922032  24.3437526
   8.7407630  38.1539737  23.9244383   5.8211028  30.2662084  14.5093115
   5.3049516  29.5742276  14.6344694   5.2604957  30.9332861  14.4555714
   5.6617541  30.2625342  14.5199181   7.8903261  30.8055044  16.3385968
   7.5035014  30.8304076  17.1199498   7.4036199  30.2396723  15.8860485
   7.7615770  30.7250795  16.3873872  12.1396241  45.5228553  20.3959754
  12.7775961  45.0288749  20.0622211  11.4970332  45.4505954  19.8111981
  12.1390467  45.4387562  20.2602109  13.8653241  37.3717699  14.9625670
  13.4380849  37.2844048  14.2073770  13.2279294  37.4795475  15.5480514
  13.7082848  37.3750359  14.9371112   7.5560403  27.6922030  18.6296228
   8.1853521  28.2282330  18.3517298   7.7246266  27.5999389  19.4809793
   7.6738198  27.7583392  18.7144756   7.3574318  32.4793225  20.9022639
   8.1847747  32.2078373  20.9581254   7.3782164  33.2754066  21.2586458
   7.4827168  32.5572979  20.9637822  12.1950497  46.2148362  17.0365111
  12.9842875  45.8637426  17.1567193  12.3694095  47.0284750  16.7741745
  12.3370779  46.2834219  17.0152979   1.9343808  39.6257087  14.0892900
   1.0931814  39.5260962  14.2971794   2.1433816  40.3952568  14.4407221
   1.8408500  39.7249131  14.1720215  11.0484321  30.2257918  11.5981530
  11.2533915  30.1580226  12.4438527  10.7210745  31.0316740  11.5302707
  11.0299569  30.3343859  11.7141185   5.7460473  37.5538487  13.3390498
   5.4423610  36.9994475  13.9400905   5.0439893  37.7330697  12.8518532
   5.5976682  37.4983269  13.3560203   3.8078824  44.7688207  18.0462595
   3.6999179  44.7790269  18.9124653   4.0174605  45.5942988  17.8567549
   3.8228935  44.8929282  18.1466687  14.3018009  30.7789683  11.0784295
  13.6892323  31.2660085  11.4638027  14.3982184  30.1033173  11.6221946
  14.2255907  30.7507991  11.2163153   1.8252616  42.0200850  15.5084533
   1.2340549  42.6610348  15.4787548   2.5873639  42.4438467  15.4815832
   1.8500876  42.1776688  15.4999680   2.2213238  33.1802847  16.1752551
   2.6814720  33.2541777  16.9127674   2.2669345  33.9784101  15.8252372
   2.2963794  33.3096994  16.2325307   3.8696588  33.8469542  20.7424578
   3.4782153  33.2002889  21.1780355   4.0382451  34.4380978  21.3618833
   3.8367498  33.8383810  20.8987284  17.9443037  41.8506619  16.5061811
  18.0026161  42.2993268  17.2521788  17.3109505  42.2605432  16.0691891
  17.8594332  41.9780354  16.5514360  11.5842132  47.4710161  12.9416557
  11.3861820  47.9600976  12.2472769  10.9629843  47.6751403  13.5200691
  11.4629696  47.5726699  12.9239781   5.6450110  39.2395058   7.2826802
   6.3892155  39.6269334   7.5209752   5.7910806  38.3952483   7.4467289
   5.7760695  39.1725531   7.3420771   7.5629686  31.0345317  12.3158663
   6.7165731  31.2068125  12.1900013   7.5600818  30.2294661  12.6524491
   7.4376836  30.9406346  12.3469790   8.6327986  34.8120531  13.1820721
   8.1587940  34.2862293  13.6926032   9.0046122  34.2650004  12.6135583
   8.6177875  34.6536528  13.1735868  14.8964717  39.8722907  14.5927502
  14.6562939  39.0329322  14.5969928  15.3756724  39.9523074  15.3168275
  14.9316900  39.7604307  14.7002304  16.8969904  36.6524364  12.5456761
  16.6579674  36.6120198  11.7077545  17.0603805  37.4995516  12.6722482
  16.8860207  36.7716449  12.4410243  13.5015934  41.0374314  18.4761806
  14.2250133  40.5846840  18.2972826  13.2365896  41.3178979  17.6934134
  13.5697207  41.0125282  18.3340521   2.3702802  35.6334487  15.2114685
   1.7455872  35.6452879  14.6040638   2.0348397  36.1094662  15.8605925
   2.2288294  35.7053004  15.2171254  10.1148568  44.2760650   5.3756132
  10.8382767  44.7418763   5.2320705   9.6749159  44.3434259   4.6253729
  10.1564260  44.3544486   5.2440913   9.2834723  41.1358192  16.6256821
   8.6691716  40.5916242  16.9205456   9.8002008  40.6222428  16.1462637
   9.2690386  40.9794601  16.5981049   8.5231020  42.2062462  14.3601119
   8.0958628  41.5812180  13.9266555   8.5155965  41.9237384  15.1860127
   8.4590162  42.0715242  14.4180947   1.6393548  37.2427635  17.4289553
   1.7987034  36.4870959  17.8341275   1.4586441  37.7918574  18.0830291
   1.6358907  37.2121449  17.5852259   9.5813851  29.4088870  17.9840343
   9.0854412  29.6052545  17.2931910  10.3382913  29.8081539  17.8129145
   9.6200675  29.4966604  17.8560480   6.8516730  33.0831216  14.5743653
   6.8759217  32.5491329  13.8856433   7.1028204  32.5748525  15.2369244
   6.8926649  32.9292120  14.5708298   3.1318052  31.8102035  13.9549398
   3.1716424  32.3111241  14.6684105   2.3067717  31.9012428  13.6855321
   3.0157578  31.8983851  14.0199936   5.3147665  41.3762775  22.0569692
   4.4643296  41.5134489  22.1927337   5.4775793  40.6426553  22.5017394
   5.2131529  41.2876876  22.1425292   4.5532416  38.3262544  16.2523297
   3.7224345  38.4936362  16.0458545   4.4983933  37.9498495  17.0372182
   4.4221831  38.2952276  16.3371825   2.3616199  31.8171437  21.8879708
   2.9868902  31.2733570  22.1609140   1.9066679  31.3366355  21.3187498
   2.3864460  31.6660919  21.8441301  15.9351248  40.0000724  16.9792356
  16.5269088  40.6397975  17.0110554  16.3710242  39.3023761  17.2684422
  16.0869679  39.9919075  17.0273188   7.7644638  44.4218097  17.6050249
   7.2569729  44.9753944  18.0490880   7.4671284  44.4826387  16.7869024
   7.6449523  44.5124408  17.5498706   9.9306820  32.7871416  16.4474912
  10.3561891  32.3343943  15.8358439   9.3163813  32.2331487  16.7239700
   9.9035465  32.6385393  16.3979938  12.9600389  37.2145943   9.2795498
  12.2891579  37.7575645   9.1508564  13.6540139  37.6840798   9.0377193
  12.9629257  37.3644214   9.2251026   7.0087123  49.3542655  14.5107256
   6.7852777  48.5961484  14.8791283   6.5196966  49.3840676  13.7887696
   6.9030572  49.2464880  14.4583997  13.1228517  33.6701827  12.1885871
  13.4756127  33.2431550  12.8631670  12.2643318  33.5852670  12.3186948
  13.0477961  33.5946567  12.3080882   1.8212202  36.3009346  10.2468718
   1.1024191  36.7173479  10.5141581   2.1924564  36.8663585   9.6960356
   1.7704133  36.4458628  10.2051525  11.1211782  36.9337195  16.1370713
  11.1009710  36.7520490  16.9905492  11.1690983  37.8049214  16.1130297
  11.1246423  37.0353733  16.2594008   9.0658112  43.5224387  22.0619190
   9.0253967  42.8774064  21.4764346   9.8781430  43.4661005  22.3744602
   9.1801266  43.4183354  22.0216139   5.6565580  49.5743113  11.9644341
   5.2425978  48.9117243  11.5748183   6.3412954  49.7220972  11.4440035
   5.6963951  49.4983771  11.8300838   9.0230874  48.7333198  12.7167957
   8.6247157  48.8435469  11.9488778   8.4082093  48.9415265  13.2994517
   8.8729763  48.7806766  12.6899257  14.5552577  28.7920238  13.1170184
  14.0483441  28.0849378  13.0491361  15.3520010  28.4613427  13.2471260
  14.5979816  28.6393390  13.1269179  10.4716593  35.2986851   9.0143847
  10.2430286  35.3219552   8.1722206  10.7314669  34.4744318   9.1338858
  10.4762781  35.1802931   8.9069045   4.7535821  37.1521324  18.6168948
   4.2414724  36.5442507  18.9753979   4.5815317  37.8677916  19.0842923
   4.6525458  37.1684623  18.7385171   3.5261355  33.8363397  10.3098043
   4.0018721  34.1980477   9.6748224   3.0249955  34.4919865  10.5898186
   3.5226714  33.9857586  10.2574784  16.7572717  43.3085165   6.1011048
  17.1406322  44.0576521   6.3309145  15.9616830  43.5550985   5.8423037
  16.6966499  43.4554859   6.0968622   8.6304891  35.0745568  21.0571203
   9.1876321  34.8459378  20.4249669   8.3065956  35.8351234  20.7806416
   8.6651301  35.1529405  20.9227700   6.3488009  38.1613222  22.0223210
   7.0999336  38.4764899  22.3362765   6.5410585  37.9592393  21.1957132
   6.4879423  38.1780603  21.9466606  13.1973299  34.2886788   9.2647006
  13.1967525  34.1335445  10.1231282  12.9929479  35.1349775   9.2088391
  13.1673077  34.3907409   9.3834945  10.9214151  38.9684290  12.9183213
  11.4167816  38.2507285  12.8787233  10.1113926  38.6655087  12.8037700
  10.8758044  38.8181936  12.8956938  12.9865970  41.7187977  15.6060341
  13.4121041  41.1962399  15.0530766  12.6222889  42.3168815  15.0848964
  12.9952572  41.7298204  15.4469351   2.6220049  50.0152195  14.3657687
   2.9366608  50.8288583  14.3735469   3.0313463  49.6302413  15.0339846
   2.7288147  50.0780897  14.4661779   9.5744569  45.4322242  11.9361499
  10.0455747  46.1462504  12.1051484   9.9104748  44.8320992  12.4721368
   9.6939684  45.4493706  12.0393875  11.6621554  47.0423555  24.1153571
  11.7718519  46.2532116  24.4710318  11.9912450  46.9529491  23.3127909
  11.7273959  46.9129408  24.0495962   6.4914064  30.2049712  18.8919594
   6.6241970  29.4080706  19.2200569   6.8759217  30.7316115  19.4717869
   6.5670393  30.1649629  19.0263097  10.2118515  45.2240176  18.6989192
   9.6639461  44.5998059  18.4309257  10.6731544  45.4134448  17.9833271
  10.1985725  45.1599226  18.5539623   9.5646419  27.1280038  15.4900687
   8.7592383  27.0177768  15.8068525   9.4353155  27.2292494  14.6330553
   9.4266552  27.1263708  15.4108727  13.0212380  33.2925530  16.0840384
  12.4375369  33.7934737  15.6717951  13.3416674  32.7855086  15.4504707
  12.9825555  33.2917365  15.9298891   4.1502511  30.2008887  17.1397487
   4.6946924  29.8600014  17.7301829   4.2039447  31.0594349  17.2818772
   4.2391630  30.2764147  17.2479361   9.7776842  46.2291248  15.2298533
  10.5975215  46.0854214  15.4914828   9.4970919  46.8537447  15.7714971
   9.8573585  46.3001600  15.3486472  26.2490492  53.8856100   8.1941409
  26.2184496  54.7400737   8.3659678  26.8471841  53.5851393   8.7527553
  26.3327650  53.9672597   8.3016211  19.4490177  52.9731751  12.9494340
  18.5928072  53.1340249  13.0003456  19.4957831  52.1023815  12.9699401
  19.3289288  52.8682553  12.9600406  22.7583893  59.2418277  22.5554796
  23.4650661  58.7470307  22.6841730  22.9471829  59.6827358  21.8257454
  22.8911799  59.2336627  22.4663841  18.8260568  64.8834107  10.0828230
  19.2099947  65.4521006   9.5433005  18.7619709  64.1583618   9.6034046
  18.8733995  64.8609571   9.9322092  22.2941998  55.0323795  15.5925991
  22.8397958  55.7108882  15.6519961  22.2358874  54.8911256  14.7327573
  22.3657912  55.1115797  15.4738052  15.4116073  62.5212861  10.9794344
  15.5126436  61.7113215  11.2891471  14.8157818  62.4269808  10.3494022
  15.3388611  62.3877889  10.9320582  24.0707067  56.4608402   6.4659719
  23.9546592  57.2116088   6.8951857  24.8662953  56.2032355   6.7155806
  24.1711656  56.5343249   6.5663811  15.2516812  67.4390450  12.3809200
  15.8954268  67.8803614  12.7705358  15.5773068  66.6343877  12.2939458
  15.3948641  67.3855645  12.4254677  10.9071205  50.7118878  13.5030985
  10.2876236  50.1211526  13.3341000  10.8055068  51.3030314  12.8695308
  10.8008880  50.7122961  13.3835974  18.0039100  52.4518420   7.8363448
  18.7019265  52.6306548   8.3284911  18.3191433  51.9288759   7.2133837
  18.1534437  52.4012192   7.8165458  10.6340338  54.2571160  15.7474554
  10.5099034  54.8433606  16.3824373  11.2858622  53.7631356  16.0486829
  10.7113987  54.2709964  15.8860483  18.1927036  58.8388865   7.8243239
  18.6320671  58.2305966   8.2698012  18.0431698  58.4596238   7.0528705
  18.2348501  58.6927336   7.7762407  15.6598679  57.4332877  15.0262065
  16.3047681  56.9405320  14.7073014  15.9000456  57.5757664  15.8528143
  15.7909264  57.3810319  15.1011598  18.1984770  60.2787783  14.6768958
  18.4808013  59.4839189  14.4555713  18.9270930  60.7568370  14.6974019
  18.3474334  60.2322380  14.6471973  16.1765964  47.8210817  11.9184723
  15.8469294  48.2721960  11.2488421  15.5010966  47.7426980  12.4657729
  16.0276400  47.8761952  11.9007946  21.7936372  57.1916046   4.7774009
  21.7087667  58.0477013   4.9223578  22.2820755  56.9160371   5.4456168
  21.8525269  57.2773368   4.8976090  23.3842372  43.8096340  10.1634333
  23.0695813  44.4999818  10.5954756  22.8669313  43.7541122   9.4619834
  23.2606842  43.9031228  10.1231282  22.7254805  53.8100841   6.2771744
  22.1966277  54.0260474   6.9369050  23.2479825  54.5036979   6.1972713
  22.7243258  53.9443978   6.3627343  28.1802858  59.3847145  11.6504788
  27.3500561  59.5957789  11.8138205  28.1312111  58.5584200  11.3747072
  28.0509594  59.2936751  11.6342154  16.2412596  62.2150999  14.4852698
  15.7239537  61.8558414  13.8814006  16.9386987  61.6913174  14.4958764
  16.2678177  62.0848687  14.3982957  19.8976188  62.6645813  20.4468871
  19.9859534  62.4771954  21.2947081  20.3265900  62.0183243  20.0473718
  19.9738290  62.5408821  20.5140622  17.4646648  61.9476973  19.4286533
  16.9017482  61.5349583  19.9526194  18.2267671  61.8729879  19.8479676
  17.4941096  61.8754374  19.5679533  19.0731628  53.9529709   3.5548132
  19.3127631  54.1607693   2.7423476  19.3947469  53.1487218   3.6637077
  19.1568785  53.8643811   3.4508686  14.3821918  45.8823105   7.4007670
  15.1367886  46.2501422   7.1624721  14.2049452  46.2562660   8.1686850
  14.4676396  45.9921293   7.4792559  13.0242639  63.9374994  12.0323163
  13.7263218  63.4226983  12.0895920  12.9440122  64.2649146  12.8370038
  13.1166399  63.9089221  12.1595955  27.6756817  52.0317546  15.4455210
  26.8385238  52.1019733  15.6802804  27.6445047  52.0342041  14.5729512
  27.5475099  52.0427773  15.3514758  14.0721546  54.1750581  21.1603578
  14.2442049  54.0656476  22.0088860  14.6090903  54.8204987  20.9234771
  14.1766550  54.2542583  21.2508675  12.7378982  48.2893424   4.0985783
  12.5554556  48.5065305   3.2726776  13.6004595  48.4032437   4.1544398
  12.8383572  48.3383322   3.9840270  12.3493414  60.1281346  11.5408771
  13.1882314  60.3604279  11.5882533  12.3805184  59.2585658  11.4715807
  12.4775132  60.0338293  11.5373416  12.9746117  60.5482222  15.8422077
  13.5144342  60.4053353  16.5125449  12.2916064  60.9478972  16.2106103
  12.9538271  60.5861893  15.9956499  18.4178702  45.2919835   7.1334807
  19.1464862  45.1135790   6.6872963  18.5073595  46.1337915   7.3441985
  18.5385364  45.3903713   7.0988325  22.3987002  56.2273222  11.0367101
  23.1544517  56.6604737  11.0756010  22.5049327  55.5777992  11.6101737
  22.5257173  56.1950706  11.1265127  25.4367173  60.0546500  11.7869504
  25.0002405  60.0583242  12.5428476  25.1030089  60.7351998  11.3549082
  25.3229793  60.1558955  11.8350337  20.0096247  62.0954832  23.1112654
  20.7936664  62.2085680  23.4768397  19.8092842  61.2695969  23.3071340
  20.0962272  61.9901552  23.1947040   8.3783263  56.7682512  15.9956498
   8.1121678  55.9521629  16.1547489   8.3921827  56.8135668  15.1252014
   8.3407985  56.6539417  15.8909980  25.3564656  47.0960327  14.0298932
  25.9990565  47.1658432  14.6160847  25.6087677  46.4289550  13.5278474
  25.4886788  47.0086676  14.0426211  13.1281869  50.3060891  18.6423506
  12.4353666  49.8357870  18.8884238  13.7442196  50.0799195  19.2165213
  13.1166399  50.2028023  18.7632659  20.1666640  64.0064934  16.7579110
  19.3681886  63.7664434  17.0152979  20.6152652  64.0579327  17.5046158
  20.1141252  63.9787326  16.9064034  28.5711520  56.7727419  10.6789141
  29.2327954  56.2118088  10.5785050  27.9302932  56.2779450  11.0041833
  28.5740387  56.6163828  10.7121482   8.7876676  57.5541292  13.2768243
   8.6052249  57.5288178  12.4240535   9.5226345  58.0240230  13.3157151
   8.8690740  57.6202654  13.1566161  24.8576350  57.7892802  10.4201130
  25.0931940  57.9338001   9.5927981  25.0065914  58.5535210  10.8132644
  24.9142154  57.9231856  10.3564734  11.8522428  54.2726295  19.7850351
  12.5762400  54.2579325  20.2715246  11.9538564  54.9821650  19.2872319
  11.9740637  54.3750998  19.7829138  26.6866807  56.6294468   8.2570734
  27.0175024  57.1622108   7.6510829  27.2599895  56.6833355   8.9132685
  26.8200486  56.7164037   8.2648516  19.2267377  57.7525379  24.6499298
  18.4340358  58.0668891  24.8351918  19.3416304  57.9676848  23.8120083
  19.1262788  57.8309216  24.5537633  21.8998696  54.4759370   8.9394314
  21.9945551  55.2148665   9.3933940  21.2757540  54.0476846   9.3728879
  21.8207726  54.5220691   9.0702462  20.1551170  57.6545583  19.5884595
  20.7290032  57.0172827  19.7433159  20.0765974  57.6549665  18.7194253
  20.2284405  57.5610694  19.4831006   8.7547587  54.4334792  13.4267309
   9.3321089  54.2971243  14.0659555   8.0561648  53.9770577  13.6812894
   8.7368608  54.3457059  13.5589599  22.1521718  56.3208110   2.1731266
  22.0701880  56.3910297   3.0386253  22.7901438  56.8837854   1.9815007
  22.2341555  56.4147081   2.2721216  15.5114889  56.0868848  11.6405792
  15.2534133  55.2540583  11.6137092  15.5663372  56.3126461  10.7998293
  15.4814667  55.9966619  11.5125929  20.5915939  48.1897299  11.7409885
  19.8872266  47.7006484  11.8993804  20.6400913  48.2019773  10.8698330
  20.4945990  48.1186947  11.6349225  14.4849601  53.6406611  12.1270687
  13.9099192  53.7998779  12.7634648  14.1085277  53.0042020  11.6639138
  14.3452413  53.5704424  12.1525246  18.1522889  52.1129960  16.9863066
  17.7637322  51.6884178  16.3315257  17.4877588  52.3612110  17.4940092
  17.9969817  52.0868681  16.9650934  27.7946159  51.8704965   9.7610896
  27.5382723  51.0584906   9.5708778  28.6375473  51.8782532   9.5341083
  27.8812184  51.7516962   9.6995713  21.9749251  45.8104589  14.4987050
  22.3559763  45.1282760  14.8854924  21.1712535  45.5214191  14.3162714
  21.9125713  45.6671637  14.5291106  19.2561828  56.3428564   5.1839873
  20.0702467  56.6343457   5.0722644  19.1920969  55.6888427   4.6098166
  19.3664567  56.2893759   5.0828710  25.4771318  59.0254561  19.5969448
  25.2409955  58.1942625  19.4781509  26.1214547  58.9740168  20.1824292
  25.5365989  58.8952249  19.6655342  15.1269736  59.8150082  10.3112185
  15.7643683  59.5761829  10.8563978  15.5524808  60.0187241   9.5765345
  15.2845902  59.8101092  10.2829342   9.8182378  62.0538418  14.1946488
   9.8586524  62.3253270  13.3666268  10.3776902  62.5780327  14.6104276
   9.9065724  62.1714174  14.1338377  15.9341091  48.3158787  24.3649658
  15.6194532  49.0858350  24.1019221  15.6131024  47.7529043  23.7801885
  15.8400011  48.3469056  24.2391008  26.5007739  58.8099009  15.6597743
  26.1953556  59.5427066  16.0211058  25.7813954  58.4036939  15.3790529
  26.3495081  58.8580742  15.6710880  17.5091208  60.2922505  11.9905971
  17.5830216  60.1297676  12.8447821  18.3260714  60.4812694  11.7466453
  17.6407567  60.2959247  12.0803997  32.2009531  55.4492010  14.9866087
  32.1334031  55.4687969  14.1168674  32.1865193  56.2922337  15.2121757
  32.1888287  55.5765745  14.8918564  13.4872988  46.7049308   9.9795855
  12.6195414  46.7771908  10.0453464  13.7748193  47.5071387  10.1683830
  13.4012736  46.8343455  10.0170621  22.6105877  46.8527168  18.3107176
  23.3559469  46.6636978  17.8970602  22.1943182  47.3785406  17.7521033
  22.6590851  46.9029313  18.1671750  29.9868148  54.2236396  13.2612681
  30.5376070  53.5904465  13.5009773  29.9712263  54.7551789  13.9528186
  30.0653344  54.2085344  13.3991540  16.6390539  58.0574994  17.8072575
  16.1402233  58.7690761  17.8857463  17.4490763  58.3775660  17.7690737
  16.6846646  58.2101842  17.8129143  12.9018656  57.3197947  12.0535296
  12.6131905  56.6935418  12.5881023  13.7702005  57.2618234  12.1199976
  12.9878908  57.2185491  12.1426250  23.6896554  52.4632730  12.3717278
  23.3461320  51.7423065  12.7224527  23.7889597  52.2546581  11.5295636
  23.6538597  52.3256933  12.2988958  24.1509583  58.9258434   7.9141266
  24.7167616  59.5851644   7.8299809  23.5037487  59.2708132   8.3857668
  24.1388340  59.0740375   7.9714022  15.5657597  50.9156038  23.1034873
  14.7557373  51.2213818  22.9924715  16.0432284  51.6361620  23.2187457
  15.5161076  51.0670639  23.1041944  14.4249156  60.1301759  13.3517776
  13.9029910  60.2702051  14.0369641  14.8123177  59.3712423  13.5419893
  14.4052857  60.0387283  13.4818853  11.4140340  50.1807568   7.4212731
  11.1265136  49.8108838   6.6844678  12.1010809  50.6502423   7.1596436
  11.4729238  50.1954537   7.2727807  20.6216161  61.8697218   7.3378345
  20.3802837  61.1365079   6.9305410  20.8017494  62.4184075   6.6844678
  20.6123785  61.8419609   7.1808568  15.8515482  57.1605778   8.7499267
  15.6558265  57.7680513   8.1559570  16.0749828  56.4673722   8.2690941
  15.8550123  57.1483303   8.5915348  14.2494012  54.0460516   8.8680136
  14.9716664  54.2101674   8.4083942  13.7702005  54.7670181   8.7619475
  14.2857743  54.1758745   8.7845750  22.2087520  50.3824315  14.2476820
  21.3698620  50.4085594  14.0115084  22.2791887  51.0295050  14.8282167
  22.0955913  50.4820441  14.2985937  11.9001629  56.4518588  17.9734275
  12.4122726  56.7302842  17.3243035  11.6137971  57.1907882  18.3397088
  11.9336492  56.6020942  17.9324153  20.6556798  47.2809692   8.9804436
  21.3583151  47.0817440   8.5024395  20.3900987  46.5085634   9.2873280
  20.7203430  47.1372658   8.9549878  26.0845043  55.5892301  11.5338062
  25.9979018  55.7447728  12.3872841  25.6295523  56.2330377  11.1597467
  26.0048300  55.7068057  11.6045169   8.9868535  50.9588780   8.2698012
   9.0884672  51.7614942   8.5978987   9.7824422  50.7576116   7.9721092
   9.1196441  51.0474679   8.2733367  15.4185354  48.5444977  18.0335317
  15.2268551  48.5600111  18.8834740  16.2683950  48.7408651  18.0101972
  15.5161076  48.5759328  18.1558612   9.8032267  51.0735958  16.0119133
   9.6617759  50.2219899  16.1363641  10.0872831  51.1164619  15.1881339
   9.8240113  50.9535708  15.9086758  23.8518908  59.6186408  13.9450403
  23.7133268  60.3167454  14.4499145  23.0718906  59.4635064  13.5886585
  23.7162135  59.6986575  13.9676677  22.1896994  55.9182783  20.1972785
  22.1845032  55.0462600  20.2015211  22.8957987  56.1170952  19.7242240
  22.2941997  55.8186657  20.1279820  15.9167887  55.6459767  19.5686605
  16.0611263  56.2260975  18.9329715  16.2643535  56.0236064  20.2736459
  15.9895348  55.7880471  19.5785600  18.0887804  54.8449936  17.3511736
  17.3411118  55.0380950  16.9460014  18.2429329  54.0195155  17.1135858
  18.0010232  54.7515047  17.2557142  14.9895642  63.8362539  16.4347632
  15.1385206  63.2765455  15.7821036  15.7695644  63.9154541  16.8180150
  15.1269735  63.7648104  16.3944581  25.3472281  58.9764662   4.7066902
  24.9679090  58.1901800   4.6996192  24.6838527  59.5251519   4.5638546
  25.1930756  58.9409486   4.6847699  17.5148942  64.0077182  17.7132122
  17.4392614  63.3385992  18.2682911  17.4438802  64.7094970  18.2272789
  17.4929549  64.0122089  17.8708971  18.3289581  48.7400486  18.2407140
  18.7862195  49.4724461  18.3679932  18.4045910  48.3166952  18.9994396
  18.4080551  48.7857724  18.3708217  10.5722572  48.9866306  19.3296584
  10.0364762  48.3746664  19.6457351  10.6340337  49.5614442  19.9830250
  10.5018205  48.9813234  19.4732011  22.8016907  41.9190361  12.1100983
  22.9200475  42.3766825  11.3768286  22.6279083  41.1135623  11.8237201
  22.7936078  41.8684134  11.9601917  18.1719189  62.5278181   8.5455728
  18.9369080  62.2587824   8.2238393  18.0697279  62.0428191   9.2625791
  18.2700685  62.4167745   8.6035556  16.2071959  50.7302590  15.0848964
  15.4168034  50.5494050  15.4066300  16.6032582  49.9529543  15.0679259
  16.1488835  50.5890051  15.1301512  21.5915645  58.3645020  12.8108410
  20.9160647  58.1330253  13.3121797  21.6008022  57.7566203  12.1850515
  21.4934150  58.2403946  12.7924562  18.7209789  53.2062849  19.5672463
  18.6568931  54.0672806  19.4392600  18.8606977  52.8894843  18.7668014
  18.7325259  53.2863016  19.4300676  23.5932380  61.2210153   5.0418588
  23.6752217  62.0277139   4.7180039  24.0782122  61.2406112   5.7659361
  23.6769538  61.3430815   5.1005487  17.4028883  55.8994989  13.7088666
  16.9791132  56.0999488  12.9727684  17.2273738  55.0523837  13.8212966
  17.3139764  55.8043770  13.6162356  16.9040577  67.4145502  16.1710123
  17.3936507  66.7156291  15.9885788  16.3324809  67.1169372  16.7586181
  16.8925107  67.2671725  16.2311164  12.6911328  56.3947040   9.1416638
  12.8475947  56.3293843   9.9972631  13.0311921  57.1695593   8.9295318
  12.7644563  56.4996238   9.2371233  19.2290473  55.7704924   8.0110002
  19.7706018  55.2675305   8.4748622  19.5437032  55.7170118   7.1999487
  19.3554870  55.6884345   7.9593814  23.1007580  59.9807571  25.1236914
  23.9142446  59.7092720  25.2842046  22.9402547  59.6815111  24.3197110
  23.1977529  59.8962497  25.0282320  20.3779742  50.6641228  18.0632302
  20.5921712  50.0252142  17.5095656  19.7613641  51.1087052  17.6340164
  20.3185071  50.6351372  17.9182733  21.7884410  63.5859976   9.5086523
  21.3964202  63.2826692   8.7909389  21.9437482  64.4229066   9.3191477
  21.7538000  63.6643813   9.3743020   9.2645590  53.5781991   9.4577406
   9.6444555  53.9966535   8.7937673   8.6900955  54.1595446   9.7646249
   9.2356915  53.7259849   9.4054147  22.5418830  52.2730293  19.0015609
  21.7295512  51.9656184  19.0828782  23.0008765  51.7929293  19.5658321
  22.4899215  52.1566786  19.0970203  21.9524085  60.1509965   9.4492554
  21.5938740  60.3224608  10.2256586  21.4662796  60.6123171   8.8920552
  21.8282782  60.2448936   9.4817823  19.7694471  43.7741164  13.0519645
  18.8988029  43.7479885  13.0052954  20.0234812  43.6018356  12.2345491
  19.6788031  43.7451308  12.9239782  19.6372338  53.6790365  23.7844312
  20.1071969  54.3032481  24.1712186  19.6834218  53.0107340  24.3437526
  19.7140214  53.6725045  23.9244383  16.7943611  45.7847392  14.5093115
  16.2782100  45.0927584  14.6344694  16.2337540  46.4518169  14.4555714
  16.6350125  45.7810650  14.5199181  18.8635845  46.3240352  16.3385968
  18.4767598  46.3489384  17.1199498  18.3768782  45.7582031  15.8860485
  18.7348354  46.2436103  16.3873872  23.1128824  61.0413861  20.3959754
  23.7508545  60.5474057  20.0622211  22.4702916  60.9691262  19.8111981
  23.1123051  60.9572870  20.2602109  24.8385824  52.8903007  14.9625670
  24.4113432  52.8029356  14.2073770  24.2011877  52.9980783  15.5480514
  24.6815432  52.8935667  14.9371112  18.5292987  43.2107338  18.6296228
  19.1586105  43.7467638  18.3517298  18.6978849  43.1184697  19.4809793
  18.6470781  43.2768700  18.7144756  18.3306901  47.9978532  20.9022639
  19.1580331  47.7263681  20.9581254  18.3514748  48.7939374  21.2586458
  18.4559752  48.0758287  20.9637822  23.1683081  61.7333670  17.0365111
  23.9575459  61.3822734  17.1567193  23.3426679  62.5470058  16.7741745
  23.3103363  61.8019527  17.0152979  12.9076391  55.1442395  14.0892900
  12.0664398  55.0446269  14.2971794  13.1166399  55.9137876  14.4407221
  12.8141084  55.2434439  14.1720215  10.3851958  52.7661932  11.9177651
   9.9908656  52.8404944  11.1427760   9.8292075  53.1519879  12.4686012
  10.2454771  52.8343707  11.8845311  22.0216905  45.7443226  11.5981530
  22.2266498  45.6765534  12.4438527  21.6943329  46.5502047  11.5302707
  22.0032153  45.8529167  11.7141185  16.7193056  53.0723794  13.3390498
  16.4156194  52.5179783  13.9400905  16.0172477  53.2516004  12.8518532
  16.5709266  53.0168577  13.3560203  15.7759153  50.3824314   7.9035199
  16.0518888  49.6643227   7.4912767  16.3757823  50.9809234   7.6956306
  15.9052418  50.3644685   7.8115961  14.7811407  60.2873515  18.0462595
  14.6731762  60.2975577  18.9124653  14.9907189  61.1128296  17.8567549
  14.7961518  60.4114590  18.1466687  25.2750593  46.2974991  11.0784295
  24.6624906  46.7845393  11.4638027  25.3714768  45.6218481  11.6221946
  25.1988490  46.2693299  11.2163153  19.2769674  48.0537832   6.1781794
  19.7313420  48.2248392   6.9029639  19.7509719  47.4405942   5.7779570
  19.4137994  47.9888717   6.2255556  12.7985199  57.5386158  15.5084533
  12.2073132  58.1795656  15.4787548  13.5606223  57.9623775  15.4815832
  12.8233460  57.6961996  15.4999680  13.1945822  48.6988155  16.1752551
  13.6547304  48.7727085  16.9127674  13.2401929  49.4969409  15.8252372
  13.2696377  48.8282302  16.2325307  14.8429172  49.3654850  20.7424578
  14.4514737  48.7188197  21.1780355  15.0115034  49.9566285  21.3618833
  14.8100082  49.3569118  20.8987284  28.9175621  57.3691927  16.5061811
  28.9758744  57.8178576  17.2521788  28.2842088  57.7790740  16.0691891
  28.8326916  57.4965662  16.5514360  22.5574715  62.9895469  12.9416557
  22.3594404  63.4786284  12.2472769  21.9362426  63.1936711  13.5200691
  22.4362280  63.0912007  12.9239781  16.6182694  54.7580366   7.2826802
  17.3624739  55.1454642   7.5209752  16.7643390  53.9137791   7.4467289
  16.7493279  54.6910839   7.3420771  18.5362269  46.5530625  12.3158663
  17.6898314  46.7253433  12.1900013  18.5333402  45.7479969  12.6524491
  18.4109419  46.4591654  12.3469790  19.6060570  50.3305839  13.1820721
  19.1320524  49.8047601  13.6926032  19.9778705  49.7835312  12.6135583
  19.5910459  50.1721836  13.1735868   9.9833600  52.3277346  18.5504267
  10.8459213  52.2273055  18.4641597   9.6525383  51.7472055  17.9889839
  10.0618796  52.2268973  18.4549673  25.8697300  55.3908215  14.5927502
  25.6295523  54.5514630  14.5969928  26.3489307  55.4708382  15.3168275
  25.9049484  55.2789615  14.7002304  21.5344069  51.2242394   6.2446475
  21.0067088  51.3071138   5.5552184  21.9939777  51.9660265   6.2411119
  21.5245920  51.3463056   6.1421170  27.8702487  52.1709672  12.5456761
  27.6312257  52.1305506  11.7077545  28.0336388  53.0180824  12.6722482
  27.8592791  52.2901757  12.4410243  24.4748517  56.5559621  18.4761806
  25.1982716  56.1032148  18.2972826  24.2098480  56.8364287  17.6934134
  24.5429791  56.5310590  18.3340521  13.3435386  51.1519795  15.2114685
  12.7188456  51.1638187  14.6040638  13.0080981  51.6279970  15.8605925
  13.2020878  51.2238312  15.2171254  10.0561061  59.2120255  16.6518449
   9.5260986  58.5212694  16.7013424  10.3286155  59.2030440  15.8231158
  10.0185784  59.1087387  16.5365865  21.0881152  59.7945957   5.3756132
  21.8115351  60.2604070   5.2320705  20.6481743  59.8619567   4.6253729
  21.1296844  59.8729794   5.2440913  20.2567307  56.6543500  16.6256821
  19.6424300  56.1101550  16.9205456  20.7734592  56.1407736  16.1462637
  20.2422969  56.4979909  16.5981049  19.4963604  57.7247770  14.3601119
  19.0691212  57.0997488  13.9266555  19.4888548  57.4422692  15.1860127
  19.4322745  57.5900550  14.4180947  12.6126131  52.7612943  17.4289553
  12.7719618  52.0056267  17.8341275  12.4319025  53.3103882  18.0830291
  12.6091490  52.7306757  17.5852259  20.5546434  44.9274178  17.9840343
  20.0586995  45.1237853  17.2931910  21.3115496  45.3266847  17.8129145
  20.5933259  45.0151912  17.8560480  17.8249314  48.6016524  14.5743653
  17.8491801  48.0676637  13.8856433  18.0760787  48.0933833  15.2369244
  17.8659232  48.4477428  14.5708298  14.1050636  47.3287343  13.9549398
  14.1449008  47.8296549  14.6684105  13.2800301  47.4197736  13.6855321
  13.9890162  47.4169159  14.0199936  16.2880249  56.8948083  22.0569692
  15.4375879  57.0319797  22.1927337  16.4508377  56.1611861  22.5017394
  16.1864112  56.8062184  22.1425292  15.5264999  53.8447852  16.2523297
  14.6956929  54.0121670  16.0458545  15.4716516  53.4683803  17.0372182
  15.3954414  53.8137584  16.3371825  13.3348783  47.3356745  21.8879708
  13.9601486  46.7918878  22.1609140  12.8799262  46.8551663  21.3187498
  13.3597043  47.1846227  21.8441301  13.9001043  52.1203444   6.7813415
  14.0404004  52.6175908   7.4842056  14.3983576  51.4189738   6.9227628
  13.9942124  52.0905423   6.9064994  26.9083831  55.5186032  16.9792356
  27.5001672  56.1583283  17.0110554  27.3442826  54.8209069  17.2684422
  27.0602263  55.5104383  17.0273188  15.5080248  48.9184530   4.0851433
  15.8296089  48.4387613   3.4310696  15.7707192  49.7284176   3.8942245
  15.5946274  48.9674428   3.9606925  18.7377221  59.9403405  17.6050249
  18.2302312  60.4939252  18.0490880  18.4403867  60.0011695  16.7869024
  18.6182106  60.0309716  17.5498706  20.9039403  48.3056724  16.4474912
  21.3294475  47.8529251  15.8358439  20.2896396  47.7516795  16.7239700
  20.8768049  48.1570701  16.3979938  19.3433626  44.7771824   9.8565489
  18.7001944  44.6269470  10.4250628  19.0033033  44.5314169   9.0914594
  19.1978704  44.7183947   9.8268505  23.9332973  52.7331251   9.2795498
  23.2624163  53.2760953   9.1508564  24.6272723  53.2026106   9.0377193
  23.9361840  52.8829522   9.2251026  17.9819706  64.8727963  14.5107256
  17.7585361  64.1146792  14.8791283  17.4929550  64.9025984  13.7887696
  17.8763155  64.7650187  14.4583997  24.0961100  49.1887135  12.1885871
  24.4488710  48.7616857  12.8631670  23.2375902  49.1037978  12.3186948
  24.0210545  49.1131875  12.3080882  12.7944785  51.8194654  10.2468718
  12.0756774  52.2358787  10.5141581  13.1657147  52.3848893   9.6960356
  12.7436717  51.9643936  10.2051525  22.0944366  52.4522503  16.1370713
  22.0742293  52.2705798  16.9905492  22.1423567  53.3234522  16.1130297
  22.0979007  52.5539041  16.2594008  20.0390696  59.0409695  22.0619190
  19.9986551  58.3959372  21.4764346  20.8514014  58.9846313  22.3744602
  20.1533849  58.9368662  22.0216139  16.6298163  65.0928421  11.9644341
  16.2158562  64.4302551  11.5748183  17.3145538  65.2406280  11.4440035
  16.6696535  65.0169079  11.8300838  19.9963457  64.2518506  12.7167957
  19.5979741  64.3620777  11.9488778  19.3814677  64.4600573  13.2994517
  19.8462347  64.2992074  12.6899257  18.5691360  50.8592654   5.5842097
  17.9756199  51.1809651   5.0326664  18.6066637  50.0133750   5.3763203
  18.4865749  50.7816982   5.4724869  25.5285160  44.3105546  13.1170184
  25.0216025  43.6034686  13.0491361  26.3252594  43.9798735  13.2471260
  25.5712399  44.1578698  13.1269179  21.4449176  50.8172159   9.0143847
  21.2162869  50.8404860   8.1722206  21.7047252  49.9929626   9.1338858
  21.4495364  50.6988239   8.9069045  15.7268405  52.6706632  18.6168948
  15.2147308  52.0627815  18.9753979  15.5547901  53.3863224  19.0842923
  15.6258042  52.6869931  18.7385171  10.5734119  51.1144207  21.2671309
  10.4036710  51.7745582  20.7219516  10.1300069  51.3250768  21.9883799
  10.4833453  51.2430189  21.2932939  14.4993939  49.3548705  10.3098043
  14.9751305  49.7165785   9.6748224  13.9982538  50.0105173  10.5898186
  14.4959298  49.5042894  10.2574784  27.7305300  58.8270473   6.1011048
  28.1138906  59.5761829   6.3309145  26.9349413  59.0736293   5.8423037
  27.6699082  58.9740167   6.0968622  19.6037475  50.5930876  21.0571203
  20.1608905  50.3644686  20.4249669  19.2798540  51.3536542  20.7806416
  19.6383885  50.6714713  20.9227700   7.4736184  54.0191073  16.5259799
   6.9262903  53.3491718  16.6440668   8.2628562  53.6520920  16.5903267
   7.5088367  53.8656059  16.5528500  17.3220592  53.6798530  22.0223210
  18.0731919  53.9950206  22.3362765  17.5143169  53.4777701  21.1957132
  17.4612006  53.6965911  21.9466606  16.5420592  51.4989905   3.6771427
  16.9219557  51.5169534   2.8922542  15.8013188  51.9443894   3.5562274
  16.4889430  51.5671679   3.5434995  24.1705882  49.8072096   9.2647006
  24.1700109  49.6520752  10.1231282  23.9662062  50.6535083   9.2088391
  24.1405660  49.9092717   9.3834945   6.2323153  53.2311880  13.6805822
   6.0544914  52.7788489  14.4060738   5.9442175  54.0338042  13.8644300
   6.1636106  53.2834438  13.8149325  21.8946734  54.4869598  12.9183213
  22.3900400  53.7692593  12.8787233  21.0846510  54.1840395  12.8037700
  21.8490628  54.3367244  12.8956938  23.9598553  57.2373285  15.6060341
  24.3853625  56.7147707  15.0530766  23.5955473  57.8354123  15.0848964
  23.9685156  57.2483512  15.4469351  13.5952633  65.5337503  14.3657687
  13.9099192  66.3473891  14.3735469  14.0046046  65.1487721  15.0339846
  13.7020731  65.5966205  14.4661779  20.5477153  60.9507549  11.9361499
  21.0188331  61.6647812  12.1051484  20.8837331  60.3506300  12.4721368
  20.6672268  60.9679014  12.0393875  22.6354137  62.5608863  24.1153571
  22.7451103  61.7717423  24.4710318  22.9645034  62.4714799  23.3127909
  22.7006543  62.4314716  24.0495962  17.4646648  45.7235020  18.8919594
  17.5974553  44.9266013  19.2200569  17.8491800  46.2501423  19.4717869
  17.5402976  45.6834937  19.0263097  21.1851099  60.7425484  18.6989192
  20.6372045  60.1183367  18.4309257  21.6464128  60.9319756  17.9833271
  21.1718308  60.6784534  18.5539623  20.5379003  42.6465346  15.4900687
  19.7324966  42.5363076  15.8068525  20.4085738  42.7477802  14.6330553
  20.3999136  42.6449016  15.4108727  23.9944963  48.8110838  16.0840384
  23.4107952  49.3120045  15.6717951  24.3149257  48.3040394  15.4504707
  23.9558139  48.8102673  15.9298891  16.5339762  47.7251433   6.3599059
  17.3555457  47.8949746   6.1180754  16.0709413  47.8798694   5.6365356
  16.5870925  47.7733166   6.2170703  15.1235094  45.7194195  17.1397487
  15.6679507  45.3785322  17.7301829  15.1772030  46.5779657  17.2818772
  15.2124214  45.7949454  17.2479361  10.9365653  59.4810611  14.0136295
  11.5410510  59.4406445  13.3850116  10.7292966  60.3281763  14.0440351
  10.9954550  59.5998614  13.9252412  20.7509425  61.7476556  15.2298533
  21.5707799  61.6039522  15.4914828  20.4703503  62.3722755  15.7714971
  20.8306169  61.8186908  15.3486472  37.2223076  69.4041408   8.1941409
  37.1917080  70.2586045   8.3659678  37.8204424  69.1036701   8.7527553
  37.3060234  69.4857905   8.3016211  30.4222760  68.4917059  12.9494340
  29.5660656  68.6525557  13.0003456  30.4690414  67.6209123  12.9699401
  30.3021872  68.3867861  12.9600406  33.7316477  74.7603585  22.5554796
  34.4383244  74.2655615  22.6841730  33.9204412  75.2012666  21.8257454
  33.8644383  74.7521935  22.4663841  33.2674582  70.5509103  15.5925991
  33.8130542  71.2294190  15.6519961  33.2091458  70.4096564  14.7327573
  33.3390496  70.6301105  15.4738052  21.8803788  66.2304186  13.5030985
  21.2608820  65.6396833  13.3341000  21.7787652  66.8215621  12.8695308
  21.7741464  66.2308269  13.3835974  28.9771684  67.9703728   7.8363448
  29.6751848  68.1491856   8.3284911  29.2924016  67.4474067   7.2133837
  29.1267021  67.9197500   7.8165458  21.6072921  69.7756468  15.7474554
  21.4831618  70.3618913  16.3824373  22.2591206  69.2816664  16.0486829
  21.6846570  69.7895272  15.8860483  26.6331262  72.9518185  15.0262065
  27.2780265  72.4590628  14.7073014  26.8733039  73.0942972  15.8528143
  26.7641847  72.8995627  15.1011598  29.1717353  75.7973091  14.6768958
  29.4540596  75.0024497  14.4555713  29.9003514  76.2753678  14.6974019
  29.3206917  75.7507688  14.6471973  27.1498547  63.3396125  11.9184723
  26.8201877  63.7907268  11.2488421  26.4743549  63.2612288  12.4657729
  27.0008984  63.3947260  11.9007946  34.3574955  59.3281648  10.1634333
  34.0428396  60.0185126  10.5954756  33.8401897  59.2726430   9.4619834
  34.2339426  59.4216536  10.1231282  25.3554501  61.4008413   7.4007670
  26.1100469  61.7686730   7.1624721  25.1782036  61.7747967   8.1686850
  25.4408980  61.5106601   7.4792559  38.6489400  67.5502854  15.4455210
  37.8117821  67.6205041  15.6802804  38.6177631  67.5527348  14.5729512
  38.5207683  67.5613081  15.3514758  25.0454129  69.6935889  21.1603578
  25.2174633  69.5841784  22.0088860  25.5823487  70.3390295  20.9234771
  25.1499133  69.7727891  21.2508675  23.7111566  63.8078732   4.0985783
  23.5287139  64.0250613   3.2726776  24.5737179  63.9217745   4.1544398
  23.8116156  63.8568630   3.9840270  29.3911285  60.8105143   7.1334807
  30.1197446  60.6321098   6.6872963  29.4806178  61.6523223   7.3441985
  29.5117947  60.9089021   7.0988325  33.3719586  71.7458530  11.0367101
  34.1277101  72.1790045  11.0756010  33.4781910  71.0963300  11.6101737
  33.4989757  71.7136014  11.1265127  36.4099757  75.5731807  11.7869504
  35.9734989  75.5768550  12.5428476  36.0762672  76.2537306  11.3549082
  36.2962377  75.6744263  11.8350337  30.9828831  77.6140140  23.1112654
  31.7669247  77.7270988  23.4768397  30.7825425  76.7881277  23.3071340
  31.0694856  77.5086860  23.1947040  19.3515846  72.2867820  15.9956498
  19.0854261  71.4706937  16.1547489  19.3654410  72.3320976  15.1252014
  19.3140568  72.1724725  15.8909980  36.3297240  62.6145635  14.0298932
  36.9723148  62.6843740  14.6160847  36.5820261  61.9474858  13.5278474
  36.4619372  62.5271984  14.0426211  24.1014452  65.8246199  18.6423506
  23.4086249  65.3543178  18.8884238  24.7174780  65.5984503  19.2165213
  24.0898982  65.7213330  18.7632659  39.5444103  72.2912727  10.6789141
  40.2060537  71.7303396  10.5785050  38.9035515  71.7964758  11.0041833
  39.5472971  72.1349136  10.7121482  19.7609260  73.0726600  13.2768243
  19.5784833  73.0473486  12.4240535  20.4958929  73.5425538  13.3157151
  19.8423324  73.1387962  13.1566161  22.8255011  69.7911603  19.7850351
  23.5494984  69.7764633  20.2715246  22.9271148  70.5006958  19.2872319
  22.9473220  69.8936306  19.7829138  30.1999961  73.2710687  24.6499298
  29.4072942  73.5854199  24.8351918  30.3148888  73.4862156  23.8120083
  30.0995371  73.3494524  24.5537633  32.8731280  69.9944678   8.9394314
  32.9678134  70.7333972   9.3933940  32.2490123  69.5662154   9.3728879
  32.7940310  70.0405999   9.0702462  31.1283754  73.1730891  19.5884595
  31.7022615  72.5358135  19.7433159  31.0498557  73.1734973  18.7194253
  31.2016989  73.0796002  19.4831006  19.7280170  69.9520100  13.4267309
  20.3053673  69.8156551  14.0659555  19.0294232  69.4955885  13.6812894
  19.7101191  69.8642367  13.5589599  26.4847472  71.6054156  11.6405792
  26.2266717  70.7725891  11.6137092  26.5395955  71.8311769  10.7998293
  26.4547250  71.5151927  11.5125929  31.5648522  63.7082607  11.7409885
  30.8604849  63.2191792  11.8993804  31.6133497  63.7205081  10.8698330
  31.4678574  63.6372255  11.6349225  25.4582184  69.1591919  12.1270687
  24.8831776  69.3184087  12.7634648  25.0817861  68.5227328  11.6639138
  25.3184997  69.0889731  12.1525246  29.1255473  67.6315268  16.9863066
  28.7369906  67.2069486  16.3315257  28.4610171  67.8797417  17.4940092
  28.9702401  67.6053989  16.9650934  38.7678742  67.3890273   9.7610896
  38.5115307  66.5770214   9.5708778  39.6108056  67.3967840   9.5341083
  38.8544768  67.2702270   9.6995713  32.9481835  61.3289897  14.4987050
  33.3292346  60.6468068  14.8854924  32.1445119  61.0399499  14.3162714
  32.8858296  61.1856945  14.5291106  36.4503901  74.5439869  19.5969448
  36.2142539  73.7127933  19.4781509  37.0947130  74.4925476  20.1824292
  36.5098572  74.4137557  19.6655342  26.1002320  75.3335390  10.3112185
  26.7376267  75.0947137  10.8563978  26.5257391  75.5372549   9.5765345
  26.2578486  75.3286400  10.2829342  26.9073675  63.8344095  24.3649658
  26.5927116  64.6043658  24.1019221  26.5863608  63.2714351  23.7801885
  26.8132594  63.8654364  24.2391008  37.4740322  74.3284317  15.6597743
  37.1686139  75.0612374  16.0211058  36.7546538  73.9222247  15.3790529
  37.3227664  74.3766050  15.6710880  28.4823792  75.8107812  11.9905971
  28.5562800  75.6482984  12.8447821  29.2993298  75.9998002  11.7466453
  28.6140150  75.8144555  12.0803997  43.1742114  70.9677318  14.9866087
  43.1066615  70.9873277  14.1168674  43.1597777  71.8107645  15.2121757
  43.1620871  71.0951053  14.8918564  24.4605572  62.2234616   9.9795855
  23.5927997  62.2957216  10.0453464  24.7480776  63.0256695  10.1683830
  24.3745320  62.3528763  10.0170621  33.5838461  62.3712476  18.3107176
  34.3292053  62.1822286  17.8970602  33.1675765  62.8970714  17.7521033
  33.6323435  62.4214621  18.1671750  40.9600732  69.7421704  13.2612681
  41.5108653  69.1089773  13.5009773  40.9444847  70.2737097  13.9528186
  41.0385928  69.7270652  13.3991540  27.6123122  73.5760301  17.8072575
  27.1134816  74.2876069  17.8857463  28.4223347  73.8960968  17.7690737
  27.6579229  73.7287150  17.8129143  23.8751240  72.8383254  12.0535296
  23.5864489  72.2120726  12.5881023  24.7434588  72.7803542  12.1199976
  23.9611492  72.7370799  12.1426250  34.6629138  67.9818038  12.3717278
  34.3193904  67.2608373  12.7224527  34.7622180  67.7731889  11.5295636
  34.6271181  67.8442241  12.2988958  26.5390180  66.4341346  23.1034873
  25.7289956  66.7399126  22.9924715  27.0164867  67.1546928  23.2187457
  26.4893659  66.5855947  23.1041944  25.3981740  75.6487067  13.3517776
  24.8762494  75.7887359  14.0369641  25.7855760  74.8897731  13.5419893
  25.3785441  75.5572591  13.4818853  22.3872924  65.6992876   7.4212731
  22.0997720  65.3294146   6.6844678  23.0743392  66.1687731   7.1596436
  22.4461821  65.7139845   7.2727807  26.8248066  72.6791086   8.7499267
  26.6290848  73.2865820   8.1559570  27.0482411  71.9859030   8.2690941
  26.8282707  72.6668611   8.5915348  25.2226596  69.5645824   8.8680136
  25.9449248  69.7286982   8.4083942  24.7434588  70.2855489   8.7619475
  25.2590326  69.6944053   8.7845750  33.1820103  65.9009623  14.2476820
  32.3431204  65.9270902  14.0115084  33.2524471  66.5480358  14.8282167
  33.0688497  66.0005748  14.2985937  22.8734212  71.9703896  17.9734275
  23.3855309  72.2488150  17.3243035  22.5870555  72.7093190  18.3397088
  22.9069075  72.1206250  17.9324153  31.6289381  62.7995000   8.9804436
  32.3315734  62.6002748   8.5024395  31.3633570  62.0270942   9.2873280
  31.6936014  62.6557966   8.9549878  37.0577627  71.1077609  11.5338062
  36.9711602  71.2633035  12.3872841  36.6028107  71.7515685  11.1597467
  36.9780884  71.2253364  11.6045169  19.9601119  66.4774088   8.2698012
  20.0617255  67.2800249   8.5978987  20.7557005  66.2761424   7.9721092
  20.0929024  66.5659987   8.2733367  26.3917938  64.0630285  18.0335317
  26.2001135  64.0785419  18.8834740  27.2416534  64.2593959  18.0101972
  26.4893660  64.0944636  18.1558612  20.7764851  66.5921266  16.0119133
  20.6350343  65.7405207  16.1363641  21.0605414  66.6349927  15.1881339
  20.7972697  66.4721016  15.9086758  30.9303443  68.4288356  10.1563622
  30.6838157  68.3484107  10.9900411  31.2588566  67.6441824   9.9626149
  30.9424687  68.3014622  10.2511145  34.8251492  75.1371716  13.9450403
  34.6865851  75.8352762  14.4499145  34.0451490  74.9820372  13.5886585
  34.6894719  75.2171882  13.9676677  33.1629577  71.4368091  20.1972785
  33.1577616  70.5647908  20.2015211  33.8690571  71.6356260  19.7242240
  33.2674581  71.3371965  20.1279820  26.8900470  71.1645075  19.5686605
  27.0343846  71.7446283  18.9329715  27.2376119  71.5421372  20.2736459
  26.9627932  71.3065779  19.5785600  29.0620388  70.3635243  17.3511736
  28.3143702  70.5566258  16.9460014  29.2161913  69.5380463  17.1135858
  28.9742815  70.2700355  17.2557142  29.3022165  64.2585794  18.2407140
  29.7594779  64.9909768  18.3679932  29.3778494  63.8352259  18.9994396
  29.3813135  64.3043032  18.3708217  21.5455156  64.5051614  19.3296584
  21.0097345  63.8931972  19.6457351  21.6072921  65.0799750  19.9830250
  21.4750789  64.4998542  19.4732011  33.7749491  57.4375669  12.1100983
  33.8933059  57.8952133  11.3768286  33.6011666  56.6320931  11.8237201
  33.7668662  57.3869441  11.9601917  27.1804543  66.2487898  15.0848964
  26.3900617  66.0679358  15.4066300  27.5765166  65.4714851  15.0679259
  27.1221419  66.1075359  15.1301512  32.5648229  73.8830328  12.8108410
  31.8893231  73.6515560  13.3121797  32.5740605  73.2751511  12.1850515
  32.4666734  73.7589253  12.7924562  29.6942373  68.7248157  19.5672463
  29.6301514  69.5858114  19.4392600  29.8339561  68.4080150  18.7668014
  29.7057843  68.8048324  19.4300676  28.3761467  71.4180297  13.7088666
  27.9523716  71.6184796  12.9727684  28.2006322  70.5709145  13.8212966
  28.2872347  71.3229078  13.6162356  23.6643912  71.9132348   9.1416638
  23.8208531  71.8479151   9.9972631  24.0044505  72.6880901   8.9295318
  23.7377147  72.0181546   9.2371233  30.2023056  71.2890232   8.0110002
  30.7438602  70.7860613   8.4748622  30.5169615  71.2355426   7.1999487
  30.3287454  71.2069653   7.9593814  34.0740164  75.4992879  25.1236914
  34.8875029  75.2278028  25.2842046  33.9135130  75.2000419  24.3197110
  34.1710112  75.4147805  25.0282320  31.3512326  66.1826536  18.0632302
  31.5654295  65.5437450  17.5095656  30.7346225  66.6272360  17.6340164
  31.2917655  66.1536680  17.9182733  20.2378173  69.0967298   9.4577406
  20.6177138  69.5151843   8.7937673  19.6633538  69.6780754   9.7646249
  20.2089498  69.2445157   9.4054147  33.5151414  67.7915601  19.0015609
  32.7028096  67.4841492  19.0828782  33.9741348  67.3114601  19.5658321
  33.4631799  67.6752094  19.0970203  30.7427054  59.2926472  13.0519645
  29.8720612  59.2665193  13.0052954  30.9967396  59.1203664  12.2345491
  30.6520615  59.2636615  12.9239782  30.6104921  69.1975673  23.7844312
  31.0804552  69.8217789  24.1712186  30.6566802  68.5292648  24.3437526
  30.6872797  69.1910353  23.9244383  27.7676195  61.3032700  14.5093115
  27.2514684  60.6112892  14.6344694  27.2070124  61.9703477  14.4555714
  27.6082708  61.2995958  14.5199181  29.8368428  61.8425660  16.3385968
  29.4500182  61.8674692  17.1199498  29.3501366  61.2767339  15.8860485
  29.7080937  61.7621411  16.3873872  34.0861408  76.5599169  20.3959754
  34.7241128  76.0659365  20.0622211  33.4435499  76.4876570  19.8111981
  34.0855634  76.4758178  20.2602109  35.8118408  68.4088315  14.9625670
  35.3846016  68.3214664  14.2073770  35.1744461  68.5166091  15.5480514
  35.6548015  68.4120975  14.9371112  29.5025570  58.7292646  18.6296228
  30.1318688  59.2652946  18.3517298  29.6711433  58.6370005  19.4809793
  29.6203365  58.7954008  18.7144756  29.3039485  63.5163840  20.9022639
  30.1312914  63.2448989  20.9581254  29.3247331  64.3124682  21.2586458
  29.4292335  63.5943595  20.9637822  34.1415664  77.2518977  17.0365111
  34.9308043  76.9008042  17.1567193  34.3159262  78.0655366  16.7741745
  34.2835946  77.3204835  17.0152979  23.8808975  70.6627703  14.0892900
  23.0396981  70.5631577  14.2971794  24.0898983  71.4323184  14.4407221
  23.7873667  70.7619747  14.1720215  21.3584542  68.2847240  11.9177651
  20.9641240  68.3590252  11.1427760  20.8024659  68.6705187  12.4686012
  21.2187354  68.3529015  11.8845311  27.6925640  68.5909102  13.3390498
  27.3888777  68.0365091  13.9400905  26.9905060  68.7701312  12.8518532
  27.5441850  68.5353885  13.3560203  26.7491737  65.9009622   7.9035199
  27.0251471  65.1828535   7.4912767  27.3490406  66.4994542   7.6956306
  26.8785001  65.8829993   7.8115961  36.2483176  61.8160298  11.0784295
  35.6357490  62.3030701  11.4638027  36.3447351  61.1403789  11.6221946
  36.1721074  61.7878607  11.2163153  30.2502257  63.5723140   6.1781794
  30.7046004  63.7433700   6.9029639  30.7242303  62.9591250   5.7779570
  30.3870577  63.5074025   6.2255556  23.7717783  73.0571466  15.5084533
  23.1805716  73.6980964  15.4787548  24.5338806  73.4809083  15.4815832
  23.7966043  73.2147304  15.4999680  24.1678406  64.2173463  16.1752551
  24.6279887  64.2912393  16.9127674  24.2134512  65.0154717  15.8252372
  24.2428961  64.3467610  16.2325307  25.8161755  64.8840158  20.7424578
  25.4247320  64.2373505  21.1780355  25.9847618  65.4751593  21.3618833
  25.7832666  64.8754426  20.8987284  39.8908204  72.8877235  16.5061811
  39.9491328  73.3363884  17.2521788  39.2574672  73.2976048  16.0691891
  39.8059499  73.0150970  16.5514360  27.5915277  70.2765674   7.2826802
  28.3357322  70.6639950   7.5209752  27.7375973  69.4323099   7.4467289
  27.7225862  70.2096147   7.3420771  29.5094853  62.0715933  12.3158663
  28.6630898  62.2438741  12.1900013  29.5065985  61.2665277  12.6524491
  29.3842003  61.9776962  12.3469790  30.5793153  65.8491147  13.1820721
  30.1053107  65.3232909  13.6926032  30.9511289  65.3020620  12.6135583
  30.5643042  65.6907144  13.1735868  20.9566183  67.8462654  18.5504267
  21.8191796  67.7458363  18.4641597  20.6257966  67.2657363  17.9889839
  21.0351380  67.7454281  18.4549673  36.8429884  70.9093523  14.5927502
  36.6028107  70.0699938  14.5969928  37.3221891  70.9893690  15.3168275
  36.8782067  70.7974923  14.7002304  32.5076653  66.7427702   6.2446475
  31.9799671  66.8256446   5.5552184  32.9672361  67.4845573   6.2411119
  32.4978503  66.8648364   6.1421170  38.8435071  67.6894980  12.5456761
  38.6044841  67.6490814  11.7077545  39.0068972  68.5366132  12.6722482
  38.8325374  67.8087065  12.4410243  35.4481101  72.0744929  18.4761806
  36.1715300  71.6217456  18.2972826  35.1831063  72.3549595  17.6934134
  35.5162374  72.0495898  18.3340521  24.3167969  66.6705103  15.2114685
  23.6921039  66.6823495  14.6040638  23.9813564  67.1465278  15.8605925
  24.1753461  66.7423620  15.2171254  31.2299890  72.1728808  16.6256821
  30.6156884  71.6286858  16.9205456  31.7467175  71.6593044  16.1462637
  31.2155553  72.0165217  16.5981049  30.4696188  73.2433078  14.3601119
  30.0423796  72.6182796  13.9266555  30.4621132  72.9608000  15.1860127
  30.4055329  73.1085858  14.4180947  23.5858715  68.2798251  17.4289553
  23.7452201  67.5241575  17.8341275  23.4051608  68.8289190  18.0830291
  23.5824074  68.2492065  17.5852259  31.5279018  60.4459486  17.9840343
  31.0319579  60.6423161  17.2931910  32.2848080  60.8452155  17.8129145
  31.5665842  60.5337220  17.8560480  28.7981897  64.1201832  14.5743653
  28.8224384  63.5861945  13.8856433  29.0493371  63.6119141  15.2369244
  28.8391816  63.9662736  14.5708298  25.0783219  62.8472650  13.9549398
  25.1181591  63.3481857  14.6684105  24.2532884  62.9383044  13.6855321
  24.9622745  62.9354467  14.0199936  27.2612832  72.4133390  22.0569692
  26.4108463  72.5505105  22.1927337  27.4240960  71.6797169  22.5017394
  27.1596696  72.3247492  22.1425292  26.4997583  69.3633160  16.2523297
  25.6689513  69.5306978  16.0458545  26.4449100  68.9869111  17.0372182
  26.3686998  69.3322892  16.3371825  24.3081366  62.8542053  21.8879708
  24.9334070  62.3104186  22.1609140  23.8531846  62.3736971  21.3187498
  24.3329627  62.7031535  21.8441301  24.8733627  67.6388752   6.7813415
  25.0136588  68.1361216   7.4842056  25.3716160  66.9375046   6.9227628
  24.9674708  67.6090731   6.9064994  37.8816415  71.0371340  16.9792356
  38.4734255  71.6768591  17.0110554  38.3175409  70.3394377  17.2684422
  38.0334846  71.0289691  17.0273188  26.4812832  64.4369838   4.0851433
  26.8028673  63.9572921   3.4310696  26.7439776  65.2469484   3.8942245
  26.5678857  64.4859736   3.9606925  29.7109805  75.4588713  17.6050249
  29.2034896  76.0124559  18.0490880  29.4136451  75.5197003  16.7869024
  29.5914690  75.5495024  17.5498706  31.8771987  63.8242032  16.4474912
  32.3027058  63.3714559  15.8358439  31.2628980  63.2702103  16.7239700
  31.8500632  63.6756008  16.3979938  30.3166210  60.2957132   9.8565489
  29.6734528  60.1454778  10.4250628  29.9765617  60.0499477   9.0914594
  30.1711287  60.2369255   9.8268505  34.9065556  68.2516559   9.2795498
  34.2356746  68.7946261   9.1508564  35.6005307  68.7211414   9.0377193
  34.9094424  68.4014830   9.2251026  35.0693684  64.7072442  12.1885871
  35.4221294  64.2802165  12.8631670  34.2108485  64.6223286  12.3186948
  34.9943128  64.6317183  12.3080882  23.7677369  67.3379962  10.2468718
  23.0489358  67.7544095  10.5141581  24.1389731  67.9034201   9.6960356
  23.7169300  67.4829244  10.2051525  33.0676950  67.9707811  16.1370713
  33.0474877  67.7891106  16.9905492  33.1156150  68.8419830  16.1130297
  33.0711591  68.0724349  16.2594008  31.0123279  74.5595003  22.0619190
  30.9719134  73.9144680  21.4764346  31.8246598  74.5031620  22.3744602
  31.1266433  74.4553970  22.0216139  29.5423943  66.3777962   5.5842097
  28.9488782  66.6994959   5.0326664  29.5799221  65.5319057   5.3763203
  29.4598332  66.3002290   5.4724869  36.5017744  59.8290854  13.1170184
  35.9948608  59.1219994  13.0491361  37.2985178  59.4984043  13.2471260
  36.5444983  59.6764006  13.1269179  32.4181760  66.3357467   9.0143847
  32.1895453  66.3590168   8.1722206  32.6779836  65.5114934   9.1338858
  32.4227948  66.2173547   8.9069045  26.7000988  68.1891940  18.6168948
  26.1879891  67.5813123  18.9753979  26.5280484  68.9048532  19.0842923
  26.5990625  68.2055239  18.7385171  21.5466703  66.6329515  21.2671309
  21.3769293  67.2930890  20.7219516  21.1032653  66.8436076  21.9883799
  21.4566036  66.7615497  21.2932939  25.4726522  64.8734013  10.3098043
  25.9483888  65.2351093   9.6748224  24.9715122  65.5290480  10.5898186
  25.4691881  65.0228202  10.2574784  30.5770058  66.1116184  21.0571203
  31.1341489  65.8829994  20.4249669  30.2531123  66.8721850  20.7806416
  30.6116469  66.1900021  20.9227700  18.4468767  69.5376380  16.5259799
  17.8995487  68.8677026  16.6440668  19.2361145  69.1706228  16.5903267
  18.4820951  69.3841367  16.5528500  28.2953176  69.1983838  22.0223210
  29.0464503  69.5135514  22.3362765  28.4875752  68.9963008  21.1957132
  28.4344590  69.2151219  21.9466606  27.5153175  67.0175213   3.6771427
  27.8952140  67.0354842   2.8922542  26.7745771  67.4629201   3.5562274
  27.4622013  67.0856987   3.5434995  35.1438466  65.3257404   9.2647006
  35.1432692  65.1706060  10.1231282  34.9394646  66.1720391   9.2088391
  35.1138244  65.4278025   9.3834945  17.2055737  68.7497188  13.6805822
  17.0277498  68.2973797  14.4060738  16.9174759  69.5523350  13.8644300
  17.1368690  68.8019746  13.8149325  32.8679318  70.0054906  12.9183213
  33.3632983  69.2877901  12.8787233  32.0579094  69.7025703  12.8037700
  32.8223211  69.8552552  12.8956938  34.9331137  72.7558593  15.6060341
  35.3586208  72.2333015  15.0530766  34.5688057  73.3539431  15.0848964
  34.9417739  72.7668820  15.4469351  31.5209736  76.4692857  11.9361499
  31.9920914  77.1833120  12.1051484  31.8569915  75.8691608  12.4721368
  31.6404851  76.4864322  12.0393875  33.6086721  78.0794171  24.1153571
  33.7183686  77.2902731  24.4710318  33.9377617  77.9900107  23.3127909
  33.6739127  77.9500024  24.0495962  28.4379231  61.2420328  18.8919594
  28.5707137  60.4451321  19.2200569  28.8224384  61.7686731  19.4717869
  28.5135560  61.2020245  19.0263097  32.1583683  76.2610792  18.6989192
  31.6104629  75.6368675  18.4309257  32.6196711  76.4505064  17.9833271
  32.1450892  76.1969842  18.5539623  31.5111586  58.1650654  15.4900687
  30.7057550  58.0548384  15.8068525  31.3818322  58.2663110  14.6330553
  31.3731719  58.1634324  15.4108727  34.9677547  64.3296146  16.0840384
  34.3840536  64.8305353  15.6717951  35.2881841  63.8225702  15.4504707
  34.9290722  64.3287981  15.9298891  27.5072346  63.2436741   6.3599059
  28.3288040  63.4135054   6.1180754  27.0441997  63.3984002   5.6365356
  27.5603508  63.2918474   6.2170703  26.0967678  61.2379503  17.1397487
  26.6412091  60.8970630  17.7301829  26.1504614  62.0964965  17.2818772
  26.1856797  61.3134762  17.2479361  31.7242009  77.2661864  15.2298533
  32.5440383  77.1224830  15.4914828  31.4436086  77.8908063  15.7714971
  31.8038752  77.3372216  15.3486472  37.8806259  79.3529403  24.3649658
  37.5659700  80.1228966  24.1019221  37.5596191  78.7899659  23.7801885
  37.7865178  79.3839671  24.2391008  44.5571044  77.8897784  18.3107176
  45.3024636  77.7007594  17.8970602  44.1408349  78.4156022  17.7521033
  44.6056019  77.9399929  18.1671750  37.3650521  79.5815593  18.0335317
  37.1733718  79.5970727  18.8834740  38.2149117  79.7779267  18.0101972
  37.4626243  79.6129944  18.1558612  40.2754748  79.7771102  18.2407140
  40.7327362  80.5095076  18.3679932  40.3511077  79.3537567  18.9994396
  40.3545718  79.8228340  18.3708217  38.7408779  76.8218008  14.5093115
  38.2247267  76.1298200  14.6344694  38.1802707  77.4888785  14.4555714
  38.5815292  76.8181266  14.5199181  40.8101012  77.3610968  16.3385968
  40.4232765  77.3860000  17.1199498  40.3233949  76.7952647  15.8860485
  40.6813521  77.2806719  16.3873872  40.4758154  74.2477954  18.6296228
  41.1051272  74.7838254  18.3517298  40.6444016  74.1555313  19.4809793
  40.5935948  74.3139316  18.7144756  40.2772069  79.0349148  20.9022639
  41.1045498  78.7634297  20.9581254  40.2979915  79.8309990  21.2586458
  40.4024919  79.1128903  20.9637822  42.5011601  75.9644794  17.9840343
  42.0052162  76.1608468  17.2931910  43.2580663  76.3637462  17.8129145
  42.5398426  76.0522528  17.8560480  36.0515803  78.3657958  13.9549398
  36.0914175  78.8667165  14.6684105  35.2265468  78.4568352  13.6855321
  35.9355329  78.4539775  14.0199936  35.2813950  78.3727361  21.8879708
  35.9066653  77.8289494  22.1609140  34.8264430  77.8922279  21.3187498
  35.3062210  78.2216842  21.8441301  42.8504571  79.3427340  16.4474912
  43.2759642  78.8899867  15.8358439  42.2361564  78.7887411  16.7239700
  42.8233216  79.1941316  16.3979938  39.4111815  76.7605636  18.8919594
  39.5439720  75.9636629  19.2200569  39.7956967  77.2872039  19.4717869
  39.4868144  76.7205553  19.0263097  42.4844170  73.6835962  15.4900687
  41.6790134  73.5733692  15.8068525  42.3550905  73.7848418  14.6330553
  42.3464303  73.6819632  15.4108727  37.0700261  76.7564811  17.1397487
  37.6144674  76.4155938  17.7301829  37.1237197  77.6150273  17.2818772
  37.1589381  76.8320070  17.2479361  22.4534717  36.1796408   9.4894842
  23.1601485  35.6848439   9.6181777  22.6422653  36.6205489   8.7597500
  22.5862623  36.1714758   9.4003888  19.5927012  39.6023944   7.3808918
  19.6810358  39.4150085   8.2287128  20.0216724  38.9561374   6.9813764
  19.6689114  39.4786952   7.4480669  17.1597471  38.8855104   6.3626580
  16.5968306  38.4727714   6.8866241  17.9218495  38.8108010   6.7819723
  17.1891920  38.8132505   6.5019580  13.7672370  31.1128713   8.0943625
  13.9392873  31.0034607   8.9428907  14.3041727  31.7583118   7.8574817
  13.8717373  31.1920714   8.1848722  19.7047071  39.0332963  10.0452701
  20.4887488  39.1463811  10.4108443  19.5043666  38.2074101  10.2411387
  19.7913096  38.9279683  10.1287087  19.8617464  40.9443066   3.6919157
  19.0632710  40.7042566   3.9493026  20.3103476  40.9957458   4.4386205
  19.8092076  40.9165457   3.8404081  18.9218201  34.6903510  11.5839345
  18.1291182  35.0047022  11.7691965  19.0367128  34.9054979  10.7460130
  18.8213612  34.7687347  11.4877680  19.8501994  34.5923714   6.5224642
  20.4240856  33.9550958   6.6773206  19.7716798  34.5927797   5.6534299
  19.9235229  34.4988826   6.4171053  25.1722142  35.9632692   6.5309495
  24.9360779  35.1320757   6.4121556  25.8165371  35.9118299   7.1164339
  25.2316813  35.8330380   6.5995389  15.6291915  25.2536918  11.2989705
  15.3145356  26.0236481  11.0359268  15.3081848  24.6907174  10.7141932
  15.5350834  25.2847187  11.1731055  26.1958562  35.7477141   2.5937790
  25.8904380  36.4805197   2.9551105  25.4764778  35.3415070   2.3130576
  26.0445905  35.7958874   2.6050927  31.8960355  32.3870141   1.9206134
  31.8284855  32.4066100   1.0508720  31.8816017  33.2300468   2.1461804
  31.8839111  32.5143876   1.8258611  16.3341363  34.9953125   4.7412622
  15.8353056  35.7068892   4.8197510  17.1441587  35.3153791   4.7030784
  16.3797470  35.1479973   4.7469190  15.2608421  27.8534169  10.0374920
  14.4508197  28.1591949   9.9264762  15.7383107  28.5739751  10.1527504
  15.2111900  28.0048770  10.0381991  23.5469732  36.5564539   0.8790450
  23.4084092  37.2545585   1.3839192  22.7669730  36.4013196   0.5226632
  23.4112959  36.6364706   0.9016724  21.8847817  32.8560914   7.1312831
  21.8795856  31.9840731   7.1355258  22.5908811  33.0549084   6.6582287
  21.9892821  32.7564789   7.0619867  15.6118711  32.5837898   6.5026652
  15.7562086  33.1639106   5.8669762  15.9594359  32.9614195   7.2076506
  15.6846172  32.7258602   6.5125647  14.6846466  40.7740670   3.3687678
  14.8336029  40.2143586   2.7161083  15.4646468  40.8532672   3.7520197
  14.8220559  40.7026236   3.3284628  17.2099766  40.9455313   4.6472169
  17.1343437  40.2764124   5.2022958  17.1389626  41.6473101   5.1612835
  17.1880373  40.9500220   4.8049017  16.5991401  44.3523633   3.1050170
  17.0887331  43.6534422   2.9225835  16.0275633  44.0547503   3.6926227
  16.5875931  44.2049856   3.1651211  22.7958404  36.9185702  12.0576961
  23.6093270  36.6470851  12.2182093  22.6353371  36.6193242  11.2537157
  22.8928353  36.8340628  11.9622367  22.2369654  29.2108425   5.9355656
  21.4246336  28.9034315   6.0168829  22.6959589  28.7307425   6.4998368
  22.1850039  29.0944917   6.0310250  19.3323162  30.6168496  10.7184358
  19.8022793  31.2410612  11.1052232  19.3785042  29.9485471  11.2777573
  19.4091038  30.6103176  10.8584430  22.8079648  37.9791992   7.3299801
  23.4459369  37.4852188   6.9962257  22.1653740  37.9069393   6.7452028
  22.8073875  37.8951001   7.1942156  22.8633905  38.6711801   3.9705158
  23.6526283  38.3200865   4.0907240  23.0377503  39.4848189   3.7081792
  23.0054186  38.7397658   3.9493026  14.4762231  37.2251646   4.9802642
  14.3682586  37.2353708   5.8464700  14.6858013  38.0506427   4.7907596
  14.4912342  37.3492721   5.0806734  28.6126445  34.3070058   3.4401858
  28.6709568  34.7556707   4.1861835  27.9792912  34.7168871   3.0031938
  28.5277740  34.4343793   3.4854406  22.2525539  39.9273600  -0.1243396
  22.0545228  40.4164415  -0.8187184  21.6313250  40.1314842   0.4540738
  22.1313104  40.0290139  -0.1420173  24.1699341  33.4937753   5.4101853
  24.8933540  33.0410279   5.2312873  23.9049304  33.7742418   4.6274180
  24.2380615  33.4688721   5.2680568  15.9831073  33.8326214   8.9909739
  15.1326703  33.9697928   9.1267384  16.1459200  33.0989992   9.4357441
  15.8814936  33.7440315   9.0765338  26.6034655  32.4564163   3.9132402
  27.1952496  33.0961414   3.9450600  27.0393650  31.7587200   4.2024469
  26.7553086  32.4482514   3.9613235  18.4328045  36.8781536   4.5390296
  17.9253136  37.4317383   4.9830927  18.1354691  36.9389826   3.7209071
  18.3132930  36.9687847   4.4838753  17.6770530  41.8106094   1.4447303
  17.4536185  41.0524923   1.8131329  17.1880374  41.8404115   0.7227743
  17.5713979  41.7028319   1.3924044  19.7341520  35.9787826   8.9959237
  19.6937375  35.3337503   8.4104393  20.5464838  35.9224444   9.3084649
  19.8484673  35.8746793   8.9556186  19.2988299  27.5309008   7.9911250
  19.8559729  27.3022817   7.3589715  18.9749364  28.2914673   7.7146462
  19.3334709  27.6092844   7.8567747  17.0171416  30.6176661   8.9563257
  17.7682743  30.9328338   9.2702811  17.2093993  30.4155832   8.1297179
  17.1562830  30.6344043   8.8806653  23.6549377  34.1751416   2.5400388
  24.0804449  33.6525838   1.9870813  23.2906297  34.7732254   2.0189011
  23.6635980  34.1861643   2.3809398  13.2903457  42.4715634   1.2997734
  13.6050016  43.2852022   1.3075515  13.6996870  42.0865853   1.9679893
  13.3971555  42.5344336   1.4001825  22.3304961  39.4986994  11.0493618
  22.4401927  38.7095555  11.4050365  22.6595858  39.4092930  10.2467956
  22.3957367  39.3692847  10.9836009  20.8801923  37.6803615   5.6329238
  20.3322869  37.0561498   5.3649304  21.3414952  37.8697887   4.9173318
  20.8669132  37.6162665   5.4879669  20.4460249  38.6854688   2.1638580
  21.2658623  38.5417654   2.4254875  20.1654327  39.3100886   2.7055017
  20.5256993  38.7565040   2.2826519  36.9173900  46.3419539  -4.8718544
  36.8867904  47.1964176  -4.7000275  37.5155248  46.0414832  -4.3132400
  37.0011057  46.4236036  -4.7643742  30.1173584  45.4295190  -0.1165614
  29.2611480  45.5903688  -0.0656497  30.1641238  44.5587254  -0.0960553
  29.9972696  45.3245992  -0.1059548  33.4267301  51.6981716   9.4894842
  34.1334068  51.2033747   9.6181777  33.6155236  52.1390797   8.7597500
  33.5595207  51.6900066   9.4003888  32.9625405  47.4887234   2.5266038
  33.5081365  48.1672321   2.5860008  32.9042282  47.3474695   1.6667619
  33.0341320  47.5679236   2.4078099  26.0799480  54.9776300  -2.0865610
  26.1809843  54.1676654  -1.7768482  25.4841226  54.8833247  -2.7165931
  26.0072019  54.8441328  -2.1339371  25.9200220  59.8953889  -0.6850754
  26.5637675  60.3367053  -0.2954595  26.2456475  59.0907316  -0.7720495
  26.0632049  59.8419084  -0.6405276  21.5754612  43.1682317   0.4371032
  20.9559644  42.5774965   0.2681047  21.4738476  43.7593753  -0.1964645
  21.4692288  43.1686400   0.3176021  28.6722508  44.9081859  -5.2296505
  29.3702672  45.0869987  -4.7375042  28.9874840  44.3852199  -5.8526116
  28.8217845  44.8575631  -5.2494495  21.3023745  46.7134599   2.6814601
  21.1782442  47.2997045   3.3164420  21.9542030  46.2194795   2.9826876
  21.3797394  46.7273404   2.8200530  28.8610443  51.2952304  -5.2416714
  29.3004079  50.6869405  -4.7961941  28.7115106  50.9159678  -6.0131249
  28.9031909  51.1490775  -5.2897546  26.3282086  49.8896316   1.9602112
  26.9731089  49.3968759   1.6413060  26.5683863  50.0321103   2.7868190
  26.4592671  49.8373758   2.0351645  28.8668177  52.7351222   1.6109004
  29.1491420  51.9402628   1.3895760  29.5954338  53.2131809   1.6314065
  29.0157741  52.6885819   1.5812020  26.8449371  40.2774256  -1.1475231
  26.5152701  40.7285399  -1.8171532  26.1694373  40.1990419  -0.6002224
  26.6959808  40.3325391  -1.1652007  34.0525779  36.2659779  -2.9025620
  33.7379220  36.9563257  -2.4705198  33.5352721  36.2104561  -3.6040119
  33.9290249  36.3594667  -2.9428671  38.8486266  51.8410584  -1.4155165
  38.0183969  52.0521228  -1.2521748  38.7995518  51.0147639  -1.6912881
  38.7193001  51.7500190  -1.4317799  26.9096003  54.6714438   1.4192745
  26.3922945  54.3121853   0.8154053  27.6070395  54.1476613   1.4298811
  26.9361584  54.5412126   1.3323003  30.5659595  55.1209252   7.3808918
  30.6542941  54.9335393   8.2287128  30.9949308  54.4746682   6.9813764
  30.6421698  54.9972260   7.4480669  28.1330055  54.4040412   6.3626580
  27.5700890  53.9913022   6.8866241  28.8951079  54.3293318   6.7819723
  28.1624504  54.3317813   6.5019580  23.6926047  56.3938434  -1.0336790
  24.3946626  55.8790423  -0.9764033  23.6123530  56.7212585  -0.2289915
  23.7849807  56.3652660  -0.9063998  38.3440224  44.4880985   2.3795257
  37.5068645  44.5583172   2.6142851  38.3128455  44.4905480   1.5069559
  38.2158506  44.4991212   2.2854805  24.7404953  46.6314020   8.0943625
  24.9125457  46.5219915   8.9428907  25.2774311  47.2768426   7.8574817
  24.8449957  46.7106022   8.1848722  23.0176822  52.5844786  -1.5251182
  23.8565721  52.8167718  -1.4777420  23.0488591  51.7149097  -1.5944146
  23.1458540  52.4901732  -1.5286537  23.6429525  53.0045661   2.7762124
  24.1827750  52.8616792   3.4465496  22.9599471  53.4042411   3.1446150
  23.6221679  53.0425332   2.9296545  33.0670410  48.6836661  -2.0292852
  33.8227925  49.1168176  -1.9903943  33.1732734  48.0341431  -1.4558216
  33.1940580  48.6514145  -1.9394826  36.1050581  52.5109939  -1.2790449
  35.6685813  52.5146681  -0.5231478  35.7713496  53.1915438  -1.7110872
  35.9913201  52.6122394  -1.2309616  30.6779655  54.5518271  10.0452701
  31.4620071  54.6649119  10.4108443  30.4776249  53.7259409  10.2411387
  30.7645680  54.4464991  10.1287087  19.0466670  49.2245952   2.9296545
  18.7805085  48.4085068   3.0887535  19.0605234  49.2699107   2.0592061
  19.0091392  49.1102856   2.8250027  36.0248064  39.5523766   0.9638979
  36.6673972  39.6221871   1.5500894  36.2771085  38.8852989   0.4618521
  36.1570196  39.4650115   0.9766258  23.7965276  42.7624330   5.5763553
  23.1037073  42.2921309   5.8224284  24.4125604  42.5362634   6.1505260
  23.7849806  42.6591462   5.6972705  30.8350048  56.4628373   3.6919157
  30.0365294  56.2227874   3.9493026  31.2836059  56.5142766   4.4386205
  30.7824659  56.4350765   3.8404081  39.2394927  49.2290858  -2.3870812
  39.9011361  48.6681527  -2.4874903  38.5986339  48.7342889  -2.0618121
  39.2423795  49.0727268  -2.3538472  19.4560084  50.0104731   0.2108289
  19.2735657  49.9851617  -0.6419418  20.1909753  50.4803669   0.2497198
  19.5374148  50.0766093   0.0906208  35.5259758  50.2456241  -2.6458823
  35.7615347  50.3901440  -3.4731972  35.6749322  51.0098649  -2.2527309
  35.5825561  50.3795295  -2.7095219  22.5205835  46.7289734   6.7190398
  23.2445808  46.7142764   7.2055293  22.6221972  47.4385089   6.2212366
  22.6424044  46.8314437   6.7169185  29.8950785  50.2088818  11.5839345
  29.1023766  50.5232330  11.7691965  30.0099712  50.4240287  10.7460130
  29.7946195  50.2872655  11.4877680  32.5682104  46.9322810  -4.1265639
  32.6628958  47.6712104  -3.6726014  31.9440947  46.5040285  -3.6931075
  32.4891134  46.9784130  -3.9957492  30.8234578  50.1109022   6.5224642
  31.3973439  49.4736266   6.6773206  30.7449381  50.1113105   5.6534299
  30.8967812  50.0174134   6.4171053  19.4230994  46.8898232   0.3607356
  20.0004497  46.7534682   0.9999601  18.7245056  46.4334016   0.6152940
  19.4052015  46.8020498   0.4929646  26.1798296  48.5432287  -1.4254161
  25.9217540  47.7104022  -1.4522861  26.2346779  48.7689900  -2.2661660
  26.1498074  48.4530059  -1.5534024  31.2599346  40.6460738  -1.3250068
  30.5555673  40.1569923  -1.1666149  31.3084321  40.6583212  -2.1961624
  31.1629398  40.5750386  -1.4310728  25.1533008  46.0970050  -0.9389266
  24.5782600  46.2562218  -0.3025305  24.7768685  45.4605459  -1.4020815
  25.0135821  46.0267863  -0.9134708  28.8206297  44.5693399   3.9203112
  28.4320730  44.1447617   3.2655304  28.1560995  44.8175549   4.4280139
  28.6653225  44.5432120   3.8990980  38.4629566  44.3268404  -3.3049058
  38.2066131  43.5148345  -3.4951175  39.3058880  44.3345971  -3.5318870
  38.5495592  44.2080401  -3.3664240  32.6432659  38.2668028   1.4327097
  33.0243170  37.5846199   1.8194971  31.8395943  37.9777630   1.2502761
  32.5809120  38.1235076   1.4631153  36.1454725  51.4818000   6.5309495
  35.9093363  50.6506065   6.4121556  36.7897954  51.4303607   7.1164339
  36.2049396  51.3515688   6.5995389  25.7953144  52.2713521  -2.7547769
  26.4327090  52.0325269  -2.2095975  26.2208215  52.4750680  -3.4894608
  25.9529310  52.2664531  -2.7830611  20.4865786  54.5101858   1.1286535
  20.5269931  54.7816709   0.3006315  21.0460310  55.0343766   1.5444323
  20.5749132  54.6277613   1.0678423  26.6024499  40.7722226  11.2989705
  26.2877940  41.5421789  11.0359268  26.2814432  40.2092482  10.7141932
  26.5083418  40.8032495  11.1731055  37.1691146  51.2662448   2.5937790
  36.8636963  51.9990505   2.9551105  36.4497362  50.8600378   2.3130576
  37.0178488  51.3144181   2.6050927  28.1774615  52.7485944  -1.0753982
  28.2513624  52.5861116  -0.2212132  28.9944122  52.9376133  -1.3193501
  28.3090974  52.7522686  -0.9855957  42.8692938  47.9055449   1.9206134
  42.8017438  47.9251408   1.0508720  42.8548601  48.7485776   2.1461804
  42.8571695  48.0329184   1.8258611  33.2789285  39.3090607   5.2447223
  34.0242877  39.1200417   4.8310649  32.8626589  39.8348845   4.6861080
  33.3274259  39.3592752   5.1011796  40.6551556  46.6799835   0.1952728
  41.2059477  46.0467904   0.4349820  40.6395671  47.2115228   0.8868232
  40.7336752  46.6648784   0.3331586  27.3073946  50.5138433   4.7412622
  26.8085640  51.2254200   4.8197510  28.1174171  50.8339099   4.7030784
  27.3530053  50.6665281   4.7469190  23.5702064  49.7761386  -1.0124658
  23.2815313  49.1498857  -0.4778930  24.4385412  49.7181673  -0.9459977
  23.6562316  49.6748930  -0.9233703  34.3579962  44.9196169  -0.6942676
  34.0144728  44.1986504  -0.3435426  34.4573004  44.7110020  -1.5364317
  34.3222005  44.7820372  -0.7670996  26.2341004  43.3719477  10.0374920
  25.4240780  43.6777257   9.9264762  26.7115691  44.0925059  10.1527504
  26.1844483  43.5234078  10.0381991  25.0932564  52.5865198   0.2857823
  24.5713317  52.7265490   0.9709688  25.4806584  51.8275862   0.4759940
  25.0736265  52.4950722   0.4158899  26.5198890  49.6169217  -4.3160686
  26.3241672  50.2243952  -4.9100383  26.7433235  48.9237161  -4.7969012
  26.5233531  49.6046743  -4.4744605  24.9177420  46.5023955  -4.1979818
  25.6400071  46.6665113  -4.6576012  24.4385412  47.2233620  -4.3040478
  24.9541150  46.6322185  -4.2814204  32.8770927  42.8387754   1.1816867
  32.0382028  42.8649033   0.9455131  32.9475294  43.4858489   1.7622214
  32.7639321  42.9383880   1.2325984  22.5685036  48.9082027   4.9074322
  23.0806133  49.1866281   4.2583082  22.2821379  49.6471321   5.2737135
  22.6019899  49.0584381   4.8664200  31.3240205  39.7373131  -4.0855517
  32.0266558  39.5380879  -4.5635559  31.0584394  38.9649073  -3.7786673
  31.3886838  39.5936097  -4.1110075  36.7528451  48.0455741  -1.5321891
  36.6662426  48.2011167  -0.6787112  36.2978931  48.6893816  -1.9062486
  36.6731708  48.1631496  -1.4614784  26.0868762  41.0008416   4.9675364
  25.8951959  41.0163550   5.8174787  26.9367358  41.1972090   4.9442019
  26.1844484  41.0322767   5.0898659  20.4715675  43.5299397   2.9459180
  20.3301166  42.6783338   3.0703688  20.7556238  43.5728058   2.1221386
  20.4923521  43.4099147   2.8426804  30.6254267  45.3666488  -2.9096331
  30.3788981  45.2862239  -2.0759543  30.9539390  44.5819956  -3.1033804
  30.6375511  45.2392753  -2.8148808  34.5202316  52.0749847   0.8790450
  34.3816675  52.7730893   1.3839192  33.7402314  51.9198503   0.5226632
  34.3845543  52.1550014   0.9016724  32.8580401  48.3746222   7.1312831
  32.8528439  47.5026039   7.1355258  33.5641395  48.5734392   6.6582287
  32.9625405  48.2750097   7.0619867  26.5851294  48.1023206   6.5026652
  26.7294670  48.6824414   5.8669762  26.9326943  48.4799503   7.2076506
  26.6578756  48.2443910   6.5125647  28.7571212  47.3013375   4.2851783
  28.0094526  47.4944389   3.8800061  28.9112737  46.4758594   4.0475904
  28.6693639  47.2078486   4.1897189  25.6579049  56.2925978   3.3687678
  25.8068613  55.7328894   2.7161083  26.4379051  56.3717980   3.7520197
  25.7953143  56.2211544   3.3284628  28.1832350  56.4640621   4.6472169
  28.1076021  55.7949432   5.2022958  28.1122209  57.1658409   5.1612835
  28.1612957  56.4685528   4.8049017  28.9972989  41.1963925   5.1747187
  29.4545603  41.9287900   5.3019979  29.0729317  40.7730391   5.9334443
  29.0763959  41.2421163   5.3048263  21.2405980  41.4429745   6.2636631
  20.7048169  40.8310103   6.5797398  21.3023745  42.0177881   6.9170297
  21.1701613  41.4376673   6.4072057  33.4700315  34.3753801  -0.9558970
  33.5883883  34.8330264  -1.6891667  33.2962490  33.5699062  -1.2422753
  33.4619486  34.3247573  -1.1058036  26.8755367  43.1866029   2.0189011
  26.0851441  43.0057489   2.3406347  27.2715989  42.4092982   2.0019305
  26.8172243  43.0453490   2.0641559  32.2599053  50.8208459  -0.2551543
  31.5844055  50.5893692   0.2461844  32.2691429  50.2129642  -0.8809438
  32.1617557  50.6967385  -0.2735391  29.3893197  45.6626288   6.5012510
  29.3252338  46.5236245   6.3732647  29.5290385  45.3458282   5.7008061
  29.4008667  45.7426455   6.3640723  28.0712291  48.3558428   0.6428713
  27.6474540  48.5562927  -0.0932269  27.8957146  47.5087276   0.7553013
  27.9823171  48.2607209   0.5502403  27.5723984  59.8708941   3.1050170
  28.0619915  59.1719730   2.9225835  27.0008217  59.5732811   3.6926227
  27.5608514  59.7235164   3.1651211  23.3594736  48.8510479  -3.9243315
  23.5159355  48.7857282  -3.0687323  23.6995329  49.6259032  -4.1364635
  23.4327971  48.9559677  -3.8288721  29.8973880  48.2268363  -5.0549951
  30.4389426  47.7238744  -4.5911331  30.2120439  48.1733557  -5.8660466
  30.0238277  48.1447784  -5.1066139  33.7690988  52.4371010  12.0576961
  34.5825853  52.1656159  12.2182093  33.6085954  52.1378550  11.2537157
  33.8660936  52.3525936  11.9622367  31.0463150  43.1204667   4.9972349
  31.2605119  42.4815581   4.4435703  30.4297049  43.5650491   4.5680211
  30.9868479  43.0914811   4.8522780  19.9328997  46.0345430  -3.6082548
  20.3127962  46.4529975  -4.2722280  19.3584362  46.6158885  -3.3013704
  19.9040322  46.1823288  -3.6605807  33.2102238  44.7293732   5.9355656
  32.3978919  44.4219623   6.0168829  33.6692172  44.2492733   6.4998368
  33.1582623  44.6130225   6.0310250  30.4377878  36.2304603  -0.0140308
  29.5671436  36.2043324  -0.0606999  30.6918220  36.0581795  -0.8314463
  30.3471439  36.2014747  -0.1420171  30.3055745  46.1353804  10.7184358
  30.7755376  46.7595920  11.1052232  30.3517625  45.4670779  11.2777573
  30.3823621  46.1288484  10.8584430  27.4627019  38.2410831   1.4433162
  26.9465507  37.5491023   1.5684741  26.9020948  38.9081608   1.3895761
  27.3033532  38.2374089   1.4539228  29.5319252  38.7803791   3.2726015
  29.1451005  38.8052823   4.0539545  29.0452190  38.2145470   2.8200531
  29.4031761  38.6999542   3.3213918  33.7812232  53.4977300   7.3299801
  34.4191952  53.0037496   6.9962257  33.1386323  53.4254701   6.7452028
  33.7806458  53.4136309   7.1942156  35.5069232  45.3466446   1.8965717
  35.0796840  45.2592795   1.1413816  34.8695285  45.4544222   2.4820561
  35.3498839  45.3499106   1.8711158  29.1976394  35.6670777   5.5636275
  29.8269512  36.2031077   5.2857345  29.3662257  35.5748136   6.4149840
  29.3154189  35.7332139   5.6484803  28.9990309  40.4541972   7.8362686
  29.8263738  40.1827120   7.8921301  29.0198155  41.2502813   8.1926504
  29.1243159  40.5321726   7.8977869  33.8366488  54.1897109   3.9705158
  34.6258867  53.8386173   4.0907240  34.0110086  55.0033497   3.7081792
  33.9786770  54.2582966   3.9493026  23.5759799  47.6005834   1.0232947
  22.7347805  47.5009709   1.2311841  23.7849807  48.3701315   1.3747268
  23.4824491  47.6997878   1.1060262  21.0535366  45.2225371  -1.1482302
  20.6592063  45.2968383  -1.9232193  20.4975483  45.6083318  -0.5973941
  20.9138178  45.2907146  -1.1814643  32.6900313  38.2006665  -1.4678424
  32.8949906  38.1328973  -0.6221426  32.3626737  39.0065487  -1.5357246
  32.6715560  38.3092606  -1.3518768  27.3876464  45.5287234   0.2730544
  27.0839601  44.9743222   0.8740952  26.6855884  45.7079444  -0.2141421
  27.2392673  45.4732016   0.2900250  25.4494815  52.7436954   4.9802642
  25.3415170  52.7539016   5.8464700  25.6590596  53.5691735   4.7907596
  25.4644926  52.8678029   5.0806734  35.9434000  38.7538430  -1.9875658
  35.3308314  39.2408832  -1.6021926  36.0398175  38.0781920  -1.4438007
  35.8671898  38.7256738  -1.8496800  23.4668607  49.9949597   2.4424580
  22.8756540  50.6359095   2.4127595  24.2289630  50.4187214   2.4155879
  23.4916867  50.1525435   2.4339727  23.8629229  41.1551594   3.1092597
  24.3230711  41.2290524   3.8467721  23.9085336  41.9532848   2.7592419
  23.9379785  41.2845742   3.1665354  25.5112579  41.8218289   7.6764624
  25.1198144  41.1751636   8.1120402  25.6798442  42.4129725   8.2958880
  25.4783490  41.8132557   7.8327330  39.5859028  49.8255366   3.4401858
  39.6442152  50.2742015   4.1861835  38.9525496  50.2354179   3.0031938
  39.5010323  49.9529101   3.4854406  33.2258123  55.4458908  -0.1243396
  33.0277812  55.9349723  -0.8187184  32.6045834  55.6500150   0.4540738
  33.1045687  55.5475447  -0.1420173  27.2866101  47.2143805  -5.7833152
  28.0308146  47.6018081  -5.5450202  27.4326797  46.3701230  -5.6192664
  27.4176686  47.1474278  -5.7239182  29.2045677  39.0094064  -0.7501290
  28.3581722  39.1816872  -0.8759940  29.2016809  38.2043408  -0.4135462
  29.0792827  38.9155093  -0.7190163  30.2743977  42.7869278   0.1160768
  29.8003931  42.2611040   0.6266079  30.6462113  42.2398751  -0.4524371
  30.2593866  42.6285275   0.1075915  20.6517007  44.7840785   5.4844314
  21.5142620  44.6836494   5.3981643  20.3208790  44.2035494   4.9229886
  20.7302204  44.6832412   5.3889719  36.5380708  47.8471654   1.5267548
  36.2978931  47.0078069   1.5309975  37.0172715  47.9271821   2.2508322
  36.5732891  47.7353054   1.6342351  38.5385895  44.6273111  -0.5203193
  38.2995665  44.5868945  -1.3582408  38.7019796  45.4744263  -0.3937471
  38.5276198  44.7465196  -0.6249711  35.1431925  49.0123061   5.4101853
  35.8666124  48.5595587   5.2312873  34.8781887  49.2927726   4.6274180
  35.2113198  48.9874029   5.2680568  24.0118793  43.6083234   2.1454732
  23.3871863  43.6201626   1.5380684  23.6764388  44.0843409   2.7945972
  23.8704285  43.6801751   2.1511300  20.7244469  51.6683694   3.5858496
  20.1944393  50.9776133   3.6353471  20.9969562  51.6593880   2.7571205
  20.6869191  51.5650826   3.4705912  30.9250714  49.1106939   3.5596868
  30.3107707  48.5664989   3.8545503  31.4417999  48.5971175   3.0802684
  30.9106377  48.9543348   3.5321096  30.1647012  50.1811209   1.2941166
  29.7374620  49.5560927   0.8606602  30.1571956  49.8986131   2.1200174
  30.1006153  50.0463989   1.3520994  23.2809539  45.2176382   4.3629600
  23.4403025  44.4619706   4.7681322  23.1002432  45.7667321   5.0170338
  23.2774898  45.1870196   4.5192306  31.2229842  37.3837617   4.9180390
  30.7270403  37.5801292   4.2271956  31.9798904  37.7830286   4.7469191
  31.2616666  37.4715351   4.7900527  28.4932721  41.0579963   1.5083700
  28.5175208  40.5240076   0.8196480  28.7444195  40.5497272   2.1709291
  28.5342640  40.9040867   1.5048345  24.7734043  39.7850782   0.8889445
  24.8132415  40.2859988   1.6024152  23.9483708  39.8761175   0.6195368
  24.6573569  39.8732598   0.9539983  26.9563656  49.3511522   8.9909739
  26.1059287  49.4883236   9.1267384  27.1191784  48.6175300   9.4357441
  26.8547520  49.2625623   9.0765338  26.1948407  46.3011291   3.1863344
  25.3640336  46.4685109   2.9798592  26.1399924  45.9247242   3.9712229
  26.0637822  46.2701023   3.2711872  24.0032190  39.7920184   8.8219754
  24.6284893  39.2482317   9.0949187  23.5482670  39.3115102   8.2527545
  24.0280451  39.6409666   8.7781348  37.5767239  47.9749471   3.9132402
  38.1685079  48.6146722   3.9450600  38.0126233  47.2772508   4.2024469
  37.7285670  47.9667822   3.9613235  29.4060629  52.3966844   4.5390296
  28.8985720  52.9502691   4.9830927  29.1087275  52.4575134   3.7209071
  29.2865514  52.4873155   4.4838753  31.5722811  40.7620163   3.3814959
  31.9977882  40.3092690   2.7698486  30.9579804  40.2080234   3.6579747
  31.5451456  40.6134140   3.3319984  34.6016380  45.1894690  -3.7864455
  33.9307570  45.7324392  -3.9151390  35.2956130  45.6589545  -4.0282760
  34.6045248  45.3392961  -3.8408927  28.6503114  57.3291402   1.4447303
  28.4268768  56.5710231   1.8131329  28.1612957  57.3589423   0.7227743
  28.5446563  57.2213627   1.3924044  34.7644508  41.6450574  -0.8774082
  35.1172118  41.2180297  -0.2028283  33.9059309  41.5601417  -0.7473006
  34.6893952  41.5695314  -0.7579071  23.4628193  44.2758093  -2.8191235
  22.7440182  44.6922226  -2.5518372  23.8340555  44.8412332  -3.3699597
  23.4120124  44.4207375  -2.8608428  32.7627773  44.9085942   3.0710760
  32.7425701  44.7269237   3.9245539  32.8106974  45.7797961   3.0470344
  32.7662414  45.0102480   3.1934055  30.7074103  51.4973134   8.9959237
  30.6669958  50.8522811   8.4104393  31.5197422  51.4409752   9.3084649
  30.8217257  51.3932101   8.9556186  27.2981571  57.5491860  -1.1015612
  26.8841969  56.8865990  -1.4911771  27.9828945  57.6969719  -1.6219918
  27.3379943  57.4732518  -1.2359115  30.6646865  56.7081945  -0.3491996
  30.2663148  56.8184216  -1.1171175  30.0498085  56.9164012   0.2334564
  30.5145754  56.7555513  -0.3760696  36.1968568  36.7668985   0.0510231
  35.6899432  36.0598125  -0.0168592  36.9936001  36.4362174   0.1811307
  36.2395807  36.6142137   0.0609226  32.1132584  43.2735598  -4.0516106
  31.8846277  43.2968299  -4.8937748  32.3730660  42.4493065  -3.9321095
  32.1178772  43.1551678  -4.1590908  26.3951812  45.1270071   5.5508995
  25.8830715  44.5191254   5.9094026  26.2231308  45.8426663   6.0182970
  26.2941449  45.1433370   5.6725218  21.2417527  43.5707646   8.2011356
  21.0720117  44.2309021   7.6559563  20.7983477  43.7814207   8.9223845
  21.1516860  43.6993628   8.2272986  25.1677346  41.8112144  -2.7561910
  25.6434712  42.1729224  -3.3911729  24.6665946  42.4668612  -2.4761767
  25.1642705  41.9606333  -2.8085169  30.2720882  43.0494315   7.9911250
  30.8292313  42.8208125   7.3589715  29.9481947  43.8099981   7.7146462
  30.3067293  43.1278152   7.8567747  18.1419591  46.4754512   3.4599846
  17.5946311  45.8055157   3.5780714  18.9311969  46.1084360   3.5243313
  18.1771775  46.3219498   3.4868547  27.9904000  46.1361969   8.9563257
  28.7415327  46.4513646   9.2702811  28.1826576  45.9341140   8.1297179
  28.1295414  46.1529351   8.8806653  34.8389290  42.2635535  -3.8012947
  34.8383516  42.1084192  -2.9428671  34.6345470  43.1098522  -3.8571562
  34.8089068  42.3656156  -3.6825008  16.9006561  45.6875319   0.6145869
  16.7228322  45.2351928   1.3400785  16.6125583  46.4901481   0.7984347
  16.8319514  45.7397877   0.7489372  32.5630142  46.9433037  -0.1476741
  33.0583807  46.2256032  -0.1872720  31.7529918  46.6403835  -0.2622254
  32.5174035  46.7930683  -0.1703015  34.6281961  49.6936724   2.5400388
  35.0537032  49.1711146   1.9870813  34.2638881  50.2917562   2.0189011
  34.6368563  49.7046951   2.3809398  24.2636041  57.9900942   1.2997734
  24.5782599  58.8037330   1.3075515  24.6729454  57.6051161   1.9679893
  24.3704138  58.0529644   1.4001825  31.2160560  53.4070989  -1.1298454
  31.6871738  54.1211251  -0.9608469  31.5520739  52.8069739  -0.5938585
  31.3355675  53.4242453  -1.0266078  33.3037545  55.0172302  11.0493618
  33.4134510  54.2280863  11.4050365  33.6328441  54.9278238  10.2467956
  33.3689951  54.8878155  10.9836009  28.1330055  38.1798459   5.8259641
  28.2657961  37.3829453   6.1540616  28.5175208  38.7064862   6.4057916
  28.2086384  38.1398376   5.9603143  31.8534506  53.1988923   5.6329238
  31.3055452  52.5746806   5.3649304  32.3147535  53.3883195   4.9173318
  31.8401716  53.1347973   5.4879669  31.2062410  35.1028785   2.4240734
  30.4008374  34.9926515   2.7408572  31.0769146  35.2041241   1.5670600
  31.0682543  35.1012455   2.3448774  34.6628371  41.2674277   3.0180431
  34.0791360  41.7683484   2.6057998  34.9832665  40.7603833   2.3844754
  34.6241546  41.2666112   2.8638938  25.7918502  38.1757634   4.0737534
  26.3362915  37.8348761   4.6641876  25.8455438  39.0343096   4.2158819
  25.8807621  38.2512894   4.1819408  21.6049061  51.9374050   0.9476342
  22.2093918  51.8969884   0.3190163  21.3976373  52.7845202   0.9780398
  21.6637958  52.0562053   0.8592459  31.4192833  54.2039995   2.1638580
  32.2391207  54.0602961   2.4254875  31.1386910  54.8286194   2.7055017
  31.4989576  54.2750347   2.2826519  32.2756329  62.2319907   2.6814601
  32.1515025  62.8182353   3.3164420  32.9274613  61.7380103   2.9826876
  32.3529978  62.2458711   2.8200530  35.7137537  62.1499328   8.0943625
  35.8858040  62.0405223   8.9428907  36.2506894  62.7953734   7.8574817
  35.8182541  62.2291330   8.1848722  41.6512238  70.0703579  10.0452701
  42.4352655  70.1834427  10.4108443  41.4508833  69.2444716  10.2411387
  41.7378264  69.9650299  10.1287087  34.7697860  58.2809638   5.5763553
  34.0769657  57.8106617   5.8224284  35.3858187  58.0547942   6.1505260
  34.7582390  58.1776770   5.6972705  33.4938419  62.2475042   6.7190398
  34.2178391  62.2328072   7.2055293  33.5954555  62.9570397   6.2212366
  33.6156628  62.3499745   6.7169185  40.8683368  65.7274126  11.5839345
  40.0756349  66.0417638  11.7691965  40.9832295  65.9425595  10.7460130
  40.7678779  65.8057963  11.4877680  39.7938881  60.0878707   3.9203112
  39.4053313  59.6632925   3.2655304  39.1293579  60.3360857   4.4280139
  39.6385808  60.0617428   3.8990980  43.6165242  53.7853336   1.4327097
  43.9975754  53.1031507   1.8194971  42.8128526  53.4962938   1.2502761
  43.5541704  53.6420384   1.4631153  37.5757083  56.2907534  11.2989705
  37.2610524  57.0607097  11.0359268  37.2547015  55.7277790  10.7141932
  37.4816002  56.3217803  11.1731055  44.2521868  54.8275915   5.2447223
  44.9975460  54.6385725   4.8310649  43.8359173  55.3534153   4.6861080
  44.3006842  54.8778060   5.1011796  37.2073588  58.8904785  10.0374920
  36.3973364  59.1962565   9.9264762  37.6848275  59.6110367  10.1527504
  37.1577067  59.0419386  10.0381991  33.5417620  64.4267335   4.9074322
  34.0538717  64.7051589   4.2583082  33.2553962  65.1656629   5.2737135
  33.5752483  64.5769689   4.8664200  37.0601345  56.5193724   4.9675364
  36.8684542  56.5348858   5.8174787  37.9099941  56.7157398   4.9442019
  37.1577067  56.5508075   5.0898659  31.4448258  59.0484705   2.9459180
  31.3033750  58.1968646   3.0703688  31.7288822  59.0913366   2.1221386
  31.4656104  58.9284455   2.8426804  37.5583878  63.6208514   6.5026652
  37.7027254  64.2009722   5.8669762  37.9059526  63.9984811   7.2076506
  37.6311339  63.7629218   6.5125647  39.9705572  56.7149233   5.1747187
  40.4278186  57.4473208   5.3019979  40.0461901  56.2915699   5.9334443
  40.0496542  56.7606471   5.3048263  32.2138564  56.9615053   6.2636631
  31.6780753  56.3495411   6.5797398  32.2756328  57.5363189   6.9170297
  32.1434196  56.9561981   6.4072057  37.8487950  58.7051337   2.0189011
  37.0584025  58.5242797   2.3406347  38.2448573  57.9278290   2.0019305
  37.7904826  58.5638798   2.0641559  40.3625780  61.1811596   6.5012510
  40.2984922  62.0421553   6.3732647  40.5022968  60.8643590   5.7008061
  40.3741251  61.2611763   6.3640723  44.7423571  67.9556318  12.0576961
  45.5558437  67.6841467  12.2182093  44.5818538  67.6563858  11.2537157
  44.8393520  67.8711244  11.9622367  42.0195733  58.6389975   4.9972349
  42.2337703  58.0000889   4.4435703  41.4029633  59.0835799   4.5680211
  41.9601063  58.6100119   4.8522780  44.1834821  60.2479040   5.9355656
  43.3711503  59.9404931   6.0168829  44.6424756  59.7678041   6.4998368
  44.1315206  60.1315533   6.0310250  41.2788329  61.6539112  10.7184358
  41.7487960  62.2781228  11.1052232  41.3250209  60.9856087  11.2777573
  41.3556205  61.6473792  10.8584430  38.4359602  53.7596139   1.4433162
  37.9198091  53.0676331   1.5684741  37.8753531  54.4266916   1.3895761
  38.2766116  53.7559397   1.4539228  40.5051836  54.2989099   3.2726015
  40.1183589  54.3238131   4.0539545  40.0184773  53.7330778   2.8200531
  40.3764345  54.2184850   3.3213918  40.1708978  51.1856085   5.5636275
  40.8002096  51.7216385   5.2857345  40.3394840  51.0933444   6.4149840
  40.2886772  51.2517447   5.6484803  39.9722893  55.9727280   7.8362686
  40.7996322  55.7012428   7.8921301  39.9930739  56.7688121   8.1926504
  40.0975743  56.0507034   7.8977869  34.8361813  56.6736902   3.1092597
  35.2963295  56.7475832   3.8467721  34.8817920  57.4718156   2.7592419
  34.9112368  56.8031049   3.1665354  36.4845163  57.3403597   7.6764624
  36.0930728  56.6936944   8.1120402  36.6531026  57.9315033   8.2958880
  36.4516073  57.3317865   7.8327330  31.6249591  60.3026093   5.4844314
  32.4875204  60.2021802   5.3981643  31.2941374  59.7220802   4.9229886
  31.7034787  60.2017720   5.3889719  34.9851377  59.1268542   2.1454732
  34.3604447  59.1386934   1.5380684  34.6496972  59.6028717   2.7945972
  34.8436869  59.1987059   2.1511300  34.2542122  60.7361690   4.3629600
  34.4135609  59.9805014   4.7681322  34.0735016  61.2852629   5.0170338
  34.2507481  60.7055504   4.5192306  42.1962425  52.9022925   4.9180390
  41.7002986  53.0986600   4.2271956  42.9531487  53.3015594   4.7469191
  42.2349250  52.9900659   4.7900527  35.7466627  55.3036090   0.8889445
  35.7864999  55.8045296   1.6024152  34.9216292  55.3946483   0.6195368
  35.6306153  55.3917906   0.9539983  37.9296240  64.8696830   8.9909739
  37.0791870  65.0068544   9.1267384  38.0924368  64.1360608   9.4357441
  37.8280103  64.7810931   9.0765338  34.9764774  55.3105492   8.8219754
  35.6017477  54.7667625   9.0949187  34.5215254  54.8300410   8.2527545
  35.0013034  55.1594974   8.7781348  42.5455394  56.2805471   3.3814959
  42.9710466  55.8277998   2.7698486  41.9312388  55.7265542   3.6579747
  42.5184040  56.1319448   3.3319984  41.6806687  67.0158442   8.9959237
  41.6402542  66.3708119   8.4104393  42.4930005  66.9595060   9.3084649
  41.7949840  66.9117409   8.9556186  37.3684396  60.6455379   5.5508995
  36.8563299  60.0376562   5.9094026  37.1963892  61.3611971   6.0182970
  37.2674033  60.6618678   5.6725218  32.2150110  59.0892954   8.2011356
  32.0452701  59.7494329   7.6559563  31.7716060  59.2999515   8.9223845
  32.1249444  59.2178936   8.2272986  41.2453466  58.5679623   7.9911250
  41.8024896  58.3393433   7.3589715  40.9214531  59.3285289   7.7146462
  41.2799876  58.6463460   7.8567747  29.1152175  61.9939820   3.4599846
  28.5678894  61.3240465   3.5780714  29.9044553  61.6269667   3.5243313
  29.1504358  61.8404806   3.4868547  38.9636583  61.6547277   8.9563257
  39.7147910  61.9698953   9.2702811  39.1559160  61.4526448   8.1297179
  39.1027997  61.6714658   8.8806653  27.8739144  61.2060627   0.6145869
  27.6960905  60.7537236   1.3400785  27.5858166  62.0086789   0.7984347
  27.8052097  61.2583185   0.7489372  39.1062639  53.6983767   5.8259641
  39.2390544  52.9014761   6.1540616  39.4907791  54.2250170   6.4057916
  39.1818968  53.6583684   5.9603143  42.1794994  50.6214093   2.4240734
  41.3740958  50.5111823   2.7408572  42.0501729  50.7226549   1.5670600
  42.0415127  50.6197763   2.3448774  36.7651085  53.6942942   4.0737534
  37.3095498  53.3534069   4.6641876  36.8188021  54.5528404   4.2158819
  36.8540205  53.7698202   4.1819408  35.4088361  39.0877460  -4.9716328
  35.5808864  38.9783354  -4.1231047  35.9457718  39.7331865  -5.2085136
  35.5133365  39.1669461  -4.8811231  41.3463062  47.0081711  -3.0207252
  42.1303479  47.1212558  -2.6551510  41.1459657  46.1822848  -2.8248566
  41.4329087  46.9028430  -2.9372866  40.5634192  42.6652257  -1.4820608
  39.7707173  42.9795769  -1.2967988  40.6783119  42.8803726  -2.3199823
  40.4629603  42.7436094  -1.5782273  37.2707906  33.2285665  -1.7670248
  36.9561348  33.9985228  -2.0300685  36.9497839  32.6655921  -2.3518021
  37.1766826  33.2595934  -1.8928898  36.9024412  35.8282916  -3.0285033
  36.0924188  36.1340696  -3.1395191  37.3799099  36.5488499  -2.9132449
  36.8527891  35.9797517  -3.0277962  37.2534702  40.5586645  -6.5633302
  37.3978078  41.1387854  -7.1990192  37.6010350  40.9362942  -5.8583447
  37.3262163  40.7007349  -6.5534307  40.0576604  38.1189728  -6.5647443
  39.9935746  38.9799684  -6.6927307  40.1973792  37.8021721  -7.3651892
  40.0692074  38.1989894  -6.7019230  44.4374395  44.8934449  -1.0082992
  45.2509261  44.6219598  -0.8477860  44.2769362  44.5941989  -1.8122797
  44.5344344  44.8089375  -1.1037587  43.8785645  37.1857172  -7.1304297
  43.0662327  36.8783062  -7.0491124  44.3375580  36.7056172  -6.5661585
  43.8266030  37.0693664  -7.0349703  40.9739153  38.5917243  -2.3475595
  41.4438784  39.2159359  -1.9607721  41.0201033  37.9234219  -1.7882380
  41.0507029  38.5851923  -2.2075523  37.6247064  41.8074961  -4.0750214
  36.7742694  41.9446675  -3.9392569  37.7875192  41.0738739  -3.6302512
  37.5230927  41.7189062  -3.9894615  41.3757511  43.9536573  -4.0700716
  41.3353366  43.3086250  -4.6555560  42.1880829  43.8973191  -3.7575304
  41.4900664  43.8495540  -4.1103767  40.9404290  35.5057755  -5.0748703
  41.4975720  35.2771564  -5.7070238  40.6165355  36.2663420  -5.3513491
  40.9750700  35.5841591  -5.2092206  38.6587407  38.5925408  -4.1096696
  39.4098734  38.9077085  -3.7957142  38.8509984  38.3904579  -4.9362774
  38.7978821  38.6092790  -4.1853300
  79.1626597  79.1626597  79.1626597 109.4712190 109.4712190 109.4712190
