default_name
 43954
  38.4874433  30.1321498  24.0510436  38.9782492  30.5730458  24.8157797
  38.2055396  30.8443103  23.3926683  39.0247989  29.3371952  23.7357727
  37.1941447  29.5524392  24.5927440  36.3533947  30.0170277  24.0775778
  37.1145086  28.0372832  24.3911469  37.0298907  27.8625516  23.3185762
  38.0527644  27.6177772  24.7541770  35.9322342  27.3588685  25.1178531
  36.1978002  27.3358402  26.1747567  35.0716841  28.0122466  24.9741429
  35.4928743  25.6334840  24.5578975  34.5753742  25.9882576  23.0511244
  35.2176241  26.5231188  22.3514548  34.2443692  25.0537404  22.5981188
  33.7075709  26.6031209  23.2897907  37.0625068  29.8418319  26.1116552
  35.9588830  30.0568960  26.6166165  37.8751355  32.3093310  27.6451909
  38.6583649  31.9134380  28.1451108  37.5602162  33.7302672  27.8553679
  37.7140952  33.9986310  28.9005479  38.4923219  34.6125274  26.9724676
  38.5261780  34.2080647  25.9608535  38.1083371  35.6322227  26.9428503
  39.7620105  34.6154878  27.5084294  40.3374070  35.1589348  26.9651209
  36.1446041  34.0871315  27.4560897  35.7279139  35.2463214  27.5531004
  35.4179644  33.1087096  26.9017194  35.7539498  32.1565247  26.9253235
  34.1177308  33.3706331  26.2826162  33.9569482  34.4455549  26.2002073
  34.0604112  32.7511889  24.8635150  34.8088719  33.2917960  24.2841620
  34.3773127  31.7159076  24.9894754  32.6982615  32.7884926  24.1134067
  32.7955546  32.1588649  23.2289838  31.9488762  32.3631339  24.7809326
  32.2715474  34.1790551  23.6975809  33.0585741  35.1258581  23.8838688
  31.1408174  34.2916470  23.1848385  33.0337969  32.6992750  27.1567143
  32.9403073  31.4371443  27.2196966  32.2655386  33.4999377  27.8757083
  32.4661228  34.4863896  27.9580375  31.0942713  32.9493769  28.6258714
  31.4389664  32.2348546  29.3733620  30.3254847  34.0817771  29.3428575
  30.0268231  34.7800074  28.5609528  29.4363945  33.6589318  29.8106400
  31.1603774  34.8263644  30.4052707  32.0236209  35.2888049  29.9266682
  30.2870614  35.9327279  31.0868490  29.4238111  35.4709699  31.5660956
  30.8816285  36.4553333  31.8361650  29.9468805  36.6432212  30.3334722
  31.6918952  33.8623155  31.4571140  32.3236004  33.1139055  30.9786472
  32.2766802  34.4135375  32.1935120  30.8564525  33.3683720  31.9532534
  30.1181197  32.1899948  27.7221497  29.8290997  32.6305424  26.6065090
  29.6207904  31.0547541  28.2361159  30.0496836  30.6485867  29.0553704
  28.4828479  30.3401876  27.6115435  28.6067171  30.3133042  26.5289388
  28.3415822  28.8804579  28.1323305  27.5520380  28.3820598  27.5699075
  29.6775066  28.0962480  27.9582129  30.4674756  28.5938224  28.5207682
  29.5532914  27.0789640  28.3294311  29.9472092  28.0668318  26.9025161
  27.9619718  28.8758325  29.5139171  27.8790241  27.9697019  29.8199356
  27.1827951  31.0895583  27.8631430  27.1242295  31.9579985  28.7570875
  26.1424283  30.8200761  27.0481029  26.0655621  30.0632950  25.7781778
  25.8984475  29.0062306  25.9850303  26.9935008  30.1812117  25.2186026
  24.8751359  30.7200687  25.0781693  24.4164743  30.0361217  24.3640648
  25.1799034  31.6312858  24.5634835  23.9282589  31.0373555  26.2336895
  23.3575174  30.1642931  26.5500993  23.2431114  31.8460678  25.9794120
  24.8721539  31.4846890  27.3664136  25.0316641  32.5594385  27.2794177
  24.3496295  31.1551035  28.7834046  23.8484823  32.0660075  29.4441273
  24.5593196  29.9327302  29.2895297  24.9676812  29.2057880  28.7195340
  24.1616272  29.5986269  30.6688175  23.1201779  29.8860447  30.8132947
  24.3033419  28.1112732  30.9732528  25.2631842  27.7805202  30.5765106
  24.2978639  27.9915006  32.0566385  23.1766969  27.2655901  30.3590150
  22.2434132  27.5016033  30.8702686  23.1083837  27.5774527  29.3168182
  23.4260633  25.7594586  30.4243259  24.2671806  25.3080054  31.2364051
  22.7355297  25.0115359  29.6693055  24.9771468  30.3775474  31.7052516
  24.4462773  30.8356705  32.7317065  26.2775025  30.5082903  31.4538531
  26.7264060  30.0819677  30.6558343  27.1002078  31.2620148  32.3865783
  26.9254391  30.9021007  33.4004900  28.5935156  31.1004148  32.0584590
  28.7052942  31.2740458  30.9881987  29.1265719  31.8753136  32.6093517
  29.1746675  29.7277600  32.4165417  29.2936565  29.6624661  33.4980588
  28.4684383  28.9675755  32.0826870  30.5333065  29.4975726  31.7374151
  30.9136447  30.2749525  30.8235505  31.2344244  28.5599963  32.1111455
  26.6816726  32.7411709  32.3146149  26.5747855  33.3872882  33.3478669
  26.4202781  33.2901511  31.1225530  26.4236596  32.7554747  30.2656930
  26.0918568  34.7155172  31.0502214  26.9103277  35.2656142  31.5145467
  25.8776940  35.2621060  29.6214646  25.0769635  34.6763176  29.1700425
  25.5576907  36.2995036  29.7189537  27.0748505  35.1964225  28.7672498
  27.8623955  35.8106614  29.2038094  27.4145834  34.1627173  28.7029292
  26.7419537  35.7158313  27.3559712  25.8520291  35.2306092  26.9551064
  26.5974938  36.7962157  27.3554713  27.8782403  35.3949942  26.4948664
  27.8549671  34.5080145  26.0123472  28.9299647  36.1915351  26.3104341
  28.9959922  37.4126088  26.9094987  28.2393521  37.7223455  27.5025071
  29.8013079  38.0030790  26.7581345  29.9216201  35.7597848  25.5192298
  29.8560414  34.8514183  25.0825721  30.7300784  36.3447123  25.3631733
  24.8142502  35.0053659  31.7727103  24.6996364  36.0420942  32.4196756
  23.8395520  34.0928477  31.6679450  23.9374266  33.2920648  31.0602718
  22.5744974  34.2807044  32.3639557  22.1654284  35.2641749  32.1325523
  21.5663257  33.2161959  31.9254293  21.3338084  33.3321278  30.8668479
  21.9716592  32.2196852  32.1008464  20.3876906  33.3862259  32.6879449
  19.7404257  32.7266551  32.4279175  22.7283669  34.2756929  33.8859850
  22.1690418  35.1296124  34.5889580  23.4641257  33.2973583  34.3765605
  23.7801213  32.5740879  33.7463812  23.7981902  33.1814949  35.7676448
  22.8918926  33.1192517  36.3700147  24.6042820  31.9394299  35.9866074
  23.9511494  31.0961980  35.7619365  25.4238453  31.9649690  35.2684405
  25.1580579  31.7869903  37.3708297  26.0195798  31.1223618  37.3064105
  25.4858593  32.7758431  37.6914785  24.1680784  31.2337391  38.3743314
  22.9929112  30.9178519  38.0094706  24.6009408  31.1156445  39.5455999
  24.5735863  34.3876755  36.3206723  24.3762073  34.7102490  37.4865238
  25.4505705  34.9932699  35.5073685  25.5643482  34.6341335  34.5702586
  26.3271053  36.0895699  35.9448832  26.3933040  36.0879242  37.0328696
  27.7575074  35.9357717  35.3605023  27.5378562  35.8732731  34.2946944
  28.4079550  36.7902238  35.5473972  28.4674698  34.6367540  35.8182316
  27.7589250  33.8118329  35.7435976  29.6937054  34.3339561  34.9580027
  30.4029595  35.1582789  35.0324967  30.1660870  33.4161276  35.3080701
  29.3879467  34.2111797  33.9189945  28.7687330  34.6322395  37.3198441
  27.8367231  34.7199893  37.8781961  29.2661623  33.7002676  37.5883469
  29.4180274  35.4732445  37.5632089  25.8342975  37.5095146  35.6501249
  26.5098143  38.4759607  36.0531907  24.6674436  37.6292491  35.0111682
  24.1216197  36.8006291  34.8225826  24.1307123  38.9230673  34.5920642
  24.7235345  39.3452352  33.7806239  22.6994577  38.7105901  34.0928882
  22.6523621  37.7353140  33.6084116  22.0358482  38.7185952  34.9575607
  22.2694654  39.7719388  33.1228698  22.0996951  40.7172919  33.6382205
  23.0227136  39.9115767  32.3474858  20.9678839  39.2996863  32.4868886
  21.1746793  38.9384518  31.4794938  20.5533535  38.4883928  33.0852754
  19.9574410  40.4528214  32.4191114  19.0592042  40.0888037  31.9203505
  19.7113506  40.7494936  33.4386821  20.4974542  41.6302672  31.6748112
  20.7251479  41.3556809  30.7298997  19.8027248  42.3630915  31.6543267
  21.3295439  41.9679920  32.1370535  24.0917399  39.9047246  35.7649065
  24.5683537  41.0401235  35.6739626  23.5294448  39.4297302  36.8957498
  23.0214176  38.5568298  36.9029993  23.4332188  40.3013951  38.0743964
  23.1360101  41.2975117  37.7464972  22.4053220  39.7961536  39.1150780
  22.6306387  38.7613600  39.3730195  22.4859777  40.4181084  40.0065750
  20.9767172  39.8684266  38.5998907  20.6724713  40.5993215  37.6531362
  20.0684271  39.0817253  39.2247555  19.1046388  39.0905453  38.9228710
  20.3589764  38.4897882  39.9897995  24.7592771  40.6728815  38.6910618
  24.9325734  41.8296633  39.0800932  25.6942573  39.7217046  38.7926665
  25.4685668  38.7596258  38.5839382  27.0348855  40.0280829  39.2711197
  26.9700411  40.4997744  40.2516305  27.8878040  38.7583434  39.3932609
  28.0038707  38.2956780  38.4131749  28.8696273  39.0100763  39.7942018
  27.2369864  37.8509294  40.2706556  27.7636125  37.0525565  40.3535137
  27.7679995  41.0329998  38.4001629  28.5261490  41.8389054  38.8869221
  27.5502951  40.9533776  37.0900705  26.9921360  40.2076438  36.6996364
  28.2041228  41.8743309  36.1772834  29.2640924  41.9824266  36.4072379
  28.0405750  41.3715305  34.7204488  27.0238008  40.9995687  34.5942940
  28.3121899  42.5327808  33.6739318  29.3289973  42.9049605  33.7991738
  28.1891902  42.1467606  32.6620226  27.6052431  43.3455132  33.8406400
  29.0008135  40.1832349  34.4926211  30.0136432  40.5860111  34.4856924
  28.8841798  39.5092698  35.3413066  28.7475504  39.4112724  33.1868260
  28.8644675  40.0845198  32.3376099  29.4634217  38.5936087  33.1028407
  27.7350026  39.0077802  33.1932232  27.6676973  43.3069090  36.3820316
  28.4532783  44.2793766  36.4222468  26.3550508  43.4137764  36.5720357
  25.7661480  42.6000544  36.4664449  25.7100790  44.7150167  36.8314293
  26.0330189  45.4337786  36.0783089  24.1641380  44.5615915  36.7417846
  23.8246076  43.8517021  37.4960234  23.6918809  45.5285826  36.9149942
  23.8915149  44.1968678  35.7514551  26.1794555  45.2702480  38.1800333
  26.4612008  46.4745367  38.3282975  26.3546643  44.3788538  39.1599452
  26.2840089  43.3844648  38.9977792  26.6406130  44.8369503  40.5044160
  25.9951492  45.6753030  40.7664094  26.3795751  43.6780816  41.5048522
  25.3312032  43.3937593  41.4144292  27.0097794  42.8390730  41.2098823
  26.6838482  44.0596571  42.9670632  27.7281372  44.3663492  43.0262357
  26.0426610  44.9057505  43.2142553  26.4276562  42.9106401  43.9668204
  26.2533017  41.7287783  43.5362334  26.4161196  43.1993965  45.1951301
  28.1090338  45.3015230  40.6260281  28.3657907  46.3602570  41.2131731
  29.0544601  44.4752167  40.1234108  28.7661676  43.6888865  39.5589007
  30.5038075  44.6470290  40.4046556  30.6522331  45.4122025  41.1666126
  31.0853633  43.3311570  40.9150031  30.7546312  42.4922810  40.3026285
  32.1742147  43.3802644  40.9054575  30.6848666  43.0200534  42.3163849
  31.1801271  43.7878055  43.3853053  31.8654880  44.6110624  43.1837408
  30.8008882  43.5025602  44.6935342  31.1868809  44.1069364  45.5144116
  29.9335545  42.4516622  44.9540618  29.6411066  42.2320628  45.9808774
  29.4361832  41.6773067  43.9068195  28.7651285  40.8414633  44.1046869
  29.8086017  41.9836938  42.5827317  29.4051386  41.4012284  41.7544494
  31.3329088  45.1041962  39.2300104  32.4208143  45.6600997  39.4103404
  30.8110939  44.9231024  38.0328441  29.8583709  44.6096925  37.9137117
  31.6584263  45.0844605  36.8185804  32.6280750  45.5100880  37.0768861
  31.8820022  43.6945380  36.1913920  30.9517066  43.2336764  35.8593440
  32.5579256  43.7996582  35.3427593  32.5314401  42.7194343  37.1423459
  33.8452260  42.8356463  37.5316123  34.1426310  41.8546523  38.3869409
  35.1223676  41.8166188  38.8631431  33.0913344  41.0527592  38.4938092
  33.0416536  40.1954376  39.0254402  32.0537386  41.5860339  37.7479982
  31.0824903  41.0914875  37.7337930  31.1030392  46.0495753  35.8121587
  31.5359856  46.0386215  34.6161376  30.2395055  46.9529746  36.2681361
  29.9360959  46.9471113  37.2314676  29.6897465  48.0146973  35.3530886
  30.1498929  47.8683622  34.3758729  28.1470622  47.8701336  35.2031706
  27.6813821  48.0999466  36.1615173  27.5874526  48.8450410  34.1010187
  28.0523604  48.6155161  33.1422285  26.5076243  48.7207518  34.0196420
  27.8143608  49.8748240  34.3769899  27.8787560  46.5416345  34.7624066
  26.9314901  46.4233336  34.6609544  30.0251136  49.3483664  35.9704683
  30.0072033  49.4711590  37.1738507  30.2899562  50.3647522  35.1493450
  30.0868934  50.3124966  34.1613500  30.8728903  51.6070571  35.6762305
  30.7981286  51.6239891  36.7635314  32.3635938  51.6969996  35.2825857
  32.5156266  51.6882722  34.2032761  32.6950241  52.6529988  35.6879491
  33.1617603  50.5795046  35.9122787  33.6183568  50.6989185  37.2144838
  33.4243265  51.6302905  37.7464593  34.3042130  49.6751123  37.8408829
  34.6971899  49.7953419  38.8504451  34.5375402  48.4802982  37.1318126
  35.2044646  47.4698980  37.7822713  35.4467618  47.6991297  38.6824627
  34.0675083  48.3138993  35.8502450  34.2361211  47.3809919  35.3123287
  33.3620953  49.3642362  35.2335751  32.9680653  49.2378877  34.2251721
  30.1940614  52.8238619  35.1255887  29.8469363  52.8583488  33.9363243
  30.0440992  53.8166240  35.9913952  30.1326864  53.6709526  36.9869008
  29.7474273  55.1672206  35.5113842  29.0599304  55.1159030  34.6671013
  29.1044335  55.9946497  36.6114615  28.2848446  55.4054707  37.0228512
  29.8597198  56.1527449  37.3812982  28.5711717  57.3467039  36.1357049
  28.1690333  57.2538794  35.1268594  27.7770355  57.6544927  36.8159371
  29.6432589  58.4112210  36.1320324  30.4803801  58.4758935  37.0433702
  29.6446457  59.2429303  35.0928275  30.3383957  59.9748115  35.0365940
  28.9519433  59.1383318  34.3652810  31.0880402  55.7370420  35.1152948
  32.0250880  55.7767287  35.9471946  31.2151521  56.1270461  33.8502231
  30.4512691  56.0270169  33.1970950  32.4900831  56.6532028  33.3532957
  33.2280357  56.6128347  34.1544795  33.0165360  55.8499836  32.1630293
  32.2137293  55.9682817  31.4352888  33.9190870  56.3336332  31.7894188
  33.2917159  54.3513227  32.3840189  32.4469010  53.9228084  32.9232444
  33.4776699  53.6192540  31.0773263  34.3226554  54.0469335  30.5377075
  33.6697554  52.5647159  31.2751983  32.5750844  53.7166649  30.4740428
  34.4921336  54.1462681  33.2970978  34.2981112  54.6119967  34.2633026
  34.6648978  53.0791589  33.4368539  35.3742572  54.6005968  32.8459412
  32.3560290  58.1151737  32.9664526  31.4686506  58.5078025  32.2152142
  33.2615937  58.8978850  33.5177934  33.7078071  58.6085865  34.3764548
  33.5404912  60.2122454  33.0158544  32.6213402  60.7136675  32.7128088
  34.2011426  61.0323311  34.1363794  35.1033949  60.5122233  34.4581370
  34.4705991  62.0039062  33.7222115  33.2635449  61.2312200  35.3457217
  32.0145611  61.2083691  35.1756296  33.7748193  61.4041896  36.4808486
  34.3657686  60.2087152  31.6980127  34.9993241  59.1881876  31.3210606
  34.3314318  61.3503378  30.9564847  33.3948526  62.4869003  31.1238979
  33.7141348  63.0922788  31.9722351  32.3926941  62.1008865  31.3103669
  33.4901996  63.2236174  29.8231877  33.3389006  64.2905045  29.9873813
  32.7360118  62.8528122  29.1290656  34.8849728  62.9356326  29.3100634
  35.6514011  63.5639378  29.7638465  34.9323610  63.0318192  28.2253505
  35.1036231  61.4669469  29.7172140  34.6382836  60.7883564  29.0023208
  36.6076194  61.1412021  29.8305380  37.1937567  60.6964840  28.8701949
  37.2584901  61.3380489  30.9607905  36.8720297  61.7089908  31.8170322
  38.6926287  60.9695894  30.9395770  39.0587381  61.2593045  29.9546261
  39.1690561  61.5881931  31.7001332  39.0549265  59.4914674  31.1951876
  40.2269187  59.1833753  31.3690227  38.0784151  58.5869614  31.2143760
  37.1113421  58.8368561  31.0646367  38.3845825  57.2170638  31.6750399
  39.4340202  56.9944074  31.4821569  38.1220209  57.0689662  33.1681984
  38.3372861  56.0426190  33.4654720  38.7773312  57.7492701  33.7121241
  36.7855283  57.3706422  33.4652257  36.6373900  57.2724948  34.4086355
  37.7376179  56.1180136  30.8447517  36.9379121  56.3813463  29.9477565
  38.1432737  54.8671597  31.0960842  38.7817194  54.6682788  31.8530075
  37.6856686  53.7627340  30.2741089  36.6743731  53.9738602  29.9265368
  38.5944804  53.5392835  29.0434570  38.1880184  52.7345539  28.4308411
  38.6426252  54.4549965  28.4541763  40.3384432  53.0735375  29.4065744
  40.7266878  52.9881657  28.1373715  37.6849340  52.5071123  31.1584628
  38.3103111  52.5042804  32.2272539  36.9694166  51.4942329  30.7093112
  36.4417781  51.5802273  29.8523971  36.8455186  50.2426437  31.4859827
  37.7536066  50.0917185  32.0696751  35.6397523  50.2858940  32.4510787
  35.6538817  49.3805155  33.0578647  35.7488218  51.1571979  33.0968600
  34.3919002  50.3681203  31.7428515  33.6676536  50.3930038  32.3724923
  36.7534568  49.0496815  30.5713774  36.4085278  49.1706382  29.3622602
  37.0507680  47.8738116  31.1330900  37.3162348  47.8318257  32.1066731
  36.9065767  46.6002549  30.3884612  36.1593129  46.7185860  29.6037997
  38.2348707  46.1897255  29.7421365  39.0186651  46.4035298  30.4688092
  38.1830375  45.1146290  29.5701459  38.5318114  46.8555323  28.5110948
  39.3749509  46.5439033  28.1740445  36.5797905  45.5324294  31.4159021
  36.9739234  45.6667341  32.5855531  35.8774775  44.5025519  30.9483738
  35.5253415  44.5656179  30.0038515  35.5533353  43.3277813  31.7227657
  35.9805356  43.4075875  32.7223807  34.0195754  43.1915817  31.8507351
  33.8223948  43.9380819  32.6201222  33.5383900  43.4935091  30.9204661
  33.4603910  41.8373671  32.2983886  33.8084244  41.0610882  31.6169456
  33.9515776  41.5109489  33.7617248  33.6035128  42.2866001  34.4438648
  33.5502660  40.5467060  34.0736307  35.0407864  41.4737064  33.7801001
  31.9234161  41.7565796  32.1484333  31.6515594  41.9040905  31.1032377
  31.5765666  40.7774830  32.4788367  31.4572140  42.5311400  32.7573756
  36.1666959  42.0779556  31.0499495  36.0208899  41.8977111  29.8254420
  36.8156734  41.2181447  31.8485999  36.9835076  41.4449277  32.8183939
  37.3330387  39.9293041  31.3281836  37.0105087  39.7858145  30.2969299
  38.8672279  39.9267651  31.3670537  39.1573921  40.1370597  32.3964614
  39.3372377  38.9993295  31.0398627  39.4476414  41.0205707  30.5266643
  39.5011104  40.9316269  29.1565041  39.9596807  42.0770944  28.6674810
  40.0498755  42.2235346  27.5911357  40.2391226  42.8803455  29.6773492
  40.6306487  43.8090118  29.6111208  39.9087151  42.2452864  30.8520388
  40.0455542  42.7563331  31.8050381  36.8224703  38.7232508  32.1164567
  36.6526644  38.8421021  33.3038022  36.5340390  37.6131518  31.4033302
  36.6304049  37.6245665  30.3980030  36.0866594  36.3657330  32.0482433
  35.9078774  36.4918519  33.1160589  34.7948043  35.8633701  31.3908902
  34.9606521  35.7235479  30.3226934  34.5033294  34.9139869  31.8401277
  34.0012268  36.5951245  31.5421162  37.1624390  35.3356865  31.8792244
  37.9025585  35.3130556  30.8724394  37.2464134  34.4246978  32.8441917
  36.7053652  34.4671959  33.6959898  38.1630614  33.3372406  32.6755879
  38.3310449  33.1391750  31.6169799  39.5266615  33.7154262  33.3348531
  39.9605103  34.5220416  32.7438826  39.3119962  34.0773030  34.3403699
  40.5462364  32.5163230  33.4149805  41.3381855  32.7852501  34.1139767
  40.0227317  31.6335130  33.7819836  41.1675362  32.1887270  32.0896894
  41.6962672  33.0784426  31.3787959  41.1188281  30.8924096  31.7081114
  41.5215120  30.6137142  30.8247791  40.6799844  30.2086939  32.3081534
  37.5751426  32.0903360  33.3308682  37.3581443  32.0919652  34.5336359
  37.3806646  31.0213602  32.5402842  37.5636860  31.1055091  31.5505764
  36.8907294  29.7193470  33.0569418  36.1346453  29.8843110  33.8245503
  36.2565113  28.8898833  31.9050428  35.6376784  29.5620520  31.3106236
  37.0664936  28.5013457  31.2877362  35.3678693  27.6813990  32.4354935
  36.0362732  26.9298872  32.8556925  34.7124992  28.0626045  33.2186119
  34.5157085  27.0439439  31.3167554  35.1706814  26.6421668  30.5436547
  33.9101207  26.2391458  31.7334843  33.6292338  28.0301533  30.7116342
  32.7675686  28.2336239  31.1976713  33.8575816  28.6296678  29.5476399
  34.9587809  28.3368726  28.8489160  35.6158783  27.6592387  29.2082701
  35.1287494  28.7946012  27.9647809  33.0117407  29.5530471  29.1279999
  32.2080694  29.7909036  29.6915928  33.1724571  30.0170822  28.2454239
  38.0771589  28.9809922  33.6566580  39.1897422  28.9767286  33.0768242
  37.8649921  28.3698738  34.8296258  36.9574027  28.4290378  35.2688075
  38.9093109  27.6184137  35.5048325  39.7268936  27.4293271  34.8092004
  39.4539805  28.3879306  36.7517181  38.6466967  28.5128020  37.4733831
  40.5982849  27.6100666  37.3980337  41.4061940  27.4851909  36.6770692
  40.9670751  28.1584650  38.2648403  40.2394869  26.6305595  37.7141491
  39.9382029  29.7882280  36.2771744  40.6242619  29.6489577  35.4416939
  39.0700394  30.3562701  35.9429292  40.6740731  30.5816908  37.4392608
  41.5426727  30.0144469  37.7737289  40.9969351  31.5542953  37.0679119
  39.9884503  30.7217572  38.2749656  38.3111510  26.2871288  35.9481102
  37.2572302  26.2451073  36.6093713  39.0105506  25.2047696  35.5857667
  39.8592538  25.3204058  35.0505748  38.5250750  23.8326485  35.8415834
  37.4403365  23.8342567  35.9485375  38.9032033  22.9097498  34.6633856
  39.9602109  23.1212117  34.5017748  38.7611986  21.8348354  34.7751612
  38.1871099  23.3094509  33.4034887  36.8352749  23.1185750  33.2544025
  36.4301663  23.6515664  32.1095802  35.3872380  23.5920854  31.7983543
  37.4796063  24.1997705  31.5235590  37.4805623  24.6756148  30.6326767
  38.5842034  24.0204442  32.3234191  39.5479273  24.4307323  32.0217551
  39.0856549  23.4019542  37.1943888  39.9574098  22.5495353  37.2806175
  38.5918363  24.0712017  38.2274560  37.9145283  24.7954147  38.0354435
  39.0114611  23.8627554  39.6163373  39.1408839  22.7991855  39.8167565
  40.3145611  24.5724727  39.9117570  40.1980932  25.6399261  39.7244644
  40.5862739  24.4147720  40.9555017  41.0994606  24.1747593  39.2684407
  37.8931446  24.3505065  40.5238081  37.0377925  25.1136921  40.0816617
  37.8572333  23.8719688  41.7987924  38.8098989  22.9276127  42.4349630
  39.6434377  23.4714220  42.8794681  39.1901283  22.2190963  41.6990764
  37.9368849  22.2712995  43.4626982  38.5327239  21.8404134  44.2673174
  37.3178233  21.4946016  43.0136944  37.0606572  23.4548747  43.9742298
  37.6906037  24.0178890  44.6629106  36.1175005  23.2101590  44.4627677
  36.7955675  24.2871953  42.7092465  35.8271009  24.1322164  42.2336919
  36.9642329  25.7645443  43.0477685  38.1112910  26.2297269  43.1719495
  35.8388597  26.4697974  43.2372497  34.4431758  26.0701206  42.9577393
  34.2472703  25.0975737  43.4092632  34.2932187  26.0065848  41.8799754
  33.6512445  27.1484615  43.5720029  33.4664914  26.9229418  44.6222916
  32.6997828  27.2547686  43.0509262  34.5036115  28.4064784  43.4130568
  34.3057151  29.0692348  44.2554878  34.3165579  28.9391190  42.4806381
  35.9548498  27.9278029  43.4581912  36.5447520  28.3527267  42.6460622
  36.6252702  28.2454168  44.7939385  37.2832494  29.2815630  44.9048771
  36.4964319  27.3546960  45.8007742  35.8501690  26.5791228  45.7702825
  37.2038136  27.6146640  47.0454786  37.0023413  28.6365608  47.3667808
  36.7520164  26.6353003  48.1800446  37.3155697  26.8873016  49.0783777
  35.6900320  26.8036062  48.3588244  36.9869740  25.1382396  47.8233850
  37.8840271  25.1128436  47.2047157  37.1748049  24.6075219  48.7567432
  35.8188994  24.4555207  47.0673296  35.0143224  25.1394487  46.3883455
  35.7048439  23.1944748  47.1774910  38.7073322  27.6174417  46.8158919
  39.4372139  28.4148265  47.4412272  39.2085965  26.7399303  45.9497430
  38.6422108  26.0140097  45.5345974  40.6375516  26.7656441  45.6415547
  41.2166228  26.7988367  46.5644165  41.0318452  25.5105621  44.8621738
  40.7459542  24.7061711  45.5399059  40.3702864  25.5074538  43.9958999
  42.4622182  25.3019622  44.4058973  42.6271935  25.9312573  43.5313279
  43.4978913  25.6536545  45.4951754  43.3338314  25.0244024  46.3699467
  44.5032430  25.4840897  45.1096673  43.3889506  26.7011631  45.7761703
  42.6087453  23.8356871  44.0091341  41.9143893  23.6063369  43.2008224
  43.6292828  23.6495222  43.6745490  42.3873703  23.2024131  44.8682360
  41.0601916  28.0368042  44.8596624  42.0729610  28.6886728  45.1818912
  40.3005129  28.3802999  43.8296683  39.5420351  27.7997393  43.5013999
  40.5995056  29.6351452  43.0891666  41.5917703  29.6133911  42.6385706
  39.5559449  29.8817342  41.9747031  38.5562991  29.8088583  42.4030681
  39.7484390  31.2836634  41.3519909  40.7477657  31.3571433  40.9229828
  39.0054585  31.4395047  40.5698183  39.6280012  32.0441509  42.1235187
  39.6389273  28.7873601  40.8722815  39.4490427  27.8096488  41.3151432
  38.8931125  28.9883379  40.1032120  40.6328578  28.7961755  40.4249279
  40.6351375  30.8286772  44.0614638  41.5631585  31.6691790  44.0208713
  39.6163347  30.9149550  44.9085500  38.8300898  30.2920180  44.7907886
  39.5048662  32.0084945  45.9074735  39.5705214  32.9712500  45.4006300
  38.1478053  31.9387283  46.6699389  37.2904274  32.0610371  46.0080908
  38.0801834  30.9763333  47.1772093  38.0242671  32.9987356  47.7368619
  37.9639626  32.7937494  49.0866163  37.9750649  31.7538650  49.4131389
  37.9002702  33.9842703  49.7613994  37.8594973  34.0937735  50.7646173
  37.9077805  35.0102787  48.8457273  37.8526018  36.3812482  49.0638531
  37.7964849  36.7434434  50.0903833  37.8729636  37.2164135  47.9377344
  37.8355569  38.2981522  48.0663502  37.9423679  36.6760261  46.6113320
  37.9500583  37.3227533  45.7339585  38.0030739  35.2792936  46.4064243
  38.0309334  34.8990775  45.3852679  37.9926846  34.4317046  47.5486427
  40.7362010  32.0932507  46.8617456  41.2593283  33.1629032  47.1592138
  41.1777899  30.9257816  47.3570325  40.6721364  30.0741286  47.1592922
  42.3577329  30.8486953  48.2281245  42.1817693  31.3787099  49.1641910
  42.6384473  29.3622971  48.5472619  43.1529371  29.2899479  49.5054713
  41.6943194  28.8201869  48.6005439  43.4592923  28.7916614  47.5203975
  43.6304977  27.8691101  47.7233447  43.5954628  31.5002481  47.5943545
  44.4726901  31.9889209  48.2943032  43.6733122  31.5392517  46.2560857
  42.9531358  31.1153052  45.6888867  44.7921733  32.1686859  45.5870742
  45.7094084  32.1487733  46.1756168  45.0518840  31.5014944  44.1928322
  44.1235570  31.5187806  43.6218587  46.1531900  32.2489959  43.4076014
  47.0820088  32.2317312  43.9777753  46.3089689  31.7610120  42.4454655
  45.8464780  33.2822268  43.2449333  45.3701919  30.0081763  44.3867584
  46.4262947  29.9432686  44.6485494  44.7664109  29.6645332  45.2266735
  45.0880841  29.1138657  43.1456002  45.6918960  29.4566349  42.3053501
  45.3423887  28.0795277  43.3770592  44.0320119  29.1779015  42.8834728
  44.5445548  33.6708087  45.3700073  45.4173368  34.5227875  45.6658461
  43.3843948  33.9648995  44.7843057  42.7768402  33.2064421  44.5091345
  42.9571669  35.3655099  44.4723298  43.6400768  35.9116596  43.8215965
  41.5697780  35.3490608  43.8225888  40.9950643  34.5514036  44.2932760
  40.7994438  36.7075593  43.9738770  41.3733622  37.5056735  43.5029923
  39.8247986  36.6287594  43.4922571  40.6642577  36.9333409  45.0316336
  41.7276040  34.9348114  42.3741544  42.1741661  33.9416352  42.3263496
  40.7500533  34.9166554  41.8923198  42.3723281  35.6476293  41.8600315
  42.9359400  36.2483250  45.7397728  43.2148758  37.4592944  45.6747426
  42.6101052  35.6583107  46.8848981  42.3356938  34.6864972  46.9042945
  42.4713046  36.4558996  48.1341219  42.0285269  37.4256801  47.9070255
  41.5668759  35.7265557  49.1357681  41.2489484  36.4289564  49.9062580
  40.6917620  35.3421735  48.6118157  42.3303225  34.5541375  49.7914798
  42.6165494  33.8401088  49.0192505  43.2258168  34.9408216  50.2779646
  41.4333895  33.8454151  50.8453904  40.5280626  33.4669537  50.3707860
  41.9767687  33.0180868  51.3018620  41.0521947  34.7919071  51.8948095
  40.1693289  35.2653493  51.7663577  41.7694948  35.0724659  52.9744119
  42.9515547  34.4693959  53.1728988  43.2936645  33.8008874  52.4975046
  43.4938376  34.6866977  53.9967973  41.2993275  35.9482997  53.8555327
  40.4050993  36.3899317  53.6961051  41.8382313  36.1685725  54.6808577
  43.7822833  36.9061225  48.7885257  43.7845025  37.7890820  49.6568307
  44.8838116  36.2782033  48.3829893  44.7826315  35.5431189  47.6977791
  46.2092848  36.5313838  48.9343144  46.1550490  36.6500624  50.0164757
  47.1202449  35.3459113  48.6181313  47.0785137  35.1585248  47.5451709
  48.1388621  35.6118073  48.9006527  46.6993364  34.0981580  49.3646523
  45.6337311  33.9231104  49.2165149  47.2625881  33.2412207  48.9951823
  46.9791412  34.2872202  50.8413533  46.5238115  35.2115585  51.1968426
  46.5848391  33.4459415  51.4113317  48.4256717  34.3634426  51.0572251
  49.0189687  34.1386243  50.2713786  48.9976467  34.7108639  52.2038427
  48.2371255  35.0338882  53.2497246  47.2309656  35.0126223  53.1643432
  48.6704875  35.2984462  54.1228260  50.3277178  34.7288620  52.3063604
  50.8959724  34.4777191  51.5100476  50.7602924  34.9935459  53.1798136
  46.7870915  37.8641603  48.4086441  47.6827316  37.8959058  47.5584847
  46.2967955  38.9456789  48.9919401  45.5496141  38.8487015  49.6645578
  46.7350709  40.2981296  48.6293096  46.5793158  40.4779243  47.5655834
  45.9172176  41.3156739  49.4209790  44.8557584  41.2098256  49.1969261
  46.0801247  41.1606052  50.4875225  46.2776296  42.7513120  49.1338146
  45.8148436  43.3692015  47.9667517  45.1944304  42.8098591  47.2665208
  46.1507402  44.7183264  47.6941630  45.7840685  45.1900411  46.7824954
  46.9424052  45.4400559  48.5803068  47.2073059  46.4750811  48.3643199
  47.3973871  44.8341241  49.7488222  48.0136240  45.3889913  50.4562644
  47.0512505  43.4776026  50.0162695  47.3986031  42.9966127  50.9306517
  48.2439506  40.5008207  48.8364503  48.8844257  41.1959759  48.0632873
  48.8359942  39.8225251  49.8300641  48.2838449  39.2787034  50.4777433
  50.2773833  39.9177169  50.0576717  50.6029160  40.9471652  49.9081265
  50.6416298  39.4879375  51.5012423  51.7306681  39.4906685  51.5469290
  50.2464090  40.2023818  52.2233710  50.1264567  38.1020847  51.8289582
  48.9882363  37.7266584  51.4043980  50.8354163  37.3951072  52.5632961
  51.1551901  39.1386546  49.0995364  52.3710571  39.3330656  49.1189221
  50.5749513  38.2706837  48.2779091  49.5692229  38.1780184  48.2731303
  51.3527728  37.4446455  47.3517300  52.3770298  37.8110494  47.2828456
  51.3825193  35.9986742  47.8684497  50.3500159  35.6803705  48.0123895
  51.8474806  35.3842358  47.0974915  52.1391538  35.8418166  49.1576463
  52.0036008  36.7302283  49.7744533  51.7727604  34.9673875  49.6954489
  53.6303401  35.6606577  48.8428292  53.9207363  36.3728446  48.0704570
  54.2107829  35.8483369  49.7461354  53.9028039  34.2193319  48.3445154
  54.1979381  33.6310124  49.2133517  52.9629392  33.8349195  47.9483077
  54.9707529  34.1220391  47.2862485  55.8418399  34.4777965  47.6533232
  55.0890316  33.1563276  47.0151184  54.6972722  34.6667749  46.4809099
  50.7781607  37.3950971  45.9411316  50.5041081  36.3195521  45.4373188
  50.5754732  38.5621072  45.3046536  51.0790823  39.8819422  45.7157780
  52.0945372  39.7831504  46.0994339  50.4357685  40.2932807  46.4936257
  51.0177586  40.6828395  44.4328786  52.0029467  40.6710649  43.9666545
  50.7431337  41.7095437  44.6748727  50.0227263  40.0693696  43.5807140
  50.2954626  40.2090184  42.5346681  49.0226341  40.4679173  43.7512280
  50.0589993  38.5639836  43.9372922  49.0728582  38.1003391  43.9629413
  50.9495071  37.8153386  42.9367485  50.4474596  37.2866090  41.9531229
  52.2450983  37.7490833  43.1937476  52.6280346  38.2553337  43.9793491
  53.1756037  37.1229571  42.2504259  52.9741592  37.4809694  41.2407990
  54.6394540  37.4741216  42.6174228  55.2687861  37.1710294  41.7806580
  54.6959250  38.5556478  42.7407604  55.1271837  36.7885861  43.8970860
  54.6025739  35.8365505  43.9777927  56.1978664  36.6061856  43.8050497
  54.8781426  37.5892812  45.1645685  53.8605691  38.2663026  45.3264237
  55.8367182  37.5203083  46.0772375  55.7402956  38.0268323  46.9457060
  56.6592082  36.9615399  45.9000668  52.9058620  35.6046053  42.0698925
  53.3730479  34.9929990  41.0925225  52.0946151  35.0047645  42.9439374
  51.7048930  35.4818972  43.7442876  51.7527813  33.5802849  42.7419860
  52.6746682  32.9991153  42.7204073  50.8409177  32.9967331  43.7867645
  50.5812608  31.9804454  43.4903900  51.5000020  32.9716087  45.1423863
  51.7595467  33.9876621  45.4396602  50.8132997  32.5440526  45.8729579
  52.4043727  32.3649211  45.0960804  49.6409910  33.7860674  43.8349441
  49.0475398  33.4260065  44.4980973  51.0510047  33.3985922  41.3931541
  51.1474227  32.3226963  40.8035717  50.3946973  34.4400766  40.8777475
  50.1506973  35.2356355  41.4501542  49.8563183  34.3752922  39.4987880
  50.3936478  33.6152931  38.9315336  48.3802254  34.0188914  39.5104951
  48.1033999  33.6451839  38.5246911  48.2890387  33.2157269  40.2417349
  47.4740869  35.1399950  39.8888666  46.8285942  35.8768028  38.9091634
  47.0133333  35.6401885  37.8613158  45.9747297  36.8829689  39.2388851
  45.4513366  37.4402795  38.4619897  45.7605840  37.1939503  40.5911488
  44.9334259  38.2303379  40.9181460  44.5592611  38.6683184  40.1501789
  46.3784531  36.4801689  41.5929362  46.2144247  36.7237221  42.6426395
  47.2110213  35.4488706  41.2517324  47.6839453  34.8499058  42.0299895
  50.0781421  35.5774295  38.5414343  49.8438686  35.4819030  37.3138678
  50.5197573  36.6923670  39.0718554  50.5908076  36.8204590  40.0711770
  50.8487049  37.8084539  38.2122453  50.3318662  37.7241545  37.2562796
  50.4004234  39.1066995  38.8997394  51.0835790  39.2790678  39.7314164
  50.5090203  39.9080950  38.1689371  48.9667936  39.0820598  39.4169970
  48.2675800  38.9241837  38.5958537  48.8417381  38.2916346  40.1570586
  48.6881426  40.4478592  40.0728528  49.2063655  40.4398225  41.0317476
  49.1385806  41.1983738  39.4232892  47.2607315  40.7738074  40.2867254
  46.6737250  40.4693319  39.4202275  46.8892650  40.2621112  41.1745760
  47.1324324  42.3327592  40.4866289  47.4761904  42.8070858  39.6638625
  46.1629894  42.5745728  40.6342989  47.6759499  42.6150389  41.2897516
  52.3385910  37.8342165  37.8771606  53.1995938  38.2777980  38.7275838
  52.6555987  37.5176230  36.6149908  51.9435565  37.4473663  35.9021379
  54.0564745  37.1876562  36.2461900  54.5576365  36.7381283  37.1034300
  54.1142100  36.1880963  35.0564822  53.3015209  36.2925777  34.3376502
  55.0621328  36.4129579  34.5676267  54.1630997  34.7360696  35.4422596
  54.9646952  34.2500768  36.4564552  54.8363330  32.9360709  36.5326232
  55.3752178  32.3680559  37.2909510  54.0024997  32.5437502  35.5844905
  53.7063540  31.5946629  35.4066398  53.5939698  33.6479809  34.8655767
  52.9312399  33.5258847  34.0088487  54.9498074  38.3999289  35.8866914
  56.1783600  38.2117497  35.5927373  54.3421258  39.5976571  35.9132317
  53.3475270  39.6417588  36.0833129  55.0703179  40.8509740  35.7350889
  55.8873066  40.7162631  35.0262295  54.1208126  41.9196922  35.1895112
  53.1854414  42.0183697  35.7403675  54.6624315  42.8650480  35.2219364
  53.7448943  41.6818563  33.7301111  54.7534839  41.7092994  32.7325682
  55.7829670  41.9252006  33.0183147  54.4343211  41.4606452  31.3828348
  55.2012385  41.5224184  30.6107450  53.1287518  41.1343992  31.0401319
  52.8881321  40.9289480  29.9970634  52.1085164  41.0665389  32.0338244
  51.0853705  40.8087750  31.7602727  52.4314909  41.3357654  33.3778789
  51.6607121  41.2754336  34.1462278  55.6119947  41.3447540  37.0747820
  56.2065956  42.3953185  37.1237423  55.3278638  40.6250657  38.1662468
  54.7405761  39.8048457  38.1169350  55.8146856  41.0583624  39.4902013
  56.1393222  42.0987905  39.5050237  54.7228593  40.8418894  40.5722566
  54.3726800  39.8116378  40.5085663  55.2931824  41.1233261  42.0487368
  55.6431492  42.1535931  42.1133416  54.5021636  40.9622443  42.7811593
  56.1214747  40.4452330  42.2542137  53.5156043  41.7121124  40.2173874
  53.8554143  42.7474370  40.2444590  53.2283072  41.4510661  39.1988518
  52.2970515  41.5450960  41.1552919  52.5834735  41.8064266  42.1740012
  51.4913736  42.2009397  40.8253657  51.9563678  40.5100544  41.1283956
  57.0933993  40.3370606  39.8883961  57.1381096  39.0870988  39.9816888
  58.1150864  41.1123132  40.2073300  58.0444578  42.1156188  40.1151949
  59.3637330  40.5537983  40.6659766  59.5648350  39.6063713  40.1659373
  60.4866072  41.5198791  40.3431428  60.4517296  41.7374168  39.2756410
  60.3179101  42.4378297  40.9061773  61.8853881  40.9359211  40.7087874
  61.9320856  40.8942289  41.7969887  61.9169265  39.9238631  40.3052458
  63.0814965  41.7361096  40.1761167  63.9808547  41.2108356  40.4975838
  63.0171986  41.7131308  39.0882577  63.1408666  43.1622301  40.6438021
  62.3388002  43.7062245  40.1449432  62.9657912  43.1637098  41.7196485
  64.4680931  43.8342861  40.3468836  64.6303111  43.8334037  39.3499963
  64.4461649  44.7862576  40.6835875  65.2113927  43.3306121  40.8093955
  59.3198111  40.2827793  42.1819606  59.7348495  39.2177380  42.6469555
  58.8188383  41.2417365  42.9402786  58.5550604  42.1315519  42.5418452
  58.6796196  41.0580906  44.4091092  58.4396164  40.0195776  44.6371186
  60.0138578  41.4244735  45.1117400  59.9643063  41.1168490  46.1562548
  60.8333010  40.9020165  44.6181294  60.2377374  42.8405368  45.0404407
  61.0647910  43.0561458  45.4775848  57.5326061  41.9157146  44.9215654
  57.0600538  42.8532307  44.2576371  57.0457174  41.5967956  46.1172573
  57.4102916  40.8320299  46.6670923  55.9555758  42.3735507  46.6619598
  55.9669626  43.3831960  46.2513678  54.6257210  41.7101830  46.2928523
  54.4661983  41.7280595  45.2147372  54.5912065  40.6801363  46.6476937
  53.1942980  42.5420305  47.0260590  52.2797097  41.7263107  46.5093117
  56.1347869  42.4007287  48.1735661  56.4307866  41.3663969  48.7692236
  56.0449051  43.5622826  48.7698571  56.0417767  44.4513415  48.2906245
  56.1250719  43.5620444  50.2283636  55.9999689  42.5480257  50.6081192
  57.4707777  44.0820733  50.6750581  57.6546405  43.7719959  51.7037202
  58.2482419  43.6746094  50.0288208  57.4867406  45.4831612  50.5992490
  58.3435890  45.8092738  50.8839614  54.9524757  44.2861282  50.8813848
  54.3707105  45.2423927  50.3286413  54.5950564  43.7891240  52.0666663
  55.0679375  42.9647351  52.4085226  53.5599566  44.3694397  52.8815965
  53.2195128  45.3027745  52.4331732  52.3690831  43.4017486  52.9652410
  52.7152603  42.4241614  53.3007761  51.3998619  43.9179736  53.9051287
  51.0528536  44.8954068  53.5700009  50.5533245  43.2341547  53.9673104
  51.8614777  44.0142012  54.8878559  51.6797605  43.2537384  51.5960524
  52.3937232  42.8663272  50.8692293  50.8406998  42.5635421  51.6838354
  51.3162845  44.2264420  51.2646407  54.1443024  44.6260911  54.2870341
  55.2330804  44.1717137  54.6046261  53.3971746  45.3328842  55.1129908
  52.6233152  45.8495969  54.7202453  53.6778299  45.4796459  56.5652186
  54.5678623  46.0855565  56.7349650  52.4801570  46.1828836  57.2007297
  51.5769579  45.7117504  56.8129616  52.5380472  46.0249215  58.2776683
  52.4381364  47.6867826  56.9067515  53.0792699  47.9072647  56.0532667
  51.4068103  47.9396093  56.6606940  52.8875508  48.5052812  58.1005595
  52.1904800  49.4998044  58.4480909  53.9294013  48.1289357  58.7029652
  53.9984565  44.1813904  57.3365002  53.2973291  43.1678311  57.1761141
  50.8391151  42.0640760  60.0029142  51.1351722  41.2976101  60.5902637
  49.4155371  42.4259598  59.9952447  49.0209127  42.3317258  61.0069218
  49.1836823  43.8752710  59.5072840  49.6608622  44.0029012  58.5356312
  48.1171424  44.0815484  59.4176055  49.7586256  44.9469789  60.4180416
  50.0238939  44.6877931  61.7732543  49.8132399  43.6993221  62.1814819
  50.5606865  45.6986782  62.6072909  50.7698483  45.4832600  63.6551206
  50.8247320  46.9822752  62.0846631  51.2372572  47.7599689  62.7274036
  50.5553688  47.2571341  60.7347023  50.7557490  48.2438966  60.3172723
  50.0172708  46.2356164  59.9123380  49.7948536  46.4396854  58.8649669
  48.6222398  41.4619998  59.1130687  49.1324037  41.0056644  58.0811289
  47.3856902  41.1486714  59.5167869  47.0716476  41.3787770  60.4487354
  46.4789946  40.3948804  58.6434890  47.0241154  39.6060083  58.1252002
  45.3244558  39.7553857  59.4377079  45.7293772  39.0542230  60.1674398
  44.7636440  40.5338678  59.9549660  44.4074758  39.0207021  58.4892944
  44.0017772  39.7213485  57.7594971  44.9675089  38.2417026  57.9719725
  43.2629464  38.3867546  59.2766257  42.2231262  39.0793970  59.4397874
  43.4393932  37.2158953  59.7073869  45.9719939  41.3651189  57.5574463
  45.6928785  42.5349596  57.8350415  45.8752817  40.8980773  56.3188601
  46.1865109  39.9718993  56.0630671  45.5040023  41.8204907  55.2542066
  45.9869056  42.7824437  55.4261081  45.9392848  41.2892403  53.8659277
  45.5978100  40.2562323  53.7996817  45.4217504  41.8910569  53.1188836
  47.5102446  41.3474552  53.5994572  47.9575139  40.7271512  54.3761643
  47.6556238  40.8740075  52.6284710  48.3274342  42.9966321  53.5968773
  49.1564230  43.1046296  55.2217891  49.8796103  42.2945372  55.3158611
  49.6710754  44.0618889  55.3047847  48.4137686  43.0219735  56.0153467
  44.0167212  42.1945896  55.3889017  43.1296019  41.3271334  55.4422419
  43.7718897  43.4970673  55.5277955  44.5516664  44.1369223  55.4764804
  42.4389201  44.0475647  55.7443959  41.6375361  43.3265893  55.5829117
  42.3380359  44.5804880  57.1841046  42.4463667  43.7539993  57.8864436
  43.1285794  45.3104635  57.3581069  40.9801001  45.2443510  57.3863935
  40.8712206  46.0712871  56.6846651  40.1890071  44.5148235  57.2130045
  40.8801003  45.7726041  58.8134792  40.9884328  44.9461164  59.5158190
  41.6706430  46.5025805  58.9874797  39.5723945  46.4250834  59.0470972
  38.9078561  46.4584236  58.2872443  39.2323349  46.9695360  60.2119283
  40.0531569  46.9649938  61.2584134  40.9651770  46.5383383  61.1791396
  39.7606953  47.3882187  62.1275777  38.0304636  47.5302599  60.3119033
  37.4095570  47.5320011  59.5153031  37.7441941  47.9517564  61.1839637
  42.2386230  45.2000897  54.7291667  43.2152773  45.7711516  54.2558077
  40.9878999  45.5253641  54.4032552  40.2399346  44.8705306  54.5816935
  40.6833851  46.7396938  53.6190950  41.0812540  46.6698036  52.6067142
  39.1393703  47.0295870  53.5335773  38.7410973  47.0147965  54.5481013
  38.8231819  48.3773141  52.8814504  39.2207680  48.3926879  51.8666648
  37.7432757  48.5219853  52.8502508  39.2799595  49.1786368  53.4622584
  38.4242622  45.9099936  52.7775349  38.5779318  44.9642102  53.2971323
  37.3573786  46.1278236  52.7284521  38.8268143  45.8384335  51.7671232
  41.4969073  47.9331111  54.1102719  41.5245004  48.2637386  55.3328655
  42.1786478  48.5678290  53.1537909  42.1713668  48.1657638  52.2272975
  42.9310025  49.8038775  53.3674248  42.8036962  50.4655145  52.5106116
  42.5720741  50.3028265  54.2676024  44.4078323  49.4877767  53.5328447
  45.2199839  50.4053139  53.4781880  44.7893858  48.2165439  53.7494672
  44.1198531  47.4702731  53.8715541  46.2346602  47.8748921  53.7622292
  46.7365513  48.4878827  54.5108593  46.4740700  46.4230541  54.0892100
  45.8458725  45.7753443  53.4777044  47.5207930  46.1563587  53.9431118
  46.0827571  46.0112613  55.8346024  46.4000094  44.7225682  55.7478879
  46.8248372  48.1044503  52.3693771  46.0962938  48.0352064  51.3609829
  48.1260286  48.3371245  52.3201575  48.6783338  48.4382268  53.1597030
  48.7854002  48.5736457  51.0111244  48.1047117  48.3651133  50.1857295
  49.3082486  50.0465397  50.8700469  49.8706203  50.1212021  49.9393140
  48.1431784  51.0793924  50.8563493  47.5805934  51.0056397  51.7870256
  48.5501751  52.0856830  50.7571924  47.4819996  50.8709280  50.0152276
  50.2164448  50.3229588  51.9470943  50.5415143  51.2228284  51.8685775
  49.9162829  47.5686832  50.7450929  50.4969727  46.9580193  51.6978651
  50.2512227  47.3589450  49.4617246  49.7199995  47.7625957  48.7034586
  51.3995406  46.5070808  49.1305476  51.9338009  46.2384943  50.0418798
  50.9375849  45.2276964  48.4415406  51.8245026  44.6093559  48.3032251
  50.2531660  44.7316255  49.1297153  50.2426737  45.4339339  47.0898551
  49.4208411  46.1400627  47.2084892  50.9594724  45.8290728  46.3700170
  49.6841781  44.0657641  46.5724471  50.5072861  43.4118824  46.2842963
  49.0945676  43.5845056  47.3527350  48.8254662  44.2850467  45.4016072
  48.9287332  45.1610769  44.9096658  47.9112968  43.4108810  44.9641569
  47.7320208  42.2391768  45.5959641  48.2908096  42.0156262  46.4070623
  47.0392464  41.5870181  45.2570655  47.1704438  43.6988035  43.8601141
  47.3130594  44.5724241  43.3737521  46.4811227  43.0376539  43.5317601
  52.3534458  47.2670748  48.2153864  51.8832749  48.1311518  47.4425039
  53.6558958  47.0062232  48.3267308  54.0094599  46.4148670  49.0652358
  54.6078738  47.6304263  47.4320166  54.0944207  48.3951519  46.8492132
  55.7752780  48.2883354  48.1856160  56.1960856  47.4801540  48.7838324
  56.5274572  48.6505951  47.4848348  55.3445440  49.4284406  49.1030093
  54.4551083  50.2379297  48.7801914  55.9849718  49.5548686  50.1620358
  55.1226579  46.6161900  46.4429184  55.8786427  45.7325136  46.7840692
  54.7666319  46.8116433  45.1736255  54.2519845  47.6394027  44.9089525
  55.1258098  45.8477094  44.1219623  55.4089731  44.8643853  44.4974506
  53.9234053  45.6800052  43.1426571  53.5459440  46.6732876  42.8997329
  54.3209657  44.9463677  41.8388385  54.6981160  43.9527649  42.0809374
  53.4484293  44.8555561  41.1918965  55.0966938  45.5134590  41.3242949
  52.7120908  44.9548634  43.8191810  52.3732408  45.5357114  44.6770262
  51.8977197  44.8596539  43.1009648  53.0207205  43.9636170  44.1512640
  56.3283658  46.4200562  43.3736401  56.3762140  47.6561163  43.1161990
  57.2960857  45.5628892  43.0610428  57.2816878  44.6321777  43.4530480
  58.4037050  45.9262082  42.1781754  58.3237124  46.9648033  41.8572073
  59.7967100  45.6865279  42.8041843  59.8398680  44.6690155  43.1926510
  60.9293710  45.8855811  41.7269341  60.8871395  46.9030747  41.3383160
  61.9026850  45.7126968  42.1861416  60.7828998  45.1788607  40.9101162
  60.0142871  46.5941712  44.0418749  60.1785996  47.6035325  43.6646589
  59.0881091  46.5676946  44.6159767  61.2133470  46.1795419  44.9648824
  62.1400005  46.2062333  44.3915581  61.2847405  46.8735297  45.8023685
  61.0495108  45.1703938  45.3428742  58.2240520  45.0567704  40.9171589
  58.0518808  43.8492418  41.0090863  58.1983592  45.6865180  39.7455259
  58.2336444  46.6892700  39.6300149  57.9281461  44.8602010  38.5654937
  57.4629929  43.9164913  38.8503510  57.0388704  45.5492640  37.5096372
  56.9316371  44.9060884  36.6361812  55.6165446  45.8138536  38.1464972
  55.7229220  46.4573815  39.0197993  54.9743172  46.3010878  37.4128438
  55.1702070  44.8658018  38.4466342  57.6739413  46.7932056  37.0212518
  58.6373186  46.5567779  36.5694684  57.0299856  47.2628149  36.2776875
  57.8230355  47.4777201  37.8563036  59.2127677  44.3085832  37.9344911
  60.3096312  44.7698306  38.2310148  59.0414024  43.3428226  37.0538325
  58.1192922  42.9709299  36.8763279  60.1622218  42.7768687  36.3285678
  60.9884089  42.5529978  37.0033981  59.7687024  41.4793167  35.5344542
  60.6369004  41.1096651  34.9888442  59.2812274  40.3919569  36.5278433
  58.4127052  40.7607308  37.0735316  59.0082686  39.4919051  35.9769341
  60.0797215  40.1581729  37.2320105  58.6964809  41.7609454  34.4484472
  57.8015442  42.1447121  34.9382554  59.0873056  42.5145130  33.7647137
  58.3212112  40.4079838  33.6109549  57.9298576  39.6540660  34.2939997
  57.5675992  40.6426763  32.8592318  59.2156201  40.0238654  33.1204595
  60.7062631  43.7894558  35.3417591  60.0142770  44.7670388  35.0113191
  61.9176621  43.5453192  34.8689740  62.4541846  42.7521100  35.1900068
  62.5348442  44.4552069  33.8772397  62.5178691  45.4795158  34.2495331
  63.9899852  44.0498292  33.6263265  64.4317332  44.7576652  32.9249521
  64.5301197  44.0912600  34.5721797  64.0750810  42.7302456  33.0873916
  64.9962579  42.5033542  32.9405813  61.8173419  44.4890495  32.5345923
  61.1146696  43.5340205  32.1608220  62.0500758  45.5717603  31.7839177
  62.5401628  46.3755345  32.1497880  61.5915093  45.6120936  30.3966366
  62.3481090  46.1405087  29.8166076  61.5185393  44.5827731  30.0455328
  60.2557022  46.2947533  30.2011956  59.8055726  46.4732034  29.0475072
  59.6113543  46.6897625  31.3061954  60.0265598  46.5552643  32.2170268
  58.2867897  47.3058196  31.2320256  57.8128136  47.0772560  30.2774552
  57.4015849  46.7438639  32.3709949  57.9851661  46.8582929  33.2844708
  56.5521353  47.4264675  32.3952380  56.8944992  45.3013076  32.2664606
  57.7264684  44.6338445  32.0419139  56.2503096  44.8896941  33.6279359
  55.4179129  45.5564648  33.8529499  55.8864707  43.8642615  33.5630499
  56.9962074  44.9606071  34.4195850  55.8598436  45.1654977  31.2298486
  56.2724705  45.4559086  30.2636706  55.5241240  44.1294829  31.1843844
  55.0151171  45.8103175  31.4722193  58.3776688  48.8326260  31.3588773
  59.4098911  49.3474335  31.8372081  57.3000752  49.5496402  30.9832959
  56.1393835  49.0583311  30.2147179  55.6541369  48.2487465  30.7598864
  56.4706791  48.6935365  29.2424694  55.2264462  50.3437951  30.0971040
  54.5189896  50.3896466  30.9250544  54.6809391  50.3421107  29.1534301
  56.2067286  51.4834533  30.1485287  55.6683544  52.3540600  30.5230903
  56.6923232  51.7351336  29.2056849  57.2463306  51.0419791  31.1655549
  58.2331949  51.4637962  30.9751150  56.8138011  51.3793035  32.6036649
  55.9399074  52.2347059  32.8400746  57.5018694  50.7319925  33.5524544
  58.2563526  50.1138218  33.2903104  57.1687184  50.8574503  34.9733459
  57.1053423  51.9057360  35.2652019  55.8500341  50.1901244  35.2820396
  55.9009612  49.1375048  35.0036544  55.6408288  50.2736553  36.3485086
  55.0549442  50.6767561  34.7171317  58.2844462  50.2392220  35.7746481
  58.9996730  49.3663292  35.2875516  58.4364676  50.7308795  37.0051753
  57.9392814  51.5689764  37.2706915  59.3470723  50.1344657  37.9698715
  59.8304851  49.2694148  37.5158913  60.4494517  51.1378679  38.4282957
  59.9980874  51.9903141  38.9359423  61.0878907  50.5963181  39.1263068
  61.3150347  51.6569780  37.2743184  61.6257073  52.8564514  37.2100760
  61.7382885  50.7743161  36.4114596  62.3118060  51.0677015  35.6335764
  61.4903906  49.8018778  36.5255267  58.6451852  49.6001197  39.2021271
  59.0232445  48.5543383  39.6988648  57.6602642  50.3410540  39.6996651
  57.2875992  51.1136359  39.1664322  57.0456187  50.0307825  41.0045193
  57.2318331  48.9847624  41.2479643  57.6268776  50.9106953  42.1319396
  57.1043354  50.6660382  43.0567060  59.1396567  50.6875710  42.3226773
  59.6629521  50.9324833  41.3984049  59.5034363  51.3279706  43.1262020
  59.3241460  49.6442095  42.5785307  57.4143068  52.2932416  41.8070390
  57.7741465  52.8450337  42.5053521  55.5736616  50.3402279  40.9290214
  55.1340118  51.1664183  40.1025939  54.8061085  49.7703964  41.8389732
  55.1854909  49.0449300  42.4304686  53.4220190  50.1196199  41.9927917
  53.2710996  51.1530964  41.6809440  52.5142582  49.2035184  41.1295018
  52.7555562  49.3574681  40.0777538  52.7049867  48.1642450  41.3971460
  51.1055201  49.5133140  41.3556797  50.5603870  48.9377386  40.8142531
  53.0306547  50.0121165  43.4738264  53.4533917  49.0670914  44.1563571
  52.2641289  50.9906443  43.9640258  51.9969391  51.7719396  43.3824017
  51.7254659  50.9236724  45.3368280  52.2103771  50.1044642  45.8677312
  51.9722669  52.2387132  46.1225824  51.4035688  53.0465251  45.6620146
  51.5161182  52.0615922  47.6083474  52.0847425  51.2542036  48.0697469
  51.6915376  52.9877383  48.1556869  50.4537722  51.8192371  47.6363775
  53.3686876  52.5291262  46.0752673  53.5431475  53.3410949  46.5567972
  50.2531820  50.7659597  45.2231575  49.5878963  51.5686617  44.5502315
  49.7236794  49.7402459  45.8846151  50.2944924  49.2126964  46.5295674
  48.3440708  49.3371787  45.7001105  47.7964451  50.0875514  45.1298948
  48.3185459  48.0241312  44.9274678  48.8384437  47.2477749  45.4887845
  47.2891843  47.7140826  44.7475104  49.0391699  48.2495544  43.5631719
  48.4223913  48.9650146  43.0192953  49.9988921  48.7069510  43.8036319
  49.2684825  47.0095659  42.6942731  49.0336888  45.8436569  43.1287881
  49.7043609  47.2680685  41.5421909  47.6180173  49.1500166  47.0417657
  48.2046131  48.6435462  48.0153191  46.3689563  49.5718664  47.0553781
  45.9902903  49.9622257  46.2043018  45.4928962  49.5186930  48.2587435
  46.0828397  49.2972355  49.1481380  44.8097374  50.8780659  48.4498777
  45.6060878  51.5840297  48.6855477  44.3727636  51.1331020  47.4844190
  43.7154740  50.9483533  49.5470839  43.0106191  50.1342254  49.3783352
  44.1958878  50.8172042  50.5166738  42.9499706  52.3140321  49.5247687
  43.6589177  53.1411630  49.4880628  42.2919832  52.3613776  48.6570647
  42.1300262  52.4464515  50.7492610  42.5633245  52.9528136  51.5081742
  40.8941276  51.9789527  50.9206862  40.2678794  51.2908585  49.9696506
  40.7323299  51.1124458  49.0906997  39.3308987  50.9500777  50.1310050
  40.2635770  52.1917601  52.0961707  40.7318752  52.7010638  52.8319741
  39.3266651  51.8406103  52.2339699  44.4316438  48.4298753  48.1034723
  43.7320103  48.3419857  47.0927209  44.3344177  47.5568578  49.0979282
  45.0355017  47.5242119  49.8242304  43.2584612  46.5774079  49.1329948
  43.1541845  46.0740195  48.1718363  43.6155636  45.5164090  50.2138371
  44.5368387  45.0332069  49.8884645  43.7942903  46.0451529  51.1500992
  42.5257457  44.4513752  50.4266683  41.6056473  44.9582757  50.7174801
  42.2760368  43.6280971  49.1631115  43.1956313  43.1204983  48.8719271
  41.4995322  42.8884719  49.3582934  41.9546380  44.2874436  48.3568452
  43.0431751  43.5384799  51.5841043  43.1905275  44.1381429  52.4823197
  42.3109778  42.7566449  51.7859024  43.9895395  43.0828277  51.2927723
  41.8782776  47.2315149  49.4099101  41.7156936  47.8653409  50.4461267
  40.9403685  47.1722055  48.4609154  41.1151967  46.5877898  47.6559354
  39.6560782  47.9008987  48.5323206  39.7757548  48.7889086  49.1529776
  39.1868270  48.3397881  47.1283988  39.2799874  47.4458294  46.5117479
  38.1464330  48.6646029  47.1416530  40.0556351  49.4462827  46.5509725
  40.6261460  50.2527379  47.3517149  40.1239691  49.5828975  45.2915611
  38.5423197  47.0400255  49.1168456  37.6430197  47.5297949  49.8419494
  38.6109047  45.7492616  48.8385173  39.3256226  45.3783912  48.2288183
  37.5707122  44.7956375  49.3887595  37.3107887  45.0384997  50.4190784
  36.2704508  44.7867144  48.5097368  35.7968322  45.7645761  48.5967564
  36.5637111  44.4963428  47.0535014  37.0369506  43.5183737  46.9656294
  35.6325802  44.5010595  46.4868676  37.2330939  45.2601866  46.6578141
  35.2415934  43.7990395  49.0356262  35.6605851  42.8026416  48.8951351
  35.1292075  43.9984150  50.1013270  33.9385905  43.8733811  48.3878987
  34.0501129  43.6736441  47.3221747  33.2707538  43.1327772  48.8278980
  33.5187361  44.8694190  48.5283648  38.1646259  43.4233078  49.4685007
  38.9301218  43.0580568  48.5656508  37.8620040  42.6709082  50.5660529
  37.3599183  43.0717768  51.3453563  38.2932828  41.2865867  50.6631166
  38.4582219  40.8948044  49.6594230  39.6153203  41.1402685  51.4789811
  40.2941054  41.8800332  51.0546011  39.3755613  41.4149569  52.5061918
  40.2875098  39.7606553  51.4623175  39.5666430  39.0257373  51.8205735
  40.7665467  39.3642647  50.0381447  41.4878369  40.0985175  49.6793800
  41.2361599  38.3812234  50.0726993  39.9121279  39.3346213  49.3619864
  41.5121344  39.7494858  52.4143017  41.1857691  39.9746189  53.4296342
  41.9802111  38.7653252  52.3934817  42.2321893  40.5006537  52.0896993
  37.1441410  40.5195837  51.3188274  37.1343140  40.3060647  52.5618475
  36.1547544  40.1529076  50.5148492  36.2528900  40.2601348  49.5153638
  34.9131527  39.6037701  51.0296104  34.7793166  39.9189618  52.0644250
  33.7120270  40.0846900  50.2127645  33.8229961  41.1683655  50.1749155
  33.7548841  39.6800518  49.2015617  32.3647856  39.7322024  50.8460124
  32.2513550  38.6287128  51.4352621  31.3882467  40.5350064  50.6926742
  35.0274316  38.0906756  50.9517296  34.7337272  37.5037205  49.9179745
  35.4109387  37.4652682  52.0624689  35.7524403  37.9742408  52.8652284
  35.5061348  35.9994694  52.0751417  36.0318096  35.6670898  51.1799942
  36.2735209  35.4841234  53.3206749  35.8730230  36.0092241  54.1878370
  36.0875111  34.4152834  53.4259429  37.7540375  35.7279695  53.2273231
  38.3523085  35.5077292  52.1495768  38.3578765  36.1326075  54.2400306
  34.1836037  35.2529018  51.9105290  34.1914683  34.0414069  51.5463201
  33.0517192  35.9111233  52.1355155  33.0343455  36.8805355  52.4184245
  31.7932010  35.2093405  52.0156877  31.9311250  34.1660030  52.2994536
  30.7284489  35.8250409  52.9218190  31.1012608  35.7266293  53.9413413
  30.6743728  36.8806447  52.6555926  29.3350323  35.2040270  52.8270672
  28.6721030  35.7468159  53.5008667  29.0048549  35.3490689  51.7984541
  29.2986153  33.6905602  53.1735525  30.1960344  33.1928236  53.9235513
  28.3570650  33.0449930  52.7043063  31.3026238  35.2187445  50.5933109
  30.8385351  34.1885484  50.0672325  31.4243312  36.3526280  49.9415176
  31.8032854  37.1759632  50.3871768  30.9273290  36.4724853  48.5618937
  30.1624092  35.7208879  48.3667055  30.3206403  37.8383347  48.3691003
  31.1199742  38.5710199  48.4801722  29.9269116  37.8820675  47.3536373
  29.1800202  38.1567638  49.3823380  28.5204052  37.2911699  49.4436254
  29.6269949  38.3421797  50.3590348  28.3823591  39.3688501  48.9549546
  27.7567897  39.6841303  49.7900357  29.0773984  40.1688641  48.7000085
  27.5177258  39.1052571  47.7901989  27.0670608  38.2030445  47.7353095
  27.2877973  39.9947169  46.8158559  27.8970468  41.1723775  46.8472955
  28.5291804  41.3904373  47.6042347  27.7260600  41.8457035  46.1141549
  26.4613753  39.7213870  45.7899205  25.9975533  38.8253624  45.7439955
  26.3085735  40.4134682  45.0703555  32.0257956  36.2001956  47.4931022
  31.6928744  36.0338125  46.3140122  33.2760024  36.1120525  47.9363569
  33.4171837  36.2871154  48.9209990  34.4622136  35.8395988  47.0952666
  35.3490619  35.8313908  47.7289320  34.3653081  34.4810338  46.3633912
  33.4288251  34.4576370  45.8061199  35.2024277  34.4047349  45.6694825
  34.4051741  33.3186649  47.3308928  35.3544710  33.3276610  47.8664815
  33.5857456  33.4141699  48.0432956  34.2660347  32.0181192  46.5753518
  33.3198526  32.0132964  46.0342278  35.0892622  31.9208012  45.8675912
  34.2918362  30.8699593  47.4866279  34.9661078  30.8686614  48.2385957
  33.4950815  29.8106254  47.3448727  32.5682392  29.7694120  46.3765892
  32.4688630  30.5499302  45.7433311  31.9737747  28.9580426  46.2849854
  33.5942287  28.8052625  48.1975533  34.2701851  28.8473821  48.9468256
  32.9935645  27.9996912  48.0957881  34.5970302  36.9803350  46.1194559
  34.5392170  36.7903521  44.8764704  34.7635928  38.1669363  46.7046160
  34.8013531  38.2248308  47.7122478  34.9623443  39.4091865  45.9216401
  35.1191516  39.2313601  44.8577377  33.7879428  40.3734557  46.0878209
  33.6654542  40.6149906  47.1436412  34.0627675  41.6853055  45.2817419
  34.1849159  41.4446134  44.2256888  33.2230685  42.3696080  45.4031341
  34.9721219  42.1572384  45.6538381  32.4684844  39.7033743  45.6969684
  32.2994285  38.8343005  46.3327614  31.6492805  40.4110188  45.8244203
  32.5157720  39.3869308  44.6549856  36.1957541  40.0849475  46.4980656
  36.3334178  40.2667438  47.7355845  37.1237955  40.4827779  45.6075332
  37.1007266  40.1403771  44.6576232  38.2529552  41.2701340  46.0207918
  37.9690064  41.8077638  46.9254611  39.5614758  40.4300756  46.3209947
  39.2935575  39.5840903  46.9539472  40.2080268  39.9120410  45.0151594
  40.4766567  40.7575334  44.3818505  41.1038906  39.3393330  45.2550192
  39.4998867  39.2736133  44.4869093  40.5297816  41.2292591  46.9994780
  41.3141976  40.7035049  47.1723204  38.4978481  42.3950311  44.9998554
  37.8395594  42.4529166  43.9633120  39.3675511  43.3233289  45.3427676
  39.9048955  43.2691519  46.1962459  39.5747288  44.4942347  44.4536787
  39.8979974  44.1695118  43.4646632  38.6547484  45.0717735  44.3632113
  40.6422588  45.3655240  45.0558447  40.8763154  45.3353503  46.2857406
  41.3512324  46.1145932  44.2165136  41.1946443  46.0460306  43.2210848
  42.3831525  47.0207627  44.6906315  42.1419520  47.3534017  45.7002219
  43.7725898  46.3159238  44.7172268  44.5096256  46.9198541  45.2465147
  43.6645970  45.3538858  45.2181465  44.3494685  46.0293789  43.3509410
  45.2867627  46.9083829  42.7877850  45.5810691  47.7915135  43.3548511
  45.8469746  46.6682282  41.5132116  46.5775210  47.3485997  41.0756076
  45.4391510  45.5121510  40.8007942  45.8423081  45.3214588  39.8062085
  44.5068935  44.6014392  41.3787233  44.1983476  43.7014057  40.8468970
  43.9810477  44.8799798  42.6616930  43.2762709  44.1886425  43.1236912
  42.4666932  48.2490939  43.8142387  41.9377283  48.2579905  42.6717121
  43.1368094  49.2681355  44.3645918  43.5155701  49.1898920  45.2976071
  43.3562537  50.5123559  43.6297608  42.9303761  50.4509520  42.6282833
  42.6625634  51.6543965  44.3892863  42.8450677  51.5277373  45.4564081
  43.0854850  52.6031486  44.0589731  41.2547204  51.6493290  44.1431778
  40.8428184  52.3693462  44.6264084  44.8484618  50.7723558  43.5626266
  45.5600641  50.5959963  44.5611227  45.3304551  51.2775164  42.4156700
  44.7421508  51.3979240  41.6035743  46.7115699  51.6254613  42.3088753
  47.2395078  50.9445401  42.9765033  47.2107209  51.4093203  40.8438186
  46.5977284  52.0007598  40.1637157  48.6431761  51.8362039  40.7244597
  49.2568981  51.2448479  41.4039771  48.9844682  51.6827717  39.7007023
  48.7309319  52.8917453  40.9818124  47.1839167  49.9014449  40.5343059
  47.8948777  49.3965410  41.1882992  46.1805801  49.5216724  40.7271475
  47.5887564  49.6141498  38.9513913  48.5922197  49.9932580  38.7579019
  47.5625046  48.5417667  38.7579884  46.8779228  50.1183918  38.2967498
  46.8308549  53.0769597  42.7387829  46.2612359  53.9659557  42.0580964
  47.4889391  53.3097216  43.8613496  47.9238203  52.5498265  44.3648745
  47.5109448  54.6626907  44.4723171  46.7662843  55.2990431  43.9941587
  47.2340410  54.5960093  45.9796074  47.1972182  55.6030472  46.3950819
  45.8615207  53.8911806  46.2038249  45.8977256  52.8838540  45.7889960
  45.6508250  53.8363706  47.2718624  45.0751024  54.4598613  45.7075915
  48.3173379  53.8552867  46.7441752  48.2868286  52.8086313  46.4413843
  49.2793851  54.2855754  46.4659373  48.1232540  53.9589357  48.3551449
  47.1615598  53.5283950  48.6342127  48.9237895  53.4126579  48.8539662
  48.1541141  55.0053400  48.6587654  48.7863827  55.4498578  44.2197201
  48.8555220  56.6257567  44.5698820  49.8036164  54.7720565  43.6920641
  49.7117829  53.7780108  43.5386396  51.0400116  55.4057299  43.3284339
  50.8239865  56.2085125  42.6234712  51.4926181  55.8242886  44.2273529
  52.0174097  54.4363033  42.6887386  51.6630742  53.3077411  42.3022536
  53.2439600  54.9128709  42.5438910  53.4519210  55.8613337  42.8218656
  54.3324524  54.0952980  41.9828118  55.1330915  54.0150273  42.7180892
  53.9493361  53.1009266  41.7535810  54.8858484  54.7131327  40.7180749
  54.3225362  55.6784226  40.1908664  55.9806919  54.1299445  40.2216294
  56.4126074  53.3546716  40.7038123  56.6200920  54.6315637  38.9905268
  56.4007527  55.6915918  38.8627379  58.1259525  54.4540904  39.0725762
  58.3267696  53.3952939  39.2360441  58.5486600  54.7600206  38.1155887
  58.7729090  55.2852293  40.2130329  58.6398387  56.3410108  39.9769851
  58.2074085  55.0403961  41.1121242  60.2562701  54.9994126  40.4506346
  60.9565629  54.4164328  39.5964340  60.7474264  55.4015702  41.5289276
  56.0531288  53.9034554  37.7862361  56.5410991  52.8442352  37.4392310
  54.9985778  54.4625792  37.1943548  54.6636067  55.3411211  37.5632150
  54.3134699  53.8907400  36.0357564  55.0555020  53.6465098  35.2755990
  53.5240983  52.6091633  36.3849590  52.9872016  52.1790329  35.5394834
  54.2450760  51.8845902  36.7634891  52.5275756  52.8150980  37.4585950
  51.2801232  53.3720451  37.2361393  50.6486512  53.4743871  38.4031642
  49.6285246  53.8557730  38.4477230  51.4611383  53.0541817  39.3597629
  51.2644543  53.0597074  40.3504116  52.6247299  52.6049120  38.7918365
  53.4071306  52.1766987  39.4184015  53.3329106  54.9521731  35.5457806
  53.1536863  56.0043443  36.1928195  52.6665655  54.6839667  34.4317252
  52.8430441  53.8329232  33.9172549  51.8022012  55.6971705  33.8223104
  52.0389237  56.6808128  34.2279079  52.0186497  55.7300693  32.2696892
  51.6332237  54.8014375  31.8487510  51.4599245  56.5725736  31.8621201
  53.4475852  55.8725135  31.9215884  53.8642555  56.7183464  32.4684461
  53.9751891  54.9618029  32.2050356  53.6109786  56.1111949  30.3987608
  54.6761975  56.2268279  30.1986689  53.2400546  55.2230147  29.8872427
  52.9058196  57.2822674  29.8759090  53.1202329  58.1613782  30.3245631
  52.0214885  57.2751824  28.8888091  51.6405504  56.1395412  28.3054481
  52.0292707  55.2606535  28.6161780  50.9648018  56.1627426  27.5551647
  51.4971169  58.4407195  28.4506998  51.7815080  59.3108840  28.8773559
  50.8230988  58.4365891  27.6985155  50.3030700  55.6875638  34.1461474
  49.5568074  56.5766041  33.6870868  49.8282978  54.7257078  34.9436042
  50.4683022  54.0498634  35.3356859  48.3966330  54.5634218  35.2111267
  47.8399891  54.8930199  34.3338515  48.0057289  53.1072593  35.5233905
  48.5612091  52.9266763  36.4436789  46.9369474  53.0335152  35.7243084
  48.4051828  52.0518772  34.4647224  49.4659157  52.1607793  34.2386982
  48.1314473  50.6046425  35.0004964  47.0707666  50.4948256  35.2263182
  48.4183941  49.8757379  34.2425648  48.7145388  50.4354425  35.9057456
  47.7310303  52.3085093  33.1263957  48.0217646  53.2911948  32.7550440
  48.0385121  51.5450486  32.4117742  46.6487993  52.2735368  33.2515033
  47.8974432  55.4400496  36.3311514  48.4691068  55.4746169  37.4134392
  46.8176868  56.1388892  36.0770483  46.4306663  56.2024619  35.1463104
  46.2286938  56.9578168  37.1269297  46.7353093  56.7206912  38.0624569
  46.3542075  58.5497498  36.8596584  45.9059149  59.0764989  37.7020771
  47.7989261  58.9784955  36.7075559  48.2477872  58.4524744  35.8649853
  47.8427764  60.0529568  36.5294857  48.3473681  58.7390332  37.6185827
  45.6677240  58.8616094  35.6764956  45.7347074  59.8040816  35.5066143
  44.7937130  56.5511144  37.3708813  44.0130118  56.2639594  36.4338474
  44.4538934  56.4932874  38.6503685  45.1720573  56.6304818  39.3471595
  43.1210925  56.0879371  39.0982869  43.1251429  55.8924978  40.1706144
  42.1060547  57.2315356  38.8048132  42.1774681  57.4514679  37.7396235
  41.0802886  56.9567515  39.0505726  42.4743094  58.4848981  39.5860046
  42.8751965  59.5333038  39.0015998  42.4202561  58.3835689  40.8967188
  42.6530363  59.1805599  41.4718001  42.1462327  57.5092649  41.3216947
  42.6543405  54.7501457  38.5600400  41.4505623  54.5465508  38.3080635
  43.6120005  53.8290195  38.4479871  44.5800288  54.0777449  38.5934390
  43.2907807  52.4260886  38.1387757  42.6169985  52.3690473  37.2838704
  44.5988412  51.6690452  37.7902689  45.1081681  52.2176911  36.9980107
  45.2270219  51.6511248  38.6808687  44.3338306  50.2515241  37.3317502
  44.2180836  49.9424342  35.9559671  44.3342954  50.7405493  35.2227507
  43.9530719  48.6080625  35.5227304  43.8859549  48.3712596  34.4608822
  43.8285482  47.5891028  36.4773151  43.5634554  46.2637854  36.0703084
  43.4872810  46.1720558  35.1177419  43.9178532  47.8890841  37.8562367
  43.7690770  47.0978483  38.5910237  44.1962971  49.1969407  38.2804443
  44.3091558  49.4128993  39.3428589  42.6480333  51.7299871  39.3577783
  43.1659631  51.7914634  40.4764746  41.5258620  51.0581027  39.1116586
  41.1152420  51.0760138  38.1890700  40.8407144  50.2890580  40.1670320
  41.5534324  50.0093688  40.9428582  39.7128203  51.1405639  40.8126160
  40.1734428  52.0601010  41.1736945  38.9997100  51.3777289  40.0231058
  38.9972778  50.4606504  41.9457826  38.6340973  49.4970324  41.5885137
  39.7127057  50.3022261  42.7527317  37.7869119  51.3119469  42.4783740
  38.1065299  52.3454270  42.6120233  36.9748632  51.2743306  41.7522463
  37.2819360  50.7305238  43.8673674  38.1805091  50.5715238  44.4635100
  36.6834444  51.5226156  44.3173646  36.4683780  49.4430098  43.8222429
  37.0229253  48.7088014  43.4056916  36.2074771  49.1765732  44.7608815
  35.6354808  49.5902509  43.2702453  40.2746749  49.0530435  39.5235404
  39.6319836  49.1474382  38.4726510  40.4770443  47.8847051  40.1458362
  41.0851795  47.7996357  40.9477303  39.8968090  46.6660338  39.5834660
  39.1596026  46.9498804  38.8324286  40.9556445  45.7319493  38.9155060
  40.4408392  44.9046945  38.4269118  41.5129920  46.3021171  38.1722884
  41.8467622  45.2246186  39.8834366  42.4902386  44.6533601  39.4577586
  39.0936233  45.9108803  40.6386351  39.3328746  46.0635050  41.8641972
  38.1651838  45.0891771  40.1580218  37.9709271  45.0494345  39.1676763
  37.3989390  44.2295149  41.0458729  37.8396467  44.1543279  42.0399669
  35.9535070  44.7795917  41.1842300  35.6052705  45.0273436  40.1815089
  34.9568965  43.7808006  41.8482156  35.3042457  43.5329205  42.8512136
  33.9694668  44.2383937  41.9089739  34.8993637  42.8719442  41.2492401
  35.9693286  46.0683369  41.9753726  36.5868230  46.8040514  41.4600796
  34.9526819  46.4500062  42.0694879  36.3799045  45.8811531  42.9675875
  37.4074427  42.8340604  40.3985025  37.1884997  42.6944380  39.2046187
  37.6309995  41.8115257  41.2286357  37.6933508  41.9959003  42.2197046
  37.7169666  40.4357197  40.7785730  37.5590903  40.3638515  39.7024646
  39.1024172  39.8811256  41.1069340  39.2913503  40.0055569  42.1731992
  39.1864739  38.3288834  40.7283672  38.9980945  38.2036973  39.6620927
  40.1795711  37.9490894  40.9683952  38.4391007  37.7748600  41.2963389
  40.0568807  40.6257129  40.3684231  40.9377005  40.2947207  40.5586883
  36.6666436  39.6009138  41.5946696  36.6690961  39.6449569  42.8493928
  35.8038232  38.8758232  40.9060343  35.8153315  38.9310799  39.8976130
  34.7677103  38.0751698  41.5414193  34.9364755  38.0820572  42.6182527
  33.3668140  38.5985635  41.2657552  32.6465204  37.9528093  41.7680289
  33.2075583  40.0348731  41.7761013  33.9272600  40.6813482  41.2739071
  32.1969671  40.3854852  41.5666358  33.3850232  40.0607701  42.8512460
  33.0906517  38.5975271  39.8524498  32.2033932  38.9306821  39.6995431
  34.8921860  36.6300844  41.1312498  35.2154706  36.3453871  39.9775707
  34.6545600  35.7190927  42.0867209  34.4092274  36.0107724  43.0220466
  34.8242453  34.2549294  41.8210958  35.1588402  34.0717844  40.8000163
  35.8635344  33.6571305  42.7960090  35.5089636  33.8215047  43.8135353
  36.0723461  32.1725206  42.5674523  36.4273844  32.0073846  41.5502115
  36.8108253  31.7957636  43.2751267  35.1291209  31.6458462  42.7125110
  37.2031809  34.3896836  42.6378343  37.0674417  35.4482240  42.8595756
  37.9334656  33.9653928  43.3268635  37.5612520  34.2763524  41.6145836
  33.4714216  33.5375097  41.9236437  32.7428479  33.7291680  42.9262550
  33.1107111  32.7656105  40.9006049  33.7651945  32.6158396  40.1460722
  31.7902326  32.1536506  40.8023817  31.2073684  32.3415680  41.7040776
  31.0557413  32.7769356  39.6036790  31.6209575  32.5092367  38.7109488
  30.0185583  32.4638930  39.4838625  31.0465986  34.2645561  39.6719976
  30.0826499  34.9564525  40.3912549  29.3045519  34.5350704  40.8781846
  30.3549900  36.2551323  40.3308497  29.7114772  36.9773377  40.8332536
  31.4579881  36.4249651  39.6032812  31.9211442  35.1981801  39.1943301
  32.8333761  35.1299339  38.6016440  31.8218835  30.6558698  40.6412236
  32.5641255  30.1202577  39.7987092  31.0065379  29.9715991  41.4612890
  30.5348340  30.4776703  42.1971468  30.7643001  28.5001513  41.3446348
  31.6904901  27.9776216  41.1053985  30.2366781  27.9736626  42.6856973
  30.9289352  28.3027966  43.4606490  29.2607030  28.4289654  42.8538399
  30.1061176  26.4787349  42.7338031  29.3348901  26.1500606  42.0371811
  31.0558323  26.0136719  42.4694919  29.7233334  26.0766993  44.1307532
  30.3918034  26.5604172  44.8429779  28.6970822  26.3862388  44.3284729
  29.8179253  24.6338807  44.3076227  30.6853878  24.2762194  44.6813692
  28.8516566  23.7745332  44.0197186  27.6951512  24.2004639  43.5173409
  27.5518061  25.1867733  43.3537987  26.9661548  23.5354309  43.3019461
  29.0488904  22.4756754  44.2314291  29.9299519  22.1566516  44.6083303
  28.3166253  21.8148301  44.0142427  29.7564597  28.1110766  40.2768485
  28.6753868  28.7464952  40.1226356  30.1137569  27.0752543  39.5060367
  31.0662948  26.7411993  39.5403633  29.1864102  26.4306869  38.5781978
  28.1752328  26.7913564  38.7667103  29.5513041  26.7384909  37.1311044
  30.6177777  26.6310053  36.9331649  28.9924666  26.0600691  36.4864769
  29.1751205  28.1342829  36.7158412  27.9458404  28.3751091  36.1394288
  27.2637168  27.5422752  35.9685634  27.5709804  29.6717472  35.7750946
  26.6104988  29.8671543  35.2982384  28.4614143  30.7389141  36.0348705
  28.1620528  31.7582735  35.7911717  29.7122937  30.4960521  36.5974508
  30.4238630  31.3077959  36.7485849  30.0460654  29.2086762  36.9649418
  30.9985873  29.0119716  37.4569878  29.1913772  24.9175568  38.8110465
  30.2259664  24.3497673  39.1184768  28.0288500  24.3008109  38.6748958
  27.1928544  24.8334780  38.4813076  27.9092543  22.8449079  38.8152071
  28.8573931  22.3785055  38.5476236  27.5552255  22.4454010  40.2508319
  28.3908218  22.7600826  40.8760148  26.6654947  23.0140562  40.5212211
  27.2833704  20.9078742  40.4722212  26.3188304  20.6621129  40.0279635
  28.0709061  20.3583608  39.9565452  27.2763957  20.5165313  41.9655761
  27.0621855  21.4101749  42.8257488  27.4752962  19.3080596  42.2841397
  26.8357600  22.3726620  37.8762700  25.7639034  22.9881382  37.7959919
  27.1334463  21.2997145  37.1575854  28.0356579  20.8671368  37.2953903
  26.2343291  20.7259570  36.1537330  25.2081974  20.7350102  36.5212528
  26.2997946  21.5529398  34.8581425  26.0708634  22.5776161  35.1509362
  27.3353852  21.4940729  34.5231994  25.3767980  21.1315206  33.7262596
  25.6252519  20.1179252  33.4116235  24.3425225  21.1617723  34.0689856
  25.5504989  22.0881184  32.5461940  25.2188192  23.0757171  32.8667191
  26.6117772  22.1239412  32.3002174  24.7600927  21.6618919  31.3187829
  25.1755840  20.7327989  30.9285858  23.7186064  21.5041119  31.5989807
  24.8380451  22.7243822  30.2657645  25.8029921  22.8704345  30.0056765
  24.3110006  22.4337972  29.4546637  24.4527005  23.5852708  30.6269840
  26.7220755  19.2905936  35.9602797  27.8816436  19.0727388  35.6005647
  25.8366103  18.3180936  36.2318516  24.8687444  18.5931057  36.3196212
  26.1793302  16.8916065  36.4150222  25.2553775  16.3143232  36.3810444
  27.1408285  16.3419123  35.3511701  28.0488592  16.9417072  35.4130208
  27.3649385  15.3139243  35.6359780  26.6099022  16.3689096  33.9196600
  25.5905608  15.9831192  33.9341402  26.6010136  17.4047475  33.5804551
  27.4639464  15.5233279  32.9608138  28.7217170  15.4769695  33.1378959
  26.8656536  14.9111734  32.0298200  26.8276652  16.7609138  37.7675166
  26.3909464  17.3781957  38.7427549  27.8755506  15.9576968  37.8408143
  28.1056538  15.2935206  37.1155406  28.6733278  15.9612105  39.0435566
  28.1291006  16.4803482  39.8324875  28.9716828  14.5239992  39.5145079
  28.0343607  14.0037791  39.7117327  29.5243695  13.9942256  38.7386359
  29.8039252  14.5266410  40.7888124  30.1487591  15.5866489  41.3064164
  30.1265540  13.3340026  41.2945279  30.6777676  13.2793742  42.1390865
  29.8179485  12.4917941  40.8302562  29.9574905  16.7692669  38.7925445
  30.9763481  16.5427239  39.4632988  29.9003918  17.7289816  37.8544931
  29.1027837  17.7942878  37.2383310  31.1099383  18.5092047  37.5198346
  31.9338924  18.1774283  38.1515966  31.5172714  18.3341773  36.0505190
  32.6012655  18.4484340  36.0493182  31.2610473  17.3013637  35.8144146
  30.9091544  19.2584878  35.0065133  29.9209159  18.9008553  34.7174036
  30.8271943  20.2707597  35.4023546  31.8462608  19.2626113  33.7583544
  31.8935795  18.2699339  33.3106362  31.4938764  19.9789311  33.0161883
  33.1994092  19.6525091  34.1844939  33.6766579  19.0171463  34.8079098
  33.8264846  20.7731448  33.8131800  33.2299582  21.6017860  32.9498510
  32.3149463  21.3751958  32.5872078  33.6971002  22.4505162  32.6643076
  35.0492699  21.0548004  34.3039960  35.4890764  20.4171581  34.9521338
  35.5205198  21.9022949  34.0215508  31.0701400  19.9748937  38.0232684
  30.1156130  20.6907982  37.8044555  32.1060782  20.3658018  38.7525756
  32.9047755  19.7564239  38.8566936  32.1417970  21.6727238  39.4059767
  31.2108455  22.2334322  39.3221049  32.4951728  21.4882309  40.8861175
  33.3947658  20.8773089  40.9609991  32.7416601  22.8433092  41.5553820
  31.8422917  23.4546598  41.4813051  32.9910300  22.6905147  42.6054150
  33.5673591  23.3506840  41.0564922  31.3875232  20.6575831  41.5919854
  30.5003876  21.2863552  41.6677280  31.1685325  19.7955630  40.9618554
  31.8070608  20.1630185  43.0336144  32.0257732  21.0245579  43.6644983
  30.9911866  19.5892298  43.4731767  32.6939200  19.5337672  42.9586258
  33.2256716  22.5042205  38.7106457  34.3328236  22.0301136  38.5637366
  32.9221582  23.7256529  38.2665068  31.9778939  24.0782618  38.2022323
  34.0211230  24.5641139  37.7401870  34.9709966  24.2121453  38.1426264
  34.0836279  24.4991950  36.2042705  35.0003893  24.9530765  35.8279204
  34.0644384  23.4432060  35.9347914  32.9389087  25.1563056  35.4627318
  32.9397668  26.4142275  34.8836838  33.8456511  27.0063868  35.0133791
  31.7433087  26.6541779  34.2416060  31.4966476  27.5027922  33.7526156
  30.9365735  25.5637345  34.3932116  29.6271379  25.3470879  33.9371024
  29.1348328  26.1339648  33.3656489  29.0410857  24.1352185  34.2465171
  28.0255579  23.9263314  33.9101106  29.7275107  23.1585634  34.9896957
  29.2497480  22.2087286  35.2298125  31.0317035  23.3689658  35.4415011
  31.5271523  22.5629824  35.9828161  31.6527332  24.5958465  35.1606386
  33.8453364  25.9970230  38.2702604  32.8851427  26.2958210  39.0196934
  34.7996048  26.8523348  37.9189949  35.5432253  26.5474872  37.3072794
  34.7960079  28.2401440  38.3637587  33.9093298  28.4480826  38.9626431
  36.0433722  28.5085881  39.2227639  36.9255389  28.2780079  38.6255077
  36.1095022  29.9219289  39.6784500  35.2278330  30.1531297  40.2762000
  37.0054400  30.0681561  40.2817843  36.1437929  30.5823603  38.8119888
  36.0470724  27.6616389  40.3982401  36.8315688  27.8431507  40.9209439
  34.8455394  29.1866308  37.1360937  35.4866492  28.8861692  36.1220843
  34.1661142  30.3261821  37.2719332  33.4687703  30.4117854  37.9975246
  34.3665786  31.4646523  36.3576874  35.1359996  31.2017970  35.6317413
  33.0844964  31.8438477  35.5990749  32.2798639  31.9883913  36.3200277
  33.2919756  33.1678921  34.7720702  34.0961996  33.0239628  34.0505377
  32.3709520  33.4152983  34.2442388  33.5525866  33.9821452  35.4482178
  32.7005628  30.7006551  34.6225434  32.5301097  29.7830436  35.1856037
  31.7914160  30.9709250  34.0854159  33.5100932  30.5438320  33.9096844
  34.8641793  32.6097401  37.2229750  34.3011415  32.9224108  38.3012159
  35.9689613  33.1984275  36.7931088  36.5019931  32.8202182  36.0230866
  36.4292645  34.4130965  37.4091007  35.9461083  34.5582171  38.3753300
  37.9406218  34.3737852  37.6204483  38.4198387  34.1541977  36.6663877
  38.4775214  35.7552933  38.1743214  37.9990675  35.9753525  39.1286571
  39.5568408  35.6963044  38.3146441  38.2470402  36.5472738  37.4617577
  38.3127554  33.2484236  38.6213813  37.9828798  32.2872008  38.2272557
  39.3932835  33.2306901  38.7636633  37.8239321  33.4355751  39.5774812
  36.0853696  35.5907474  36.4626417  36.3136401  35.4927552  35.2249297
  35.5846075  36.6800376  37.0427652  35.3702641  36.6690917  38.0296980
  35.3685357  37.9457986  36.2869888  35.5872360  37.7791776  35.2322345
  33.9370546  38.4266638  36.4146631  33.8245217  38.5613200  37.4904435
  33.8271506  39.3891791  35.9150778  32.8682643  37.4680505  35.9091249
  33.0101073  36.4971123  36.3837409  31.4476421  38.0073362  36.2462131
  31.3048787  38.9781049  35.7715284  30.6963789  37.3090667  35.8772630
  31.3453935  38.1130361  37.3262469  33.0603832  37.2175198  34.3842300
  34.0447125  36.7837969  34.2079350  32.2922990  36.5306609  34.0287405
  32.9788054  38.1624910  33.8471327  36.2688767  38.9892682  36.9011054
  36.3187171  39.1007372  38.1217972  36.9982437  39.7438184  36.0615086
  37.0276628  39.5302883  35.0747773  37.8101380  40.8475364  36.5532965
  37.4937619  41.0974131  37.5659993  39.3141407  40.4954287  36.5786944
  39.4605688  39.6541251  37.2560912  39.6187158  40.2081834  35.5723028
  40.1477125  41.6641419  37.0415566  40.1775377  42.4189804  36.2557893
  39.6491233  42.0741930  37.9198311  41.5772210  41.2550251  37.4107256
  41.7283898  40.1950505  37.9983547  42.5362359  41.9650490  37.0913646
  37.5377935  42.0410196  35.6667864  37.5833546  41.9171134  34.4324978
  37.1809922  43.1779934  36.2739763  36.9510622  43.2206920  37.2565283
  37.0503987  44.4084153  35.4711511  37.3994086  44.2342232  34.4533356
  35.5736416  44.8333309  35.4182272  35.4878370  45.7061305  34.7709577
  34.9922492  44.0121615  34.9989853  35.0822455  45.1496799  36.7003381
  34.1606854  45.4104208  36.6344511  37.9317912  45.5059361  36.0582784
  38.3338350  45.4237076  37.2148216  38.2130841  46.5487847  35.2804923
  37.9221505  46.5701833  34.3135388  38.9281557  47.7019931  35.8126172
  38.8185289  47.7029828  36.8970895  40.4575053  47.7022941  35.4633784
  40.8674277  48.6182944  35.8888268  40.9325821  46.8403637  35.9318634
  40.7259294  47.6755595  33.9525473  40.7439516  48.8680861  33.1951350
  40.6008096  49.8186344  33.7090102  40.9367318  48.8447962  31.8395331
  40.9086780  49.7753833  31.2726801  41.1189469  47.6503271  31.1889731
  41.3330587  47.6785609  29.8274324  41.3315866  48.5678618  29.4658504
  41.1338104  46.4472700  31.8972057  41.3080609  45.5001872  31.3865479
  40.9229701  46.4675764  33.2691456  40.9087599  45.5343931  33.8322326
  38.3299013  48.9652386  35.2044862  37.6409412  48.8991728  34.1609201
  38.6362422  50.0772509  35.8714112  38.9587928  50.0043107  36.8257383
  38.4571612  51.4136913  35.2991290  38.2900706  51.3741005  34.2227404
  37.2586528  52.1751309  35.9646042  36.3379179  51.6204192  35.7839347
  37.4898676  52.3058169  37.4831887  38.4102477  52.8608562  37.6646627
  36.6513644  52.8361454  37.9345917  37.5717036  51.3129792  37.9255434
  37.0615526  53.5805835  35.2974187  36.8532518  53.4530770  34.2351311
  36.2256413  54.0945916  35.7719160  37.9685761  54.1723463  35.4208123
  39.7705498  52.1310741  35.4772568  40.4899165  51.9008246  36.4606010
  40.1400334  52.9879221  34.5152260  39.5696167  53.1530878  33.6982532
  41.4111451  53.7100893  34.6333557  41.6230452  54.0956753  35.6306124
  42.6117364  52.7914771  34.1824531  42.6412523  51.9152996  34.8301729
  42.4510695  52.3396519  32.7111196  42.4219369  53.2153291  32.0627048
  43.2939531  51.7081486  32.4303151  41.5239877  51.7767786  32.6025174
  43.9458997  53.4424040  34.4223954  44.0619328  53.6532607  35.4854936
  44.7414998  52.7724211  34.0964458  44.0027151  54.3740317  33.8594189
  41.3195173  54.9458717  33.7327658  40.5521063  54.9473759  32.7813016
  42.0905308  55.9660995  34.0615962  42.6255126  55.9350593  34.9177097
  42.2325072  57.1367106  33.1977598  41.2504573  57.5072148  32.9038144
  42.9695269  58.2469995  33.9457207  43.9607868  57.8652418  34.1901875
  43.0643863  59.0945081  33.2668755  42.2697279  58.6949592  35.2215199
  41.0527850  58.4602250  35.3678988  42.9906102  59.2997613  36.0723966
  43.0699998  56.8258334  31.9422048  43.9925875  56.0108479  31.9637823
  42.8048505  57.5065267  30.8229271  42.0070406  58.1200118  30.7378693
  43.7079328  57.3835854  29.6827632  44.0149176  56.3435052  29.5727974
  43.0140033  57.8400986  28.3640943  42.5286313  58.7922653  28.5783179
  43.8050461  57.9931671  27.6299817  41.9803392  56.8541302  27.8036393
  41.9085591  57.0751729  26.7387034  42.4132546  55.8631409  27.9401181
  40.3226670  56.8847308  28.5308720  39.6677207  58.4357153  27.7946109
  39.6699569  58.3518432  26.7078453  38.6485796  58.6020844  28.1435712
  40.2955731  59.2745438  28.0950596  44.8869924  58.2939114  29.9741636
  44.6599697  59.4990743  30.2553201  46.1344238  57.7641159  29.9158403
  46.5618272  56.3583291  29.7694822  46.1290792  55.9384403  28.8614497
  46.2245039  55.7831502  30.6317358  48.0654725  56.4627320  29.7001649
  48.3613060  56.3259950  28.6600281  48.4840384  55.6584367  30.3051551
  48.4866822  57.7779597  30.2104514  49.2587441  58.1450601  29.5342439
  48.8760250  57.7567825  31.2283234  47.2617874  58.6851144  30.1404154
  47.0713499  59.2529956  31.0510980  47.4329258  59.6556756  28.9576188
  46.8756354  59.4261476  27.8811406  48.2075545  60.7056608  29.1917052
  48.6970616  60.7520829  30.0739337  48.3717649  61.8348688  28.2318978
  47.4066601  62.2858065  28.0009711  49.2750260  62.9062229  28.8737980
  48.8435656  63.1110948  29.8535779  50.2510096  62.4370587  28.9980596
  49.4385954  64.2507464  28.0835837  49.3392191  64.0514978  27.0165668
  48.6354491  64.9137825  28.4052021  50.8052458  64.9254718  28.3572340
  51.1986919  65.1008022  29.5413908  51.5021479  65.2634418  27.3771561
  48.9763693  61.2905385  26.9653564  49.9469589  60.5406764  27.0240386
  48.3844199  61.6218915  25.8074388  47.5665192  62.2141335  25.7877618
  48.9105139  61.1325414  24.5456180  48.6997422  61.8896973  23.7903768
  49.9890839  61.0270546  24.6624882  48.3331060  59.8106327  24.0917100
  48.6023889  59.3820259  22.9830405  47.5217357  59.1568418  24.9273054
  47.3088140  59.5327726  25.8402345  46.9734031  57.8570364  24.5715761
  47.3182386  57.5637226  23.5800345  47.4340099  56.8037263  25.5806986
  47.2186499  57.1876582  26.5778524  46.8991775  55.8660536  25.4296219
  48.8822361  56.5420552  25.4789383  49.6310260  56.9534207  26.3482933
  49.3142005  55.8810373  24.3845088  50.2980825  55.6809855  24.2747123
  48.6516405  55.5893810  23.6801995  45.4600913  57.8483963  24.4856192
  44.7522494  58.5067448  25.2763803  44.9631590  57.0698272  23.5394514
  45.5975623  56.5789686  22.9257010  43.5564251  56.9105801  23.3293347
  43.0349172  57.8553288  23.4828880  43.3257130  56.4556726  21.8980783
  42.2533824  56.4348955  21.7037213  43.8033216  57.1647420  21.2219048
  43.8774206  55.1429577  21.6843697  43.7215310  54.8743430  20.7759951
  42.9231860  55.8942964  24.2886645  43.6628985  55.1540435  25.0070962
  41.5819191  55.8460357  24.2945758  41.0322625  56.5658009  23.8474571
  40.8677049  54.7398784  24.9831534  41.1257148  54.7894697  26.0410148
  39.3444681  54.7760650  24.8493629  39.0934214  54.8252341  23.7898077
  38.9399225  53.8581626  25.2758580  38.7541483  55.9588718  25.5581178
  39.1293657  55.9442299  26.5813961  39.1342084  56.8422102  25.0449251
  37.2386713  55.9983729  25.5764286  36.5832531  54.9167872  25.5903327
  36.7145054  57.1467520  25.5904870  41.3262755  53.3990612  24.4480529
  41.6113787  52.4917239  25.2312542  41.4147433  53.2762471  23.1234326
  41.1008904  54.0036182  22.4969128  41.8838160  52.0190731  22.5455006
  41.2531512  51.1952108  22.8795847  41.8232620  52.0932726  21.0055199
  42.1982180  53.0803557  20.7350127  42.4746787  51.3290186  20.5816425
  40.3810282  51.9146702  20.4452460  39.4586460  51.3907853  21.1495333
  40.1818924  52.2801033  19.2405623  43.2909786  51.6257854  23.0202305
  43.5395964  50.4235067  23.3607904  44.2118554  52.5900820  23.0429454
  43.9703540  53.5488087  22.8365009  45.5929478  52.2936244  23.4802816
  46.0412663  51.5823676  22.7865788  46.4516658  53.5358230  23.5201052
  45.8596219  54.2828367  24.0488337  47.3572903  53.3223160  24.0878720
  46.8355681  54.0775588  22.1212570  46.7416185  53.3372859  21.1000599
  47.2719050  55.2631601  22.1310826  45.5480912  51.8033198  24.9286860
  46.2689238  50.8419362  25.3082936  44.7169793  52.4836836  25.7261439
  44.1129752  53.2002956  25.3496527  44.7092153  52.2534998  27.2090057
  45.7426885  52.2693257  27.5551011  43.9418259  53.4004339  27.8964653
  42.8912724  53.3621511  27.6084168  44.0618426  53.2449583  29.4370835
  45.1121555  53.2836106  29.7259579  43.5206120  54.0539575  29.9276840
  43.6371125  52.2880326  29.7403952  44.5940215  54.6475785  27.5164057
  44.1391256  55.3853049  27.9292371  44.1125533  50.9227641  27.5339516
  44.7219463  50.1177342  28.3250452  42.9574335  50.6505361  26.9249556
  42.4006441  51.3654762  26.4789226  42.3887147  49.3043879  27.0518771
  42.3333564  49.0437108  28.1087981  40.9806697  49.2047986  26.4475457
  41.0324261  49.5490471  25.4146307  40.6795039  48.1573973  26.4662444
  39.9418465  50.0548987  27.2238944  39.8606788  49.6314765  28.2250070
  40.3375220  51.0684190  27.2896176  38.5455714  50.0895095  26.5652695
  37.9313560  50.8498357  27.0477034  38.6458518  50.3229541  25.5052945
  37.8858618  48.8077695  26.6975072  38.3181854  48.1372836  27.3168975
  36.7686235  48.4597275  26.0659232  36.1780681  49.3011707  25.2174081
  36.5815452  50.2120736  25.0513897  35.3298245  49.0239864  24.7443846
  36.2370151  47.2625008  26.2870742  36.6837984  46.6262293  26.9317783
  35.3885153  46.9940684  25.8094856  43.3129171  48.2136257  26.5180254
  43.4047615  47.1425980  27.1154242  44.0071726  48.4409631  25.4086864
  43.9310147  49.2972006  24.8784443  44.8990108  47.3901220  24.9079234
  44.3241677  46.4759204  24.7599709  45.5567078  47.7813468  23.5679388
  45.9310401  48.7999312  23.6702150  46.3930521  47.1024597  23.4013838
  44.5994571  47.7084838  22.3828844  44.0197999  46.7854752  22.3952689
  43.9219610  48.5621720  22.3650593  45.6384634  47.7404119  20.8956683
  47.3073053  48.0450238  21.5686559  47.5771159  47.2390607  22.2510962
  48.0274969  48.0848345  20.7514413  47.3154370  48.9933671  22.1059455
  46.0106166  47.0501822  25.8869600  46.3620826  45.8822783  26.0537538
  46.6310341  48.0916473  26.4462698  46.3820045  49.0234647  26.1466035
  47.6918260  47.9434912  27.4550212  48.5206292  47.3739622  27.0345201
  48.2262059  49.3432296  27.9093036  48.6620329  49.8230052  27.0329649
  47.4529911  49.9870487  28.3285120  49.3295162  49.2546324  28.9501628
  50.6474473  49.1176651  28.5599287  50.8777934  49.1141939  27.4945516
  51.6899043  48.9834721  29.5108107  52.7243625  48.8875078  29.1809807
  51.3925792  48.9745937  30.8538609  52.1940794  48.8926417  31.5880144
  50.0583129  49.0709593  31.2792186  49.8223710  49.0235054  32.3423177
  49.0244207  49.2288495  30.3341748  47.9918297  49.3309309  30.6679935
  47.1532504  47.1567857  28.6846150  47.6804992  46.0791111  29.0145165
  46.0927553  47.6645465  29.3318315  45.6795247  48.5427908  29.0524990
  45.5636570  46.9921042  30.5446584  46.3987552  46.8699069  31.2344250
  44.4691292  47.8652671  31.2359771  43.6223230  47.9889496  30.5609053
  44.1356444  47.3741466  32.1501372  44.8843081  48.8430753  31.4801427
  45.0258235  45.5780468  30.2261886  45.2533169  44.6104955  31.0323983
  44.3438236  45.4299861  29.0867768  44.1456998  46.2252246  28.4964870
  43.8185185  44.0913319  28.6733890  43.1515431  43.7063698  29.4447820
  43.0308163  44.1928689  27.3436039  43.6496676  44.7375224  26.6305297
  42.8828513  43.1723786  26.9903248  41.6782909  44.8859353  27.4759329
  41.2102181  45.2478270  28.5896695  41.0924461  45.0712050  26.3775336
  44.9262701  43.0419255  28.5002483  44.7865415  41.8588249  28.9440419
  46.0639554  43.4473201  27.9137771  46.1557036  44.3813958  27.5407032
  47.1807884  42.5326180  27.7613796  46.8949170  41.6774901  27.1488985
  48.3665562  43.2540542  27.0799939  48.6174024  44.1349023  27.6709957
  49.6048117  42.3402032  26.9685095  49.3548517  41.4593029  26.3772107
  50.4159415  42.8839986  26.4843049  49.9196123  42.0308260  27.9651473
  47.9246115  43.6455896  25.7788921  48.6368141  44.0991048  25.3220643
  47.6019936  41.9837271  29.1173822  47.7976124  40.7409974  29.2865716
  47.7244097  42.8799851  30.1027420  47.5895402  43.8677352  29.9406952
  48.1632997  42.4398018  31.4567687  49.0216280  41.7738609  31.3679187
  48.5614331  43.6545720  32.3802340  47.7402635  44.3713528  32.3824188
  48.8524533  43.1840152  33.8583171  49.6738716  42.4675159  33.8569920
  49.1238510  44.0459757  34.4677986  47.9609128  42.7131023  34.2724407
  49.7943261  44.3273548  31.8093837  49.5796608  44.6867237  30.8029669
  50.0758974  45.1686369  32.4426780  50.6150763  43.6110900  31.7715037
  47.0847212  41.5807566  32.1333373  47.3880827  40.4763631  32.6692522
  45.8559783  42.1005312  32.1811096  45.6616249  43.0090370  31.7849489
  44.7682065  41.4041561  32.9107624  45.1169910  41.2107627  33.9251822
  43.4560118  42.2627956  32.9865584  43.1492013  42.5430413  31.9788734
  42.3275112  41.4386366  33.6598513  42.6334249  41.1584006  34.6678123
  41.4190310  42.0388365  33.7100948  42.1359483  40.5387063  33.0754449
  43.7003927  43.5261938  33.8422855  44.4937117  44.1228129  33.3919604
  42.7850988  44.1161844  33.8896970  43.9949865  43.2319686  34.8496320
  44.4908199  40.0332135  32.2900731  44.3373041  39.0159852  33.0009665
  44.5011684  39.9531750  30.9667245  44.6573986  40.7390545  30.3518384
  44.1794497  38.6536678  30.3665692  43.2766501  38.2586971  30.8324557
  43.9388340  38.7678565  28.8345682  44.7911343  39.3049635  28.4183959
  43.9218082  37.7522324  28.4391978  42.6368311  39.4915934  28.4454111
  41.8102712  38.9236581  28.8724346  42.6687874  40.4823086  28.8988032
  42.4268807  39.6337487  26.8782319  42.1306305  38.6610257  26.4856191
  41.6263561  40.3533531  26.7066820  43.6860365  40.1010479  26.1731701
  43.8072579  41.1661943  26.3703220  44.5305007  39.5556701  26.5945279
  43.6304523  39.8679115  24.6777983  42.8482747  40.3735323  24.2870994
  44.4874567  40.1937962  24.2541917  43.5185573  38.8809351  24.4948880
  45.2630075  37.6024896  30.6446319  44.9392518  36.4284804  30.8509779
  46.5388342  38.0069724  30.6082353  46.7869663  38.9552323  30.3646515
  47.5991473  37.0793130  30.9087435  47.5270083  36.1989767  30.2700705
  48.9532802  37.7599304  30.6556172  48.8414745  38.1474275  29.6429747
  49.1029845  38.5892294  31.3469578  50.1779750  36.8122384  30.7133779
  50.2089956  36.3529906  31.7014214  50.1031664  35.7212553  29.6474597
  50.0725792  36.1797530  28.6590554  50.9804092  35.0786516  29.7223336
  49.2030370  35.1255392  29.7990837  51.4711056  37.6231565  30.6150464
  51.5230760  38.3272621  31.4454884  52.3270409  36.9495353  30.6564061
  51.4860471  38.1713872  29.6730705  47.4885046  36.6451834  32.3845988
  47.7099020  35.4597382  32.7294810  47.1978001  37.5992149  33.2598695
  47.0282205  38.5531933  32.9747952  47.1290182  37.2708695  34.7224806
  48.0729997  36.8363463  35.0513997  46.8666346  38.5337597  35.5315228
  46.0678769  39.0786793  35.0283847  46.5474565  38.2715112  36.5402106
  48.1129101  39.4573664  35.6292981  49.2024696  39.0552762  35.3354398
  47.9034888  40.6837919  36.0854035  48.6776647  41.3269222  36.1698723
  46.9706610  40.9697641  36.3464650  45.9996049  36.2588436  34.9505554
  46.1624964  35.3126267  35.7510689  44.8465603  36.4763682  34.2988159
  44.6690057  37.3127100  33.7611300  43.7348587  35.5075749  34.4823234
  43.6198916  35.3313852  35.5518275  42.3810772  35.9734545  33.9115994
  42.5738029  36.2062835  32.8643426  41.6500070  35.1675062  33.9755030
  41.8266944  37.2306312  34.6259798  42.5832684  38.0141085  34.6691092
  40.6364547  37.7191391  33.8113520  39.8792097  36.9363150  33.7681620
  40.2138257  38.6072176  34.2812478  40.9631607  37.9640482  32.8007170
  41.4480015  36.9113725  36.0911667  42.3310583  36.5646986  36.6279416
  41.0612998  37.8103441  36.5711804  40.6843828  36.1337562  36.1084400
  44.1109741  34.1384985  33.9192844  43.7413332  33.0726519  34.5060320
  44.8434949  34.1265790  32.7986376  45.0712229  34.9779376  32.3052536
  45.2807876  32.8388485  32.2147615  44.4176800  32.1827235  32.1023135
  45.9273298  33.0362461  30.8414963  46.4778534  33.9769635  30.8500814
  46.6188171  32.2128169  30.6628634  44.9019816  33.0695748  29.7554119
  44.7269926  32.0269526  29.4900467  43.9659851  33.5229078  30.0817580
  45.3999052  33.8150665  28.5110586  46.6004084  34.1348636  28.3946639
  44.4682157  34.1686861  27.6301443  44.7334647  34.6624336  26.7899313
  43.4997638  33.9418357  27.8054757  46.2413316  32.1445388  33.1714298
  46.1532919  30.9036049  33.3673331  47.1266191  32.9118686  33.8099844
  47.2330600  33.8922378  33.5917049  48.0762879  32.2977191  34.7725744
  48.4583446  31.3687182  34.3493849  49.2766360  33.2301114  35.0868849
  49.8479790  33.3824344  34.1712081  48.8910820  34.1874755  35.4374591
  50.2012679  32.6112234  36.1790924  49.5599342  32.3022322  37.0045113
  50.6742301  31.7333874  35.7388507  51.2930216  33.5756025  36.7068441
  51.9916092  33.7524559  35.8890438  50.7989803  34.5107203  36.9706190
  52.0773714  33.0256563  37.9572823  51.3712711  32.9681441  38.7856633
  52.4268214  32.0236909  37.7081855  53.2801205  33.9028219  38.3666835
  52.9564749  34.8311891  38.5979570  53.7359296  33.4951810  39.1705286
  53.9347341  33.9558935  37.5993742  47.3455489  31.8511548  36.0490107
  47.6314491  30.7751764  36.5986620  46.3484981  32.6067520  36.4900964
  46.1634503  33.5198783  36.1001515  45.5044978  32.1388463  37.6131983
  46.1202953  32.0160641  38.5041625  44.3900370  33.1441204  37.9229015
  44.9466919  34.0238229  38.2459464  43.8265734  33.3823991  37.0207752
  43.4153758  32.7141245  39.0391085  42.8918563  31.8135505  38.7181806
  44.1876364  32.4221523  40.3851723  44.7110625  33.3224601  40.7069952
  43.4766734  32.1211882  41.1546220  44.9090025  31.6209818  40.2243704
  42.3173684  33.7592113  39.2161722  41.7638962  33.8670926  38.2833649
  41.6374151  33.4421949  40.0069095  42.7654722  34.7158183  39.4848821
  44.9011211  30.7635708  37.2718363  44.8894172  29.8623069  38.1280420
  44.3600970  30.6281304  36.0727288  44.2944857  31.4006125  35.4253758
  43.7584509  29.3482288  35.6901013  42.9718711  29.1303546  36.4125431
  43.1374741  29.4305436  34.3066212  43.9142465  29.6392194  33.5709724
  42.6560237  28.4824710  34.0669042  42.3958278  30.2291040  34.2876143
  44.7817795  28.1865369  35.7536665  44.4663617  27.0954878  36.2939632
  45.9851062  28.4300704  35.2179713  46.1434730  29.3053199  34.7394763
  47.0676078  27.4125259  35.2017677  46.7297239  26.5000197  34.7105793
  48.2877310  27.9734345  34.4216877  48.5438919  28.9432893  34.8481423
  49.5338505  27.0232083  34.4983841  49.2785789  26.0532373  34.0716613
  50.3598399  27.4603540  33.9373633  49.8300786  26.8949431  35.5394881
  47.8718980  28.1185830  33.0531045  48.6003046  28.4647684  32.5323552
  47.4278193  26.9634545  36.6076086  47.4592660  25.7424568  36.9013462
  47.6618172  27.9460585  37.4830282  47.5990540  28.9053534  37.1733293
  48.0731047  27.6918029  38.8414135  48.9131770  27.0053735  38.9472079
  48.4169539  29.0141521  39.5789677  47.6218868  29.7312250  39.3745806
  48.5550488  28.8140711  41.1316078  49.3502928  28.0974264  41.3368108
  48.7959195  29.7677040  41.6013588  47.6148486  28.4381108  41.5350667
  49.6435588  29.6644480  38.9536032  49.4441448  29.8838573  37.9047011
  49.8730174  30.5905094  39.4807261  50.4928270  28.9851498  39.0270767
  46.9867782  26.9193825  39.5811177  47.2897472  25.8593278  40.2111811
  45.7336141  27.3908468  39.5091581  45.5410109  28.2600320  39.0321672
  44.6309765  26.7268381  40.2208826  44.9633583  26.6382329  41.2551798
  43.3451476  27.5604440  40.1893513  42.9949517  27.6503766  39.1610639
  42.5796580  27.0714735  40.7918741  43.5451134  28.5531451  40.5926594
  44.3694342  25.2885220  39.6974599  44.1237116  24.3568662  40.4896997
  44.4417375  25.1240714  38.3809094  44.5564492  25.9292779  37.7820912
  44.2201788  23.8098410  37.7502716  43.3055649  23.3668164  38.1443651
  44.0840940  23.9431223  36.2309895  44.8575713  24.6123706  35.8542419
  44.1962288  22.9623862  35.7687316  42.7034212  24.5142773  35.8883487
  41.9612996  23.7498916  36.1187202  42.5674545  25.3649248  36.5561893
  42.5379589  24.9525723  34.4995259  43.5090350  24.7982323  33.7263769
  41.4352033  25.4318839  34.1390864  45.3308143  22.8165701  38.1810940
  45.0514200  21.6616653  38.5394271  46.5677515  23.2756595  38.2132227
  46.8058294  24.1822147  37.8369569  47.6443527  22.4303568  38.7115441
  47.6045527  21.4879359  38.1653226  48.9724963  23.0729422  38.4604475
  49.0309917  24.0135118  39.0081767  49.7679020  22.4075435  38.7961180
  49.0872556  23.2664318  37.3939151  47.4591083  22.0940476  40.2053656
  47.6637509  20.9400290  40.6200951  47.0878036  23.0845815  41.0217708
  47.0706333  24.0415905  40.6993762  46.7882458  22.8216131  42.4280847
  47.6444966  22.3255953  42.8851407  46.4950267  24.0974042  43.2027650
  45.7753986  24.6851929  42.6329062  46.0588717  23.8213678  44.1628029
  47.7295244  24.9075224  43.4314435  48.4080012  24.3464993  44.0741123
  48.2118940  25.0974075  42.4726082  47.3337175  26.4809192  44.2176404
  46.8558194  26.0063713  45.8925857  47.6887013  25.4980097  46.3783585
  46.5927809  26.8976762  46.4622232  45.9970152  25.3364934  45.8499212
  45.6422068  21.8419980  42.6056904  45.7065390  21.0020685  43.5100790
  44.6350362  21.9216160  41.7318956  44.6399318  22.6699985  41.0536634
  43.4740823  21.0369306  41.7783262  43.0817137  21.1052322  42.7929596
  42.3854843  21.4911246  40.8009055  42.7603919  21.4196935  39.7799051
  41.5085567  20.8531543  40.9108700  42.1118230  22.5241625  41.0154783
  43.8476185  19.5576001  41.5280225  43.2667834  18.6677964  42.1559030
  44.7848857  19.3109038  40.6168435  45.1404454  20.0727773  40.0571780
  45.2841704  17.9317494  40.3345229  44.4164760  17.2775938  40.2491653
  46.0510875  17.9060906  39.0037044  45.4035007  18.2646525  38.2036019
  46.9279314  18.5494651  39.0766010  46.4924086  16.4785419  38.6988031
  47.1404463  16.1194330  39.4982960  45.6160166  15.8346199  38.6252941
  47.2537381  16.4530695  37.3776848  46.6061529  16.8116330  36.5775820
  48.1305825  17.0964428  37.4505832  47.6987637  15.0805153  37.0483697
  47.4714815  14.3334678  37.6889649  48.3843063  14.7858672  35.9474090
  48.7207451  15.7146901  35.0569051  48.4535499  16.6766555  35.2096449
  49.2418832  15.4538033  34.2320095  48.7340978  13.5179247  35.7502580
  48.4770238  12.8150397  36.4284658  49.2551967  13.2637622  34.9232416
  46.1749302  17.3791107  41.4731815  46.2650723  16.1555674  41.6805225
  46.8368755  18.2841177  42.2017209  46.6999475  19.2575924  41.9699946
  47.8702269  17.9409998  43.1947269  48.3963220  17.0344867  42.8954658
  48.8953938  19.0984316  43.2941775  49.7905191  18.8168783  42.7395806
  48.4497493  19.9828951  42.8389575  49.2990690  19.4395185  44.7384191
  49.7147636  18.5701219  45.5033619  49.1784704  20.7278098  45.1060026
  49.4295362  21.0079552  46.0433309  48.8374009  21.4091392  44.4430073
  47.3243198  17.5057268  44.5623478  46.2270579  17.9079808  44.9759502
  47.9318240  16.6823863  45.2431479  49.7688703  46.9671784  35.5149218
  48.5202364  47.0256243  34.8846681  47.4642157  46.2217109  35.3173809
  47.6617288  45.3508314  36.3962658  48.8905930  45.2821367  37.0666334
  49.9428530  46.0980010  36.5993224  51.3121843  48.9447771  35.5995456
  50.9952283  49.3973369  36.6934325  50.7793518  47.8094330  35.0086350
  50.6509904  47.9749144  34.0161950  53.0058060  48.5944590  33.7725700
  52.3795139  49.6122595  34.7259715  51.7942851  50.7823176  33.9367426
  49.1134925  44.3779378  38.2512270  48.3483840  44.7162215  39.3237754
  50.3971838  44.4092330  38.7076459  48.8546562  43.0740263  37.9756228
  46.5399263  44.5074686  36.7885990  45.7508751  44.9727856  37.6202734
  46.4438722  43.4065519  36.2355745  48.3476435  47.7064474  34.0523265
  46.5005455  46.2743510  34.8133454  50.9130054  46.0760108  37.0965343
  52.3466734  48.3188747  32.9432031  53.9075192  49.0243190  33.3209566
  53.3133277  47.6821716  34.2963220  53.1620138  49.9775315  35.4027257
  50.9935255  50.4497303  33.2666443  51.3624127  51.5261242  34.6158627
  52.5653407  51.2760325  33.3362630  39.0675387  61.6159568  35.4627077
  44.3076885  15.3060459  46.3964796  32.6525999  58.6479917  26.9434852
  53.3747042  48.8072941  52.5560623  27.8924933  28.9121254  52.3915173
  14.9690083  21.1180163  39.1607659  72.8149281  54.7625009  26.0297169
  29.7041418   7.9026109  40.0411141   8.4980040  14.1958025  52.7952752
  38.8944665  44.1335594  81.6968168  62.0957174  31.5539005   0.5696642
   4.2442398   9.9250092  31.4739184  48.6570832  19.2030320  12.6122894
   4.8619287  33.2032673  56.9969799  29.8346855  -0.8915097  26.6632846
  58.0839824  21.3250473  53.2363236  16.3767416  63.0590698  59.6337810
  30.1045373  23.0344227  24.1588225  76.2915021  37.4416177  43.1903812
  54.7404283  69.1989573  25.0385396  10.0108143  22.1230599  32.1393058
  31.2998817  54.3231129   2.2647854   1.6232365  35.9538726  23.3303560
  42.8437439  52.4044141  71.7357272  11.7697293  70.6523163  26.1085785
  20.8870779  36.6936380  18.8159999  10.0872403  52.2889638  45.0568087
  67.6986589  26.0267987  45.5294905  56.6306391  36.4752493  80.4698001
  18.9463743   9.4494636  34.7908461  50.6190727  65.1073600  41.2905716
  77.6598847  29.2651767  24.2341864  59.0219677  78.2743806  37.7592803
  50.6382013  20.5409947   5.9380188  22.6389878  59.3609410  22.6564070
   9.4689884  64.3171194  29.7926048  15.4108338   9.4828321  19.9430518
  60.4047216  61.5378337  41.2891575  51.4564599  83.3949751  31.0454116
  15.1922901  20.9601322  65.5662205  31.6383141  20.7079874  56.7711501
  59.7351139  26.2077607  75.5157337  38.9493149  50.9288521  72.3524007
   7.5484922  29.7346819  33.6398627  21.4062549  46.6746891  29.1878421
  19.9793306  29.6514630  50.0022034  42.5286770  44.6685127   5.7500045
  12.9241103  34.0609528  51.8993708  45.8161861  64.3969441  19.9063586
  53.0259695  36.7314132  14.2394184  57.3471933  21.4332968  60.2401059
  74.2820938  25.7757898  57.1506802  27.2345297  63.6377545  77.2768024
  29.0035304  15.9084487  12.6902577  78.5909356  34.6386928  62.7234651
  25.9605465  55.0967433  -1.9856336  62.2969699  23.4238075  30.6081231
  65.5036498  38.3434823  54.6180102  13.4387586  47.2969037  48.3943527
  70.1801728  18.8219887  36.0442838   5.2027947  62.5401224  44.2210847
  44.8358880  38.2103487  85.8679295  44.3070352  38.4263120  86.5276601
  45.3583900  38.9039625  85.7880265  44.8347333  38.3446624  85.9534894
  36.7258488  42.1066703  84.6686763  36.1415703  42.6116735  85.0752627
  36.3228583  41.8809090  83.9283355  36.5797792  42.1474952  84.6191788
  41.1835703  38.3532355  83.1455684  41.4231706  38.5610339  82.3331027
  41.5051544  37.5489864  83.2544628  41.2672860  38.2646457  83.0416237
  34.3945084  35.9670243  82.2015808  33.6803262  35.6808422  82.6138240
  34.8789053  36.3066869  82.8422195  34.3604448  35.9751892  82.3571443
  41.5692402  44.4700197  82.5777616  41.9843551  44.1385221  81.8862112
  40.7384332  44.2369099  82.4497753  41.5080411  44.3871453  82.4568463
  44.2625793  40.7210756  81.7638817  44.1805955  40.7912943  82.6293804
  44.9005513  41.2840500  81.5722558  44.3445630  40.8149727  81.8628767
  41.3665903  40.7431210  84.7747424  42.1806542  41.0346103  84.6630195
  41.3025044  40.0891073  84.2005717  41.4768642  40.6896405  84.6736261
  37.8776626  39.4355018  84.2394625  38.2621779  39.2162724  84.9911170
  37.6288246  40.2617963  84.3695702  37.8978699  39.5253164  84.3695702
  42.8041925  43.9593010  80.1163229  43.5714910  44.0193135  79.7069081
  42.3573234  43.3873452  79.6319548  42.8515352  43.8829586  79.9840939
  38.8516525  40.2311777  81.5800339  39.1409050  41.0076659  81.8543914
  38.9388324  39.7200508  82.2814839  38.9070782  40.2703695  81.7242837
  43.6448144  35.6245040  85.8354026  43.1171163  35.7073784  85.1459735
  44.1043852  36.3662911  85.8318671  43.6349995  35.7465702  85.7328721
  35.6381209  33.8947559  80.8594921  35.2894014  34.5467285  81.3226471
  35.1577655  33.8804673  80.1318792  35.5151453  33.9890613  80.8206013
  36.0405341  37.3873201  83.7013543  36.6750420  37.9833626  83.6363004
  36.1230951  37.0876659  84.5159413  36.1461891  37.4314109  83.8116629
  40.6795434  35.2595300  85.1749649  40.0860274  35.5812297  84.6234216
  40.7170712  34.4136396  84.9670755  40.5969824  35.1819628  85.0632420
  38.6524667  35.8992551  83.2678978  39.0323632  35.9172180  82.4830093
  37.9117263  36.3446540  83.1469826  38.5993504  35.9674325  83.1342547
  39.4509421  42.7370057  84.6587768  38.6420744  42.4136731  84.6121078
  39.9584330  42.0303279  84.5916017  39.4059088  42.5851373  84.6418063
  48.0545391  15.2236877  74.7189007  48.0239395  16.0781514  74.8907277
  48.6526740  14.9232170  75.2775151  48.1382549  15.3053374  74.8263809
  35.6386216  23.8475246  75.2379169  34.8869115  23.4690785  75.0095214
  36.0872227  23.8793680  74.4897979  35.5935882  23.7960853  75.0936671
  41.0911175  24.2700616  70.6664716  40.7562544  24.9477537  70.2308938
  41.6038046  23.8805927  70.0781588  41.1176757  24.3125194  70.5151508
  40.6315467  26.2214884  76.6075828  41.0154846  26.7901783  76.0680603
  40.5674608  25.4964395  76.1281644  40.6788894  26.1990348  76.4569690
  45.8761966  17.7989179  72.9907317  45.7601491  18.5496865  73.4199455
  46.6717852  17.5413133  73.2403404  45.9766555  17.8724026  73.0911409
  37.0571711  28.7771227  78.9056798  37.7009167  29.2184392  79.2952956
  37.3827967  27.9724654  78.8187056  37.2003540  28.7236422  78.9502275
  37.7592291  21.7883202  74.2776659  38.0808132  22.3288410  73.6737968
  38.4064388  21.2179974  74.4098949  37.9018346  21.7842378  74.2083695
  39.9981934  20.1769642  74.3490838  40.4375570  19.5686743  74.7945610
  39.8486597  19.7977016  73.5776303  40.0403400  20.0308113  74.3010005
  43.5991271  18.5296824  71.3021607  43.5142566  19.3857790  71.4471176
  44.0875654  18.2541148  71.9703766  43.6580168  18.6154145  71.4223688
  44.5309704  15.1481618  72.8019342  44.0021176  15.3641251  73.4616648
  45.0534724  15.8417756  72.7220311  44.5298157  15.2824755  72.8874941
  49.9857757  20.7227922  78.1752386  49.1555460  20.9338566  78.3385803
  49.9367009  19.8964977  77.8994670  49.8564493  20.6317529  78.1589752
  36.4209312  19.0444835  71.6026810  35.8366527  19.5494866  72.0092674
  36.0179407  18.8187221  70.8623402  36.2748616  19.0853083  71.5531835
  40.8786526  15.2910487  70.0795731  41.1182530  15.4988470  69.2671074
  41.2002367  14.4867995  70.1884675  40.9623684  15.2024588  69.9756284
  47.2422072  21.3927277  78.3117102  46.8057304  21.3964019  79.0676074
  46.9084988  22.0732776  77.8796680  47.1284692  21.4939732  78.3597935
  50.3766419  18.1108197  77.2036739  51.0382853  17.5498865  77.1032648
  49.7357831  17.6160227  77.5289431  50.3795286  17.9544606  77.2369080
  41.2643226  21.4078328  69.5117663  41.6794375  21.0763352  68.8202158
  40.4335156  21.1747230  69.3837799  41.2031235  21.3249584  69.3908510
  46.6631249  19.1273579  76.9448728  46.8986838  19.2718778  76.1175579
  46.8120813  19.8915987  77.3380242  46.7197053  19.2612633  76.8812332
  48.4921706  17.9675245  74.7818332  48.8229923  18.5002885  74.1758427
  49.0654794  18.0214133  75.4380283  48.6255385  18.0544814  74.7896114
  43.9576616  17.6588887  68.6978864  43.8756779  17.7291075  69.5633851
  44.5956337  18.2218631  68.5062605  44.0396454  17.7527858  68.7968814
  41.0616727  17.6809342  71.7087471  41.8757365  17.9724234  71.5970242
  40.9975868  17.0269204  71.1345764  41.1719466  17.6274536  71.6076308
  37.5727450  16.3733149  71.1734672  37.9572603  16.1540856  71.9251217
  37.3239070  17.1996094  71.3035748  37.5929523  16.4631295  71.3035749
  37.8550693  24.5938025  73.2467042  38.1448991  24.2027006  72.5226269
  38.5854173  24.7754730  73.6872318  38.0057577  24.5631839  73.2049849
  35.7956608  26.5705407  76.3127192  35.5756904  26.2802762  77.1053859
  35.5751130  25.9120362  75.7845104  35.7304202  26.4305116  76.3516101
  37.9624564  27.9434797  75.0957884  38.6148622  27.4111239  75.3248911
  37.2650173  27.5903449  75.4825759  37.9555282  27.8124320  75.1870052
  45.9564482  20.2639211  74.4388864  46.5222515  20.9232421  74.3547407
  45.3092386  20.6088909  74.9105266  45.9443239  20.4121152  74.4961620
  42.4271060  23.2077995  73.8625943  42.1857736  22.4745856  73.4553008
  42.6072393  23.7564852  73.2092276  42.4178684  23.1800387  73.7056166
  47.1527180  20.3145439  71.2314500  46.7733989  19.5282577  71.2243790
  46.4893426  20.8632296  71.0886144  46.9985655  20.2790263  71.2095297
  39.9774088  23.8658958  75.0703327  40.7423979  23.5968602  74.7485991
  39.8752178  23.3808968  75.7873389  40.0755584  23.7548523  75.1283154
  42.4992749  20.8971142  67.0503276  43.2665734  20.9571267  66.6409128
  42.0524058  20.3251583  66.5659594  42.5466176  20.8207717  66.9180986
  45.3987279  22.5590930  71.5666186  45.4807116  23.3657916  71.2427637
  45.8837021  22.5786889  72.2906960  45.4824437  22.6811592  71.6253085
  41.0345372  17.1085701  74.5357600  41.5760917  16.6056082  74.9996220
  41.3491931  17.0550896  73.7247085  41.1609769  17.0265122  74.4841412
  39.2031822  22.5003052  71.8197628  39.2724642  21.6417591  71.9590628
  39.9820277  22.7174933  71.4916652  39.3284672  22.4055916  71.7914785
  43.5939309  24.9240754  76.0334121  43.2019101  24.6207469  75.3156987
  43.7492381  25.7609844  75.8439075  43.5592899  25.0024590  75.8990618
  43.7578984  21.4890742  75.9740152  43.3993639  21.6605385  76.7504184
  43.2717695  21.9503948  75.4168150  43.6337681  21.5829714  76.0065421
  38.5467349  17.1689908  68.5140386  38.8359874  17.9454790  68.7883960
  38.6339148  16.6578639  69.2154885  38.6021606  17.2081826  68.6582884
  44.3629614  24.3276246  79.4664155  44.1649303  24.8167061  78.7720367
  43.7417325  24.5317488  80.0448289  44.2417179  24.4292785  79.4487379
  43.3398968  12.5623171  72.7694073  42.8121987  12.6451915  72.0799782
  43.7994676  13.3041043  72.7658718  43.3300819  12.6843833  72.6668768
  35.3332033  10.8325691  67.7934968  34.9844838  11.4845416  68.2566517
  34.8528479  10.8182804  67.0658839  35.2102277  10.9268744  67.7546059
  42.8936051  21.1326735  71.9003730  43.6170250  21.5984848  71.7568303
  42.4536642  21.2000344  71.1501327  42.9351743  21.2110571  71.7688511
  43.1539900  25.1947440  72.0601791  42.4369210  25.0208302  71.5949028
  43.8046638  24.9600012  71.5277277  43.1441751  25.1343232  71.9131009
  38.4353062  26.4309198  78.4891939  38.0213461  25.7683328  78.0995781
  39.1200437  26.5787057  77.9687633  38.4751434  26.3549856  78.3548436
  41.8018356  25.5899283  79.2415556  41.4034640  25.7001554  78.4736376
  41.1869576  25.7981350  79.8242115  41.6517246  25.6372851  79.2146855
  49.5360199  20.1651250  72.6258646  49.9193805  20.9142606  72.8556743
  48.7404312  20.4117070  72.3670635  49.4753981  20.3120944  72.6216220
  38.3475491  12.8370682  70.2019025  38.7274456  12.8550311  69.4170140
  37.6068087  13.2824671  70.0809873  38.2944328  12.9052457  70.0682593
  39.1460245  19.6748188  71.5927815  38.3371567  19.3514862  71.5461125
  39.6535154  18.9681410  71.5256064  39.1009912  19.5229505  71.5758110
  59.0277975  30.7422185  74.7189007  58.9971979  31.5966822  74.8907277
  59.6259323  30.4417478  75.2775151  59.1115132  30.8238682  74.8263809
  52.2277659  29.8297836  79.4741938  51.3715555  29.9906334  79.5251054
  52.2745313  28.9589900  79.4946999  52.1076771  29.7248638  79.4848004
  46.6118799  39.3660554  75.2379169  45.8601699  38.9876092  75.0095214
  47.0604811  39.3978988  74.4897979  46.5668466  39.3146161  75.0936671
  52.0643759  39.7885924  70.6664716  51.7295127  40.4662845  70.2308938
  52.5770629  39.3991235  70.0781588  52.0909340  39.8310502  70.5151508
  51.6048050  41.7400192  76.6075828  51.9887430  42.3087091  76.0680603
  51.5407192  41.0149703  76.1281644  51.6521478  41.7175656  76.4569690
  55.0729480  31.8889880  82.1173589  55.6185440  32.5674967  82.1767559
  55.0146357  31.7477341  81.2575171  55.1445395  31.9681882  81.9985650
  48.1903555  39.3778946  77.5041942  48.2913918  38.5679300  77.8139069
  47.5945301  39.2835893  76.8741620  48.1176094  39.2443974  77.4568180
  56.8494549  33.3174487  72.9907317  56.7334075  34.0682173  73.4199455
  57.6450436  33.0598441  73.2403404  56.9499139  33.3909334  73.0911409
  48.0304295  44.2956535  78.9056798  48.6741750  44.7369699  79.2952956
  48.3560550  43.4909962  78.8187056  48.1736124  44.2421730  78.9502275
  41.3868600  35.3999233  77.1294275  41.1518784  34.5666885  77.0226544
  41.5254240  35.6803899  76.3155476  41.3724262  35.3182736  76.9936630
  43.6858687  27.5684963  80.0278583  43.0663719  26.9777611  79.8588598
  43.5842551  28.1596399  79.3942906  43.5796363  27.5689046  79.9083573
  48.7324875  37.3068510  74.2776659  49.0540716  37.8473718  73.6737968
  49.3796971  36.7365282  74.4098949  48.8750930  37.3027685  74.2083695
  50.7826583  29.3084505  74.3611046  51.4806747  29.4872633  74.8532509
  51.0978915  28.7854845  73.7381435  50.9321920  29.2578277  74.3413056
  43.4127820  31.1137245  82.2722152  43.2886517  31.6999691  82.9071971
  44.0646105  30.6197441  82.5734427  43.4901469  31.1276050  82.4108081
  50.9714518  35.6954950  74.3490838  51.4108154  35.0872051  74.7945610
  50.8219181  35.3162324  73.5776303  51.0135984  35.5493421  74.3010005
  48.4386161  34.2898962  81.5509663  49.0835164  33.7971405  81.2320612
  48.6787938  34.4323749  82.3775741  48.5696746  34.2376404  81.6259196
  50.9772252  37.1353868  81.2016556  51.2595495  36.3405274  80.9803312
  51.7058413  37.6134455  81.2221617  51.1261816  37.0888465  81.1719571
  48.9553446  24.6776902  78.4432321  48.6256776  25.1288045  77.7736019
  48.2798448  24.5993065  78.9905327  48.8063883  24.7328037  78.4255544
  54.5723855  34.0482132  71.3021607  54.4875150  34.9043098  71.4471176
  55.0608238  33.7726456  71.9703766  54.6312752  34.1339453  71.4223688
  56.1629854  20.6662425  76.6881931  55.8483295  21.3565903  77.1202354
  55.6456796  20.6107207  75.9867432  56.0394324  20.7597313  76.6478881
  55.5042288  30.6666926  72.8019342  54.9753759  30.8826559  73.4616648
  56.0267308  31.3603064  72.7220311  55.5030741  30.8010063  72.8874941
  60.9590341  36.2413230  78.1752386  60.1288044  36.4523874  78.3385803
  60.9099593  35.4150285  77.8994670  60.8297076  36.1502836  78.1589752
  47.3941896  34.5630142  71.6026810  46.8099111  35.0680174  72.0092674
  46.9911991  34.3372529  70.8623402  47.2481199  34.6038391  71.5531835
  42.9485924  40.2784904  78.4050482  42.4653503  41.0035393  78.3810065
  43.7609243  40.5761034  78.5160639  42.9976672  40.4287257  78.4177761
  49.0200078  39.0717084  81.0100296  48.5027020  38.7124499  80.4061604
  49.7174470  38.5479259  81.0206362  49.0465659  38.9414772  80.9230555
  51.8519110  30.8095795  70.0795731  52.0915114  31.0173778  69.2671074
  52.1734951  30.0053303  70.1884675  51.9356268  30.7209896  69.9756284
  47.1609400  22.7389190  73.9255268  47.9155368  23.1067507  73.6872319
  46.9836935  23.1128745  74.6934448  47.2463879  22.8487378  74.0040157
  45.8030122  40.7941080  78.5570761  46.5050701  40.2793069  78.6143518
  45.7227605  41.1215231  79.3617636  45.8953882  40.7655306  78.6843554
  45.5166465  25.1459509  70.6233381  45.3342038  25.3631390  69.7974374
  46.3792078  25.2598522  70.6791996  45.6171054  25.1949407  70.5087869
  45.1280897  36.9847432  78.0656369  45.9669796  37.2170364  78.1130131
  45.1592666  36.1151743  77.9963405  45.2562615  36.8904378  78.0621014
  45.7533600  37.4048307  82.3669675  46.2931825  37.2619438  83.0373047
  45.0703546  37.8045057  82.7353701  45.7325754  37.4427978  82.5204097
  51.1966184  22.1485920  73.6582405  51.9252345  21.9701875  73.2120562
  51.2861077  22.9904000  73.8689583  51.3172846  22.2469798  73.6235923
  55.1774485  33.0839307  77.5614699  55.9332000  33.5170822  77.6003608
  55.2836809  32.4344077  78.1349335  55.3044655  33.0516791  77.6512725
  58.2154656  36.9112585  78.3117102  57.7789888  36.9149327  79.0676074
  57.8817571  37.5918084  77.8796680  58.1017276  37.0125040  78.3597935
  41.1570745  33.6248598  82.5204096  40.8909160  32.8087714  82.6795087
  41.1709309  33.6701753  81.6499612  41.1195467  33.5105502  82.4157578
  45.0628492  28.4233682  69.1355855  44.3486669  28.1371861  69.5478287
  45.5472461  28.7630308  69.7762242  45.0287855  28.4315332  69.2911489
  61.3499002  33.6293504  77.2036739  62.0115436  33.0684173  77.1032648
  60.7090414  33.1345535  77.5289431  61.3527870  33.4729914  77.2369080
  52.2375810  36.9263636  69.5117663  52.6526958  36.5948660  68.8202158
  51.4067740  36.6932538  69.3837799  52.1763819  36.8434892  69.3908510
  41.5664159  34.4107377  79.8015841  41.3839732  34.3854263  78.9488133
  42.3013828  34.8806315  79.8404749  41.6478223  34.4768739  79.6813759
  57.6363833  34.6458887  76.9448728  57.8719422  34.7904086  76.1175579
  57.7853397  35.4101295  77.3380242  57.6929636  34.7797941  76.8812332
  59.4654290  33.4860553  74.7818332  59.7962507  34.0188193  74.1758427
  60.0387378  33.5399441  75.4380283  59.5987969  33.5730122  74.7896114
  54.6786179  31.3325456  75.4641912  54.7733033  32.0714750  75.9181538
  54.0545022  30.9042931  75.8976477  54.5995209  31.3786776  75.5950060
  41.5335069  31.2900878  79.9514907  42.1108572  31.1537328  80.5907153
  40.8349131  30.8336662  80.2060492  41.5156090  31.2023144  80.0837197
  54.9309200  33.1774195  68.6978864  54.8489363  33.2476382  69.5633851
  55.5688921  33.7403939  68.5062605  55.0129037  33.2713166  68.7968814
  48.2902371  32.9434933  78.1653391  48.0321615  32.1106668  78.1384690
  48.3450854  33.1692546  77.3245891  48.2602149  32.8532705  78.0373527
  53.3703421  25.0463384  78.2657483  52.6659748  24.5572569  78.4241402
  53.4188396  25.0585858  77.3945928  53.2733473  24.9753032  78.1596823
  47.2637083  30.4972696  78.6518285  46.6886675  30.6564864  79.2882246
  46.8872760  29.8608105  78.1886736  47.1239896  30.4270509  78.6772844
  50.9310372  28.9696045  83.5110664  50.5424805  28.5450263  82.8562855
  50.2665070  29.2178195  84.0187690  50.7757300  28.9434766  83.4898532
  60.5733641  28.7271050  76.2858494  60.3170206  27.9150991  76.0956377
  61.4162955  28.7348617  76.0588681  60.6599667  28.6083047  76.2243311
  37.0093902  30.1412770  76.6662726  37.0954154  29.7644639  77.4476256
  37.6369700  29.7673216  76.1882684  37.1150453  30.0298253  76.7108203
  52.0349310  33.1994650  71.7087471  52.8489949  33.4909542  71.5970242
  51.9708452  32.5454512  71.1345764  52.1452049  33.1459844  71.6076308
  47.9057219  36.6716167  76.8359783  48.5431165  36.4327915  77.3811576
  48.3312290  36.8753326  76.1012943  48.0633385  36.6667177  76.8076940
  42.5969861  38.9104504  80.7194087  42.6374006  39.1819355  79.8913866
  43.1564385  39.4346412  81.1351874  42.6853207  39.0280259  80.6585975
  48.5460034  31.8918457  71.1734672  48.9305186  31.6726164  71.9251217
  48.2971654  32.7181402  71.3035748  48.5662106  31.9816603  71.3035749
  50.2878690  37.1488590  78.5153569  50.3617699  36.9863762  79.3695419
  51.1048197  37.3378779  78.2714051  50.4195049  37.1525332  78.6051595
  44.0484447  37.4946452  75.5448012  43.2222565  37.7408190  75.4182291
  44.1096438  37.4158533  76.4110071  43.9358614  37.5191401  75.6536957
  46.2660471  23.5615393  76.5043453  45.3982896  23.6337993  76.5701062
  46.5535675  24.3637472  76.6931428  46.1800219  23.6909541  76.5418219
  48.8283276  40.1123333  73.2467042  49.1181575  39.7212314  72.5226269
  49.5586757  40.2940038  73.6872318  48.9790160  40.0817146  73.2049849
  49.4178021  34.9141079  84.3320173  48.9189715  35.6256846  84.4105061
  50.2278246  35.2341745  84.2938335  49.4634128  35.0667927  84.3376741
  46.7689192  42.0890715  76.3127192  46.5489487  41.7988070  77.1053859
  46.5483714  41.4305670  75.7845104  46.7036786  41.9490424  76.3516101
  45.6806139  34.1764032  78.5782894  45.3919388  33.5501503  79.1128621
  46.5489487  34.1184319  78.6447574  45.7666391  34.0751576  78.6673848
  56.4684037  29.3198815  78.8964876  56.1248803  28.5989150  79.2472125
  56.5677079  29.1112666  78.0543234  56.4326080  29.1823018  78.8236556
  48.9357147  43.4620105  75.0957884  49.5881206  42.9296547  75.3248911
  48.2382756  43.1088757  75.4825759  48.9287865  43.3309628  75.1870052
  45.8838412  35.8159283  74.5025259  46.6384380  36.1972322  74.7160721
  45.2909025  36.2670426  74.9571955  45.9075126  35.9388110  74.6008137
  56.9297066  35.7824519  74.4388864  57.4955098  36.4417729  74.3547407
  56.2824969  36.1274217  74.9105266  56.9175822  35.9306460  74.4961620
  47.2036639  36.9867844  79.8765374  46.6817392  37.1268136  80.5617239
  47.5910659  36.2278508  80.0667492  47.1840340  36.8953368  80.0066451
  44.1927823  27.0373653  73.9460329  43.9052619  26.6674923  73.2092276
  44.8798291  27.5068508  73.6844034  44.2516720  27.0520622  73.7975405
  53.4003644  38.7263303  73.8625943  53.1590320  37.9931164  73.4553008
  53.5804977  39.2750160  73.2092276  53.3911268  38.6985694  73.7056166
  48.6302965  34.0171863  75.2746865  48.4345747  34.6246598  74.6807168
  48.8537310  33.3239807  74.7938539  48.6337606  34.0049389  75.1162946
  47.0281495  30.9026601  75.3927734  47.7504146  31.0667759  74.9331540
  46.5489487  31.6236266  75.2867073  47.0645225  31.0324831  75.3093348
  54.9875002  27.2390400  80.7724419  54.1486103  27.2651679  80.5362682
  55.0579369  27.8861135  81.3529765  54.8743396  27.3386526  80.8233535
  44.6789111  33.3084673  84.4981873  45.1910208  33.5868927  83.8490633
  44.3925454  34.0473967  84.8644687  44.7123974  33.4587027  84.4571752
  53.4344280  24.1375777  75.5052034  54.1370633  23.9383525  75.0271993
  53.1688469  23.3651719  75.8120878  53.4990913  23.9938743  75.4797476
  58.8632526  32.4458387  78.0585660  58.7766501  32.6013813  78.9120439
  58.4083006  33.0896462  77.6845065  58.7835783  32.5634142  78.1292767
  41.7656018  27.8154865  74.7945610  41.8672154  28.6181027  75.1226585
  42.5611904  27.6142201  74.4968691  41.8983923  27.9040764  74.7980965
  52.7358342  29.7669134  76.6811220  52.4893056  29.6864885  77.5148009
  53.0643465  28.9822602  76.4873747  52.7479586  29.6395399  76.7758743
  48.6955369  32.5025852  86.0934203  48.8398745  33.0827060  85.4577313
  49.0431018  32.8802149  86.7984058  48.7682831  32.6446556  86.1033198
  50.8675287  31.7016021  83.8759334  50.1198601  31.8947035  83.4707613
  51.0216812  30.8761240  83.6383456  50.7797714  31.6081132  83.7804740
  47.7683124  40.6928624  82.9595230  47.9172688  40.1331540  82.3068634
  48.5483126  40.7720626  83.3427749  47.9057218  40.6214190  82.9192179
  58.1259764  35.8330747  71.2314500  57.7466572  35.0467885  71.2243790
  57.4626009  36.3817604  71.0886144  57.9718238  35.7975571  71.2095297
  50.9506672  39.3844266  75.0703327  51.7156563  39.1153910  74.7485991
  50.8484762  38.8994276  75.7873389  51.0488167  39.2733830  75.1283154
  48.9859442  27.5868675  81.6096562  48.1955516  27.4060135  81.9313898
  49.3820064  26.8095628  81.5926857  48.9276318  27.4456136  81.6549111
  53.4725332  36.4156450  67.0503276  54.2398318  36.4756575  66.6409128
  53.0256641  35.8436891  66.5659594  53.5198760  36.3393025  66.9180986
  54.3703128  35.2211105  79.3356008  53.6948130  34.9896338  79.8369395
  54.3795504  34.6132288  78.7098113  54.2721632  35.0970031  79.3172160
  51.4997272  30.0628934  86.0920061  51.4356413  30.9238891  85.9640198
  51.6394460  29.7460928  85.2915612  51.5112742  30.1429101  85.9548274
  56.3719862  38.0776238  71.5666186  56.4539700  38.8843224  71.2427637
  56.8569605  38.0972197  72.2906960  56.4557020  38.1996900  71.6253085
  50.1816366  32.7561074  80.2336264  49.7578615  32.9565573  79.4975282
  50.0061221  31.9089922  80.3460564  50.0927246  32.6609855  80.1409954
  45.4698811  33.2513125  75.6664237  45.6263430  33.1859928  76.5220229
  45.8099404  34.0261678  75.4542916  45.5432046  33.3562323  75.7618831
  52.0077955  32.6271009  74.5357600  52.5493501  32.1241390  74.9996220
  52.3224514  32.5736203  73.7247085  52.1342352  32.5450430  74.4841412
  50.1764405  38.0188360  71.8197628  50.2457225  37.1602899  71.9590628
  50.9552860  38.2360241  71.4916652  50.3017255  37.9241224  71.7914785
  53.1567225  27.5207313  84.5879900  53.3709194  26.8818227  84.0343254
  52.5401124  27.9653137  84.1587762  53.0972554  27.4917457  84.4430331
  54.5671893  40.4426062  76.0334121  54.1751684  40.1392777  75.3156987
  54.7224965  41.2795152  75.8439075  54.5325483  40.5209898  75.8990618
  42.0433072  30.4348076  75.9825004  42.4232037  30.8532621  75.3185271
  41.4688437  31.0161531  76.2893847  42.0144397  30.5825934  75.9301745
  54.7311567  37.0076050  75.9740152  54.3726222  37.1790693  76.7504184
  54.2450278  37.4689256  75.4168150  54.6070264  37.1015021  76.0065421
  52.5481953  20.6307249  79.5767243  51.6775511  20.6045970  79.5300553
  52.8022295  20.4584441  78.7593089  52.4575513  20.6017393  79.4487380
  49.5199933  32.6875216  68.5140386  49.8092458  33.4640098  68.7883960
  49.6071732  32.1763947  69.2154885  49.5754189  32.7267134  68.6582884
  49.5731094  22.6413477  81.0340713  49.0569582  21.9493669  81.1592292
  49.0125023  23.3084254  80.9803312  49.4137607  22.6376735  81.0446779
  57.6173307  29.7469092  81.4873268  57.1900915  29.6595441  80.7321368
  56.9799360  29.8546868  82.0728112  57.4602914  29.7501752  81.4618710
  45.6863874  32.0008480  80.6140498  44.8451880  31.9012355  80.8219392
  45.8953882  32.7703961  80.9654819  45.5928566  32.1000524  80.6967813
  43.1639441  29.6228017  78.4425249  42.7696138  29.6971029  77.6675358
  42.6079558  30.0085964  78.9933611  43.0242253  29.6909792  78.4092909
  54.8004388  22.6009311  78.1229128  55.0053981  22.5331619  78.9686125
  54.4730812  23.4068133  78.0550305  54.7819635  22.7095252  78.2388783
  49.4980539  29.9289880  79.8638096  49.1943676  29.3745868  80.4648503
  48.7959959  30.1082090  79.3766130  49.3496748  29.8734662  79.8807801
  48.5546636  27.2390399  74.4282798  48.8306370  26.5209312  74.0160365
  49.1545305  27.8375319  74.2203904  48.6839900  27.2210770  74.3363559
  47.5598890  37.1439600  84.5710193  47.4519245  37.1541662  85.4372252
  47.7694671  37.9694381  84.3815147  47.5749001  37.2680675  84.6714285
  58.0538075  23.1541076  77.6031893  57.4412389  23.6411478  77.9885625
  58.1502250  22.4784566  78.1469544  57.9775973  23.1259384  77.7410751
  52.0557156  24.9103917  72.7029393  52.5100903  25.0814477  73.4277237
  52.5297202  24.2972027  72.3027168  52.1925476  24.8454802  72.7503154
  45.5772682  34.3952243  82.0332131  44.9860615  35.0361741  82.0035146
  46.3393705  34.8189860  82.0063431  45.6020942  34.5528081  82.0247278
  55.3362198  39.8461554  79.4664155  55.1381887  40.3352369  78.7720367
  54.7149909  40.0502796  80.0448289  55.2149762  39.9478093  79.4487379
  49.3970176  31.6146451  73.8074400  50.1412221  32.0020727  74.0457350
  49.5430872  30.7703876  73.9714888  49.5280761  31.5476924  73.8668369
  51.3149752  23.4096710  78.8406261  50.4685797  23.5819518  78.7147611
  51.3120884  22.6046054  79.1772090  51.1896902  23.3157739  78.8717388
  52.3848052  27.1871924  79.7068319  51.9108006  26.6613686  80.2173630
  52.7566188  26.6401397  79.1383181  52.3697941  27.0287921  79.6983466
  58.6484783  32.2474300  81.1175100  58.4083006  31.4080715  81.1217526
  59.1276790  32.3274467  81.8415873  58.6836966  32.1355700  81.2249902
  54.3131552  28.0808479  72.7694073  53.7854570  28.1637223  72.0799782
  54.7727260  28.8226350  72.7658718  54.3033402  28.2029141  72.6668768
  60.6489970  29.0275757  79.0704359  60.4099740  28.9871591  78.2325143
  60.8123871  29.8746909  79.1970080  60.6380273  29.1467842  78.9657841
  46.1222868  28.0085880  81.7362283  45.4975938  28.0204272  81.1288236
  45.7868463  28.4846055  82.3853523  45.9808360  28.0804397  81.7418852
  46.3064617  26.3510999  67.7934968  45.9577421  27.0030724  68.2566517
  45.8261063  26.3368112  67.0658839  46.1834861  26.4454052  67.7546059
  42.8348544  36.0686340  83.1766047  42.3048468  35.3778779  83.2261022
  43.1073637  36.0596526  82.3478756  42.7973266  35.9653472  83.0613463
  53.8668634  36.6512043  71.9003730  54.5902833  37.1170156  71.7568303
  53.4269225  36.7185652  71.1501327  53.9084326  36.7295879  71.7688511
  53.0354789  33.5109585  83.1504419  52.4211782  32.9667635  83.4453054
  53.5522074  32.9973821  82.6710235  53.0210452  33.3545994  83.1228647
  52.2751087  34.5813855  80.8848718  51.8478695  33.9563573  80.4514153
  52.2676031  34.2988777  81.7107725  52.2110228  34.4466635  80.9428545
  50.6036796  25.4582609  81.0991252  50.6279283  24.9242722  80.4104032
  50.8548270  24.9499918  81.7616842  50.6446715  25.3043513  81.0955896
  38.1144386  32.7414104  80.5334396  38.0087835  32.6960949  79.6686480
  37.3644606  33.0867885  80.8148681  37.9879989  32.7855013  80.4471725
  46.8838118  24.1853428  80.4796996  46.9236490  24.6862634  81.1931703
  46.0587783  24.2763821  80.2102919  46.7677644  24.2735244  80.5447534
  48.3052482  30.7013937  82.7770895  47.4744411  30.8687755  82.5706143
  48.2503999  30.3249888  83.5619780  48.1741897  30.6703669  82.8619423
  46.6788526  28.9769529  73.3061013  46.8191487  29.4741993  74.0089654
  47.1771058  28.2755823  73.4475226  46.7729607  28.9471508  73.4312592
  46.7088748  29.8436640  70.6353589  47.3433827  30.4397065  70.5703051
  46.7914359  29.5440098  71.4499460  46.8145299  29.8877548  70.7456676
  48.2867731  25.7750615  70.6099031  48.6083572  25.2953698  69.9558294
  48.5494675  26.5850261  70.4189843  48.3733756  25.8240513  70.4854523
  53.6826886  25.1622809  82.9722511  54.1081957  24.7095336  82.3606037
  53.0683879  24.6082880  83.2487298  53.6555531  25.0136786  82.9227536
  43.2141736  32.0404481  73.9043135  43.7233965  32.6368988  74.2854441
  43.6876008  31.7730454  73.2219555  43.3585112  32.0890296  73.8597658
  54.1272484  40.7132747  72.0601791  53.4101794  40.5393610  71.5949028
  54.7779222  40.4785320  71.5277277  54.1174334  40.6528540  71.9131009
  52.1221109  21.6337909  76.3813088  51.4789427  21.4835556  76.9498226
  51.7820516  21.3880254  75.6162192  51.9766186  21.5750032  76.3516103
  56.7120455  29.5897336  75.8043096  56.0411645  30.1327038  75.6756162
  57.4060205  30.0592191  75.5624791  56.7149323  29.7395607  75.7498624
  50.7607189  41.7294048  81.0354854  50.5372843  40.9712877  81.4038881
  50.2717032  41.7592069  80.3135294  50.6550638  41.6216273  80.9831595
  56.8748583  26.0453220  78.7133469  57.2276193  25.6182943  79.3879268
  56.0163384  25.9604063  78.8434546  56.7998027  25.9697960  78.8328480
  45.5732268  28.6760739  76.7716316  44.8544257  29.0924872  77.0389179
  45.9444630  29.2414978  76.2207954  45.5224199  28.8210021  76.7299123
  54.8731848  29.3088588  82.6618312  54.8529776  29.1271883  83.5153090
  54.9211049  30.1800607  82.6377895  54.8766489  29.4105126  82.7841606
  49.4085646  41.9494506  78.4891939  48.9946044  41.2868636  78.0995781
  50.0933020  42.0972365  77.9687633  49.4484018  41.8735164  78.3548436
  52.7750940  41.1084591  79.2415556  52.3767223  41.2186862  78.4736376
  52.1602160  41.3166658  79.8242115  52.6249829  41.1558159  79.2146855
  51.3478842  27.7158739  72.1089695  50.7543681  28.0375736  71.5574262
  51.3854120  26.8699835  71.9010801  51.2653231  27.6383067  71.9972467
  54.2236659  27.6738244  75.5391446  53.9950352  27.6970945  74.6969804
  54.4834735  26.8495711  75.6586456  54.2282847  27.5554324  75.4316643
  47.2781421  26.2114790  76.8345641  47.7538787  26.5731870  76.1995822
  46.7770021  26.8671258  77.1145784  47.2746780  26.3608979  76.7822382
  60.5092783  35.6836558  72.6258646  60.8926388  36.4327914  72.8556743
  59.7136896  35.9302378  72.3670635  60.4486565  35.8306252  72.6216220
  49.3208074  28.3555990  70.2019025  49.7007039  28.3735619  69.4170140
  48.5800670  28.8009979  70.0809873  49.2676912  28.4237764  70.0682593
  56.9493365  26.6638181  75.7894604  56.9487591  26.5086838  76.6478880
  56.7449545  27.5101168  75.7335989  56.9193143  26.7658802  75.9082543
  39.0110636  30.0877965  80.2053420  38.8332397  29.6354574  80.9308336
  38.7229658  30.8904127  80.3891898  38.9423589  30.1400523  80.3396923
  54.6734217  31.3435683  79.4430811  55.1687882  30.6258678  79.4034831
  53.8633993  31.0406481  79.3285298  54.6278110  31.1933329  79.4204537
  50.1192828  35.1933496  71.5927815  49.3104151  34.8700170  71.5461125
  50.6267737  34.4866718  71.5256064  50.0742495  35.0414812  71.5758110
  40.7483106  32.6205689  77.3175180  39.8828625  32.6091380  77.2057951
  40.8481921  32.4335912  78.1646319  40.6357273  32.5911750  77.4264124
  56.7386036  34.0939370  82.1307940  57.1641107  33.5713792  81.5778365
  56.3742956  34.6920208  81.6096562  56.7472638  34.1049597  81.9716949
  46.3740115  42.3903588  80.8905285  46.6886674  43.2039976  80.8983067
  46.7833529  42.0053807  81.5587444  46.4808213  42.4532290  80.9909377
  53.3264635  37.8073635  78.4609097  53.7975813  38.5213897  78.6299082
  53.6624814  37.2072385  78.9968966  53.4459750  37.8245099  78.5641473
  49.3127245  24.5817518  72.8846657  50.1342939  24.7515831  72.6428352
  48.8496896  24.7364779  72.1612954  49.3658407  24.6299251  72.7418301
  43.7153136  36.3376696  80.5383893  44.3197993  36.2972530  79.9097714
  43.5080448  37.1847848  80.5687949  43.7742033  36.4564699  80.4500010
  53.5296908  38.6042641  81.7546131  54.3495282  38.4605607  82.0162426
  53.2490985  39.2288840  82.2962569  53.6093651  38.6752993  81.8734070
  38.9504418  35.3211314  80.4082817  38.8528696  34.5107585  80.7172873
  39.7333288  35.3003107  80.0229085  39.0520554  35.1978404  80.3969679
  61.7559166  44.8269813  74.3611046  62.4539331  45.0057941  74.8532509
  62.0711499  44.3040152  73.7381435  61.9054503  44.7763585  74.3413056
  59.9286030  40.1962210  78.4432321  59.5989360  40.6473353  77.7736019
  59.2531032  40.1178373  78.9905327  59.7796466  40.2513345  78.4255544
  67.1362438  36.1847733  76.6881931  66.8215879  36.8751211  77.1202354
  66.6189379  36.1292515  75.9867432  67.0126908  36.2782621  76.6478881
  58.3674479  50.0815450  71.6026810  57.7831694  50.5865482  72.0092674
  57.9644574  49.8557837  70.8623402  58.2213783  50.1223699  71.5531835
  62.8251694  46.3281102  70.0795731  63.0647697  46.5359086  69.2671074
  63.1467535  45.5238611  70.1884675  62.9088852  46.2395204  69.9756284
  58.1341984  38.2574498  73.9255268  58.8887952  38.6252815  73.6872319
  57.9569518  38.6314053  74.6934448  58.2196462  38.3672686  74.0040157
  56.4899049  40.6644817  70.6233381  56.3074622  40.8816698  69.7974374
  57.3524662  40.7783830  70.6791996  56.5903638  40.7134715  70.5087869
  62.1698768  37.6671228  73.6582405  62.8984928  37.4887183  73.2120562
  62.2593661  38.5089308  73.8689583  62.2905430  37.7655106  73.6235923
  56.0361076  43.9418990  69.1355855  55.3219253  43.6557169  69.5478287
  56.5205044  44.2815616  69.7762242  56.0020439  43.9500640  69.2911489
  63.2108393  52.4448944  69.5117663  63.6259542  52.1133968  68.8202158
  62.3800323  52.2117846  69.3837799  63.1496402  52.3620200  69.3908510
  65.9041784  48.6959503  68.6978864  65.8221946  48.7661690  69.5633851
  66.5421504  49.2589247  68.5062605  65.9861621  48.7898474  68.7968814
  47.9826486  45.6598078  76.6662726  48.0686738  45.2829947  77.4476256
  48.6102283  45.2858524  76.1882684  48.0883037  45.5483561  76.7108203
  63.0081894  48.7179958  71.7087471  63.8222533  49.0094850  71.5970242
  62.9441035  48.0639820  71.1345764  63.1184633  48.6645152  71.6076308
  59.5192617  47.4103765  71.1734672  59.9037770  47.1911471  71.9251217
  59.2704237  48.2366710  71.3035748  59.5394690  47.5001911  71.3035749
  57.2393054  39.0800701  76.5043453  56.3715480  39.1523301  76.5701062
  57.5268259  39.8822780  76.6931428  57.1532803  39.2094849  76.5418219
  55.1660407  42.5558961  73.9460329  54.8785202  42.1860231  73.2092276
  55.8530875  43.0253816  73.6844034  55.2249304  42.5705930  73.7975405
  58.0014078  46.4211909  75.3927734  58.7236730  46.5853067  74.9331540
  57.5222071  47.1421574  75.2867073  58.0377809  46.5510139  75.3093348
  64.4076864  39.6561085  75.5052034  65.1103217  39.4568833  75.0271993
  64.1421053  38.8837027  75.8120878  64.4723496  39.5124051  75.4797476
  52.7388601  43.3340173  74.7945610  52.8404738  44.1366335  75.1226585
  53.5344488  43.1327509  74.4968691  52.8716507  43.4226072  74.7980965
  64.4457916  51.9341758  67.0503276  65.2130901  51.9941882  66.6409128
  63.9989225  51.3622199  66.5659594  64.4931343  51.8578333  66.9180986
  53.0165656  45.9533384  75.9825004  53.3964621  46.3717929  75.3185271
  52.4421021  46.5346839  76.2893847  52.9876981  46.1011242  75.9301745
  63.5214537  36.1492557  79.5767243  62.6508095  36.1231278  79.5300553
  63.7754878  35.9769749  78.7593089  63.4308097  36.1202701  79.4487380
  60.4932516  48.2060524  68.5140386  60.7825041  48.9825406  68.7883960
  60.5804315  47.6949255  69.2154885  60.5486773  48.2452442  68.6582884
  59.5279219  42.7575707  74.4282798  59.8038954  42.0394620  74.0160365
  60.1277889  43.3560627  74.2203904  59.6572484  42.7396078  74.3363559
  63.0289740  40.4289225  72.7029393  63.4833486  40.5999785  73.4277237
  63.5029786  39.8157335  72.3027168  63.1658060  40.3640110  72.7503154
  60.3702760  47.1331759  73.8074400  61.1144805  47.5206035  74.0457350
  60.5163456  46.2889184  73.9714888  60.5013345  47.0662232  73.8668369
  62.2882335  38.9282018  78.8406261  61.4418380  39.1004826  78.7147611
  62.2853468  38.1231362  79.1772090  62.1629485  38.8343047  78.8717388
  65.2864135  43.5993787  72.7694073  64.7587154  43.6822531  72.0799782
  65.7459843  44.3411658  72.7658718  65.2765986  43.7214449  72.6668768
  57.2797200  41.8696307  67.7934968  56.9310005  42.5216032  68.2566517
  56.7993646  41.8553420  67.0658839  57.1567444  41.9639360  67.7546059
  57.6521109  44.4954837  73.3061013  57.7924070  44.9927301  74.0089654
  58.1503642  43.7941131  73.4475226  57.7462190  44.4656816  73.4312592
  57.6821332  45.3621948  70.6353589  58.3166411  45.9582373  70.5703051
  57.7646942  45.0625406  71.4499460  57.7877883  45.4062856  70.7456676
  59.2600314  41.2935923  70.6099031  59.5816156  40.8139006  69.9558294
  59.5227258  42.1035569  70.4189843  59.3466340  41.3425821  70.4854523
  54.1874319  47.5589789  73.9043135  54.6966549  48.1554296  74.2854441
  54.6608592  47.2915762  73.2219555  54.3317695  47.6075604  73.8597658
  63.0953692  37.1523217  76.3813088  62.4522010  37.0020863  76.9498226
  62.7553099  36.9065562  75.6162192  62.9498770  37.0935340  76.3516103
  56.5464851  44.1946047  76.7716316  55.8276840  44.6110180  77.0389179
  56.9177214  44.7600286  76.2207954  56.4956783  44.3395329  76.7299123
  62.3211426  43.2344047  72.1089695  61.7276265  43.5561044  71.5574262
  62.3586703  42.3885143  71.9010801  62.2385815  43.1568375  71.9972467
  58.2514005  41.7300098  76.8345641  58.7271371  42.0917178  76.1995822
  57.7502604  42.3856566  77.1145784  58.2479364  41.8794287  76.7822382
  60.2940658  43.8741298  70.2019025  60.6739623  43.8920927  69.4170140
  59.5533254  44.3195287  70.0809873  60.2409496  43.9423072  70.0682593
  61.0925412  50.7118804  71.5927815  60.2836735  50.3885478  71.5461125
  61.6000321  50.0052026  71.5256064  61.0475079  50.5600120  71.5758110
  60.2859829  40.1002826  72.8846657  61.1075523  40.2701139  72.6428352
  59.8229479  40.2550087  72.1612954  60.3390991  40.1484559  72.7418301
  35.3337040   0.7853377  62.1719216  34.5819939   0.4068916  61.9435261
  35.7823051   0.8171811  61.4238026  35.2886706   0.7338984  62.0276718
  40.7861999   1.2078747  57.6004763  40.4513368   1.8855668  57.1648985
  41.2988870   0.8184058  57.0121635  40.8127580   1.2503325  57.4491555
  40.3266291   3.1593016  63.5415875  40.7105670   3.7279914  63.0020650
  40.2625432   2.4342526  63.0621691  40.3739718   3.1368479  63.3909737
  36.7522535   5.7149359  65.8396845  37.3959991   6.1562523  66.2293003
  37.0778791   4.9102785  65.7527103  36.8954364   5.6614553  65.8842322
  37.4543115  -1.2738666  61.2116706  37.7758956  -0.7333459  60.6078014
  38.1015211  -1.8441895  61.3438996  37.5969170  -1.2779491  61.1423742
  37.5501517   1.5316156  60.1807089  37.8399815   1.1405137  59.4566316
  38.2804997   1.7132861  60.6212364  37.7008401   1.5009970  60.1389896
  35.4907432   3.5083538  63.2467239  35.2707728   3.2180893  64.0393906
  35.2701954   2.8498493  62.7185151  35.4255026   3.3683247  63.2856148
  37.6575388   4.8812928  62.0297931  38.3099446   4.3489371  62.2588957
  36.9600997   4.5281581  62.4165805  37.6506106   4.7502451  62.1210099
  42.1221884   0.1456127  60.7965990  41.8808560  -0.5876013  60.3893055
  42.3023217   0.6942984  60.1432323  42.1129508   0.1178518  60.6396213
  39.6724912   0.8037089  62.0043373  40.4374803   0.5346733  61.6826038
  39.5703002   0.3187099  62.7213436  39.7706408   0.6926654  62.0623201
  38.8982645  -0.5618816  58.7537675  38.9675466  -1.4204278  58.8930675
  39.6771101  -0.3446936  58.4256699  39.0235496  -0.6565952  58.7254832
  43.2890133   1.8618885  62.9674168  42.8969925   1.5585600  62.2497034
  43.4443205   2.6987975  62.7779122  43.2543723   1.9402722  62.8330665
  44.0580438   1.2654378  66.4004202  43.8600127   1.7545192  65.7060414
  43.4368149   1.4695619  66.9788336  43.9368003   1.3670916  66.3827426
  42.8490724   2.1325571  58.9941838  42.1320034   1.9586433  58.5289075
  43.4997462   1.8978143  58.4617324  42.8392575   2.0721363  58.8471056
  38.1303886   3.3687329  65.4231986  37.7164285   2.7061460  65.0335828
  38.8151260   3.5165188  64.9027680  38.1702258   3.2927988  65.2888483
  41.4969180   2.5277415  66.1755602  41.0985464   2.6379685  65.4076423
  40.8820400   2.7359481  66.7582162  41.3468070   2.5750983  66.1486902
  58.7228799   7.6800316  61.6529054  58.6922803   8.5344953  61.8247323
  59.3210147   7.3795609  62.2115198  58.8065956   7.7616813  61.7603856
  51.9228483   6.7675967  66.4081984  51.0666379   6.9284466  66.4591101
  51.9696137   5.8968031  66.4287045  51.8027595   6.6626769  66.4188050
  46.3069623  16.3038685  62.1719216  45.5552523  15.9254224  61.9435261
  46.7555635  16.3357119  61.4238026  46.2619290  16.2524292  62.0276718
  51.7594583  16.7264055  57.6004763  51.4245951  17.4040976  57.1648985
  52.2721453  16.3369366  57.0121635  51.7860164  16.7688633  57.4491555
  51.2998874  18.6778323  63.5415875  51.6838254  19.2465222  63.0020650
  51.2358015  17.9527834  63.0621691  51.3472301  18.6553787  63.3909737
  54.7680304   8.8268011  69.0513636  55.3136264   9.5053098  69.1107606
  54.7097181   8.6855472  68.1915218  54.8396219   8.9060013  68.9325697
  47.8854379  16.3157077  64.4381988  47.9864742  15.5057431  64.7479116
  47.2896125  16.2214024  63.8081667  47.8126918  16.1822106  64.3908227
  56.5445373  10.2552618  59.9247364  56.4284899  11.0060305  60.3539502
  57.3401260   9.9976572  60.1743451  56.6449962  10.3287465  60.0251455
  47.7255119  21.2334667  65.8396845  48.3692574  21.6747831  66.2293003
  48.0511374  20.4288093  65.7527103  47.8686948  21.1799861  65.8842322
  41.0819424  12.3377364  64.0634322  40.8469608  11.5045016  63.9566591
  41.2205064  12.6182030  63.2495523  41.0675086  12.2560867  63.9276677
  43.3809511   4.5063095  66.9618630  42.7614543   3.9155742  66.7928645
  43.2793375   5.0974530  66.3282953  43.2747186   4.5067177  66.8423619
  48.4275699  14.2446641  61.2116706  48.7491540  14.7851849  60.6078014
  49.0747795  13.6743413  61.3438996  48.5701754  14.2405817  61.1423742
  50.4777407   6.2462636  61.2951093  51.1757571   6.4250764  61.7872556
  50.7929739   5.7232976  60.6721482  50.6272744   6.1956408  61.2753103
  43.1078644   8.0515376  69.2062199  42.9837341   8.6377822  69.8412018
  43.7596929   7.5575572  69.5074474  43.1852293   8.0654181  69.3448128
  50.6665342  12.6333081  61.2830884  51.1058977  12.0250182  61.7285657
  50.5170005  12.2540455  60.5116349  50.7086808  12.4871553  61.2350052
  48.1336985  11.2277093  68.4849710  48.7785988  10.7349536  68.1660658
  48.3738762  11.3701880  69.3115788  48.2647570  11.1754535  68.5599243
  50.6723076  14.0731999  68.1356602  50.9546319  13.2783405  67.9143358
  51.4009237  14.5512587  68.1561663  50.8212640  14.0266596  68.1059618
  48.6504270   1.6155033  65.3772368  48.3207600   2.0666177  64.7076066
  47.9749272   1.5371196  65.9245374  48.5014707   1.6706168  65.3595591
  54.2674679  10.9860263  58.2361654  54.1825974  11.8421229  58.3811222
  54.7559062  10.7104587  58.9043813  54.3263576  11.0717584  58.3563735
  55.1993112   7.6045057  59.7359389  54.6704583   7.8204690  60.3956695
  55.7218132   8.2981195  59.6560358  55.1981565   7.7388194  59.8214988
  60.6541165  13.1791361  65.1092433  59.8238868  13.3902005  65.2725850
  60.6050417  12.3528416  64.8334717  60.5247900  13.0880968  65.0929799
  47.0892720  11.5008274  58.5366857  46.5049935  12.0058305  58.9432721
  46.6862815  11.2750661  57.7963449  46.9432023  11.5416522  58.4871882
  42.6436748  17.2163035  65.3390528  42.1604326  17.9413524  65.3150112
  43.4560066  17.5139165  65.4500686  42.6927496  17.3665388  65.3517808
  48.7150902  16.0095215  67.9440343  48.1977844  15.6502630  67.3401651
  49.4125294  15.4857390  67.9546409  48.7416483  15.8792903  67.8570601
  52.3714494  16.4590030  73.9056516  52.4597840  16.2716170  74.7534726
  52.8004207  15.8127459  73.5061363  52.4476597  16.3353037  73.9728267
  49.9384954  15.7421190  72.8874178  49.3755789  15.3293799  73.4113839
  50.7005978  15.6674095  73.3067321  49.9679403  15.6698590  73.0267178
  51.5469934   7.7473926  57.0135777  51.7865938   7.9551909  56.2011120
  51.8685775   6.9431434  57.1224722  51.6307092   7.6588027  56.9096330
  45.4980945  17.7319211  65.4910808  46.2001525  17.2171200  65.5483565
  45.4178429  18.0593362  66.2957683  45.5904706  17.7033437  65.6183600
  45.2117289   2.0837640  57.5573428  45.0292862   2.3009521  56.7314421
  46.0742902   2.1976653  57.6132043  45.3121878   2.1327538  57.4427915
  44.8231721  13.9225563  64.9996416  45.6620620  14.1548495  65.0470178
  44.8543490  13.0529874  64.9303452  44.9513438  13.8282509  64.9961061
  45.4484424  14.3426438  69.3009722  45.9882649  14.1997569  69.9713094
  44.7654370  14.7423189  69.6693748  45.4276578  14.3806109  69.4544143
  54.8725309  10.0217438  64.4954746  55.6282824  10.4548953  64.5343655
  54.9787633   9.3722208  65.0689382  54.9995479   9.9894922  64.5852772
  57.9105480  13.8490716  65.2457149  57.4740712  13.8527458  66.0016120
  57.5768395  14.5296215  64.8136727  57.7968100  13.9503172  65.2937982
  52.4834554  15.8899049  76.5700299  53.2674970  16.0029896  76.9356042
  52.2831148  15.0640186  76.7658985  52.5700579  15.7845768  76.6534685
  40.8521569  10.5626729  69.4544143  40.5859984   9.7465845  69.6135134
  40.8660133  10.6079884  68.5839659  40.8146291  10.4483633  69.3497625
  44.7579316   5.3611813  56.0695901  44.0437493   5.0749993  56.4818334
  45.2423285   5.7008439  56.7102289  44.7238679   5.3693463  56.2251536
  52.6404947  17.8009151  70.2166755  51.8420193  17.5608651  70.4740624
  53.0890958  17.8523544  70.9633803  52.5879558  17.7731542  70.3651679
  61.0449826  10.5671636  64.1376786  61.7066260  10.0062304  64.0372695
  60.4041238  10.0723666  64.4629477  61.0478694  10.4108045  64.1709126
  51.9326634  13.8641767  56.4457710  52.3477782  13.5326791  55.7542205
  51.1018563  13.6310669  56.3177846  51.8714643  13.7813023  56.3248557
  41.2614983  11.3485508  66.7355888  41.0790556  11.3232394  65.8828180
  41.9964652  11.8184446  66.7744796  41.3429047  11.4146870  66.6153806
  57.3314657  11.5837018  63.8788775  57.5670246  11.7282217  63.0515626
  57.4804220  12.3479426  64.2720289  57.3880460  11.7176072  63.8152379
  59.1605114  10.4238684  61.7158379  59.4913331  10.9566324  61.1098474
  59.7338202  10.4777572  62.3720330  59.2938793  10.5108253  61.7236161
  54.3737003   8.2703587  62.3981959  54.4683857   9.0092881  62.8521584
  53.7495846   7.8421062  62.8316524  54.2946033   8.3164907  62.5290107
  52.6289477  11.4489799  73.0472240  53.2028338  10.8117044  73.2020804
  52.5504280  11.4493882  72.1781898  52.7022711  11.3554911  72.9418651
  41.2285893   8.2279009  66.8854954  41.8059396   8.0915460  67.5247199
  40.5299955   7.7714793  67.1400538  41.2106914   8.1401275  67.0177244
  54.6260024  10.1152326  55.6318911  54.5440187  10.1854514  56.4973898
  55.2639744  10.6782070  55.4402652  54.7079861  10.2091298  55.7308860
  47.9853195   9.8813064  65.0993437  47.7272439   9.0484799  65.0724737
  48.0401678  10.1070677  64.2585938  47.9552973   9.7910836  64.9713574
  46.9587907   7.4350827  65.5858332  46.3837499   7.5942995  66.2222293
  46.5823584   6.7986236  65.1226783  46.8190720   7.3648640  65.6112890
  50.6261196   5.9074176  70.4450710  50.2375629   5.4828394  69.7902902
  49.9615894   6.1556326  70.9527737  50.4708124   5.8812897  70.4238578
  36.7044726   7.0790902  63.6002773  36.7904978   6.7022770  64.3816303
  37.3320524   6.7051347  63.1222731  36.8101277   6.9676384  63.6448250
  51.7300134  10.1372781  58.6427517  52.5440773  10.4287674  58.5310289
  51.6659275   9.4832643  58.0685810  51.8402873  10.0837976  58.5416355
  47.6008042  13.6094298  63.7699830  48.2381989  13.3706046  64.3151623
  48.0263114  13.8131457  63.0352990  47.7584209  13.6045308  63.7416987
  42.2920685  15.8482635  67.6534133  42.3324830  16.1197486  66.8253913
  42.8515209  16.3724543  68.0691921  42.3804031  15.9658390  67.5926021
  48.2410857   8.8296588  58.1074719  48.6256010   8.6104295  58.8591264
  47.9922478   9.6559533  58.2375795  48.2612930   8.9194734  58.2375795
  58.9746045  12.6043226  69.1185388  58.6691862  13.3371283  69.4798703
  58.2552261  12.1981155  68.8378174  58.8233387  12.6524959  69.1298525
  49.9829514  14.0866721  65.4493616  50.0568523  13.9241893  66.3035466
  50.7999021  14.2756910  65.2054097  50.1145873  14.0903463  65.5391641
  43.7435271  14.4324584  62.4788059  42.9173389  14.6786321  62.3522338
  43.8047262  14.3536665  63.3450117  43.6309438  14.4569533  62.5877004
  45.9611295   0.4993525  63.4383499  45.0933720   0.5716124  63.5041109
  46.2486499   1.3015604  63.6271475  45.8751043   0.6287672  63.4758266
  48.5234100  17.0501464  60.1807089  48.8132399  16.6590445  59.4566316
  49.2537581  17.2318169  60.6212364  48.6740984  17.0195278  60.1389896
  49.1128845  11.8519210  71.2660220  48.6140539  12.5634978  71.3445108
  49.9229070  12.1719876  71.2278382  49.1584952  12.0046058  71.2716788
  46.4640016  19.0268846  63.2467239  46.2440311  18.7366201  64.0393906
  46.2434538  18.3683801  62.7185151  46.3987610  18.8868555  63.2856148
  45.3756963  11.1142163  65.5122941  45.0870212  10.4879634  66.0468668
  46.2440311  11.0562450  65.5787621  45.4617215  11.0129707  65.6013895
  56.1634861   6.2576946  65.8304922  55.8199627   5.5367281  66.1812172
  56.2627903   6.0490797  64.9883281  56.1276904   6.1201149  65.7576602
  48.6307971  20.3998236  62.0297931  49.2832029  19.8674679  62.2588957
  47.9333580  20.0466889  62.4165805  48.6238689  20.2687759  62.1210099
  45.5789236  12.7537414  61.4365306  46.3335204  13.1350453  61.6500768
  44.9859849  13.2048558  61.8912002  45.6025950  12.8766241  61.5348184
  56.6247890  12.7202650  61.3728911  57.1905922  13.3795860  61.2887454
  55.9775793  13.0652348  61.8445313  56.6126646  12.8684592  61.4301667
  46.8987463  13.9245975  66.8105421  46.3768216  14.0646267  67.4957286
  47.2861483  13.1656640  67.0007538  46.8791164  13.8331499  66.9406498
  43.8878647   3.9751784  60.8800376  43.6003443   3.6053054  60.1432323
  44.5749115   4.4446639  60.6184081  43.9467544   3.9898753  60.7315451
  53.0954468  15.6641434  60.7965990  52.8541144  14.9309295  60.3893055
  53.2755801  16.2128291  60.1432323  53.0862092  15.6363826  60.6396213
  48.3253788  10.9549994  62.2086912  48.1296571  11.5624729  61.6147215
  48.5488134  10.2617938  61.7278586  48.3288430  10.9427520  62.0502993
  46.7232319   7.8404732  62.3267780  47.4454970   8.0045890  61.8671586
  46.2440311   8.5614397  62.2207120  46.7596049   7.9702962  62.2433394
  54.6825826   4.1768531  67.7064465  53.8436927   4.2029810  67.4702729
  54.7530193   4.8239266  68.2869812  54.5694220   4.2764657  67.7573582
  44.3739935  10.2462805  71.4321920  44.8861032  10.5247058  70.7830680
  44.0876278  10.9852099  71.7984733  44.4074798  10.3965158  71.3911798
  58.5583350   9.3836518  64.9925707  58.4717324   9.5391944  65.8460486
  58.1033830  10.0274593  64.6185112  58.4786607   9.5012273  65.0632814
  41.4606842   4.7532996  61.7285657  41.5622978   5.5559158  62.0566632
  42.2562728   4.5520332  61.4308737  41.5934747   4.8418895  61.7321012
  52.4309166   6.7047265  63.6151267  52.1843880   6.6243016  64.4488056
  52.7594289   5.9200733  63.4213794  52.4430410   6.5773530  63.7098790
  56.3257215  13.4130624  67.4038048  56.1871574  14.1111670  67.9086790
  55.5457213  13.2579281  67.0474230  56.1900442  13.4930791  67.4264322
  48.3906193   9.4403983  73.0274250  48.5349569  10.0205192  72.3917360
  48.7381842   9.8180280  73.7324104  48.4633655   9.5824687  73.0373245
  50.5626111   8.6394152  70.8099381  49.8149425   8.8325166  70.4047659
  50.7167636   7.8139371  70.5723503  50.4748538   8.5459263  70.7144787
  47.4633948  17.6306755  69.8935277  47.6123512  17.0709671  69.2408681
  48.2433950  17.7098757  70.2767795  47.6008042  17.5592321  69.8532226
  57.8210588  12.7708878  58.1654547  57.4417396  11.9846016  58.1583836
  57.1576833  13.3195735  58.0226191  57.6669062  12.7353702  58.1435344
  49.9887249  17.8021398  71.1719767  49.9130920  17.1330209  71.7270556
  49.9177108  18.5039186  71.6860434  49.9667856  17.8066305  71.3296615
  50.6457496  16.3222397  62.0043373  51.4107387  16.0532041  61.6826038
  50.5435586  15.8372407  62.7213436  50.7438991  16.2111962  62.0623201
  48.6810266   4.5246806  68.5436609  47.8906340   4.3438267  68.8653945
  49.0770888   3.7473759  68.5266904  48.6227142   4.3834267  68.5889157
  53.1676156  13.3534581  53.9843323  53.9349141  13.4134706  53.5749174
  52.7207465  12.7815022  53.4999641  53.2149584  13.2771156  53.8521033
  54.0653952  12.1589237  66.2696055  53.3898954  11.9274469  66.7709442
  54.0746328  11.5510420  65.6438160  53.9672456  12.0348162  66.2512207
  51.1948096   7.0007066  73.0260108  51.1307237   7.8617022  72.8980245
  51.3345284   6.6839059  72.2255659  51.2063566   7.0807232  72.8888321
  56.0670686  15.0154369  58.5006233  56.1490524  15.8221355  58.1767684
  56.5520429  15.0350328  59.2247006  56.1507844  15.1375031  58.5593132
  49.8767190   9.6939205  67.1676311  49.4529439   9.8943704  66.4315329
  49.7012045   8.8468053  67.2800611  49.7878070   9.5987986  67.0750001
  49.3778883  21.2089718  69.6297768  49.8674813  20.5100507  69.4473433
  48.8063115  20.9113588  70.2173825  49.3663413  21.0615942  69.6898809
  45.1649635  10.1891256  62.6004283  45.3214254  10.1238059  63.4560275
  45.5050228  10.9639809  62.3882963  45.2382870  10.2940454  62.6958878
  51.7028779   9.5649140  61.4697647  52.2444325   9.0619521  61.9336267
  52.0175338   9.5114335  60.6587132  51.8293176   9.4828561  61.4181459
  49.8715229  14.9566491  58.7537675  49.9408049  14.0981030  58.8930675
  50.6503684  15.1738372  58.4256699  49.9968079  14.8619355  58.7254832
  52.8518049   4.4585444  71.5219947  53.0660018   3.8196359  70.9683301
  52.2351948   4.9031268  71.0927809  52.7923378   4.4295588  71.3770378
  54.2622717  17.3804193  62.9674168  53.8702508  17.0770908  62.2497034
  54.4175789  18.2173283  62.7779122  54.2276306  17.4588029  62.8330665
  41.7383896   7.3726207  62.9165051  42.1182861   7.7910752  62.2525318
  41.1639261   7.9539663  63.2233894  41.7095221   7.5204066  62.8641792
  54.4262391  13.9454182  62.9080199  54.0677046  14.1168824  63.6844231
  53.9401102  14.4067387  62.3508197  54.3021088  14.0393153  62.9405468
  49.2150757   9.6253347  55.4480433  49.5043282  10.4018229  55.7224007
  49.3022556   9.1142078  56.1494932  49.2705013   9.6645265  55.5922931
  55.5867131  14.8358078  73.8547399  56.2246851  14.3418273  73.5209855
  54.9441222  14.7635478  73.2699626  55.5861357  14.7517086  73.7189754
  57.3124131   6.6847223  68.4213315  56.8851739   6.5973572  67.6661415
  56.6750184   6.7924999  69.0068159  57.1553738   6.6879883  68.3958757
  55.6421387  15.5277886  70.4952756  56.4313765  15.1766951  70.6154838
  55.8164985  16.3414274  70.2329390  55.7841669  15.5963743  70.4740624
  45.3814698   8.9386612  67.5480545  44.5402704   8.8390486  67.7559439
  45.5904706   9.7082092  67.8994866  45.2879390   9.0378655  67.6307860
  42.8590265   6.5606148  65.3765296  42.4646962   6.6349160  64.6015405
  42.3030382   6.9464095  65.9273657  42.7193077   6.6287923  65.3432955
  49.1931363   6.8668011  66.7978143  48.8894500   6.3123999  67.3988550
  48.4910783   7.0460221  66.3106177  49.0447572   6.8112793  66.8147848
  48.2497460   4.1768531  61.3622844  48.5257194   3.4587443  60.9500412
  48.8496129   4.7753450  61.1543950  48.3790724   4.1588901  61.2703606
  47.2549714  14.0817731  71.5050240  47.1470069  14.0919794  72.3712298
  47.4645495  14.9072512  71.3155194  47.2699825  14.2058806  71.6054332
  45.2723506  11.3330374  68.9672178  44.6811439  11.9739872  68.9375193
  46.0344529  11.7567991  68.9403477  45.2971766  11.4906212  68.9587325
  55.0313022  16.7839685  66.4004202  54.8332710  17.2730500  65.7060414
  54.4100733  16.9880927  66.9788336  54.9100586  16.8856224  66.3827426
  49.0921000   8.5524582  60.7414447  49.8363045   8.9398859  60.9797396
  49.2381696   7.7082008  60.9054934  49.2231585   8.4855055  60.8008416
  52.0798876   4.1250056  66.6408366  51.6058830   3.5991818  67.1513677
  52.4517012   3.5779528  66.0723227  52.0648765   3.9666052  66.6323513
  58.3435607   9.1852431  68.0515146  58.1033830   8.3458846  68.0557573
  58.8227614   9.2652598  68.7755920  58.3787790   9.0733831  68.1589949
  54.0082376   5.0186610  59.7034120  53.4805394   5.1015354  59.0139829
  54.4678084   5.7604482  59.6998764  53.9984226   5.1407273  59.6008815
  60.3440794   5.9653888  66.0044406  60.1050564   5.9249723  65.1665190
  60.5074695   6.8125040  66.1310127  60.3331097   6.0845973  65.8997888
  56.9486824  10.3503838  71.9349451  57.6721023   9.8976364  71.7560471
  56.6836786  10.6308503  71.1521779  57.0168097  10.3254806  71.7928166
  45.8173692   4.9464011  68.6702330  45.1926762   4.9582403  68.0628283
  45.4819287   5.4224186  69.3193570  45.6759184   5.0182528  68.6758898
  46.0015441   3.2889130  54.7275015  45.6528245   3.9408855  55.1906564
  45.5211887   3.2746243  53.9998886  45.8785685   3.3832183  54.6886106
  42.5299368  13.0064471  70.1106094  41.9999292  12.3156910  70.1601069
  42.8024461  12.9974657  69.2818803  42.4924090  12.9031603  69.9953510
  53.5619458  13.5890174  58.8343777  54.2853657  14.0548287  58.6908350
  53.1220049  13.6563783  58.0841374  53.6035150  13.6674010  58.7028558
  52.7305613  10.4487716  70.0844466  52.1162606   9.9045766  70.3793101
  53.2472898   9.9351952  69.6050282  52.7161276  10.2924125  70.0568694
  51.9701910  11.5191986  67.8188764  51.5429518  10.8941705  67.3854200
  51.9626855  11.2366908  68.6447772  51.9061052  11.3844767  67.8768592
  37.8095210   9.6792236  67.4674442  37.7038659   9.6339080  66.6026527
  37.0595430  10.0246016  67.7488727  37.6830813   9.7233144  67.3811772
  46.5788942   1.1231559  67.4137043  46.6187314   1.6240765  68.1271750
  45.7538607   1.2141952  67.1442966  46.4628468   1.2113375  67.4787581
  48.0003306   7.6392069  69.7110942  47.1695235   7.8065887  69.5046190
  47.9454823   7.2628019  70.4959827  47.8692721   7.6081800  69.7959470
  46.3739350   5.9147660  60.2401059  46.5142311   6.4120124  60.9429701
  46.8721882   5.2133955  60.3815273  46.4680431   5.8849639  60.3652638
  46.4039572   6.7814771  57.5693636  47.0384651   7.3775196  57.5043098
  46.4865183   6.4818229  58.3839506  46.5096123   6.8255679  57.6796723
  47.9818555   2.7128747  57.5439078  48.3034396   2.2331829  56.8898341
  48.2445499   3.5228393  57.3529890  48.0684580   2.7618645  57.4194570
  51.2115528  13.7347621  71.0637894  50.7040619  14.2883468  71.5078525
  50.9142174  13.7955911  70.2456669  51.0920413  13.8253932  71.0086351
  42.9092560   8.9782612  60.8383182  43.4184789   9.5747119  61.2194488
  43.3826832   8.7108586  60.1559602  43.0535936   9.0268427  60.7937705
  53.8223308  17.6510879  58.9941838  53.1052618  17.4771741  58.5289075
  54.4730046  17.4163451  58.4617324  53.8125158  17.5906671  58.8471056
  56.4071279   6.5275467  62.7383143  55.7362469   7.0705169  62.6096208
  57.1011029   6.9970323  62.4964838  56.4100147   6.6773738  62.6838671
  50.4558013  18.6672179  67.9694901  50.2323667  17.9091008  68.3378928
  49.9667856  18.6970200  67.2475341  50.3501462  18.5594404  67.9171642
  45.2683092   5.6138871  63.7056363  44.5495081   6.0303003  63.9729226
  45.6395454   6.1793109  63.1548001  45.2175023   5.7588152  63.6639170
  54.5682672   6.2466719  69.5958358  54.5480600   6.0650015  70.4493137
  54.6161873   7.1178738  69.5717942  54.5717313   6.3483258  69.7181653
  52.5129002  12.8353911  75.5206835  52.4724857  12.1903588  74.9351991
  53.3252321  12.7790529  75.8332247  52.6272156  12.7312878  75.4803784
  49.1036470  18.8872637  65.4231986  48.6896868  18.2246768  65.0335828
  49.7883844  19.0350496  64.9027680  49.1434842  18.8113295  65.2888483
  52.4701764  18.0462723  66.1755602  52.0718047  18.1564993  65.4076423
  51.8552984  18.2544789  66.7582162  52.3200653  18.0936291  66.1486902
  51.0429666   4.6536870  59.0429742  50.4494505   4.9753867  58.4914309
  51.0804944   3.8077966  58.8350848  50.9604055   4.5761199  58.9312513
  53.9187483   4.6116375  62.4731492  53.6901176   4.6349076  61.6309851
  54.1785559   3.7873842  62.5926503  53.9233671   4.4932455  62.3656690
  46.9732245   3.1492921  63.7685688  47.4489611   3.5110001  63.1335869
  46.4720845   3.8049389  64.0485831  46.9697604   3.2987110  63.7162429
  60.2043607  12.6214689  59.5598693  60.5877212  13.3706045  59.7896790
  59.4087720  12.8680509  59.3010682  60.1437389  12.7684383  59.5556267
  49.0158898   5.2934121  57.1359072  49.3957863   5.3113750  56.3510187
  48.2751494   5.7388110  57.0149919  48.9627736   5.3615896  57.0022640
  38.7061460   7.0256097  67.1393467  38.5283221   6.5732706  67.8648383
  38.4180482   7.8282258  67.3231945  38.6374413   7.0778654  67.2736970
  54.3685041   8.2813814  66.3770858  54.8638706   7.5636809  66.3374878
  53.5584817   7.9784612  66.2625345  54.3228934   8.1311460  66.3544583
  49.8143652  12.1311627  58.5267862  49.0054975  11.8078301  58.4801172
  50.3218561  11.4244849  58.4596111  49.7693319  11.9792944  58.5098156
  40.4433930   9.5583820  64.2515226  39.5779449   9.5469511  64.1397998
  40.5432745   9.3714043  65.0986366  40.3308097   9.5289882  64.3604171
  56.4336860  11.0317502  69.0647986  56.8591931  10.5091923  68.5118411
  56.0693779  11.6298339  68.5436609  56.4423462  11.0427729  68.9056996
  46.0690939  19.3281719  67.8245332  46.3837498  20.1418107  67.8323114
  46.4784353  18.9431938  68.4927491  46.1759037  19.3910421  67.9249423
  53.0215459  14.7451766  65.3949144  53.4926637  15.4592028  65.5639129
  53.3575638  14.1450516  65.9309013  53.1410574  14.7623230  65.4981520
  53.6589405  14.5369700  72.1576836  53.1110351  13.9127584  71.8896902
  54.1202434  14.7263972  71.4420916  53.6456615  14.4728750  72.0127268
  43.4103960  13.2754827  67.4723940  44.0148817  13.2350662  66.8437761
  43.2031272  14.1225979  67.5027996  43.4692857  13.3942830  67.3840057
  53.2247732  15.5420773  68.6886178  54.0446106  15.3983739  68.9502473
  52.9441809  16.1666971  69.2302616  53.3044475  15.6131125  68.8074117
  38.6455242  12.2589445  67.3422863  38.5479520  11.4485716  67.6512920
  39.4284112  12.2381238  66.9569131  38.7471378  12.1356535  67.3309726
  69.6961382  23.1985624  61.6529054  69.6655386  24.0530261  61.8247323
  70.2942731  22.8980917  62.2115198  69.7798540  23.2802121  61.7603856
  62.8961067  22.2861275  66.4081984  62.0398962  22.4469774  66.4591101
  62.9428721  21.4153339  66.4287045  62.7760178  22.1812077  66.4188050
  57.2802207  31.8223993  62.1719216  56.5285106  31.4439532  61.9435261
  57.7288218  31.8542427  61.4238026  57.2351873  31.7709600  62.0276718
  62.7327167  32.2449363  57.6004763  62.3978535  32.9226284  57.1648985
  63.2454037  31.8554674  57.0121635  62.7592748  32.2873941  57.4491555
  62.2731458  34.1963631  63.5415875  62.6570837  34.7650530  63.0020650
  62.2090599  33.4713142  63.0621691  62.3204885  34.1739095  63.3909737
  65.7412888  24.3453319  69.0513636  66.2868848  25.0238406  69.1107606
  65.6829764  24.2040780  68.1915218  65.8128802  24.4245321  68.9325697
  58.8586963  31.8342385  64.4381988  58.9597326  31.0242739  64.7479116
  58.2628708  31.7399332  63.8081667  58.7859501  31.7007413  64.3908227
  67.5177957  25.7737926  59.9247364  67.4017483  26.5245612  60.3539502
  68.3133843  25.5161880  60.1743451  67.6182546  25.8472773  60.0251455
  58.6987702  36.7519975  65.8396845  59.3425158  37.1933139  66.2293003
  59.0243958  35.9473401  65.7527103  58.8419531  36.6985169  65.8842322
  52.0552007  27.8562672  64.0634322  51.8202192  27.0230324  63.9566591
  52.1937648  28.1367338  63.2495523  52.0407670  27.7746175  63.9276677
  54.3542095  20.0248403  66.9618630  53.7347126  19.4341050  66.7928645
  54.2525958  20.6159838  66.3282953  54.2479770  20.0252485  66.8423619
  59.4008282  29.7631949  61.2116706  59.7224123  30.3037157  60.6078014
  60.0480379  29.1928721  61.3438996  59.5434337  29.7591125  61.1423742
  61.4509990  21.7647944  61.2951093  62.1490155  21.9436072  61.7872556
  61.7662323  21.2418284  60.6721482  61.6005327  21.7141716  61.2753103
  54.0811228  23.5700684  69.2062199  53.9569924  24.1563130  69.8412018
  54.7329512  23.0760880  69.5074474  54.1584877  23.5839489  69.3448128
  61.6397926  28.1518389  61.2830884  62.0791561  27.5435490  61.7285657
  61.4902588  27.7725763  60.5116349  61.6819391  28.0056860  61.2350052
  59.1069569  26.7462401  68.4849710  59.7518571  26.2534844  68.1660658
  59.3471346  26.8887188  69.3115788  59.2380154  26.6939843  68.5599243
  61.6455660  29.5917307  68.1356602  61.9278903  28.7968713  67.9143358
  62.3741820  30.0697894  68.1561663  61.7945224  29.5451904  68.1059618
  59.6236854  17.1340341  65.3772368  59.2940184  17.5851485  64.7076066
  58.9481856  17.0556504  65.9245374  59.4747290  17.1891476  65.3595591
  65.2407262  26.5045571  58.2361654  65.1558557  27.3606537  58.3811222
  65.7291645  26.2289895  58.9043813  65.2996159  26.5902892  58.3563735
  66.8313262  13.1225864  63.6221978  66.5166703  13.8129342  64.0542401
  66.3140203  13.0670646  62.9207479  66.7077732  13.2160752  63.5818927
  66.1725695  23.1230365  59.7359389  65.6437167  23.3389998  60.3956695
  66.6950715  23.8166503  59.6560358  66.1714148  23.2573502  59.8214988
  71.6273748  28.6976669  65.1092433  70.7971451  28.9087313  65.2725850
  71.5783001  27.8713724  64.8334717  71.4980484  28.6066276  65.0929799
  58.0625303  27.0193582  58.5366857  57.4782518  27.5243613  58.9432721
  57.6595398  26.7935968  57.7963449  57.9164607  27.0601830  58.4871882
  53.6169332  32.7348343  65.3390528  53.1336910  33.4598832  65.3150112
  54.4292650  33.0324473  65.4500686  53.6660080  32.8850696  65.3517808
  59.6883486  31.5280523  67.9440343  59.1710427  31.1687938  67.3401651
  60.3857877  31.0042698  67.9546409  59.7149067  31.3978211  67.8570601
  63.3447078  31.9775337  73.9056516  63.4330424  31.7901478  74.7534726
  63.7736790  31.3312767  73.5061363  63.4209180  31.8538345  73.9728267
  60.9117538  31.2606497  72.8874178  60.3488372  30.8479107  73.4113839
  61.6738561  31.1859403  73.3067321  60.9411986  31.1883898  73.0267178
  62.5202518  23.2659234  57.0135777  62.7598521  23.4737217  56.2011120
  62.8418359  22.4616742  57.1224722  62.6039675  23.1773335  56.9096330
  57.8292808  15.1952629  60.8595315  58.5838776  15.5630946  60.6212365
  57.6520342  15.5692184  61.6274495  57.9147286  15.3050817  60.9380204
  56.4713529  33.2504519  65.4910808  57.1734108  32.7356508  65.5483565
  56.3911012  33.5778670  66.2957683  56.5637289  33.2218745  65.6183600
  57.5192436  23.4880106  74.6191223  57.6912939  23.3786000  75.4676505
  58.0561793  24.1334511  74.3822416  57.6237440  23.5672107  74.7096320
  56.1849872  17.6022948  57.5573428  56.0025446  17.8194829  56.7314421
  57.0475486  17.7161961  57.6132043  56.2854462  17.6512846  57.4427915
  55.7964304  29.4410871  64.9996416  56.6353204  29.6733803  65.0470178
  55.8276074  28.5715182  64.9303452  55.9246022  29.3467817  64.9961061
  56.4217007  29.8611746  69.3009722  56.9615232  29.7182877  69.9713094
  55.7386954  30.2608497  69.6693748  56.4009161  29.8991417  69.4544143
  61.8649592  14.6049359  60.5922452  62.5935752  14.4265314  60.1460608
  61.9544485  15.4467439  60.8029630  61.9856254  14.7033237  60.5575970
  65.8457892  25.5402746  64.4954746  66.6015407  25.9734261  64.5343655
  65.9520217  24.8907516  65.0689382  65.9728063  25.5080230  64.5852772
  68.8838063  29.3676024  65.2457149  68.4473295  29.3712766  66.0016120
  68.5500979  30.0481523  64.8136727  68.7700683  29.4688479  65.2937982
  63.4567137  31.4084357  76.5700299  64.2407554  31.5215204  76.9356042
  63.2563732  30.5825494  76.7658985  63.5433162  31.3031076  76.6534685
  51.8254153  26.0812037  69.4544143  51.5592568  25.2651153  69.6135134
  51.8392717  26.1265192  68.5839659  51.7878875  25.9668941  69.3497625
  55.7311900  20.8797121  56.0695901  55.0170077  20.5935301  56.4818334
  56.2155868  21.2193747  56.7102289  55.6971263  20.8878771  56.2251536
  56.5752759  19.6190415  72.1011151  55.8824556  19.1487395  72.3471883
  57.1913086  19.3928719  72.6752858  56.5637289  19.5157547  72.2220304
  63.6137530  33.3194459  70.2166755  62.8152776  33.0793959  70.4740624
  64.0623542  33.3708851  70.9633803  63.5612142  33.2916850  70.3651679
  72.0182410  26.0856944  64.1376786  72.6798844  25.5247612  64.0372695
  71.3773822  25.5908974  64.4629477  72.0211277  25.9293353  64.1709126
  62.9059217  29.3827075  56.4457710  63.3210366  29.0512099  55.7542205
  62.0751147  29.1495977  56.3177846  62.8447226  29.2998331  56.3248557
  52.2347566  26.8670816  66.7355888  52.0523139  26.8417702  65.8828180
  52.9697235  27.3369754  66.7744796  52.3161630  26.9332178  66.6153806
  68.3047240  27.1022326  63.8788775  68.5402830  27.2467525  63.0515626
  68.4536804  27.8664734  64.2720289  68.3613044  27.2361380  63.8152379
  55.2993318  23.5855819  73.2437996  56.0233290  23.5708850  73.7302891
  55.4009454  24.2951174  72.7459964  55.4211527  23.6880522  73.2416783
  70.1337697  25.9423992  61.7158379  70.4645914  26.4751632  61.1098474
  70.7070785  25.9962880  62.3720330  70.2671376  26.0293561  61.7236161
  65.3469586  23.7888895  62.3981959  65.4416441  24.5278189  62.8521584
  64.7228430  23.3606370  62.8316524  65.2678616  23.8350215  62.5290107
  63.6022060  26.9675107  73.0472240  64.1760922  26.3302351  73.2020804
  63.5236864  26.9679190  72.1781898  63.6755295  26.8740219  72.9418651
  52.2018477  23.7464317  66.8854954  52.7791979  23.6100767  67.5247199
  51.5032538  23.2900101  67.1400538  52.1839498  23.6586583  67.0177244
  65.5992608  25.6337634  55.6318911  65.5172770  25.7039822  56.4973898
  66.2372328  26.1967378  55.4402652  65.6812445  25.7276605  55.7308860
  58.9585779  25.3998372  65.0993437  58.7005023  24.5670107  65.0724737
  59.0134262  25.6255985  64.2585938  58.9285557  25.3096144  64.9713574
  64.0386829  17.5026823  65.1997530  63.3343156  17.0136009  65.3581449
  64.0871803  17.5149297  64.3285974  63.9416880  17.4316471  65.0936870
  57.9320491  22.9536135  65.5858332  57.3570082  23.1128303  66.2222293
  57.5556167  22.3171544  65.1226783  57.7923303  22.8833948  65.6112890
  61.5993780  21.4259484  70.4450710  61.2108212  21.0013702  69.7902902
  60.9348478  21.6741634  70.9527737  61.4440707  21.3998205  70.4238578
  71.2417049  21.1834489  63.2198541  70.9853613  20.3714430  63.0296423
  72.0846363  21.1912056  62.9928728  71.3283074  21.0646486  63.1583358
  47.6777310  22.5976210  63.6002773  47.7637562  22.2208078  64.3816303
  48.3053107  22.2236655  63.1222731  47.7833861  22.4861692  63.6448250
  62.7032718  25.6558089  58.6427517  63.5173357  25.9472981  58.5310289
  62.6391859  25.0017951  58.0685810  62.8135457  25.6023283  58.5416355
  58.5740626  29.1279606  63.7699830  59.2114573  28.8891354  64.3151623
  58.9995698  29.3316765  63.0352990  58.7316792  29.1230616  63.7416987
  53.2653268  31.3667943  67.6534133  53.3057414  31.6382794  66.8253913
  53.8247792  31.8909851  68.0691921  53.3536614  31.4843698  67.5926021
  59.2143441  24.3481896  58.1074719  59.5988594  24.1289603  58.8591264
  58.9655061  25.1744841  58.2375795  59.2345514  24.4380042  58.2375795
  69.9478629  28.1228534  69.1185388  69.6424446  28.8556590  69.4798703
  69.2284844  27.7166463  68.8378174  69.7965971  28.1710267  69.1298525
  60.9562098  29.6052029  65.4493616  61.0301106  29.4427201  66.3035466
  61.7731604  29.7942218  65.2054097  61.0878457  29.6088771  65.5391641
  54.7167855  29.9509892  62.4788059  53.8905972  30.1971629  62.3522338
  54.7779846  29.8721972  63.3450117  54.6042022  29.9754841  62.5877004
  56.9343878  16.0178833  63.4383499  56.0666304  16.0901432  63.5041109
  57.2219083  16.8200912  63.6271475  56.8483627  16.1472980  63.4758266
  59.4966684  32.5686772  60.1807089  59.7864982  32.1775753  59.4566316
  60.2270165  32.7503477  60.6212364  59.6473568  32.5380586  60.1389896
  60.0861429  27.3704518  71.2660220  59.5873123  28.0820285  71.3445108
  60.8961653  27.6905184  71.2278382  60.1317536  27.5231366  71.2716788
  57.4372599  34.5454154  63.2467239  57.2172895  34.2551509  64.0393906
  57.2167121  33.8869109  62.7185151  57.3720193  34.4053863  63.2856148
  56.3489546  26.6327471  65.5122941  56.0602795  26.0064942  66.0468668
  57.2172895  26.5747758  65.5787621  56.4349798  26.5315015  65.6013895
  67.1367444  21.7762254  65.8304922  66.7932210  21.0552589  66.1812172
  67.2360487  21.5676105  64.9883281  67.1009487  21.6386457  65.7576602
  59.6040555  35.9183544  62.0297931  60.2564613  35.3859986  62.2588957
  58.9066164  35.5652196  62.4165805  59.5971273  35.7873067  62.1210099
  56.5521820  28.2722722  61.4365306  57.3067788  28.6535761  61.6500768
  55.9592433  28.7233865  61.8912002  56.5758533  28.3951549  61.5348184
  67.5980473  28.2387958  61.3728911  68.1638506  28.8981168  61.2887454
  66.9508377  28.5837656  61.8445313  67.5859230  28.3869900  61.4301667
  57.8720046  29.4431283  66.8105421  57.3500800  29.5831575  67.4957286
  58.2594067  28.6841947  67.0007538  57.8523747  29.3516807  66.9406498
  54.8611230  19.4937092  60.8800376  54.5736026  19.1238362  60.1432323
  55.5481699  19.9631947  60.6184081  54.9200128  19.5084061  60.7315451
  64.0687051  31.1826742  60.7965990  63.8273727  30.4494603  60.3893055
  64.2488384  31.7313599  60.1432323  64.0594675  31.1549134  60.6396213
  59.2986372  26.4735302  62.2086912  59.1029155  27.0810037  61.6147215
  59.5220718  25.7803246  61.7278586  59.3021013  26.4612828  62.0502993
  57.6964902  23.3590040  62.3267780  58.4187554  23.5231198  61.8671586
  57.2172895  24.0799705  62.2207120  57.7328633  23.4888270  62.2433394
  65.6558410  19.6953839  67.7064465  64.8169510  19.7215118  67.4702729
  65.7262777  20.3424574  68.2869812  65.5426803  19.7949965  67.7573582
  55.3472519  25.7648112  71.4321920  55.8593616  26.0432366  70.7830680
  55.0608861  26.5037407  71.7984733  55.3807382  25.9150466  71.3911798
  64.1027688  16.5939216  62.4392081  64.8054041  16.3946964  61.9612040
  63.8371877  15.8215158  62.7460925  64.1674320  16.4502182  62.4137523
  69.5315934  24.9021826  64.9925707  69.4449908  25.0577252  65.8460486
  69.0766413  25.5459901  64.6185112  69.4519190  25.0197581  65.0632814
  52.4339425  20.2718304  61.7285657  52.5355562  21.0744466  62.0566632
  53.2295312  20.0705640  61.4308737  52.5667331  20.3604203  61.7321012
  58.8656244  17.8574501  71.4922962  58.6739441  17.8729636  72.3422385
  59.7154840  18.0538175  71.4689617  58.9631966  17.8888852  71.6146257
  53.2503157  20.3865483  69.4706778  53.1088649  19.5349423  69.5951286
  53.5343721  20.4294143  68.6468984  53.2711003  20.2665233  69.3674402
  63.4041750  22.2232573  63.6151267  63.1576464  22.1428324  64.4488056
  63.7326873  21.4386041  63.4213794  63.4162993  22.0958838  63.7098790
  67.2989798  28.9315932  67.4038048  67.1604158  29.6296978  67.9086790
  66.5189796  28.7764589  67.0474230  67.1633025  29.0116099  67.4264322
  59.3638777  24.9589291  73.0274250  59.5082153  25.5390500  72.3917360
  59.7114425  25.3365588  73.7324104  59.4366238  25.1009995  73.0373245
  61.5358694  24.1579460  70.8099381  60.7882008  24.3510474  70.4047659
  61.6900219  23.3324679  70.5723503  61.4481122  24.0644571  70.7144787
  58.4366532  33.1492063  69.8935277  58.5856096  32.5894979  69.2408681
  59.2166534  33.2284065  70.2767795  58.5740625  33.0777629  69.8532226
  68.7943171  28.2894186  58.1654547  68.4149980  27.5031324  58.1583836
  68.1309417  28.8381043  58.0226191  68.6401646  28.2539010  58.1435344
  60.9619832  33.3206706  71.1719767  60.8863504  32.6515517  71.7270556
  60.8909692  34.0224494  71.6860434  60.9400439  33.3251613  71.3296615
  61.7760471  18.0530010  71.6994785  62.2333085  18.7853985  71.8267577
  61.8516800  17.6296476  72.4582041  61.8551441  18.0987249  71.8295862
  54.0193462  18.2995830  72.7884229  53.4835652  17.6876188  73.1044996
  54.0811227  18.8743966  73.4417895  53.9489095  18.2942758  72.9319655
  61.6190079  31.8407705  62.0043373  62.3839970  31.5717349  61.6826038
  61.5168169  31.3557715  62.7213436  61.7171575  31.7297270  62.0623201
  59.6542849  20.0432114  68.5436609  58.8638924  19.8623574  68.8653945
  60.0503472  19.2659067  68.5266904  59.5959725  19.9019575  68.5889157
  64.1408740  28.8719889  53.9843323  64.9081725  28.9320014  53.5749174
  63.6940049  28.3000330  53.4999641  64.1882167  28.7956464  53.8521033
  65.0386535  27.6774545  66.2696055  64.3631537  27.4459777  66.7709442
  65.0478912  27.0695727  65.6438160  64.9405040  27.5533470  66.2512207
  62.1680679  22.5192374  73.0260108  62.1039821  23.3802330  72.8980245
  62.3077867  22.2024367  72.2255659  62.1796149  22.5992540  72.8888321
  67.0403270  30.5339677  58.5006233  67.1223107  31.3406663  58.1767684
  67.5253012  30.5535636  59.2247006  67.1240428  30.6560339  58.5593132
  60.8499773  25.2124513  67.1676311  60.4262022  25.4129012  66.4315329
  60.6744628  24.3653361  67.2800611  60.7610654  25.1173294  67.0750001
  60.3511467  36.7275026  69.6297768  60.8407397  36.0285815  69.4473433
  59.7795699  36.4298896  70.2173825  60.3395997  36.5801249  69.6898809
  56.1382218  25.7076564  62.6004283  56.2946837  25.6423367  63.4560275
  56.4782811  26.4825117  62.3882963  56.2115453  25.8125762  62.6958878
  62.6761363  25.0834448  61.4697647  63.2176908  24.5804829  61.9336267
  62.9907922  25.0299643  60.6587132  62.8025760  25.0013869  61.4181459
  60.8447813  30.4751799  58.7537675  60.9140633  29.6166338  58.8930675
  61.6236268  30.6923680  58.4256699  60.9700663  30.3804663  58.7254832
  63.8250632  19.9770752  71.5219947  64.0392602  19.3381667  70.9683301
  63.2084531  20.4216576  71.0927809  63.7655962  19.9480896  71.3770378
  65.2355300  32.8989501  62.9674168  64.8435092  32.5956216  62.2497034
  65.3908372  33.7358591  62.7779122  65.2008890  32.9773337  62.8330665
  52.7116480  22.8911515  62.9165051  53.0915445  23.3096060  62.2525318
  52.1371845  23.4724970  63.2233894  52.6827805  23.0389374  62.8641792
  65.3994975  29.4639490  62.9080199  65.0409630  29.6354132  63.6844231
  64.9133686  29.9252695  62.3508197  65.2753672  29.5578461  62.9405468
  63.2165361  13.0870688  66.5107290  62.3458919  13.0609409  66.4640599
  63.4705702  12.9147880  65.6933136  63.1258921  13.0580832  66.3827427
  60.1883340  25.1438655  55.4480433  60.4775865  25.9203537  55.7224007
  60.2755139  24.6327386  56.1494932  60.2437597  25.1830573  55.5922931
  60.2414501  15.0976916  67.9680760  59.7252990  14.4057108  68.0932339
  59.6808430  15.7647694  67.9143359  60.0821015  15.0940174  67.9786826
  62.3106735  15.6369876  69.7973613  61.9238488  15.6618908  70.5787143
  61.8239672  15.0711555  69.3448129  62.1819244  15.5565627  69.8461517
  66.5599714  30.3543385  73.8547399  67.1979435  29.8603581  73.5209855
  65.9173806  30.2820786  73.2699626  66.5593941  30.2702394  73.7189754
  68.2856714  22.2032531  68.4213315  67.8584322  22.1158880  67.6661415
  67.6482767  22.3110307  69.0068159  68.1286322  22.2065191  68.3958757
  66.6153971  31.0463194  70.4952756  67.4046349  30.6952258  70.6154838
  66.7897569  31.8599582  70.2329390  66.7574253  31.1149051  70.4740624
  56.3547281  24.4571919  67.5480545  55.5135288  24.3575794  67.7559439
  56.5637289  25.2267400  67.8994866  56.2611974  24.5563963  67.6307860
  53.8322848  22.0791456  65.3765296  53.4379546  22.1534468  64.6015405
  53.2762965  22.4649403  65.9273657  53.6925661  22.1473231  65.3432955
  65.4687795  15.0572750  65.0569175  65.6737388  14.9895058  65.9026172
  65.1414219  15.8631572  64.9890352  65.4503043  15.1658691  65.1728830
  60.1663946  22.3853319  66.7978143  59.8627084  21.8309307  67.3988550
  59.4643367  22.5645529  66.3106177  60.0180156  22.3298101  66.8147848
  59.2230043  19.6953838  61.3622844  59.4989778  18.9772751  60.9500412
  59.8228713  20.2938758  61.1543950  59.3523308  19.6774209  61.2703606
  58.2282297  29.6003039  71.5050240  58.1202652  29.6105102  72.3712298
  58.4378079  30.4257820  71.3155194  58.2432408  29.7244114  71.6054332
  68.7221483  15.6104515  64.5371940  68.1095796  16.0974917  64.9225672
  68.8185658  14.9348006  65.0809591  68.6459380  15.5822823  64.6750798
  62.7240564  17.3667356  59.6369439  63.1784310  17.5377916  60.3617284
  63.1980610  16.7535467  59.2367215  62.8608884  17.3018241  59.6843201
  56.2456089  26.8515682  68.9672178  55.6544022  27.4925180  68.9375193
  57.0077113  27.2753299  68.9403477  56.2704350  27.0091520  68.9587325
  56.6416712  18.0117680  69.6340195  57.1018194  18.0856609  70.3715319
  56.6872819  18.8098934  69.2840017  56.7167267  18.1411827  69.6912952
  58.2900062  18.6784374  74.2012223  57.8985627  18.0317722  74.6368000
  58.4585924  19.2695810  74.8206478  58.2570972  18.6698642  74.3574929
  66.0045605  32.3024993  66.4004202  65.8065294  32.7915808  65.7060414
  65.3833316  32.5066235  66.9788336  65.8833170  32.4041532  66.3827426
  60.0653584  24.0709890  60.7414447  60.8095629  24.4584166  60.9797396
  60.2114280  23.2267316  60.9054934  60.1964169  24.0040363  60.8008416
  61.9833159  15.8660149  65.7746308  61.1369204  16.0382957  65.6487658
  61.9804292  15.0609493  66.1112136  61.8580309  15.7721178  65.8057435
  63.0531460  19.6435363  66.6408366  62.5791414  19.1177126  67.1513677
  63.4249595  19.0964836  66.0723227  63.0381349  19.4851360  66.6323513
  53.4304490  21.6406870  72.0091912  54.2930103  21.5402579  71.9229242
  53.0996273  21.0601579  71.4477484  53.5089686  21.5398497  71.9137318
  69.3168190  24.7037739  68.0515146  69.0766413  23.8644154  68.0557573
  69.7960197  24.7837906  68.7755920  69.3520374  24.5919139  68.1589949
  64.9814959  20.5371918  59.7034120  64.4537978  20.6200662  59.0139829
  65.4410667  21.2789790  59.6998764  64.9716810  20.6592580  59.6008815
  71.3173377  21.4839196  66.0044406  71.0783147  21.4435031  65.1665190
  71.4807278  22.3310348  66.1310127  71.3063681  21.6031281  65.8997888
  67.9219407  25.8689146  71.9349451  68.6453606  25.4161672  71.7560471
  67.6569370  26.1493811  71.1521779  67.9900681  25.8440114  71.7928166
  56.7906276  20.4649319  68.6702330  56.1659346  20.4767711  68.0628283
  56.4551871  20.9409494  69.3193570  56.6491768  20.5367836  68.6758898
  56.9748024  18.8074438  54.7275015  56.6260829  19.4594163  55.1906564
  56.4944470  18.7931551  53.9998886  56.8518268  18.9017491  54.6886106
  53.5031951  28.5249779  70.1106094  52.9731876  27.8342218  70.1601069
  53.7757045  28.5159965  69.2818803  53.4656674  28.4216911  69.9953510
  64.5352042  29.1075482  58.8343777  65.2586241  29.5733595  58.6908350
  64.0952633  29.1749091  58.0841374  64.5767734  29.1859318  58.7028558
  63.7038197  25.9673024  70.0844466  63.0895190  25.4231074  70.3793101
  64.2205482  25.4537260  69.6050282  63.6893859  25.8109433  70.0568694
  62.9434494  27.0377294  67.8188764  62.5162102  26.4127013  67.3854200
  62.9359438  26.7552216  68.6447772  62.8793635  26.9030075  67.8768592
  56.0597021  22.0742467  70.8877198  56.2190508  21.3185791  71.2928920
  55.8789915  22.6233407  71.5417936  56.0562380  22.0436281  71.0439904
  61.2720204  17.9146048  68.0331298  61.2962691  17.3806161  67.3444078
  61.5231677  17.4063357  68.6956889  61.3130122  17.7606952  68.0295943
  48.7827794  25.1977543  67.4674442  48.6771243  25.1524388  66.6026527
  48.0328014  25.5431324  67.7488727  48.6563396  25.2418452  67.3811772
  57.5521526  16.6416867  67.4137043  57.5919898  17.1426073  68.1271750
  56.7271191  16.7327260  67.1442966  57.4361052  16.7298683  67.4787581
  58.9735889  23.1577377  69.7110942  58.1427819  23.3251195  69.5046190
  58.9187407  22.7813327  70.4959827  58.8425304  23.1267108  69.7959470
  57.3772156  22.3000079  57.5693636  58.0117235  22.8960504  57.5043098
  57.4597766  22.0003537  58.3839506  57.4828707  22.3440987  57.6796723
  58.9551138  18.2314055  57.5439078  59.2766979  17.7517137  56.8898341
  59.2178082  19.0413701  57.3529890  59.0417164  18.2803952  57.4194570
  62.1848111  29.2532929  71.0637894  61.6773202  29.8068776  71.5078525
  61.8874757  29.3141219  70.2456669  62.0652996  29.3439240  71.0086351
  64.3510293  17.6186249  69.9062557  64.7765365  17.1658775  69.2946084
  63.7367286  17.0646319  70.1827345  64.3238939  17.4700225  69.8567583
  53.8825143  24.4967920  60.8383182  54.3917373  25.0932427  61.2194488
  54.3559416  24.2293894  60.1559602  54.0268519  24.5453735  60.7937705
  64.7955891  33.1696187  58.9941838  64.0785201  32.9957049  58.5289075
  65.4462629  32.9348759  58.4617324  64.7857742  33.1091979  58.8471056
  62.7904516  14.0901348  63.3153134  62.1472834  13.9398995  63.8838273
  62.4503923  13.8443694  62.5502239  62.6449594  14.0313471  63.2856149
  67.3803863  22.0460775  62.7383143  66.7095053  22.5890477  62.6096208
  68.0743613  22.5155630  62.4964838  67.3832730  22.1959046  62.6838671
  61.4290596  34.1857487  67.9694901  61.2056251  33.4276316  68.3378928
  60.9400440  34.2155508  67.2475341  61.3234045  34.0779712  67.9171642
  67.5431990  18.5016659  65.6473516  67.8959600  18.0746382  66.3219315
  66.6846792  18.4167502  65.7774593  67.4681435  18.4261399  65.7668527
  56.2415675  21.1324178  63.7056363  55.5227664  21.5488311  63.9729226
  56.6128037  21.6978417  63.1548001  56.1907607  21.2773460  63.6639170
  65.5415256  21.7652027  69.5958358  65.5213183  21.5835323  70.4493137
  65.5894457  22.6364046  69.5717942  65.5449897  21.8668566  69.7181653
  63.4861586  28.3539219  75.5206835  63.4457441  27.7088896  74.9351991
  64.2984904  28.2975837  75.8332247  63.6004739  28.2498186  75.4803784
  60.0769053  34.4057945  65.4231986  59.6629452  33.7432075  65.0335828
  60.7616428  34.5535804  64.9027680  60.1167425  34.3298603  65.2888483
  63.4434348  33.5648031  66.1755602  63.0450631  33.6750301  65.4076423
  62.8285567  33.7730097  66.7582162  63.2933237  33.6121599  66.1486902
  62.0162250  20.1722178  59.0429742  61.4227089  20.4939175  58.4914309
  62.0537527  19.3263274  58.8350848  61.9336639  20.0946507  58.9312513
  64.8920066  20.1301683  62.4731492  64.6633759  20.1534384  61.6309851
  65.1518142  19.3059150  62.5926503  64.8966254  20.0117763  62.3656690
  59.1739295  21.9836156  72.0756593  58.6618198  21.3757339  72.4341624
  59.0018791  22.6992748  72.5430568  59.0728932  21.9999455  72.1972816
  54.0205009  20.4273731  74.7258954  53.8507600  21.0875106  74.1807161
  53.5770959  20.6380292  75.4471443  53.9304343  20.5559713  74.7520584
  57.9464829  18.6678229  63.7685688  58.4222195  19.0295309  63.1335869
  57.4453428  19.3234697  64.0485831  57.9430188  18.8172418  63.7162429
  71.1776190  28.1399997  59.5598693  71.5609796  28.8891353  59.7896790
  70.3820304  28.3865817  59.3010682  71.1169972  28.2869691  59.5556267
  50.9207074  23.3320597  69.9847444  50.3733793  22.6621242  70.1028313
  51.7099452  22.9650445  70.0490911  50.9559257  23.1785583  70.0116145
  60.7691482  22.9928054  75.4810855  61.5202809  23.3079731  75.7950409
  60.9614059  22.7907225  74.6544777  60.9082896  23.0095436  75.4054251
  59.9891482  20.8119429  57.1359072  60.3690447  20.8299058  56.3510187
  59.2484078  21.2573418  57.0149919  59.9360320  20.8801204  57.0022640
  67.6176772  19.1201620  62.7234651  67.6170999  18.9650277  63.5818927
  67.4132952  19.9664607  62.6676036  67.5876550  19.2222241  62.8422590
  49.6794043  22.5441405  67.1393467  49.5015804  22.0918014  67.8648383
  49.3913065  23.3467566  67.3231945  49.6106996  22.5963962  67.2736970
  65.3417624  23.7999122  66.3770858  65.8371290  23.0822117  66.3374878
  64.5317400  23.4969920  66.2625345  65.2961518  23.6496768  66.3544583
  60.7876236  27.6496935  58.5267862  59.9787559  27.3263609  58.4801172
  61.2951145  26.9430157  58.4596111  60.7425903  27.4978252  58.5098156
  51.4166513  25.0769128  64.2515226  50.5512033  25.0654819  64.1397998
  51.5165329  24.8899351  65.0986366  51.3040680  25.0475190  64.3604171
  67.4069443  26.5502809  69.0647986  67.8324515  26.0277231  68.5118411
  67.0426363  27.1483647  68.5436609  67.4156046  26.5613036  68.9056996
  57.0423523  34.8467027  67.8245332  57.3570082  35.6603415  67.8323114
  57.4516936  34.4617246  68.4927491  57.1491621  34.9095729  67.9249423
  63.9948043  30.2637074  65.3949144  64.4659221  30.9777336  65.5639129
  64.3308221  29.6635824  65.9309013  64.1143158  30.2808538  65.4981520
  64.6321989  30.0555008  72.1576836  64.0842935  29.4312891  71.8896902
  65.0935018  30.2449280  71.4420916  64.6189198  29.9914058  72.0127268
  59.9810652  17.0380957  59.8186704  60.8026347  17.2079270  59.5768398
  59.5180303  17.1928218  59.0953001  60.0341815  17.0862690  59.6758348
  58.5705984  15.0323719  70.5985132  59.1150397  14.6914846  71.1889474
  58.6242920  15.8909181  70.7406417  58.6595104  15.1078979  70.7067006
  54.3836543  28.7940135  67.4723940  54.9881401  28.7535970  66.8437761
  54.1763856  29.6411287  67.5027996  54.4425440  28.9128138  67.3840057
  64.1980315  31.0606081  68.6886178  65.0178689  30.9169047  68.9502473
  63.9174393  31.6852279  69.2302616  64.2777059  31.1316433  68.8074117
  49.6187825  27.7774753  67.3422863  49.5212103  26.9671024  67.6512920
  50.4016695  27.7566546  66.9569131  49.7203962  27.6541843  67.3309726
  73.8693651  37.8046583  66.4081984  73.0131546  37.9655082  66.4591101
  73.9161304  36.9338647  66.4287045  73.7492762  37.6997385  66.4188050
  68.2534790  47.3409301  62.1719216  67.5017690  46.9624839  61.9435261
  68.7020802  47.3727735  61.4238026  68.2084457  47.2894908  62.0276718
  73.7059750  47.7634671  57.6004763  73.3711119  48.4411592  57.1648985
  74.2186621  47.3739982  57.0121635  73.7325331  47.8059249  57.4491555
  73.2464041  49.7148939  63.5415875  73.6303421  50.2835838  63.0020650
  73.1823183  48.9898450  63.0621691  73.2937469  49.6924403  63.3909737
  76.7145472  39.8638627  69.0513636  77.2601432  40.5423714  69.1107606
  76.6562348  39.7226088  68.1915218  76.7861386  39.9430629  68.9325697
  69.8319546  47.3527693  64.4381988  69.9329909  46.5428047  64.7479116
  69.2361292  47.2584640  63.8081667  69.7592085  47.2192721  64.3908227
  69.6720286  52.2705282  65.8396845  70.3157741  52.7118446  66.2293003
  69.9976542  51.4658709  65.7527103  69.8152115  52.2170477  65.8842322
  63.0284591  43.3747980  64.0634322  62.7934775  42.5415632  63.9566591
  63.1670231  43.6552646  63.2495523  63.0140253  43.2931483  63.9276677
  65.3274678  35.5433710  66.9618630  64.7079710  34.9526358  66.7928645
  65.2258542  36.1345146  66.3282953  65.2212354  35.5437793  66.8423619
  70.3740866  45.2817257  61.2116706  70.6956707  45.8222465  60.6078014
  71.0212962  44.7114029  61.3438996  70.5166921  45.2776432  61.1423742
  72.4242574  37.2833252  61.2951093  73.1222738  37.4621380  61.7872556
  72.7394906  36.7603592  60.6721482  72.5737911  37.2327024  61.2753103
  65.0543811  39.0885992  69.2062199  64.9302508  39.6748438  69.8412018
  65.7062096  38.5946188  69.5074474  65.1317460  39.1024797  69.3448128
  72.6130509  43.6703697  61.2830884  73.0524145  43.0620798  61.7285657
  72.4635172  43.2911071  60.5116349  72.6551975  43.5242168  61.2350052
  70.0802152  42.2647709  68.4849710  70.7251155  41.7720152  68.1660658
  70.3203929  42.4072496  69.3115788  70.2112737  42.2125151  68.5599243
  72.6188244  45.1102615  68.1356602  72.9011486  44.3154021  67.9143358
  73.3474404  45.5883202  68.1561663  72.7677807  45.0637212  68.1059618
  70.5969437  32.6525649  65.3772368  70.2672767  33.1036792  64.7076066
  69.9214439  32.5741812  65.9245374  70.4479874  32.7076784  65.3595591
  76.2139846  42.0230879  58.2361654  76.1291141  42.8791845  58.3811222
  76.7024229  41.7475203  58.9043813  76.2728743  42.1088200  58.3563735
  77.8045845  28.6411172  63.6221978  77.4899286  29.3314650  64.0542401
  77.2872787  28.5855954  62.9207479  77.6810316  28.7346060  63.5818927
  77.1458279  38.6415673  59.7359389  76.6169750  38.8575306  60.3956695
  77.6683299  39.3351811  59.6560358  77.1446732  38.7758810  59.8214988
  69.0357887  42.5378890  58.5366857  68.4515102  43.0428921  58.9432721
  68.6327982  42.3121276  57.7963449  68.8897191  42.5787138  58.4871882
  64.5901915  48.2533651  65.3390528  64.1069494  48.9784140  65.3150112
  65.4025234  48.5509781  65.4500686  64.6392663  48.4036004  65.3517808
  70.6616069  47.0465831  67.9440343  70.1443011  46.6873246  67.3401651
  71.3590461  46.5228006  67.9546409  70.6881651  46.9163519  67.8570601
  73.4935101  38.7844542  57.0135777  73.7331105  38.9922525  56.2011120
  73.8150942  37.9802050  57.1224722  73.5772259  38.6958643  56.9096330
  68.8025391  30.7137937  60.8595315  69.5571359  31.0816254  60.6212365
  68.6252926  31.0877492  61.6274495  68.8879870  30.8236125  60.9380204
  67.4446113  48.7689827  65.4910808  68.1466692  48.2541816  65.5483565
  67.3643596  49.0963978  66.2957683  67.5369873  48.7404053  65.6183600
  68.4925019  39.0065413  74.6191223  68.6645523  38.8971308  75.4676505
  69.0294377  39.6519819  74.3822416  68.5970023  39.0857415  74.7096320
  67.1582456  33.1208256  57.5573428  66.9758029  33.3380137  56.7314421
  68.0208069  33.2347269  57.6132043  67.2587046  33.1698154  57.4427915
  66.7696888  44.9596179  64.9996416  67.6085787  45.1919111  65.0470178
  66.8008657  44.0900490  64.9303452  66.8978606  44.8653125  64.9961061
  67.3949591  45.3797054  69.3009722  67.9347816  45.2368185  69.9713094
  66.7119537  45.7793805  69.6693748  67.3741745  45.4176725  69.4544143
  72.8382175  30.1234667  60.5922452  73.5668336  29.9450622  60.1460608
  72.9277068  30.9652747  60.8029630  72.9588837  30.2218545  60.5575970
  76.8190476  41.0588054  64.4954746  77.5747991  41.4919569  64.5343655
  76.9252800  40.4092824  65.0689382  76.9460647  41.0265538  64.5852772
  62.7986736  41.5997345  69.4544143  62.5325151  40.7836461  69.6135134
  62.8125300  41.6450500  68.5839659  62.7611458  41.4854249  69.3497625
  66.7044483  36.3982429  56.0695901  65.9902660  36.1120608  56.4818334
  67.1888452  36.7379055  56.7102289  66.6703846  36.4064079  56.2251536
  67.5485343  35.1375723  72.1011151  66.8557139  34.6672703  72.3471883
  68.1645670  34.9114027  72.6752858  67.5369872  35.0342855  72.2220304
  73.8791801  44.9012383  56.4457710  74.2942950  44.5697407  55.7542205
  73.0483731  44.6681285  56.3177846  73.8179810  44.8183639  56.3248557
  63.2080150  42.3856124  66.7355888  63.0255723  42.3603010  65.8828180
  63.9429819  42.8555062  66.7744796  63.2894214  42.4517486  66.6153806
  66.2725901  39.1041127  73.2437996  66.9965874  39.0894157  73.7302891
  66.3742038  39.8136482  72.7459964  66.3944111  39.2065830  73.2416783
  76.3202170  39.3074203  62.3981959  76.4149024  40.0463497  62.8521584
  75.6961013  38.8791678  62.8316524  76.2411200  39.3535523  62.5290107
  63.1751060  39.2649625  66.8854954  63.7524563  39.1286075  67.5247199
  62.4765122  38.8085409  67.1400538  63.1572082  39.1771891  67.0177244
  76.5725191  41.1522942  55.6318911  76.4905354  41.2225129  56.4973898
  77.2104912  41.7152686  55.4402652  76.6545029  41.2461913  55.7308860
  69.9318362  40.9183680  65.0993437  69.6737607  40.0855415  65.0724737
  69.9866845  41.1441293  64.2585938  69.9018140  40.8281452  64.9713574
  75.0119412  33.0212131  65.1997530  74.3075739  32.5321316  65.3581449
  75.0604387  33.0334605  64.3285974  74.9149464  32.9501779  65.0936870
  68.9053074  38.4721443  65.5858332  68.3302666  38.6313611  66.2222293
  68.5288751  37.8356852  65.1226783  68.7655887  38.4019256  65.6112890
  72.5726363  36.9444792  70.4450710  72.1840796  36.5199010  69.7902902
  71.9081061  37.1926942  70.9527737  72.4173291  36.9183513  70.4238578
  58.6509893  38.1161518  63.6002773  58.7370145  37.7393386  64.3816303
  59.2785691  37.7421963  63.1222731  58.7566444  38.0047000  63.6448250
  73.6765301  41.1743397  58.6427517  74.4905940  41.4658289  58.5310289
  73.6124443  40.5203259  58.0685810  73.7868040  41.1208591  58.5416355
  69.5473210  44.6464914  63.7699830  70.1847157  44.4076662  64.3151623
  69.9728281  44.8502073  63.0352990  69.7049376  44.6415924  63.7416987
  64.2385852  46.8853251  67.6534133  64.2789997  47.1568102  66.8253913
  64.7980376  47.4095159  68.0691921  64.3269198  47.0029006  67.5926021
  70.1876025  39.8667204  58.1074719  70.5721177  39.6474911  58.8591264
  69.9387645  40.6930149  58.2375795  70.2078097  39.9565350  58.2375795
  71.9294682  45.1237337  65.4493616  72.0033690  44.9612509  66.3035466
  72.7464188  45.3127526  65.2054097  72.0611040  45.1274079  65.5391641
  65.6900438  45.4695200  62.4788059  64.8638556  45.7156937  62.3522338
  65.7512429  45.3907280  63.3450117  65.5774605  45.4940149  62.5877004
  67.9076462  31.5364141  63.4383499  67.0398887  31.6086740  63.5041109
  68.1951666  32.3386219  63.6271475  67.8216210  31.6658288  63.4758266
  70.4699267  48.0872080  60.1807089  70.7597566  47.6961061  59.4566316
  71.2002748  48.2688785  60.6212364  70.6206151  48.0565894  60.1389896
  71.0594012  42.8889826  71.2660220  70.5605706  43.6005593  71.3445108
  71.8694237  43.2090492  71.2278382  71.1050119  43.0416674  71.2716788
  68.4105183  50.0639462  63.2467239  68.1905478  49.7736817  64.0393906
  68.1899705  49.4054417  62.7185151  68.3452777  49.9239171  63.2856148
  67.3222130  42.1512779  65.5122941  67.0335379  41.5250250  66.0468668
  68.1905478  42.0933066  65.5787621  67.4082382  42.0500323  65.6013895
  78.1100028  37.2947562  65.8304922  77.7664794  36.5737897  66.1812172
  78.2093070  37.0861413  64.9883281  78.0742071  37.1571765  65.7576602
  70.5773139  51.4368852  62.0297931  71.2297197  50.9045294  62.2588957
  69.8798747  51.0837504  62.4165805  70.5703857  51.3058375  62.1210099
  67.5254403  43.7908030  61.4365306  68.2800371  44.1721069  61.6500768
  66.9325016  44.2419173  61.8912002  67.5491117  43.9136857  61.5348184
  68.8452630  44.9616591  66.8105421  68.3233384  45.1016883  67.4957286
  69.2326650  44.2027255  67.0007538  68.8256331  44.8702115  66.9406498
  65.8343814  35.0122400  60.8800376  65.5468610  34.6423670  60.1432323
  66.5214282  35.4817255  60.6184081  65.8932711  35.0269369  60.7315451
  75.0419635  46.7012050  60.7965990  74.8006311  45.9679911  60.3893055
  75.2220968  47.2498907  60.1432323  75.0327259  46.6734441  60.6396213
  70.2718956  41.9920610  62.2086912  70.0761738  42.5995345  61.6147215
  70.4953301  41.2988554  61.7278586  70.2753597  41.9798136  62.0502993
  68.6697486  38.8775348  62.3267780  69.3920138  39.0416506  61.8671586
  68.1905478  39.5985013  62.2207120  68.7061216  39.0073578  62.2433394
  76.6290993  35.2139147  67.7064465  75.7902094  35.2400426  67.4702729
  76.6995361  35.8609882  68.2869812  76.5159387  35.3135273  67.7573582
  66.3205102  41.2833420  71.4321920  66.8326199  41.5617674  70.7830680
  66.0341445  42.0222714  71.7984733  66.3539966  41.4335774  71.3911798
  75.0760272  32.1124524  62.4392081  75.7786624  31.9132272  61.9612040
  74.8104460  31.3400466  62.7460925  75.1406904  31.9687490  62.4137523
  63.4072009  35.7903612  61.7285657  63.5088145  36.5929774  62.0566632
  64.2027895  35.5890948  61.4308737  63.5399914  35.8789511  61.7321012
  69.8388828  33.3759809  71.4922962  69.6472025  33.3914943  72.3422385
  70.6887424  33.5723483  71.4689617  69.9364550  33.4074160  71.6146257
  64.2235741  35.9050790  69.4706778  64.0821233  35.0534731  69.5951286
  64.5076304  35.9479451  68.6468984  64.2443587  35.7850541  69.3674402
  74.3774333  37.7417881  63.6151267  74.1309047  37.6613632  64.4488056
  74.7059456  36.9571349  63.4213794  74.3895577  37.6144146  63.7098790
  78.2722382  44.4501240  67.4038048  78.1336741  45.1482286  67.9086790
  77.4922380  44.2949897  67.0474230  78.1365609  44.5301407  67.4264322
  70.3371360  40.4774599  73.0274250  70.4814736  41.0575807  72.3917360
  70.6847009  40.8550896  73.7324104  70.4098822  40.6195303  73.0373245
  72.5091278  39.6764768  70.8099381  71.7614592  39.8695782  70.4047659
  72.6632803  38.8509987  70.5723503  72.4213705  39.5829879  70.7144787
  72.7493055  33.5715318  71.6994785  73.2065669  34.3039293  71.8267577
  72.8249384  33.1481784  72.4582041  72.8284025  33.6172556  71.8295862
  64.9926046  33.8181138  72.7884229  64.4568235  33.2061496  73.1044996
  65.0543811  34.3929274  73.4417895  64.9221679  33.8128066  72.9319655
  72.5922663  47.3593013  62.0043373  73.3572554  47.0902657  61.6826038
  72.4900753  46.8743023  62.7213436  72.6904158  47.2482578  62.0623201
  70.6275433  35.5617422  68.5436609  69.8371507  35.3808882  68.8653945
  71.0236056  34.7844375  68.5266904  70.5692309  35.4204883  68.5889157
  75.1141323  44.3905197  53.9843323  75.8814309  44.4505322  53.5749174
  74.6672632  43.8185638  53.4999641  75.1614751  44.3141772  53.8521033
  76.0119119  43.1959852  66.2696055  75.3364121  42.9645085  66.7709442
  76.0211495  42.5881035  65.6438160  75.9137624  43.0718778  66.2512207
  73.1413263  38.0377681  73.0260108  73.0772404  38.8987638  72.8980245
  73.2810451  37.7209675  72.2255659  73.1528733  38.1177848  72.8888321
  78.0135854  46.0524985  58.5006233  78.0955691  46.8591971  58.1767684
  78.4985596  46.0720944  59.2247006  78.0973011  46.1745647  58.5593132
  71.8232357  40.7309821  67.1676311  71.3994606  40.9314320  66.4315329
  71.6477212  39.8838669  67.2800611  71.7343237  40.6358602  67.0750001
  67.1114802  41.2261872  62.6004283  67.2679421  41.1608675  63.4560275
  67.4515395  42.0010425  62.3882963  67.1848037  41.3311070  62.6958878
  73.6493946  40.6019756  61.4697647  74.1909492  40.0990137  61.9336267
  73.9640506  40.5484950  60.6587132  73.7758344  40.5199177  61.4181459
  71.8180396  45.9937107  58.7537675  71.8873216  45.1351646  58.8930675
  72.5968851  46.2108988  58.4256699  71.9433246  45.8989971  58.7254832
  74.7983216  35.4956060  71.5219947  75.0125185  34.8566974  70.9683301
  74.1817115  35.9401884  71.0927809  74.7388545  35.4666204  71.3770378
  76.2087884  48.4174809  62.9674168  75.8167675  48.1141524  62.2497034
  76.3640956  49.2543899  62.7779122  76.1741474  48.4958645  62.8330665
  63.6849063  38.4096823  62.9165051  64.0648028  38.8281368  62.2525318
  63.1104428  38.9910278  63.2233894  63.6560388  38.5574681  62.8641792
  76.3727559  44.9824797  62.9080199  76.0142213  45.1539440  63.6844231
  75.8866269  45.4438003  62.3508197  76.2486255  45.0763769  62.9405468
  74.1897944  28.6055996  66.5107290  73.3191502  28.5794717  66.4640599
  74.4438286  28.4333188  65.6933136  74.0991505  28.5766140  66.3827427
  71.1615924  40.6623963  55.4480433  71.4508449  41.4388845  55.7224007
  71.2487723  40.1512694  56.1494932  71.2170180  40.7015881  55.5922931
  71.2147085  30.6162224  67.9680760  70.6985574  29.9242416  68.0932339
  70.6541014  31.2833001  67.9143359  71.0553598  30.6125482  67.9786826
  73.2839318  31.1555184  69.7973613  72.8971072  31.1804216  70.5787143
  72.7972256  30.5896863  69.3448129  73.1551827  31.0750935  69.8461517
  67.3279865  39.9757227  67.5480545  66.4867871  39.8761102  67.7559439
  67.5369873  40.7452708  67.8994866  67.2344557  40.0749271  67.6307860
  64.8055432  37.5976764  65.3765296  64.4112130  37.6719776  64.6015405
  64.2495549  37.9834711  65.9273657  64.6658244  37.6658539  65.3432955
  76.4420379  30.5758058  65.0569175  76.6469972  30.5080366  65.9026172
  76.1146803  31.3816880  64.9890352  76.4235627  30.6843999  65.1728830
  71.1396530  37.9038627  66.7978143  70.8359667  37.3494615  67.3988550
  70.4375951  38.0830837  66.3106177  70.9912740  37.8483409  66.8147848
  70.1962627  35.2139146  61.3622844  70.4722361  34.4958059  60.9500412
  70.7961296  35.8124066  61.1543950  70.3255891  35.1959517  61.2703606
  69.2014881  45.1188347  71.5050240  69.0935236  45.1290409  72.3712298
  69.4110662  45.9443128  71.3155194  69.2164992  45.2429422  71.6054332
  73.6973147  32.8852664  59.6369439  74.1516894  33.0563224  60.3617284
  74.1713193  32.2720774  59.2367215  73.8341467  32.8203549  59.6843201
  67.2188673  42.3700990  68.9672178  66.6276606  43.0110488  68.9375193
  67.9809696  42.7938607  68.9403477  67.2436933  42.5276828  68.9587325
  67.6149296  33.5302987  69.6340195  68.0750777  33.6041917  70.3715319
  67.6605402  34.3284242  69.2840017  67.6899851  33.6597135  69.6912952
  69.2632645  34.1969682  74.2012223  68.8718210  33.5503029  74.6368000
  69.4318508  34.7881118  74.8206478  69.2303556  34.1883950  74.3574929
  76.9778189  47.8210301  66.4004202  76.7797878  48.3101116  65.7060414
  76.3565900  48.0251543  66.9788336  76.8565753  47.9226840  66.3827426
  71.0386167  39.5895198  60.7414447  71.7828212  39.9769474  60.9797396
  71.1846864  38.7452623  60.9054934  71.1696752  39.5225671  60.8008416
  72.9565743  31.3845457  65.7746308  72.1101788  31.5568265  65.6487658
  72.9536875  30.5794801  66.1112136  72.8312893  31.2906486  65.8057435
  74.0264043  35.1620671  66.6408366  73.5523997  34.6362433  67.1513677
  74.3982179  34.6150144  66.0723227  74.0113932  35.0036668  66.6323513
  64.4037073  37.1592178  72.0091912  65.2662686  37.0587887  71.9229242
  64.0728856  36.5786887  71.4477484  64.4822270  37.0583805  71.9137318
  75.9547543  36.0557226  59.7034120  75.4270561  36.1385970  59.0139829
  76.4143251  36.7975097  59.6998764  75.9449393  36.1777888  59.6008815
  67.7638859  35.9834627  68.6702330  67.1391929  35.9953019  68.0628283
  67.4284454  36.4594802  69.3193570  67.6224351  36.0553144  68.6758898
  67.9480608  34.3259746  54.7275015  67.5993412  34.9779471  55.1906564
  67.4677054  34.3116859  53.9998886  67.8250852  34.4202799  54.6886106
  64.4764535  44.0435087  70.1106094  63.9464459  43.3527526  70.1601069
  64.7489628  44.0345273  69.2818803  64.4389257  43.9402219  69.9953510
  75.5084625  44.6260790  58.8343777  76.2318824  45.0918903  58.6908350
  75.0685216  44.6934399  58.0841374  75.5500318  44.7044626  58.7028558
  74.6770780  41.4858332  70.0844466  74.0627774  40.9416382  70.3793101
  75.1938065  40.9722568  69.6050282  74.6626443  41.3294741  70.0568694
  73.9167078  42.5562602  67.8188764  73.4894686  41.9312321  67.3854200
  73.9092022  42.2737524  68.6447772  73.8526219  42.4215383  67.8768592
  67.0329605  37.5927775  70.8877198  67.1923091  36.8371099  71.2928920
  66.8522498  38.1418714  71.5417936  67.0294964  37.5621589  71.0439904
  72.2452787  33.4331356  68.0331298  72.2695274  32.8991469  67.3444078
  72.4964261  32.9248665  68.6956889  72.2862706  33.2792260  68.0295943
  59.7560377  40.7162851  67.4674442  59.6503826  40.6709696  66.6026527
  59.0060597  41.0616632  67.7488727  59.6295980  40.7603760  67.3811772
  68.5254110  32.1602175  67.4137043  68.5652481  32.6611381  68.1271750
  67.7003774  32.2512568  67.1442966  68.4093635  32.2483991  67.4787581
  69.9468473  38.6762684  69.7110942  69.1160403  38.8436502  69.5046190
  69.8919990  38.2998635  70.4959827  69.8157888  38.6452416  69.7959470
  68.3204517  36.9518276  60.2401059  68.4607478  37.4490740  60.9429701
  68.8187050  36.2504570  60.3815273  68.4145598  36.9220255  60.3652638
  68.3504739  37.8185387  57.5693636  68.9849819  38.4145812  57.5043098
  68.4330350  37.5188845  58.3839506  68.4561290  37.8626295  57.6796723
  69.9283722  33.7499362  57.5439078  70.2499563  33.2702445  56.8898341
  70.1910666  34.5599009  57.3529890  70.0149747  33.7989260  57.4194570
  75.3242877  33.1371556  69.9062557  75.7497949  32.6844083  69.2946084
  74.7099870  32.5831627  70.1827345  75.2971522  32.9885533  69.8567583
  64.8557727  40.0153228  60.8383182  65.3649956  40.6117735  61.2194488
  65.3291999  39.7479201  60.1559602  65.0001103  40.0639043  60.7937705
  75.7688475  48.6881495  58.9941838  75.0517785  48.5142357  58.5289075
  76.4195213  48.4534067  58.4617324  75.7590326  48.6277287  58.8471056
  73.7637100  29.6086656  63.3153134  73.1205418  29.4584303  63.8838273
  73.4236507  29.3629001  62.5502239  73.6182177  29.5498779  63.2856149
  72.4023180  49.7042795  67.9694901  72.1788834  48.9461624  68.3378928
  71.9133023  49.7340816  67.2475341  72.2966629  49.5965020  67.9171642
  67.2148259  36.6509486  63.7056363  66.4960248  37.0673619  63.9729226
  67.5860621  37.2163725  63.1548001  67.1640191  36.7958768  63.6639170
  76.5147840  37.2837335  69.5958358  76.4945767  37.1020630  70.4493137
  76.5627040  38.1549354  69.5717942  76.5182481  37.3853874  69.7181653
  71.0501637  49.9243253  65.4231986  70.6362036  49.2617383  65.0335828
  71.7349011  50.0721112  64.9027680  71.0900009  49.8483911  65.2888483
  74.4166931  49.0833338  66.1755602  74.0183214  49.1935609  65.4076423
  73.8018151  49.2915405  66.7582162  74.2665820  49.1306906  66.1486902
  72.9894833  35.6907486  59.0429742  72.3959672  36.0124483  58.4914309
  73.0270111  34.8448582  58.8350848  72.9069222  35.6131815  58.9312513
  75.8652650  35.6486991  62.4731492  75.6366343  35.6719692  61.6309851
  76.1250726  34.8244458  62.5926503  75.8698838  35.5303071  62.3656690
  70.1471878  37.5021464  72.0756593  69.6350781  36.8942647  72.4341624
  69.9751374  38.2178056  72.5430568  70.0461515  37.5184763  72.1972816
  64.9937593  35.9459039  74.7258954  64.8240183  36.6060414  74.1807161
  64.5503543  36.1565600  75.4471443  64.9036926  36.0745021  74.7520584
  68.9197412  34.1863537  63.7685688  69.3954778  34.5480617  63.1335869
  68.4186012  34.8420005  64.0485831  68.9162771  34.3357726  63.7162429
  61.8939657  38.8505905  69.9847444  61.3466377  38.1806550  70.1028313
  62.6832036  38.4835753  70.0490911  61.9291841  38.6970891  70.0116145
  70.9624065  36.3304737  57.1359072  71.3423030  36.3484366  56.3510187
  70.2216661  36.7758726  57.0149919  70.9092903  36.3986511  57.0022640
  60.6526627  38.0626712  67.1393467  60.4748388  37.6103321  67.8648383
  60.3645649  38.8652874  67.3231945  60.5839580  38.1149270  67.2736970
  76.3150208  39.3184430  66.3770858  76.8103873  38.6007425  66.3374878
  75.5049984  39.0155228  66.2625345  76.2694101  39.1682076  66.3544583
  71.7608819  43.1682243  58.5267862  70.9520142  42.8448917  58.4801172
  72.2683728  42.4615465  58.4596111  71.7158486  43.0163559  58.5098156
  62.3899097  40.5954436  64.2515226  61.5244616  40.5840127  64.1397998
  62.4897913  40.4084659  65.0986366  62.2773264  40.5660497  64.3604171
  78.3802027  42.0688117  69.0647986  78.8057098  41.5462539  68.5118411
  78.0158947  42.6668955  68.5436609  78.3888629  42.0798344  68.9056996
  68.0156107  50.3652335  67.8245332  68.3302666  51.1788723  67.8323114
  68.4249520  49.9802554  68.4927491  68.1224205  50.4281037  67.9249423
  74.9680626  45.7822382  65.3949144  75.4391804  46.4962644  65.5639129
  75.3040805  45.1821132  65.9309013  75.0875741  45.7993846  65.4981520
  70.9543236  32.5566265  59.8186704  71.7758930  32.7264578  59.5768398
  70.4912887  32.7113526  59.0953001  71.0074398  32.6047998  59.6758348
  69.5438568  30.5509027  70.5985132  70.0882981  30.2100154  71.1889474
  69.5975504  31.4094489  70.7406417  69.6327687  30.6264287  70.7067006
  65.3569127  44.3125443  67.4723940  65.9613984  44.2721277  66.8437761
  65.1496439  45.1596595  67.5027996  65.4158024  44.4313446  67.3840057
  60.5920409  43.2960061  67.3422863  60.4944687  42.4856332  67.6512920
  61.3749279  43.2751854  66.9569131  60.6936545  43.1727151  67.3309726
  77.6777067  51.9167737  56.0695901  76.9635244  51.6305916  56.4818334
  78.1621035  52.2564363  56.7102289  77.6436430  51.9249387  56.2251536
  69.6242477  53.6346825  63.6002773  69.7102729  53.2578694  64.3816303
  70.2518274  53.2607271  63.1222731  69.7299028  53.5232308  63.6448250
  76.8076398  50.5307708  60.8800376  76.5201193  50.1608978  60.1432323
  77.4946866  51.0002563  60.6184081  76.8665295  50.5454677  60.7315451
  74.3804592  51.3088920  61.7285657  74.4820729  52.1115082  62.0566632
  75.1760479  51.1076256  61.4308737  74.5132498  51.3974819  61.7321012
  74.6581647  53.9282131  62.9165051  75.0380612  54.3466676  62.2525318
  74.0837012  54.5095586  63.2233894  74.6292972  54.0759989  62.8641792
  75.8290311  55.5338536  60.8383182  76.3382540  56.1303043  61.2194488
  76.3024583  55.2664509  60.1559602  75.9733686  55.5824351  60.7937705
  78.1880842  52.1694794  63.7056363  77.4692831  52.5858927  63.9729226
  78.5593205  52.7349033  63.1548001  78.1372774  52.3144076  63.6639170
  56.9753031   8.7602124  49.1059263  56.2235930   8.3817663  48.8775308
  57.4239042   8.7920558  48.3578073  56.9302697   8.7087732  48.9616765
  62.4277990   9.1827494  44.5344810  62.0929359   9.8604415  44.0989032
  62.9404861   8.7932805  43.9461682  62.4543572   9.2252072  44.3831601
  61.9682282  11.1341763  50.4755921  62.3521661  11.7028661  49.9360697
  61.9041423  10.4091273  49.9961738  62.0155709  11.1117226  50.3249784
  58.5537787   8.7720517  51.3722035  58.6548150   7.9620870  51.6819163
  57.9579532   8.6777463  50.7421714  58.4810325   8.6385545  51.3248274
  58.3938526  13.6898106  52.7736891  59.0375982  14.1311270  53.1633050
  58.7194782  12.8851532  52.6867150  58.5370355  13.6363300  52.8182369
  51.7502831   4.7940803  50.9974369  51.5153015   3.9608455  50.8906638
  51.8888472   5.0745469  50.1835570  51.7358494   4.7124307  50.8616724
  59.0959106   6.7010081  48.1456753  59.4174947   7.2415288  47.5418061
  59.7431203   6.1306852  48.2779043  59.2385161   6.6969256  48.0763788
  53.3120156   9.6726474  52.2730575  52.8287734  10.3976964  52.2490159
  54.1243474   9.9702604  52.3840733  53.3610903   9.8228828  52.2857854
  59.3834310   8.4658655  54.8780390  58.8661251   8.1066070  54.2741698
  60.0808701   7.9420829  54.8886456  59.4099891   8.3356343  54.7910648
  63.0397902   8.9153469  60.8396563  63.1281248   8.7279609  61.6874773
  63.4687614   8.2690898  60.4401409  63.1160004   8.7916476  60.9068314
  60.6068362   8.1984629  59.8214225  60.0439196   7.7857238  60.3453886
  61.3689385   8.1237534  60.2407368  60.6362810   8.1262029  59.9607225
  56.1664353  10.1882650  52.4250855  56.8684932   9.6734639  52.4823612
  56.0861836  10.5156801  53.2297730  56.2588113  10.1596876  52.5523647
  55.4915128   6.3789002  51.9336463  56.3304028   6.6111935  51.9810225
  55.5226898   5.5093313  51.8643498  55.6196846   6.2845948  51.9301108
  56.1167831   6.7989877  56.2349769  56.6566056   6.6561008  56.9053141
  55.4337778   7.1986628  56.6033795  56.0959985   6.8369548  56.3884190
  63.1517961   8.3462488  63.5040346  63.9358378   8.4593335  63.8696088
  62.9514556   7.5203625  63.6999032  63.2383986   8.2409207  63.5874732
  63.3088354  10.2572590  57.1506802  62.5103600  10.0172090  57.4080670
  63.7574366  10.3086983  57.8973849  63.2562966  10.2294981  57.2991726
  51.9298390   3.8048947  53.6695934  51.7473963   3.7795833  52.8168227
  52.6648059   4.2747885  53.7084843  52.0112454   3.8710309  53.5493853
  58.2691450   6.0657737  50.7039876  58.9065397   5.8269485  51.2491670
  58.6946522   6.2694896  49.9693037  58.4267616   6.0608748  50.6757034
  52.9604092   8.3046074  54.5874180  53.0008238   8.5760925  53.7593960
  53.5198616   8.8287982  55.0031968  53.0487438   8.4221829  54.5266068
  60.6512922   6.5430160  52.3833663  60.7251930   6.3805332  53.2375513
  61.4682428   6.7320350  52.1394144  60.7829281   6.5466902  52.4731688
  54.4118679   6.8888023  49.4128106  53.5856796   7.1349760  49.2862385
  54.4730670   6.8100104  50.2790164  54.2992846   6.9132972  49.5217051
  59.1917508   9.5064903  47.1147136  59.4815806   9.1153884  46.3906363
  59.9220988   9.6881608  47.5552411  59.3424392   9.4758717  47.0729943
  57.1323423  11.4832285  50.1807286  56.9123719  11.1929640  50.9733953
  56.9117945  10.8247240  49.6525198  57.0671017  11.3431994  50.2196194
  59.2991379  12.8561675  48.9637978  59.9515437  12.3238118  49.1929004
  58.6016988  12.5030328  49.3505852  59.2922097  12.7251198  49.0550146
  56.2472644   5.2100853  48.3705352  57.0018612   5.5913892  48.5840815
  55.6543256   5.6611997  48.8252049  56.2709357   5.3329680  48.4688231
  57.5670870   6.3809414  53.7445468  57.0451624   6.5209706  54.4297333
  57.9544891   5.6220079  53.9347585  57.5474571   6.2894938  53.8746544
  63.7637875   8.1204874  47.7306037  63.5224551   7.3872734  47.3233102
  63.9439208   8.6691731  47.0772370  63.7545499   8.0927265  47.5736260
  58.1317356  10.0870194  56.8275323  58.2806920   9.5273110  56.1748728
  58.9117358  10.1662196  57.2107842  58.2691449  10.0155760  56.7872272
  60.6570656  10.2584837  58.1059814  60.5814328   9.5893648  58.6610602
  60.5860516  10.9602625  58.6200480  60.6351263  10.2629745  58.2636662
  61.3140903   8.7785836  48.9383420  62.0790794   8.5095480  48.6166084
  61.2118993   8.2935846  49.6553483  61.4122399   8.6675401  48.9963248
  60.0462291  13.6653157  56.5637815  60.5358221  12.9663946  56.3813480
  59.4746523  13.3677027  57.1513872  60.0346821  13.5179381  56.6238856
  60.5398637   7.4129931  45.6877721  60.6091457   6.5544469  45.8270722
  61.3187092   7.6301811  45.3596746  60.6651487   7.3182795  45.6594879
  64.9306124   9.8367632  49.9014215  64.5385916   9.5334347  49.1837081
  65.0859196  10.6736722  49.7119169  64.8959714   9.9151469  49.7670712
  57.9233121   6.5381171  58.4390287  57.8153476   6.5483233  59.3052345
  58.1328903   7.3635951  58.2495241  57.9383232   6.6622245  58.5394379
  65.6996429   9.2403125  53.3344249  65.5016118   9.7293939  52.6400460
  65.0784140   9.4444366  53.9128383  65.5783994   9.3419663  53.3167472
  53.1982775   5.4627910  57.0446141  52.6682700   4.7720349  57.0941116
  53.4707869   5.4538096  56.2158850  53.1607498   5.3595042  56.9293557
  48.4778617   2.1355675  54.4014489  48.3722067   2.0902519  53.5366573
  47.7278837   2.4809455  54.6828774  48.3514220   2.1796583  54.3151819
  61.8798935   6.1911060  57.9977941  61.3724026   6.7446907  58.4418572
  61.5825581   6.2519350  57.1796716  61.7603820   6.2817371  57.9426398
  64.4906715  10.1074318  45.9281885  63.7736025   9.9335180  45.4629122
  65.1413453   9.8726890  45.3957371  64.4808566  10.0470110  45.7811103
  61.1241420  11.1235618  54.9034948  60.9007075  10.3654448  55.2718974
  60.6351264  11.1533640  54.1815388  61.0184869  11.0157843  54.8511689
  59.7719877  11.3436076  52.3572033  59.3580276  10.6810207  51.9675874
  60.4567252  11.4913935  51.8367727  59.8118249  11.2676735  52.2228530
  63.1385171  10.5026162  53.1095649  62.7401455  10.6128432  52.3416470
  62.5236391  10.7108228  53.6922209  62.9884061  10.5499730  53.0826949
  56.7374347  11.7845158  54.7585379  57.0520906  12.5981547  54.7663160
  57.1467760  11.3995377  55.4267538  56.8442445  11.8473860  54.8589470
  54.0787367   5.7318267  54.4063987  54.6832224   5.6914101  53.7777808
  53.8714680   6.5789419  54.4368043  54.1376264   5.8506269  54.3180104
  63.8931139   7.9984212  55.6226224  64.7129513   7.8547178  55.8842520
  63.6125217   8.6230411  56.1642662  63.9727883   8.0694564  55.7414164
  49.3138649   4.7152884  54.2762910  49.2162927   3.9049156  54.5852967
  50.0967519   4.6944677  53.8909178  49.4154786   4.5919974  54.2649773
  73.5644474  14.7424714  53.3422031  72.7082370  14.9033213  53.3931148
  73.6112128  13.8716778  53.3627092  73.4443586  14.6375516  53.3528097
  67.9485614  24.2787432  49.1059263  67.1968514  23.9002971  48.8775308
  68.3971626  24.3105866  48.3578073  67.9035281  24.2273039  48.9616765
  73.4010574  24.7012802  44.5344810  73.0661943  25.3789723  44.0989032
  73.9137444  24.3118113  43.9461682  73.4276155  24.7437380  44.3831601
  72.9414865  26.6527070  50.4755921  73.3254245  27.2213969  49.9360697
  72.8774007  25.9276581  49.9961738  72.9888293  26.6302534  50.3249784
  76.4096295  16.8016758  55.9853683  76.9552256  17.4801845  56.0447653
  76.3513172  16.6604219  55.1255264  76.4812210  16.8808760  55.8665743
  69.5270370  24.2905824  51.3722035  69.6280733  23.4806178  51.6819163
  68.9312116  24.1962771  50.7421714  69.4542909  24.1570853  51.3248274
  69.3671110  29.2083414  52.7736891  70.0108565  29.6496578  53.1633050
  69.6927365  28.4036840  52.6867150  69.5102939  29.1548608  52.8182369
  62.7235415  20.3126111  50.9974369  62.4885599  19.4793763  50.8906638
  62.8621055  20.5930777  50.1835570  62.7091077  20.2309614  50.8616724
  65.0225502  12.4811842  53.8958677  64.4030534  11.8904489  53.7268691
  64.9209366  13.0723277  53.2623000  64.9163178  12.4815924  53.7763666
  70.0691690  22.2195388  48.1456753  70.3907531  22.7600596  47.5418061
  70.7163786  21.6492160  48.2779043  70.2117745  22.2154564  48.0763788
  72.1193398  14.2211383  48.2291140  72.8173562  14.3999511  48.7212603
  72.4345730  13.6981723  47.6061529  72.2688735  14.1705156  48.2093150
  64.7494635  16.0264123  56.1402246  64.6253332  16.6126569  56.7752064
  65.4012920  15.5324319  56.4414521  64.8268284  16.0402928  56.2788175
  72.3081333  20.6081828  48.2170931  72.7474969  19.9998929  48.6625704
  72.1585996  20.2289202  47.4456396  72.3502799  20.4620300  48.1690099
  69.7752976  19.2025840  55.4189757  70.4201979  18.7098283  55.1000705
  70.0154753  19.3450627  56.2455835  69.9063561  19.1503282  55.4939290
  72.3139067  22.0480746  55.0696649  72.5962310  21.2532152  54.8483405
  73.0425228  22.5261334  55.0901710  72.4628631  22.0015343  55.0399664
  70.2920261   9.5903780  52.3112414  69.9623591  10.0414924  51.6416113
  69.6165263   9.5119943  52.8585421  70.1430698   9.6454915  52.2935638
  75.9090670  18.9609010  45.1701700  75.8241965  19.8169976  45.3151269
  76.3975053  18.6853334  45.8383860  75.9679567  19.0466331  45.2903782
  76.8409103  15.5793804  46.6699436  76.3120574  15.7953437  47.3296742
  77.3634123  16.2729942  46.5900405  76.8397556  15.7136941  46.7555035
  68.7308711  19.4757021  45.4706904  68.1465926  19.9807052  45.8772767
  68.3278806  19.2499408  44.7303496  68.5848014  19.5165269  45.4211929
  64.2852739  25.1911782  52.2730575  63.8020318  25.9162271  52.2490159
  65.0976058  25.4887912  52.3840733  64.3343487  25.3414136  52.2857854
  70.3566893  23.9843963  54.8780390  69.8393835  23.6251378  54.2741698
  71.0541285  23.4606137  54.8886456  70.3832474  23.8541650  54.7910648
  74.0130485  24.4338777  60.8396563  74.1013831  24.2464917  61.6874773
  74.4420198  23.7876206  60.4401409  74.0892588  24.3101784  60.9068314
  71.5800945  23.7169937  59.8214225  71.0171780  23.3042546  60.3453886
  72.3421969  23.6422842  60.2407368  71.6095394  23.6447337  59.9607225
  73.1885925  15.7222673  43.9475824  73.4281929  15.9300657  43.1351167
  73.5101766  14.9180181  44.0564769  73.2723083  15.6336774  43.8436377
  67.1396937  25.7067958  52.4250855  67.8417516  25.1919947  52.4823612
  67.0594420  26.0342109  53.2297730  67.2320697  25.6782184  52.5523647
  68.1875843  15.9443545  61.5531270  68.3596347  15.8349439  62.4016551
  68.7245201  16.5897950  61.3162462  68.2920847  16.0235546  61.6436367
  66.8533280  10.0586387  44.4913475  66.6708853  10.2758268  43.6654468
  67.7158893  10.1725400  44.5472090  66.9537869  10.1076285  44.3767962
  66.4647712  21.8974310  51.9336463  67.3036611  22.1297242  51.9810225
  66.4959481  21.0278621  51.8643498  66.5929430  21.8031256  51.9301108
  67.0900415  22.3175185  56.2349769  67.6298640  22.1746316  56.9053141
  66.4070361  22.7171936  56.6033795  67.0692569  22.3554856  56.3884190
  76.5141300  17.9966186  51.4294793  77.2698815  18.4297700  51.4683702
  76.6203624  17.3470955  52.0029429  76.6411470  17.9643669  51.5192818
  74.1250545  23.8647796  63.5040346  74.9090961  23.9778643  63.8696088
  73.9247139  23.0388933  63.6999032  74.2116570  23.7594515  63.5874732
  62.4937560  18.5375476  56.3884190  62.2275975  17.7214592  56.5475180
  62.5076124  18.5828631  55.5179706  62.4562282  18.4232380  56.2837672
  66.3995307  13.3360560  43.0035948  65.6853484  13.0498740  43.4158381
  66.8839276  13.6757186  43.6442336  66.3654670  13.3442210  43.1591583
  67.2436166  12.0753854  59.0351198  66.5507963  11.6050834  59.2811929
  67.8596494  11.8492159  59.6092905  67.2320696  11.9720986  59.1560350
  73.5742625  21.8390514  43.3797756  73.9893773  21.5075538  42.6882252
  72.7434555  21.6059416  43.2517893  73.5130634  21.7561770  43.2588604
  62.9030974  19.3234255  53.6695934  62.7206547  19.2981141  52.8168227
  63.6380643  19.7933193  53.7084843  62.9845038  19.3895617  53.5493853
  65.9676725  16.0419258  60.1778043  66.6916698  16.0272289  60.6642938
  66.0692862  16.7514613  59.6800011  66.0894934  16.1443961  60.1756830
  76.0152994  16.2452334  49.3322006  76.1099848  16.9841628  49.7861631
  75.3911837  15.8169809  49.7656570  75.9362024  16.2913654  49.4630153
  74.2705468  19.4238546  59.9812287  74.8444329  18.7865791  60.1360851
  74.1920271  19.4242629  59.1121944  74.3438702  19.3303658  59.8758698
  62.8701884  16.2027756  53.8195001  63.4475387  16.0664207  54.4587246
  62.1715946  15.7463540  54.0740585  62.8522905  16.1150022  53.9517291
  76.2676015  18.0901074  42.5658958  76.1856178  18.1603261  43.4313945
  76.9055736  18.6530817  42.3742698  76.3495852  18.1840045  42.6648907
  69.6269186  17.8561811  52.0333484  69.3688431  17.0233546  52.0064784
  69.6817669  18.0819424  51.1925984  69.5968964  17.7659583  51.9053621
  68.6003898  15.4099574  52.5198379  68.0253490  15.5691742  53.1562340
  68.2239575  14.7734983  52.0566829  68.4606711  15.3397387  52.5452937
  72.2677187  13.8822923  57.3790757  71.8791620  13.4577141  56.7242949
  71.6031885  14.1305073  57.8867784  72.1124115  13.8561644  57.3578625
  58.3460717  15.0539649  50.5342819  58.4320969  14.6771517  51.3156349
  58.9736515  14.6800094  50.0562778  58.4517268  14.9425131  50.5788297
  73.3716125  18.1121528  45.5767564  74.1856764  18.4036421  45.4650336
  73.3075267  17.4581390  45.0025857  73.4818864  18.0586723  45.4756402
  69.2424034  21.5843045  50.7039876  69.8797980  21.3454793  51.2491670
  69.6679105  21.7880204  49.9693037  69.4000200  21.5794055  50.6757034
  63.9336676  23.8231382  54.5874180  63.9740821  24.0946233  53.7593960
  64.4931200  24.3473290  55.0031968  64.0220022  23.9407137  54.5266068
  69.8826849  16.8045335  45.0414766  70.2672001  16.5853042  45.7931311
  69.6338469  17.6308280  45.1715842  69.9028921  16.8943481  45.1715842
  71.6245506  22.0615468  52.3833663  71.6984514  21.8990640  53.2375513
  72.4415012  22.2505657  52.1394144  71.7561864  22.0652210  52.4731688
  65.3851262  22.4073331  49.4128106  64.5589380  22.6535068  49.2862385
  65.4463253  22.3285412  50.2790164  65.2725429  22.4318280  49.5217051
  67.6027286   8.4742272  50.3723546  66.7349711   8.5464871  50.4381156
  67.8902490   9.2764351  50.5611521  67.5167034   8.6036419  50.4098313
  70.1650091  25.0250211  47.1147136  70.4548390  24.6339192  46.3906363
  70.8953572  25.2066916  47.5552411  70.3156975  24.9944025  47.0729943
  70.7544836  19.8267957  58.2000266  70.2556530  20.5383725  58.2785155
  71.5645061  20.1468623  58.1618429  70.8000943  19.9794805  58.2056835
  68.1056007  27.0017593  50.1807286  67.8856302  26.7114948  50.9733953
  67.8850529  26.3432548  49.6525198  68.0403601  26.8617302  50.2196194
  67.0172954  19.0890910  52.4462987  66.7286203  18.4628381  52.9808715
  67.8856302  19.0311197  52.5127668  67.1033206  18.9878454  52.5353942
  77.8050852  14.2325693  52.7644969  77.4615618  13.5116028  53.1152219
  77.9043894  14.0239544  51.9223328  77.7692895  14.0949896  52.6916649
  70.2723963  28.3746983  48.9637978  70.9248021  27.8423426  49.1929004
  69.5749571  28.0215636  49.3505852  70.2654680  28.2436506  49.0550146
  67.2205227  20.7286161  48.3705352  67.9751195  21.1099200  48.5840815
  66.6275840  21.1797305  48.8252049  67.2441941  20.8514988  48.4688231
  78.2663881  20.6951397  48.3068957  78.8321914  21.3544607  48.2227500
  77.6191784  21.0401095  48.7785360  78.2542637  20.8433339  48.3641714
  68.5403454  21.8994722  53.7445468  68.0184207  22.0395014  54.4297333
  68.9277474  21.1405387  53.9347585  68.5207155  21.8080246  53.8746544
  65.5294638  11.9500531  47.8140423  65.2419434  11.5801801  47.0772370
  66.2165106  12.4195386  47.5524127  65.5883535  11.9647500  47.6655498
  74.7370459  23.6390182  47.7306037  74.4957135  22.9058042  47.3233102
  74.9171792  24.1877038  47.0772370  74.7278083  23.6112573  47.5736260
  69.9669780  18.9298741  49.1426959  69.7712562  19.5373476  48.5487262
  70.1904125  18.2366685  48.6618633  69.9704421  18.9176267  48.9843040
  68.3648310  15.8153479  49.2607827  69.0870962  15.9794637  48.8011633
  67.8856302  16.5363144  49.1547167  68.4012040  15.9451709  49.1773441
  76.3241817  12.1517278  54.6404512  75.4852918  12.1778557  54.4042775
  76.3946184  12.7988013  55.2209859  76.2110211  12.2513404  54.6913629
  66.0155926  18.2211552  58.3661967  66.5277023  18.4995805  57.7170727
  65.7292269  18.9600846  58.7324780  66.0490789  18.3713905  58.3251845
  63.1022833  12.7281743  48.6625704  63.2038969  13.5307905  48.9906679
  63.8978719  12.5269079  48.3648784  63.2350738  12.8167642  48.6661059
  69.5339652  10.3137940  58.4263009  69.3422849  10.3293075  59.2762432
  70.3838248  10.5101614  58.4029664  69.6315374  10.3452291  58.5486303
  63.9186565  12.8428922  56.4046825  63.7772057  11.9912862  56.5291333
  64.2027128  12.8857582  55.5809031  63.9394411  12.7228672  56.3014449
  74.0725157  14.6796012  50.5491313  73.8259871  14.5991763  51.3828102
  74.4010280  13.8949480  50.3553841  74.0846401  14.5522277  50.6438837
  77.9673206  21.3879371  54.3378095  77.8287565  22.0860417  54.8426837
  77.1873204  21.2328028  53.9814276  77.8316433  21.4679538  54.3604369
  70.0322184  17.4152730  59.9614297  70.1765560  17.9953939  59.3257407
  70.3797833  17.7929027  60.6664151  70.1049646  17.5573434  59.9713291
  72.2042102  16.6142899  57.7439428  71.4565416  16.8073913  57.3387706
  72.3583627  15.7888118  57.5063549  72.1164529  16.5208010  57.6484834
  69.1049939  25.6055502  56.8275323  69.2539503  25.0458418  56.1748728
  69.8849941  25.6847504  57.2107842  69.2424033  25.5341068  56.7872272
  71.6303240  25.7770145  58.1059814  71.5546911  25.1078956  58.6610602
  71.5593099  26.4787933  58.6200480  71.6083847  25.7815052  58.2636662
  72.4443879  10.5093450  58.6334832  72.9016493  11.2417424  58.7607624
  72.5200208  10.0859915  59.3922088  72.5234849  10.5550688  58.7635908
  64.6876870  10.7559269  59.7224276  64.1519059  10.1439627  60.0385043
  64.7494635  11.3307405  60.3757942  64.6172503  10.7506197  59.8659702
  72.2873487  24.2971144  48.9383420  73.0523378  24.0280788  48.6166084
  72.1851577  23.8121154  49.6553483  72.3854982  24.1860709  48.9963248
  70.3226257  12.4995553  55.4776656  69.5322331  12.3187014  55.7993992
  70.7186879  11.7222506  55.4606950  70.2643133  12.3583014  55.5229204
  74.8092147  21.3283328  40.9183369  75.5765133  21.3883453  40.5089221
  74.3623456  20.7563769  40.4339688  74.8565575  21.2519903  40.7861080
  75.7069943  20.1337984  53.2036102  75.0314945  19.9023216  53.7049489
  75.7162319  19.5259167  52.5778207  75.6088448  20.0096909  53.1852254
  72.8364087  14.9755813  59.9600155  72.7723228  15.8365769  59.8320291
  72.9761275  14.6587806  59.1595706  72.8479557  15.0555979  59.8228368
  77.7086678  22.9903116  45.4346280  77.7906515  23.7970102  45.1107731
  78.1936420  23.0099075  46.1587053  77.7923835  23.1123778  45.4933178
  71.5183181  17.6687952  54.1016358  71.0945430  17.8692451  53.3655376
  71.3428036  16.8216800  54.2140657  71.4294061  17.5736733  54.0090048
  71.0194874  29.1838465  56.5637815  71.5090805  28.4849254  56.3813480
  70.4479107  28.8862335  57.1513872  71.0079404  29.0364689  56.6238856
  66.8065626  18.1640003  49.5344330  66.9630245  18.0986806  50.3900322
  67.1466219  18.9388556  49.3223010  66.8798861  18.2689202  49.6298924
  73.3444770  17.5397887  48.4037693  73.8860316  17.0368268  48.8676314
  73.6591329  17.4863082  47.5927179  73.4709167  17.4577308  48.3521505
  71.5131220  22.9315238  45.6877721  71.5824040  22.0729777  45.8270722
  72.2919675  23.1487119  45.3596746  71.6384070  22.8368102  45.6594879
  74.4934040  12.4334191  58.4559994  74.7076009  11.7945106  57.9023348
  73.8767939  12.8780015  58.0267856  74.4339369  12.4044335  58.3110425
  75.9038708  25.3552940  49.9014215  75.5118499  25.0519655  49.1837081
  76.0591780  26.1922030  49.7119169  75.8692298  25.4336776  49.7670712
  63.3799887  15.3474954  49.8505097  63.7598852  15.7659499  49.1865365
  62.8055252  15.9288410  50.1573941  63.3511212  15.4952813  49.7981838
  76.0678382  21.9202929  49.8420245  75.7093037  22.0917571  50.6184278
  75.5817093  22.3816134  49.2848244  75.9437079  22.0141900  49.8745514
  70.8566748  17.6002094  42.3820480  71.1459273  18.3766977  42.6564054
  70.9438547  17.0890825  43.0834979  70.9121004  17.6394012  42.5262978
  77.2283122  22.8106825  60.7887446  77.8662842  22.3167020  60.4549902
  76.5857213  22.7384225  60.2039673  77.2277348  22.7265833  60.6529801
  77.2837378  23.5026633  57.4292803  78.0729757  23.1515698  57.5494885
  77.4580976  24.3163021  57.1669437  77.4257660  23.5712490  57.4080671
  67.0230689  16.9135359  54.4820592  66.1818695  16.8139233  54.6899486
  67.2320697  17.6830839  54.8334912  66.9295381  17.0127402  54.5647907
  64.5006256  14.5354896  52.3105342  64.1062954  14.6097907  51.5355452
  63.9446373  14.9212842  52.8613704  64.3609068  14.6036670  52.2773002
  70.8347354  14.8416758  53.7318189  70.5310491  14.2872746  54.3328597
  70.1326774  15.0208968  53.2446224  70.6863563  14.7861540  53.7487895
  69.8913451  12.1517278  48.2962891  70.1673185  11.4336190  47.8840459
  70.4912120  12.7502197  48.0883997  70.0206715  12.1337648  48.2043652
  68.8965705  22.0566478  58.4390287  68.7886060  22.0668541  59.3052345
  69.1061486  22.8821259  58.2495241  68.9115816  22.1807553  58.5394379
  66.9139497  19.3079121  55.9012225  66.3227430  19.9488619  55.8715240
  67.6760520  19.7316738  55.8743524  66.9387757  19.4654959  55.8927372
  67.3100119  10.4681119  56.5680242  67.7701601  10.5420048  57.3055366
  67.3556226  11.2662373  56.2180064  67.3850675  10.5975266  56.6252999
  68.9583469  11.1347814  61.1352269  68.5669034  10.4881161  61.5708047
  69.1269332  11.7259249  61.7546525  68.9254380  11.1262081  61.2914975
  76.6729013  24.7588432  53.3344249  76.4748702  25.2479247  52.6400460
  76.0516724  24.9629674  53.9128383  76.5516577  24.8604971  53.3167472
  70.7336991  16.5273329  47.6754493  71.4779036  16.9147606  47.9137443
  70.8797687  15.6830755  47.8394981  70.8647576  16.4603802  47.7348463
  73.7214867  12.0998803  53.5748413  73.2474821  11.5740565  54.0853724
  74.0933003  11.5528275  53.0063274  73.7064756  11.9414799  53.5663560
  64.0987897  14.0970309  58.9431959  64.9613510  13.9966019  58.8569288
  63.7679680  13.5165019  58.3817531  64.1773094  13.9961936  58.8477364
  75.6498367  12.9935357  46.6374167  75.1221385  13.0764101  45.9479875
  76.1094075  13.7353229  46.6338811  75.6400217  13.1156020  46.5348862
  67.4589683  12.9212758  55.6042377  66.8342753  12.9331150  54.9968329
  67.1235278  13.3972933  56.2533617  67.3175175  12.9931275  55.6098945
  67.6431432  11.2637877  41.6615062  67.2944236  11.9157602  42.1246611
  67.1627878  11.2494990  40.9338933  67.5201676  11.3580930  41.6226153
  64.1715359  20.9813218  57.0446141  63.6415283  20.2905657  57.0941116
  64.4440452  20.9723404  56.2158850  64.1340081  20.8780350  56.9293557
  75.2035449  21.5638921  45.7683824  75.9269648  22.0297034  45.6248397
  74.7636040  21.6312530  45.0181421  75.2451142  21.6422757  45.6368605
  74.3721604  18.4236463  57.0184513  73.7578597  17.8794513  57.3133148
  74.8888889  17.9100699  56.5390329  74.3577267  18.2672872  56.9908741
  73.6117902  19.4940733  54.7528811  73.1845510  18.8690452  54.3194247
  73.6042846  19.2115655  55.5787818  73.5477043  19.3593514  54.8108639
  66.7280429  14.5305906  57.8217245  66.8873915  13.7749230  58.2268967
  66.5473322  15.0796846  58.4757983  66.7245788  14.4999720  57.9779951
  71.9403611  10.3709488  54.9671345  71.9646098   9.8369600  54.2784125
  72.1915085   9.8626796  55.6296936  71.9813530  10.2170392  54.9635990
  59.4511201  17.6540983  54.4014489  59.3454650  17.6087827  53.5366573
  58.7011421  17.9994763  54.6828774  59.3246804  17.6981891  54.3151819
  68.2204933   9.0980306  54.3477090  68.2603305   9.5989512  55.0611797
  67.3954598   9.1890700  54.0783013  68.1044459   9.1862122  54.4127628
  70.4034546  18.6641046  62.4497384  69.5530177  18.8012760  62.5855029
  70.5662674  17.9304824  62.8945086  70.3018410  18.5755147  62.5352983
  69.6419297  15.6140816  56.6450989  68.8111226  15.7814634  56.4386237
  69.5870814  15.2376766  57.4299874  69.5108712  15.5830547  56.7299517
  68.0155341  13.8896407  47.1741106  68.1558302  14.3868871  47.8769748
  68.5137873  13.1882702  47.3155320  68.1096422  13.8598386  47.2992685
  68.0455563  14.7563518  44.5033683  68.6800643  15.3523943  44.4383145
  68.1281174  14.4566976  45.3179553  68.1512114  14.8004426  44.6136770
  69.6234546  10.6877494  44.4779125  69.9450387  10.2080576  43.8238387
  69.8861490  11.4977140  44.2869937  69.7100571  10.7367392  44.3534617
  72.8531519  21.7096368  57.9977941  72.3456610  22.2632215  58.4418572
  72.5558165  21.7704658  57.1796716  72.7336404  21.8002679  57.9426398
  64.5508551  16.9531359  47.7723229  65.0600780  17.5495867  48.1534535
  65.0242823  16.6857333  47.0899649  64.6951927  17.0017174  47.7277752
  75.4639299  25.6259626  45.9281885  74.7468609  25.4520488  45.4629122
  76.1146037  25.3912198  45.3957371  75.4541149  25.5655418  45.7811103
  78.0487270  14.5024214  49.6723190  77.3778460  15.0453916  49.5436255
  78.7427020  14.9719070  49.4304885  78.0516138  14.6522485  49.6178718
  72.0974004  26.6420926  54.9034948  71.8739658  25.8839756  55.2718974
  71.6083847  26.6718947  54.1815388  71.9917453  26.5343151  54.8511689
  66.9099083  13.5887618  50.6396410  66.1911072  14.0051750  50.9069273
  67.2811445  14.1541856  50.0888048  66.8591014  13.7336899  50.5979216
  76.2098663  14.2215466  56.5298405  76.1896591  14.0398762  57.3833184
  76.2577864  15.0927485  56.5057989  76.2133304  14.3232005  56.6521700
  74.1544993  20.8102658  62.4546882  74.1140848  20.1652335  61.8692038
  74.9668312  20.7539276  62.7672294  74.2688147  20.7061625  62.4143831
  70.7452461  26.8621384  52.3572033  70.3312860  26.1995515  51.9675874
  71.4299835  27.0099243  51.8367727  70.7850833  26.7862043  52.2228530
  74.1117755  26.0211470  53.1095649  73.7134038  26.1313740  52.3416470
  73.4968975  26.2293536  53.6922209  73.9616644  26.0685038  53.0826949
  72.6845657  12.6285617  45.9769789  72.0910496  12.9502614  45.4254356
  72.7220935  11.7826713  45.7690895  72.6020046  12.5509946  45.8652560
  75.5603474  12.5865122  49.4071539  75.3317167  12.6097823  48.5649897
  75.8201550  11.7622589  49.5266550  75.5649662  12.4681202  49.2996737
  69.8422702  14.4399595  59.0096639  69.3301605  13.8320778  59.3681671
  69.6702198  15.1556188  59.4770615  69.7412339  14.4562894  59.1312863
  64.6888417  12.8837170  61.6599001  64.5191007  13.5438545  61.1147208
  64.2454367  13.0943732  62.3811490  64.5987750  13.0123152  61.6860631
  68.6148236  11.1241668  50.7025735  69.0905602  11.4858748  50.0675916
  68.1136836  11.7798136  50.9825878  68.6113595  11.2735857  50.6502476
  61.5890481  15.7884036  56.9187491  61.0417201  15.1184681  57.0368359
  62.3782859  15.4213884  56.9830958  61.6242665  15.6349022  56.9456192
  71.4374890  15.4491493  62.4150902  72.1886217  15.7643170  62.7290456
  71.6297466  15.2470664  61.5884824  71.5766304  15.4658875  62.3394298
  70.6574889  13.2682868  44.0699119  71.0373854  13.2862497  43.2850234
  69.9167485  13.7136857  43.9489966  70.6043727  13.3364643  43.9362687
  60.3477451  15.0004844  54.0733514  60.1699212  14.5481453  54.7988430
  60.0596473  15.8031005  54.2571992  60.2790404  15.0527401  54.2077017
  76.0101032  16.2562561  53.3110904  76.5054697  15.5385556  53.2714925
  75.2000808  15.9533359  53.1965391  75.9644925  16.1060207  53.2884630
  71.4559643  20.1060374  45.4607909  70.6470966  19.7827048  45.4141218
  71.9634552  19.3993596  45.3936158  71.4109310  19.9541691  45.4438203
  62.0849921  17.5332567  51.1855273  61.2195440  17.5218258  51.0738044
  62.1848737  17.3462790  52.0326412  61.9724088  17.5038629  51.2944218
  78.0752851  19.0066249  55.9988033  78.5007922  18.4840670  55.4458458
  77.7109771  19.6047086  55.4776656  78.0839453  19.0176476  55.8397043
  67.7106931  27.3030466  54.7585379  68.0253489  28.1166854  54.7663160
  68.1200344  26.9180685  55.4267538  67.8175029  27.3659168  54.8589470
  74.6631450  22.7200513  52.3289191  75.1342628  23.4340775  52.4979176
  74.9991629  22.1199263  52.8649060  74.7826565  22.7371977  52.4321567
  75.3005397  22.5118447  59.0916883  74.7526342  21.8876331  58.8236949
  75.7618425  22.7012719  58.3760963  75.2872606  22.4477497  58.9467314
  70.6494060   9.4944396  46.7526750  71.4709754   9.6642709  46.5108445
  70.1863711   9.6491657  46.0293048  70.7025222   9.5426129  46.6098395
  65.0519951  21.2503574  54.4063987  65.6564808  21.2099409  53.7777808
  64.8447263  22.0974727  54.4368043  65.1108848  21.3691577  54.3180104
  74.8663723  23.5169520  55.6226224  75.6862097  23.3732486  55.8842520
  74.5857800  24.1415719  56.1642662  74.9460466  23.5879872  55.7414164
  60.2871233  20.2338192  54.2762910  60.1895511  19.4234463  54.5852967
  61.0700103  20.2129985  53.8909178  60.3887369  20.1105282  54.2649773
  73.6967998  35.8311419  50.9974369  73.4618183  34.9979071  50.8906638
  73.8353639  36.1116085  50.1835570  73.6823661  35.7494922  50.8616724
  75.9958086  27.9997150  53.8958677  75.3763117  27.4089797  53.7268691
  75.8941949  28.5908585  53.2623000  75.8895761  28.0001232  53.7763666
  75.7227219  31.5449431  56.1402246  75.5985916  32.1311877  56.7752064
  76.3745503  31.0509627  56.4414521  75.8000868  31.5588236  56.2788175
  75.2585323  40.7097090  52.2730575  74.7752901  41.4347579  52.2490159
  76.0708641  41.0073220  52.3840733  75.3076071  40.8599443  52.2857854
  78.1129520  41.2253266  52.4250855  78.8150099  40.7105255  52.4823612
  78.0327003  41.5527417  53.2297730  78.2053281  41.1967492  52.5523647
  77.8265864  25.5771695  44.4913475  77.6441437  25.7943576  43.6654468
  78.6891477  25.6910708  44.5472090  77.9270453  25.6261593  44.3767962
  77.4380296  37.4159618  51.9336463  78.2769195  37.6482550  51.9810225
  77.4692065  36.5463929  51.8643498  77.5662013  37.3216564  51.9301108
  78.0632999  37.8360493  56.2349769  78.6031224  37.6931624  56.9053141
  77.3802945  38.2357244  56.6033795  78.0425152  37.8740164  56.3884190
  73.4670144  34.0560784  56.3884190  73.2008559  33.2399900  56.5475180
  73.4808708  34.1013939  55.5179706  73.4294866  33.9417688  56.2837672
  77.3727891  28.8545868  43.0035948  76.6586068  28.5684048  43.4158381
  77.8571859  29.1942494  43.6442336  77.3387254  28.8627518  43.1591583
  78.2168750  27.5939162  59.0351198  77.5240547  27.1236142  59.2811929
  78.8329077  27.3677466  59.6092905  78.2053280  27.4906294  59.1560350
  73.8763557  34.8419563  53.6695934  73.6939131  34.8166449  52.8168227
  74.6113226  35.3118501  53.7084843  73.9577621  34.9080925  53.5493853
  76.9409309  31.5604566  60.1778043  77.6649281  31.5457597  60.6642938
  77.0425445  32.2699921  59.6800011  77.0627518  31.6629269  60.1756830
  73.8434468  31.7213064  53.8195001  74.4207970  31.5849514  54.4587246
  73.1448529  31.2648848  54.0740585  73.8255489  31.6335330  53.9517291
  69.3193301  30.5724957  50.5342819  69.4053553  30.1956825  51.3156349
  69.9469098  30.1985402  50.0562778  69.4249852  30.4610439  50.5788297
  74.9069260  39.3416690  54.5874180  74.9473405  39.6131541  53.7593960
  75.4663784  39.8658598  55.0031968  74.9952605  39.4592445  54.5266068
  76.3583846  37.9258639  49.4128106  75.5321963  38.1720376  49.2862385
  76.4195837  37.8470719  50.2790164  76.2458013  37.9503588  49.5217051
  78.5759870  23.9927580  50.3723546  77.7082295  24.0650179  50.4381156
  78.8635074  24.7949659  50.5611521  78.4899618  24.1221727  50.4098313
  77.9905538  34.6076218  52.4462987  77.7018786  33.9813689  52.9808715
  78.8588886  34.5496505  52.5127668  78.0765789  34.5063762  52.5353942
  76.5027222  27.4685839  47.8140423  76.2152017  27.0987109  47.0772370
  77.1897690  27.9380694  47.5524127  76.5616119  27.4832808  47.6655498
  76.9888510  33.7396860  58.3661967  77.5009607  34.0181113  57.7170727
  76.7024852  34.4786154  58.7324780  77.0223373  33.8899213  58.3251845
  74.0755416  28.2467051  48.6625704  74.1771553  29.0493213  48.9906679
  74.8711303  28.0454387  48.3648784  74.2083322  28.3352950  48.6661059
  74.8919148  28.3614230  56.4046825  74.7504640  27.5098170  56.5291333
  75.1759712  28.4042890  55.5809031  74.9126994  28.2413980  56.3014449
  75.6609454  26.2744577  59.7224276  75.1251643  25.6624935  60.0385043
  75.7227218  26.8492713  60.3757942  75.5905086  26.2691505  59.8659702
  77.7798209  33.6825311  49.5344330  77.9362829  33.6172114  50.3900322
  78.1198802  34.4573864  49.3223010  77.8531444  33.7874509  49.6298924
  74.3532471  30.8660262  49.8505097  74.7331436  31.2844807  49.1865365
  73.7787836  31.4473717  50.1573941  74.3243796  31.0138121  49.7981838
  77.9963272  32.4320667  54.4820592  77.1551279  32.3324541  54.6899486
  78.2053280  33.2016147  54.8334912  77.9027965  32.5312710  54.5647907
  75.4738839  30.0540203  52.3105342  75.0795537  30.1283215  51.5355452
  74.9178956  30.4398150  52.8613704  75.3341652  30.1221978  52.2773002
  77.8872080  34.8264429  55.9012225  77.2960014  35.4673927  55.8715240
  78.6493104  35.2502046  55.8743524  77.9120341  34.9840267  55.8927372
  78.2832703  25.9866427  56.5680242  78.7434185  26.0605356  57.3055366
  78.3288810  26.7847681  56.2180064  78.3583258  26.1160574  56.6252999
  75.0720481  29.6155617  58.9431959  75.9346094  29.5151326  58.8569288
  74.7412264  29.0350327  58.3817531  75.1505677  29.5147244  58.8477364
  78.4322267  28.4398066  55.6042377  77.8075337  28.4516458  54.9968329
  78.0967862  28.9158241  56.2533617  78.2907759  28.5116583  55.6098945
  78.6164016  26.7823185  41.6615062  78.2676820  27.4342910  42.1246611
  78.1360461  26.7680298  40.9338933  78.4934259  26.8766238  41.6226153
  75.1447942  36.4998526  57.0446141  74.6147867  35.8090965  57.0941116
  75.4173036  36.4908712  56.2158850  75.1072665  36.3965658  56.9293557
  77.7013012  30.0491214  57.8217245  77.8606499  29.2934538  58.2268967
  77.5205906  30.5982154  58.4757983  77.6978371  30.0185028  57.9779951
  70.4243785  33.1726291  54.4014489  70.3187234  33.1273135  53.5366573
  69.6744005  33.5180071  54.6828774  70.2979388  33.2167199  54.3151819
  75.5241135  32.4716667  47.7723229  76.0333364  33.0681174  48.1534535
  75.9975407  32.2042641  47.0899649  75.6684510  32.5202482  47.7277752
  77.8831666  29.1072925  50.6396410  77.1643655  29.5237058  50.9069273
  78.2544029  29.6727164  50.0888048  77.8323598  29.2522207  50.5979216
  75.6621000  28.4022478  61.6599001  75.4923591  29.0623853  61.1147208
  75.2186950  28.6129039  62.3811490  75.5720334  28.5308460  61.6860631
  72.5623065  31.3069344  56.9187491  72.0149784  30.6369989  57.0368359
  73.3515443  30.9399192  56.9830958  72.5975249  31.1534330  56.9456192
  71.3210034  30.5190152  54.0733514  71.1431795  30.0666761  54.7988430
  71.0329056  31.3216313  54.2571992  71.2522988  30.5712709  54.2077017
  73.0582504  33.0517875  51.1855273  72.1928024  33.0403566  51.0738044
  73.1581320  32.8648098  52.0326412  72.9456671  33.0223937  51.2944218
  76.0252534  36.7688882  54.4063987  76.6297392  36.7284717  53.7777808
  75.8179847  37.6160034  54.4368043  76.0841432  36.8876885  54.3180104
  71.2603817  35.7523500  54.2762910  71.1628095  34.9419771  54.5852967
  72.0432686  35.7315293  53.8909178  71.3619953  35.6290590  54.2649773
  73.3918822  12.7689550  37.9314416  73.1569007  11.9357203  37.8246685
  73.5304463  13.0494216  37.1175617  73.3774485  12.6873054  37.7956771
  74.9536147  17.6475221  39.2070622  74.4703725  18.3725711  39.1830206
  75.7659465  17.9451351  39.3180780  75.0026895  17.7977575  39.2197901
  77.8080344  18.1631397  39.3590902  78.5100923  17.6483386  39.4163658
  77.7277827  18.4905548  40.1637777  77.9004105  18.1345623  39.4863694
  77.1331120  14.3537749  38.8676510  77.9720019  14.5860682  38.9150271
  77.1642889  13.4842060  38.7983545  77.2612837  14.2594695  38.8641154
  77.7583823  14.7738624  43.1689815  78.2982047  14.6309755  43.8393188
  77.0753769  15.1735375  43.5373842  77.7375976  14.8118295  43.3224237
  73.1620968  10.9938915  43.3224237  72.8959383  10.1778031  43.4815227
  73.1759532  11.0392070  42.4519752  73.1245690  10.8795820  43.2177719
  73.5714381  11.7797694  40.6035981  73.3889954  11.7544580  39.7508273
  74.3064050  12.2496632  40.6424890  73.6528445  11.8459056  40.4833900
  74.6020083  16.2794821  41.5214227  74.6424229  16.5509672  40.6934007
  75.1614608  16.8036729  41.9372015  74.6903429  16.3970576  41.4606115
  76.0534670  14.8636770  36.3468153  75.2272787  15.1098507  36.2202432
  76.1146661  14.7848851  37.2130211  75.9408837  14.8881719  36.4557097
  78.7739414  19.4581032  37.1147333  78.5539710  19.1678387  37.9074000
  78.5533936  18.7995988  36.5865245  78.7087009  19.3180741  37.1536241
  77.8888635  13.1849600  35.3045399  78.6434603  13.5662639  35.5180862
  77.2959248  13.6360744  35.7592096  77.9125348  13.3078427  35.4028278
  77.5822904  11.7642560  42.8352272  76.9910837  12.4052058  42.8055287
  78.3443928  12.1880177  42.8083571  77.6071165  11.9218398  42.8267419
  74.8398766  13.4376658  43.9786188  74.3098691  12.7469096  44.0281163
  75.1123860  13.4286843  43.1498896  74.8023489  13.3343789  43.8633604
  70.1194609  10.1104422  41.3354536  70.0138058  10.0651266  40.4706620
  69.3694829  10.4558202  41.6168821  69.9930211  10.1545330  41.2491866
  78.3790338  19.7593905  41.6925425  78.6936897  20.5730294  41.7003207
  78.7883751  19.3744124  42.3607585  78.4858436  19.8222608  41.7929517
  75.7203358  13.7067014  41.3404034  76.3248216  13.6662848  40.7117855
  75.5130671  14.5538166  41.3708090  75.7792255  13.8255016  41.2520150
  70.9554640  12.6901631  41.2102957  70.8578918  11.8797903  41.5193014
  71.7383510  12.6693424  40.8249225  71.0570777  12.5668721  41.1989820
  26.4945757  30.4688840  74.4454368  26.4639761  31.3233477  74.6172637
  27.0927106  30.1684133  75.0040511  26.5782915  30.5505337  74.5529170
  14.0786582  39.0927209  74.9644530  13.3269481  38.7142748  74.7360575
  14.5272593  39.1245643  74.2163340  14.0336248  39.0412816  74.8202032
  19.5311542  39.5152579  70.3930077  19.1962910  40.1929500  69.9574299
  20.0438412  39.1257890  69.8046948  19.5577123  39.5577157  70.2416868
  19.0715833  41.4666847  76.3341188  19.4555212  42.0353746  75.7945964
  19.0074974  40.7416358  75.8547004  19.1189260  41.4442311  76.1835051
  24.3162332  33.0441142  72.7172678  24.2001858  33.7948829  73.1464816
  25.1118218  32.7865096  72.9668765  24.4166921  33.1175989  72.8176769
  15.4972077  44.0223191  78.6322158  16.1409533  44.4636355  79.0218317
  15.8228333  43.2176617  78.5452417  15.6403906  43.9688385  78.6767635
  16.1992657  37.0335165  74.0042020  16.5208498  37.5740373  73.4003328
  16.8464754  36.4631937  74.1364310  16.3418712  37.0294341  73.9349055
  18.4382301  35.4221605  74.0756198  18.8775936  34.8138706  74.5210971
  18.2886963  35.0428979  73.3041663  18.4803766  35.2760077  74.0275365
  22.0391637  33.7748787  71.0286967  21.9542932  34.6309753  71.1736536
  22.5276020  33.4993111  71.6969126  22.0980534  33.8606108  71.1489049
  22.9710070  30.3933581  72.5284702  22.4421542  30.6093214  73.1882009
  23.4935090  31.0869719  72.4485672  22.9698523  30.5276718  72.6140302
  28.4258123  35.9679885  77.9017747  27.5955826  36.1790529  78.0651163
  28.3767376  35.1416940  77.6260030  28.2964859  35.8769492  77.8855112
  14.8609678  34.2896798  71.3292170  14.2766893  34.7946829  71.7358034
  14.4579773  34.0639185  70.5888762  14.7148982  34.3305046  71.2797196
  19.3186893  30.5362450  69.8061091  19.5582896  30.7440434  68.9936434
  19.6402734  29.7319958  69.9150036  19.4024051  30.4476551  69.7021644
  25.6822439  36.6379240  78.0382463  25.2457670  36.6415982  78.7941434
  25.3485354  37.3184739  77.6062040  25.5685058  36.7391696  78.0863295
  12.5296275  28.1500337  68.8621215  11.8154452  27.8638517  69.2743647
  13.0140243  28.4896963  69.5027602  12.4955638  28.1581987  69.0176850
  28.8166785  33.3560160  76.9302100  29.4783219  32.7950828  76.8298008
  28.1758197  32.8612190  77.2554791  28.8195652  33.1996569  76.9634440
  19.7043592  36.6530291  69.2383023  20.1194741  36.3215315  68.5467519
  18.8735522  36.4199193  69.1103160  19.6431601  36.5701547  69.1173871
  25.1031615  34.3725542  76.6714089  25.3387205  34.5170741  75.8440939
  25.2521179  35.1367950  77.0645602  25.1597419  34.5064596  76.6077693
  26.9322072  33.2127208  74.5083693  27.2630289  33.7454848  73.9023787
  27.5055160  33.2666096  75.1645643  27.0655751  33.2996777  74.5161474
  22.3976983  32.9040851  68.4244225  22.3157145  32.9743038  69.2899212
  23.0356703  33.4670594  68.2327965  22.4796820  32.9979822  68.5234174
  28.0401424  28.4537705  76.0123854  27.7837989  27.6417646  75.8221737
  28.8830738  28.4615272  75.7854041  28.1267449  28.3349702  75.9508671
  19.5017093  32.9261305  71.4352831  20.3157732  33.2176198  71.3235602
  19.4376234  32.2721167  70.8611124  19.6119832  32.8726500  71.3341668
  16.0127816  31.6185112  70.9000033  16.3972969  31.3992819  71.6516578
  15.7639436  32.4448057  71.0301109  16.0329889  31.7083258  71.0301109
  16.2951059  39.8389988  72.9732403  16.5849357  39.4478969  72.2491629
  17.0254540  40.0206693  73.4137678  16.4457943  39.8083802  72.9315210
  14.2356974  41.8157370  76.0392553  14.0157270  41.5254725  76.8319220
  14.0151496  41.1572325  75.5110465  14.1704569  41.6757079  76.0781461
  16.4024930  43.1886760  74.8223245  17.0548988  42.6563203  75.0514271
  15.7050539  42.8355413  75.2091119  16.3955648  43.0576283  74.9135413
  24.3964848  35.5091174  74.1654224  24.9622881  36.1684384  74.0812767
  23.7492752  35.8540872  74.6370626  24.3843605  35.6573116  74.2226981
  20.8671426  38.4529959  73.5891303  20.6258102  37.7197819  73.1818368
  21.0472759  39.0016815  72.9357637  20.8579050  38.4252350  73.4321526
  25.5927546  35.5597402  70.9579861  25.2134355  34.7734540  70.9509150
  24.9293792  36.1084259  70.8151505  25.4386021  35.5242226  70.9360658
  18.4174454  39.1110921  74.7968687  19.1824346  38.8420565  74.4751351
  18.3152544  38.6260931  75.5138750  18.5155950  39.0000486  74.8548515
  20.9393115  36.1423105  66.7768636  21.7066100  36.2023230  66.3674488
  20.4924424  35.5703546  66.2924955  20.9866542  36.0659680  66.6446347
  23.8387645  37.8042893  71.2931547  23.9207482  38.6109879  70.9692997
  24.3237387  37.8238852  72.0172320  23.9224803  37.9263555  71.3518445
  19.4745738  32.3537664  74.2622960  20.0161283  31.8508045  74.7261581
  19.7892297  32.3002859  73.4512446  19.6010135  32.2717085  74.2106772
  17.6432188  37.7455015  71.5462988  17.7125008  36.8869554  71.6855989
  18.4220643  37.9626896  71.2182013  17.7685038  37.6507879  71.5180146
  22.0339675  40.1692717  75.7599482  21.6419467  39.8659432  75.0422348
  22.1892747  41.0061807  75.5704435  21.9993265  40.2476553  75.6255979
  22.1979350  36.7342706  75.7005512  21.8394005  36.9057348  76.4769545
  21.7118061  37.1955911  75.1433511  22.0738047  36.8281677  75.7330781
  16.9867715  32.4141871  68.2405747  17.2760240  33.1906754  68.5149321
  17.0739514  31.9030602  68.9420246  17.0421972  32.4533789  68.3848244
  22.8029980  39.5728209  79.1929516  22.6049669  40.0619024  78.4985727
  22.1817692  39.7769451  79.7713649  22.6817545  39.6744748  79.1752739
  21.7799334  27.8075134  72.4959433  21.2522353  27.8903878  71.8065142
  22.2395042  28.5493006  72.4924078  21.7701185  27.9295797  72.3934129
  13.7732399  26.0777654  67.5200329  13.4245204  26.7297379  67.9831878
  13.2928845  26.0634767  66.7924200  13.6502643  26.1720707  67.4811420
  21.3336417  36.3778698  71.6269090  22.0570616  36.8436811  71.4833664
  20.8937008  36.4452307  70.8766687  21.3752109  36.4562534  71.4953872
  14.1756531  29.5703295  70.3618950  14.8101610  30.1663720  70.2968412
  14.2582141  29.2706753  71.1764820  14.2813082  29.6144203  70.4722036
  21.5940267  40.4399403  71.7867152  20.8769576  40.2660265  71.3214389
  22.2447004  40.2051975  71.2542638  21.5842117  40.3795195  71.6396369
  16.8753428  41.6761161  78.2157300  16.4613827  41.0135292  77.8261141
  17.5600803  41.8239020  77.6952994  16.9151800  41.6001820  78.0813797
  20.2418723  40.8351247  78.9680916  19.8435006  40.9453517  78.2001736
  19.6269942  41.0433313  79.5507476  20.0917612  40.8824815  78.9412215
  27.9760565  35.4103213  72.3524007  28.3594171  36.1594569  72.5822104
  27.1804679  35.6569033  72.0935996  27.9154347  35.5572907  72.3481580
  16.7875857  28.0822645  69.9284386  17.1674822  28.1002274  69.1435500
  16.0468453  28.5276634  69.8075233  16.7344695  28.1504420  69.7947954
  17.5860611  34.9200151  71.3193176  16.7771934  34.5966825  71.2726485
  18.0935520  34.2133373  71.2521424  17.5410278  34.7681468  71.3023470
  37.4678341  45.9874148  74.4454368  37.4372345  46.8418785  74.6172637
  38.0659689  45.6869441  75.0040511  37.5515499  46.0690645  74.5529170
  30.6678026  45.0749799  79.2007298  29.8115921  45.2358298  79.2516415
  30.7145679  44.2041863  79.2212359  30.5477137  44.9700601  79.2113364
  25.0519165  54.6112517  74.9644530  24.3002065  54.2328056  74.7360575
  25.5005177  54.6430951  74.2163340  25.0068832  54.5598124  74.8202032
  30.5044125  55.0337887  70.3930077  30.1695494  55.7114808  69.9574299
  31.0170996  54.6443198  69.8046948  30.5309706  55.0762465  70.2416868
  30.0448416  56.9852155  76.3341188  30.4287796  57.5539054  75.7945964
  29.9807558  56.2601666  75.8547004  30.0921844  56.9627619  76.1835051
  33.5129847  47.1341843  81.8438950  34.0585807  47.8126930  81.9032919
  33.4546723  46.9929304  80.9840531  33.5845761  47.2133845  81.7251010
  26.6303921  54.6230909  77.2307302  26.7314284  53.8131263  77.5404430
  26.0345667  54.5287856  76.6006981  26.5576460  54.4895937  77.1833541
  35.2894915  48.5626450  72.7172678  35.1734441  49.3134136  73.1464816
  36.0850802  48.3050404  72.9668765  35.3899505  48.6361297  72.8176769
  26.4704661  59.5408499  78.6322158  27.1142116  59.9821663  79.0218317
  26.7960917  58.7361925  78.5452417  26.6136490  59.4873693  78.6767635
  19.8268966  50.6451196  76.8559636  19.5919150  49.8118848  76.7491905
  19.9654606  50.9255862  76.0420837  19.8124628  50.5634699  76.7201991
  22.1259053  42.8136927  79.7543944  21.5064085  42.2229574  79.5853958
  22.0242917  43.4048362  79.1208267  22.0196729  42.8141009  79.6348933
  27.1725241  52.5520473  74.0042020  27.4941082  53.0925681  73.4003328
  27.8197337  51.9817245  74.1364310  27.3151296  52.5479649  73.9349055
  29.2226949  44.5536468  74.0876407  29.9207114  44.7324596  74.5797870
  29.5379281  44.0306808  73.4646796  29.3722286  44.5030240  74.0678417
  21.8528186  46.3589208  81.9987512  21.7286883  46.9451654  82.6337331
  22.5046471  45.8649404  82.2999787  21.9301836  46.3728013  82.1373442
  29.4114884  50.9406913  74.0756198  29.8508520  50.3324014  74.5210971
  29.2619547  50.5614287  73.3041663  29.4536350  50.7945384  74.0275365
  26.8786527  49.5350925  81.2775024  27.5235530  49.0423368  80.9585972
  27.1188304  49.6775712  82.1041102  27.0097112  49.4828367  81.3524557
  29.4172619  52.3805831  80.9281916  29.6995861  51.5857237  80.7068672
  30.1458779  52.8586419  80.9486977  29.5662182  52.3340428  80.8984931
  27.3953812  39.9228865  78.1697681  27.0657142  40.3740009  77.5001380
  26.7198814  39.8445028  78.7170688  27.2464249  39.9780000  78.1520905
  33.0124221  49.2934095  71.0286967  32.9275516  50.1495061  71.1736536
  33.5008604  49.0178419  71.6969126  33.0713118  49.3791416  71.1489049
  34.6030220  35.9114388  76.4147292  34.2883661  36.6017867  76.8467714
  34.0857162  35.8559170  75.7132793  34.4794691  36.0049276  76.3744241
  33.9442654  45.9118889  72.5284702  33.4154125  46.1278522  73.1882009
  34.4667674  46.6055027  72.4485672  33.9431107  46.0462026  72.6140302
  39.3990707  51.4865193  77.9017747  38.5688410  51.6975837  78.0651163
  39.3499959  50.6602248  77.6260030  39.2697442  51.3954800  77.8855112
  25.8342262  49.8082106  71.3292170  25.2499477  50.3132137  71.7358034
  25.4312357  49.5824493  70.5888762  25.6881566  49.8490354  71.2797196
  21.3886290  55.5236867  78.1315842  20.9053869  56.2487356  78.1075426
  22.2009609  55.8212997  78.2426000  21.4377038  55.6739220  78.1443121
  27.4600444  54.3169047  80.7365656  26.9427386  53.9576462  80.1326964
  28.1574836  53.7931222  80.7471723  27.4866026  54.1866735  80.6495915
  30.2919476  46.0547758  69.8061091  30.5315480  46.2625741  68.9936434
  30.6135317  45.2505266  69.9150036  30.3756634  45.9661859  69.7021644
  25.6009766  37.9841153  73.6520629  26.3555734  38.3519470  73.4137679
  25.4237301  38.3580708  74.4199809  25.6864245  38.0939341  73.7305517
  24.2430488  56.0393043  78.2836122  24.9451067  55.5245032  78.3408878
  24.1627971  56.3667194  79.0882997  24.3354248  56.0107269  78.4108914
  23.9566831  40.3911472  70.3498742  23.7742404  40.6083353  69.5239735
  24.8192444  40.5050485  70.4057356  24.0571421  40.4401370  70.2353229
  23.5681263  52.2299395  77.7921730  24.4070162  52.4622327  77.8395491
  23.5993032  51.3603706  77.7228765  23.6962981  52.1356341  77.7886375
  24.1933966  52.6500270  82.0935035  24.7332191  52.5071401  82.7638408
  23.5103912  53.0497021  82.4619062  24.1726120  52.6879941  82.2469457
  29.6366550  37.3937883  73.3847766  30.3652711  37.2153838  72.9385922
  29.7261443  38.2355963  73.5954944  29.7573212  37.4921761  73.3501283
  33.6174851  48.3291270  77.2880060  34.3732366  48.7622785  77.3268968
  33.7237175  47.6796040  77.8614696  33.7445022  48.2968754  77.3778085
  36.6555022  52.1564548  78.0382463  36.2190254  52.1601290  78.7941434
  36.3217938  52.8370047  77.6062040  36.5417642  52.2577003  78.0863295
  36.5752505  39.1978376  80.2811891  37.2178413  39.2676480  80.8673806
  36.8275526  38.5307598  79.7791433  36.7074637  39.1104724  80.2939170
  23.5028858  43.6685645  68.8621215  22.7887035  43.3823825  69.2743647
  23.9872827  44.0082271  69.5027602  23.4688221  43.6767295  69.0176850
  39.7899368  48.8745468  76.9302100  40.4515802  48.3136136  76.8298008
  39.1490780  48.3797498  77.2554791  39.7928236  48.7181877  76.9634440
  30.6776176  52.1715599  69.2383023  31.0927325  51.8400623  68.5467519
  29.8468106  51.9384501  69.1103160  30.6164185  52.0886855  69.1173871
  20.0064525  49.6559340  79.5281201  19.8240098  49.6306226  78.6753493
  20.7414194  50.1258278  79.5670110  20.0878589  49.7220702  79.4079120
  36.0764199  49.8910850  76.6714089  36.3119788  50.0356049  75.8440939
  36.2253763  50.6553258  77.0645602  36.1330002  50.0249904  76.6077693
  37.9054656  48.7312516  74.5083693  38.2362873  49.2640156  73.9023787
  38.4787744  48.7851404  75.1645643  38.0388335  48.8182085  74.5161474
  33.1186545  46.5777419  75.1907273  33.2133399  47.3166713  75.6446898
  32.4945388  46.1494894  75.6241837  33.0395575  46.6238739  75.3215420
  19.9735435  46.5352841  79.6780268  20.5508938  46.3989291  80.3172513
  19.2749497  46.0788625  79.9325852  19.9556457  46.4475107  79.8102557
  33.3709566  48.4226158  68.4244225  33.2889729  48.4928346  69.2899212
  34.0089287  48.9855902  68.2327965  33.4529404  48.5165130  68.5234174
  26.7302737  48.1886896  77.8918751  26.4721982  47.3558631  77.8650050
  26.7851220  48.4144509  77.0511251  26.7002515  48.0984668  77.7638888
  31.8103787  40.2915347  77.9922844  31.1060114  39.8024533  78.1506763
  31.8588762  40.3037822  77.1211288  31.7133839  40.2204995  77.8862183
  25.7037449  45.7424659  78.3783646  25.1287041  45.9016827  79.0147607
  25.3273126  45.1060068  77.9152096  25.5640262  45.6722472  78.4038204
  29.3710738  44.2148008  83.2376024  28.9825171  43.7902226  82.5828215
  28.7065436  44.4630158  83.7453051  29.2157666  44.1886729  83.2163892
  39.0134007  43.9723013  76.0123854  38.7570572  43.1602954  75.8221737
  39.8563321  43.9800580  75.7854041  39.1000033  43.8535010  75.9508671
  15.4494268  45.3864734  76.3928086  15.5354520  45.0096602  77.1741616
  16.0770066  45.0125179  75.9148045  15.5550819  45.2750216  76.4373564
  33.1937100  37.9122637  80.7500008  33.5747611  37.2300808  81.1367883
  32.3900384  37.6232239  80.5675673  33.1313561  37.7689685  80.7804064
  30.4749676  48.4446613  71.4352831  31.2890315  48.7361506  71.3235602
  30.4108818  47.7906475  70.8611124  30.5852415  48.3911807  71.3341668
  26.3457585  51.9168130  76.5625143  26.9831532  51.6779878  77.1076937
  26.7712656  52.1205289  75.8278304  26.5033751  51.9119140  76.5342300
  26.9860400  47.1370420  70.9000033  27.3705552  46.9178127  71.6516578
  26.7372020  47.9633365  71.0301109  27.0062472  47.2268566  71.0301109
  28.7279057  52.3940553  78.2418929  28.8018065  52.2315725  79.0960779
  29.5448563  52.5830742  77.9979411  28.8595415  52.3977295  78.3316955
  22.4884813  52.7398416  75.2713373  21.6622931  52.9860153  75.1447652
  22.5496804  52.6610496  76.1375431  22.3758980  52.7643365  75.3802317
  24.7060837  38.8067357  76.2308813  23.8383262  38.8789956  76.2966422
  24.9936041  39.6089436  76.4196788  24.6200585  38.9361504  76.2683580
  33.8293726  38.9545216  84.5620135  34.5747318  38.7655026  84.1483560
  33.4131030  39.4803454  84.0033991  33.8778700  39.0047361  84.4184708
  27.2683642  55.3575296  72.9732403  27.5581941  54.9664277  72.2491629
  27.9987123  55.5392001  73.4137678  27.4190526  55.3269110  72.9315210
  41.2055997  46.3254445  79.5125640  41.7563918  45.6922514  79.7522732
  41.1900112  46.8569837  80.2041144  41.2841193  46.3103393  79.6504498
  27.8578387  50.1593042  84.0585533  27.3590081  50.8708809  84.1370422
  28.6678612  50.4793708  84.0203696  27.9034494  50.3119890  84.0642102
  25.2089558  57.3342678  76.0392553  24.9889853  57.0440033  76.8319220
  24.9884080  56.6757633  75.5110465  25.1437152  57.1942387  76.0781461
  24.1206505  49.4215995  78.3048254  23.8319754  48.7953466  78.8393982
  24.9889853  49.3636282  78.3712935  24.2066757  49.3203539  78.3939209
  34.9084403  44.5650778  78.6230236  34.5649169  43.8441113  78.9737486
  35.0077445  44.3564629  77.7808594  34.8726446  44.4274981  78.5501916
  27.3757514  58.7072068  74.8223245  28.0281572  58.1748511  75.0514271
  26.6783122  58.3540721  75.2091119  27.3688232  58.5761591  74.9135413
  24.3238778  51.0611246  74.2290619  25.0784746  51.4424285  74.4426082
  23.7309391  51.5122389  74.6837316  24.3475492  51.1840073  74.3273498
  35.3697432  51.0276482  74.1654224  35.9355465  51.6869692  74.0812767
  34.7225335  51.3726180  74.6370626  35.3576188  51.1758424  74.2226981
  25.6437005  52.2319807  79.6030735  25.1217759  52.3720099  80.2882599
  26.0311025  51.4730471  79.7932852  25.6240706  52.1405331  79.7331811
  22.6328189  42.2825616  73.6725689  22.3452985  41.9126886  72.9357637
  23.3198657  42.7520471  73.4109394  22.6917086  42.2972585  73.5240765
  31.8404010  53.9715266  73.5891303  31.5990686  53.2383127  73.1818368
  32.0205343  54.5202123  72.9357637  31.8311634  53.9437658  73.4321526
  27.0703331  49.2623826  75.0012226  26.8746113  49.8698561  74.4072529
  27.2937676  48.5691770  74.5203900  27.0737972  49.2501352  74.8428307
  25.4681861  46.1478564  75.1193094  26.1904513  46.3119722  74.6596900
  24.9889853  46.8688229  75.0132434  25.5045591  46.2776794  75.0358708
  33.4275368  42.4842363  80.4989779  32.5886469  42.5103642  80.2628042
  33.4979736  43.1313098  81.0795126  33.3143762  42.5838489  80.5498896
  31.8744647  39.3827740  75.2317395  32.5770999  39.1835488  74.7537353
  31.6088835  38.6103682  75.5386238  31.9391279  39.2390706  75.2062837
  37.3032892  47.6910350  77.7851021  37.2166867  47.8465776  78.6385800
  36.8483372  48.3348425  77.4110426  37.2236149  47.8086105  77.8558128
  20.2056384  43.0606828  74.5210970  20.3072520  43.8632990  74.8491946
  21.0012270  42.8594164  74.2234051  20.3384289  43.1492727  74.5246326
  31.1758708  45.0121097  76.4076580  30.9293422  44.9316848  77.2413369
  31.5043831  44.2274565  76.2139108  31.1879952  44.8847362  76.5024103
  35.0706757  51.7204456  80.1963362  34.9321116  52.4185502  80.7012104
  34.2906755  51.5653113  79.8399543  34.9349984  51.8004623  80.2189636
  27.1355735  47.7477815  85.8199563  27.2799111  48.3279024  85.1842673
  27.4831384  48.1254112  86.5249418  27.2083197  47.8898519  85.8298558
  29.3075653  46.9467984  83.6024695  28.5598967  47.1398998  83.1972973
  29.4617178  46.1213203  83.3648816  29.2198080  46.8533095  83.5070101
  26.2083490  55.9380587  82.6860590  26.3573054  55.3783503  82.0333995
  26.9883493  56.0172589  83.0693109  26.3457584  55.8666153  82.6457539
  36.5660130  51.0782710  70.9579861  36.1866939  50.2919848  70.9509150
  35.9026375  51.6269567  70.8151505  36.4118605  51.0427534  70.9360658
  34.0204756  34.0208410  78.3613942  34.1388324  34.4784873  77.6281244
  33.8466931  33.2153671  78.0750159  34.0123927  33.9702182  78.2114875
  29.3907038  54.6296229  74.7968687  30.1556929  54.3605873  74.4751351
  29.2885128  54.1446239  75.5138750  29.4888533  54.5185794  74.8548515
  27.4259808  42.8320638  81.3361923  26.6355883  42.6512099  81.6579258
  27.8220431  42.0547591  81.3192217  27.3676684  42.6908099  81.3814471
  31.9125699  51.6608413  66.7768636  32.6798684  51.7208538  66.3674488
  31.4657007  51.0888854  66.2924955  31.9599126  51.5844988  66.6446347
  32.8103494  50.4663069  79.0621369  32.1348496  50.2348301  79.5634756
  32.8195870  49.8584251  78.4363474  32.7121999  50.3421994  79.0437521
  29.9397638  45.3080898  85.8185422  29.8756779  46.1690854  85.6905558
  30.0794826  44.9912891  85.0180973  29.9513108  45.3881064  85.6813634
  34.8120229  53.3228201  71.2931547  34.8940066  54.1295187  70.9692997
  35.2969971  53.3424160  72.0172320  34.8957387  53.4448863  71.3518445
  28.6216732  48.0013037  79.9601625  28.1978981  48.2017536  79.2240643
  28.4461587  47.1541885  80.0725924  28.5327613  47.9061818  79.8675315
  23.9099177  48.4965088  75.3929597  24.0663796  48.4311891  76.2485589
  24.2499770  49.2713641  75.1808277  23.9832412  48.6014286  75.4884191
  30.4478321  47.8722972  74.2622960  30.9893867  47.3693353  74.7261581
  30.7624881  47.8188167  73.4512446  30.5742719  47.7902393  74.2106772
  28.6164771  53.2640323  71.5462988  28.6857592  52.4054862  71.6855989
  29.3953226  53.4812204  71.2182013  28.7417621  53.1693187  71.5180146
  31.5967591  42.7659276  84.3145261  31.8109560  42.1270191  83.7608615
  30.9801490  43.2105100  83.8853122  31.5372920  42.7369420  84.1695692
  33.0072259  55.6878025  75.7599482  32.6152051  55.3844740  75.0422348
  33.1625331  56.5247115  75.5704435  32.9725849  55.7661861  75.6255979
  20.4833438  45.6800039  75.7090364  20.8632403  46.0984584  75.0450632
  19.9088803  46.2613494  76.0159208  20.4544763  45.8277898  75.6567105
  33.7606679  44.3748342  85.2528568  32.9483361  44.0674232  85.3341741
  34.2196613  43.8947342  85.8171280  33.7087064  44.2584834  85.3483162
  33.1711934  52.2528014  75.7005512  32.8126588  52.4242656  76.4769545
  32.6850644  52.7141219  75.1433511  33.0470630  52.3466985  75.7330781
  30.9882320  35.8759212  79.3032604  30.1175877  35.8497933  79.2565913
  31.2422661  35.7036404  78.4858449  30.8975880  35.8469356  79.1752740
  27.9600299  47.9327179  68.2405747  28.2492824  48.7092061  68.5149321
  28.0472098  47.4215910  68.9420246  28.0154555  47.9719097  68.3848244
  28.0131460  37.8865440  80.7606074  27.4969949  37.1945632  80.8857653
  27.4525389  38.5536218  80.7068673  27.8537973  37.8828698  80.7712140
  36.0573673  44.9921055  81.2138629  35.6301281  44.9047404  80.4586728
  35.4199726  45.0998831  81.7993473  35.9003280  44.9953715  81.1884070
  24.1264240  47.2460444  80.3405859  23.2852247  47.1464318  80.5484752
  24.3354248  48.0155924  80.6920179  24.0328933  47.3452487  80.4233174
  21.6039807  44.8679980  78.1690609  21.2096505  44.9422992  77.3940719
  21.0479924  45.2537927  78.7198971  21.4642619  44.9361755  78.1358269
  33.2404754  37.8461274  77.8494488  33.4454347  37.7783582  78.6951485
  32.9131178  38.6520096  77.7815666  33.2220002  37.9547215  77.9654143
  27.9380905  45.1741843  79.5903456  27.6344042  44.6197831  80.1913864
  27.2360326  45.3534053  79.1031490  27.7897115  45.1186625  79.6073162
  26.9947002  42.4842362  74.1548158  27.2706736  41.7661275  73.7425726
  27.5945671  43.0827282  73.9469264  27.1240267  42.4662733  74.0628919
  36.4938441  38.3993039  77.3297254  35.8812755  38.8863441  77.7150986
  36.5902616  37.7236530  77.8734905  36.4176339  38.3711347  77.4676112
  30.4957522  40.1555880  72.4294753  30.9501269  40.3266440  73.1542598
  30.9697568  39.5423991  72.0292529  30.6325843  40.0906765  72.4768515
  24.0173048  49.6404206  81.7597492  23.4260981  50.2813704  81.7300507
  24.7794071  50.0641823  81.7328791  24.0421308  49.7980044  81.7512639
  33.7762564  55.0913517  79.1929516  33.5782253  55.5804332  78.4985727
  33.1550275  55.2954759  79.7713649  33.6550128  55.1930056  79.1752739
  27.8370542  46.8598414  73.5339760  28.5812587  47.2472691  73.7722710
  27.9831239  46.0155840  73.6980248  27.9681127  46.7928887  73.5933730
  29.7550118  38.6548673  78.5671622  28.9086163  38.8271481  78.4412971
  29.7521250  37.8498017  78.9037450  29.6297268  38.5609702  78.5982749
  30.8248418  42.4323888  79.4333680  30.3508373  41.9065650  79.9438991
  31.1966554  41.8853360  78.8648541  30.8098307  42.2739884  79.4248827
  37.0885149  47.4926263  80.8440460  36.8483372  46.6532678  80.8482887
  37.5677156  47.5726430  81.5681234  37.1237332  47.3807663  80.9515262
  32.7531918  43.3260442  72.4959433  32.2254937  43.4089186  71.8065142
  33.2127626  44.0678314  72.4924078  32.7433768  43.4481105  72.3934129
  39.0890336  44.2727720  78.7969719  38.8500106  44.2323555  77.9590504
  39.2524237  45.1198872  78.9235440  39.0780639  44.3919805  78.6923201
  24.5623234  43.2537843  81.4627644  23.9376305  43.2656235  80.8553596
  24.2268829  43.7298018  82.1118884  24.4208726  43.3256360  81.4684212
  24.7464983  41.5962962  67.5200329  24.3977787  42.2482687  67.9831878
  24.2661429  41.5820075  66.7924200  24.6235227  41.6906015  67.4811420
  32.3069000  51.8964006  71.6269090  33.0303199  52.3622119  71.4833664
  31.8669591  51.9637615  70.8766687  32.3484693  51.9747842  71.4953872
  31.4755155  48.7561548  82.8769779  30.8612149  48.2119598  83.1718415
  31.9922440  48.2425784  82.3975596  31.4610818  48.5997957  82.8494008
  30.7151453  49.8265818  80.6114078  30.2879061  49.2015537  80.1779513
  30.7076397  49.5440740  81.4373085  30.6510594  49.6918599  80.6693906
  29.0437162  40.7034573  80.8256612  29.0679650  40.1694685  80.1369392
  29.2948636  40.1951881  81.4882203  29.0847081  40.5495476  80.8221257
  25.3238485  39.4305391  80.2062356  25.3636856  39.9314597  80.9197064
  24.4988149  39.5215784  79.9368279  25.2078010  39.5187207  80.2712895
  26.7452848  45.9465901  82.5036255  25.9144778  46.1139719  82.2971503
  26.6904365  45.5701851  83.2885141  26.6142263  45.9155632  82.5884784
  25.1188892  44.2221492  73.0326373  25.2591853  44.7193956  73.7355014
  25.6171425  43.5207787  73.1740587  25.2129973  44.1923471  73.1577952
  25.1489114  45.0888603  70.3618950  25.7834194  45.6849028  70.2968412
  25.2314725  44.7892061  71.1764820  25.2545665  45.1329511  70.4722036
  26.7268097  41.0202579  70.3364392  27.0483938  40.5405661  69.6823654
  26.9895041  41.8302225  70.1455204  26.8134122  41.0692476  70.2119884
  29.9565070  52.0421453  83.8563208  29.4490161  52.5957300  84.3003839
  29.6591716  52.1029743  83.0381983  29.8369955  52.1327764  83.8011665
  32.1227252  40.4074773  82.6987871  32.5482324  39.9547299  82.0871397
  31.5084245  39.8534843  82.9752658  32.0955897  40.2588749  82.6492896
  21.6542102  47.2856444  73.6308496  22.1634331  47.8820951  74.0119801
  22.1276374  47.0182418  72.9484916  21.7985478  47.3342259  73.5863019
  32.5672850  55.9584711  71.7867152  31.8502160  55.7845573  71.3214389
  33.2179588  55.7237283  71.2542638  32.5574701  55.8980503  71.6396369
  30.5621475  36.8789872  76.1078448  29.9189793  36.7287519  76.6763586
  30.2220882  36.6332218  75.3427553  30.4166552  36.8201995  76.0781463
  35.1520821  44.8349299  75.5308457  34.4812011  45.3779001  75.4021522
  35.8460572  45.3044154  75.2890151  35.1549689  44.9847570  75.4763984
  29.2007555  56.9746011  80.7620215  28.9773209  56.2164840  81.1304241
  28.7117398  57.0044032  80.0400655  29.0951004  56.8668236  80.7096956
  35.3148949  41.2905183  78.4398830  35.6676559  40.8634906  79.1144629
  34.4563750  41.2056026  78.5699906  35.2398393  41.2149923  78.5593840
  24.0132634  43.9212702  76.4981676  23.2944623  44.3376835  76.7654540
  24.3844996  44.4866941  75.9473315  23.9624566  44.0661984  76.4564483
  33.3132215  44.5540551  82.3883672  33.2930142  44.3723847  83.2418451
  33.3611415  45.4252570  82.3643256  33.3166856  44.6557090  82.5106967
  27.8486012  57.1946469  78.2157300  27.4346411  56.5320599  77.8261141
  28.5333386  57.3424328  77.6952994  27.8884384  57.1187127  78.0813797
  31.2151306  56.3536555  78.9680916  30.8167589  56.4638825  78.2001736
  30.6002526  56.5618621  79.5507476  31.0650195  56.4010123  78.9412215
  29.7879208  42.9610702  71.8355056  29.1944047  43.2827699  71.2839623
  29.8254486  42.1151798  71.6276162  29.7053597  42.8835031  71.7237827
  36.7473009  36.4123595  79.3683142  36.2403874  35.7052734  79.3004320
  37.5440443  36.0816783  79.4984219  36.7900248  36.2596746  79.3782137
  32.6637025  42.9190207  75.2656806  32.4350718  42.9422908  74.4235164
  32.9235101  42.0947674  75.3851817  32.6683213  42.8006287  75.1582004
  25.7181787  41.4566753  76.5611002  26.1939154  41.8183833  75.9261183
  25.2170387  42.1123221  76.8411144  25.7147146  41.6060942  76.5087743
  27.7608440  43.6007953  69.9284386  28.1407405  43.6187582  69.1435500
  27.0201036  44.0461942  69.8075233  27.7077278  43.6689728  69.7947954
  35.3893731  41.9090144  75.5159964  35.3887957  41.7538801  76.3744241
  35.1849911  42.7553131  75.4601350  35.3593509  42.0110765  75.6347904
  17.4511002  45.3329929  79.9318781  17.2732763  44.8806538  80.6573697
  17.1630024  46.1356090  80.1157258  17.3823955  45.3852486  80.0662284
  33.1134583  46.5887646  79.1696171  33.6088248  45.8710641  79.1300192
  32.3034359  46.2858444  79.0550658  33.0678476  46.4385292  79.1469897
  28.5593194  50.4385459  71.3193176  27.7504517  50.1152133  71.2726485
  29.0668103  49.7318681  71.2521424  28.5142861  50.2866776  71.3023470
  19.1883472  47.8657652  77.0440540  18.3228991  47.8543343  76.9323311
  19.2882288  47.6787875  77.8911679  19.0757639  47.8363714  77.1529484
  35.1786402  49.3391333  81.8573300  35.6041473  48.8165755  81.3043725
  34.8143322  49.9372171  81.3361923  35.1873004  49.3501560  81.6982310
  24.8140482  57.6355551  80.6170645  25.1287041  58.4491939  80.6248427
  25.2233895  57.2505770  81.2852805  24.9208580  57.6984253  80.7174737
  31.7665001  53.0525598  78.1874457  32.2376179  53.7665860  78.3564443
  32.1025180  52.4524348  78.7234327  31.8860116  53.0697062  78.2906833
  35.2132812  40.9128886  82.3353342  34.6295801  41.4138093  81.9230910
  35.5337106  40.4058443  81.7017666  35.1745987  40.9120721  82.1811850
  27.7527611  39.8269481  72.6112017  28.5743305  39.9967794  72.3693712
  27.2897262  39.9816742  71.8878315  27.8058773  39.8751214  72.4683662
  22.1553502  51.5828659  80.2649254  22.7598359  51.5424494  79.6363075
  21.9480814  52.4299811  80.2953310  22.2142399  51.7016662  80.1765370
  31.9697274  53.8494605  81.4811491  32.7895648  53.7057571  81.7427786
  31.6891352  54.4740803  82.0227929  32.0494017  53.9204957  81.5999431
  40.1959532  60.0721776  74.0876407  40.8939697  60.2509904  74.5797870
  40.5111865  59.5492116  73.4646796  40.3454870  60.0215548  74.0678417
  38.3686396  55.4414173  78.1697681  38.0389726  55.8925317  77.5001380
  37.6931398  55.3630336  78.7170688  38.2196832  55.4965308  78.1520905
  45.5762804  51.4299696  76.4147292  45.2616245  52.1203174  76.8467714
  45.0589745  51.3744478  75.7132793  45.4527274  51.5234584  76.3744241
  36.8074845  65.3267414  71.3292170  36.2232061  65.8317445  71.7358034
  36.4044941  65.1009800  70.5888762  36.6614149  65.3675662  71.2797196
  41.2652060  61.5733066  69.8061091  41.5048063  61.7811049  68.9936434
  41.5867901  60.7690574  69.9150036  41.3489218  61.4847167  69.7021644
  36.5742350  53.5026461  73.6520629  37.3288318  53.8704778  73.4137679
  36.3969885  53.8766016  74.4199809  36.6596828  53.6124649  73.7305517
  34.9299415  55.9096780  70.3498742  34.7474988  56.1268661  69.5239735
  35.7925028  56.0235793  70.4057356  35.0304004  55.9586678  70.2353229
  40.6099134  52.9123191  73.3847766  41.3385294  52.7339146  72.9385922
  40.6994027  53.7541271  73.5954944  40.7305796  53.0107069  73.3501283
  34.4761442  59.1870953  68.8621215  33.7619619  58.9009132  69.2743647
  34.9605410  59.5267579  69.5027602  34.4420805  59.1952603  69.0176850
  41.6508760  67.6900907  69.2383023  42.0659908  67.3585931  68.5467519
  40.8200689  67.4569809  69.1103160  41.5896768  67.6072163  69.1173871
  44.3442150  63.9411466  68.4244225  44.2622312  64.0113653  69.2899212
  44.9821870  64.5041210  68.2327965  44.4261987  64.0350437  68.5234174
  26.4226852  60.9050042  76.3928086  26.5087104  60.5281910  77.1741616
  27.0502649  60.5310487  75.9148045  26.5283403  60.7935524  76.4373564
  41.4482260  63.9631921  71.4352831  42.2622899  64.2546813  71.3235602
  41.3841401  63.3091783  70.8611124  41.5584999  63.9097115  71.3341668
  37.9592983  62.6555728  70.9000033  38.3438136  62.4363435  71.6516578
  37.7104604  63.4818673  71.0301109  37.9795056  62.7453874  71.0301109
  35.6793421  54.3252665  76.2308813  34.8115846  54.3975264  76.2966422
  35.9668625  55.1274743  76.4196788  35.5933169  54.4546812  76.2683580
  33.6060773  57.8010924  73.6725689  33.3185568  57.4312194  72.9357637
  34.2931241  58.2705779  73.4109394  33.6649670  57.8157893  73.5240765
  36.4414444  61.6663872  75.1193094  37.1637096  61.8305030  74.6596900
  35.9622437  62.3873537  75.0132434  36.4778175  61.7962102  75.0358708
  42.8477230  54.9013048  75.2317395  43.5503583  54.7020796  74.7537353
  42.5821419  54.1288990  75.5386238  42.9123862  54.7576014  75.2062837
  31.1788967  58.5792136  74.5210970  31.2805104  59.3818298  74.8491946
  31.9744854  58.3779472  74.2234051  31.3116873  58.6678035  74.5246326
  44.9937339  49.5393718  78.3613942  45.1120907  49.9970181  77.6281244
  44.8199515  48.7338979  78.0750159  44.9856510  49.4887490  78.2114875
  42.8858282  67.1793721  66.7768636  43.6531267  67.2393846  66.3674488
  42.4389591  66.6074162  66.2924955  42.9331709  67.1030296  66.6446347
  31.4566022  61.1985347  75.7090364  31.8364987  61.6169892  75.0450632
  30.8821387  61.7798802  76.0159208  31.4277347  61.3463206  75.6567105
  41.9614903  51.3944520  79.3032604  41.0908461  51.3683241  79.2565913
  42.2155244  51.2221712  78.4858449  41.8708463  51.3654664  79.1752740
  38.9332883  63.4512487  68.2405747  39.2225407  64.2277369  68.5149321
  39.0204681  62.9401218  68.9420246  38.9887139  63.4904405  68.3848244
  37.9679585  58.0027670  74.1548158  38.2439320  57.2846583  73.7425726
  38.5678255  58.6012590  73.9469264  38.0972850  57.9848041  74.0628919
  41.4690106  55.6741188  72.4294753  41.9233853  55.8451748  73.1542598
  41.9430152  55.0609298  72.0292529  41.6058426  55.6092073  72.4768515
  38.8103126  62.3783722  73.5339760  39.5545171  62.7657998  73.7722710
  38.9563822  61.5341148  73.6980248  38.9413711  62.3114195  73.5933730
  40.7282701  54.1733981  78.5671622  39.8818746  54.3456789  78.4412971
  40.7253834  53.3683325  78.9037450  40.6029851  54.0795010  78.5982749
  43.7264501  58.8445750  72.4959433  43.1987520  58.9274494  71.8065142
  44.1860210  59.5863621  72.4924078  43.7166352  58.9666412  72.3934129
  35.7197567  57.1148270  67.5200329  35.3710371  57.7667995  67.9831878
  35.2394012  57.1005383  66.7924200  35.5967811  57.2091323  67.4811420
  36.0921475  59.7406800  73.0326373  36.2324436  60.2379264  73.7355014
  36.5904008  59.0393094  73.1740587  36.1862556  59.7108779  73.1577952
  36.1221698  60.6073911  70.3618950  36.7566777  61.2034336  70.2968412
  36.2047309  60.3077369  71.1764820  36.2278249  60.6514819  70.4722036
  37.7000681  56.5387886  70.3364392  38.0216522  56.0590969  69.6823654
  37.9627624  57.3487533  70.1455204  37.7866706  56.5877784  70.2119884
  32.6274686  62.8041752  73.6308496  33.1366915  63.4006259  74.0119801
  33.1008958  62.5367725  72.9484916  32.7718061  62.8527567  73.5863019
  41.5354058  52.3975180  76.1078448  40.8922376  52.2472827  76.6763586
  41.1953465  52.1517526  75.3427553  41.3899136  52.3387303  76.0781463
  34.9865217  59.4398010  76.4981676  34.2677206  59.8562143  76.7654540
  35.3577580  60.0052249  75.9473315  34.9357149  59.5847292  76.4564483
  40.7611792  58.4796010  71.8355056  40.1676631  58.8013007  71.2839623
  40.7987069  57.6337106  71.6276162  40.6786181  58.4020339  71.7237827
  43.6369608  58.4375515  75.2656806  43.4083301  58.4608216  74.4235164
  43.8967685  57.6132982  75.3851817  43.6415796  58.3191595  75.1582004
  36.6914371  56.9752061  76.5611002  37.1671737  57.3369141  75.9261183
  36.1902970  57.6308529  76.8411144  36.6879730  57.1246250  76.5087743
  38.7341024  59.1193261  69.9284386  39.1139989  59.1372890  69.1435500
  37.9933620  59.5647250  69.8075233  38.6809862  59.1875036  69.7947954
  39.5325778  65.9570767  71.3193176  38.7237101  65.6337441  71.2726485
  40.0400687  65.2503989  71.2521424  39.4875445  65.8052084  71.3023470
  30.1616055  63.3842960  77.0440540  29.2961575  63.3728651  76.9323311
  30.2614871  63.1973183  77.8911679  30.0490222  63.3549022  77.1529484
  38.7260195  55.3454789  72.6112017  39.5475889  55.5153102  72.3693712
  38.2629846  55.5002050  71.8878315  38.7791357  55.3936522  72.4683662
  26.1896581   7.4066972  61.3794414  26.1590585   8.2611608  61.5512684
  26.7877930   7.1062264  61.9380558  26.2733739   7.4883468  61.4869217
  13.7737406  16.0305340  61.8984576  13.0220305  15.6520879  61.6700621
  14.2223417  16.0623774  61.1503387  13.7287072  15.9790948  61.7542079
  19.2262365  16.4530710  57.3270124  18.8913734  17.1307632  56.8914346
  19.7389236  16.0636021  56.7386995  19.2527947  16.4955288  57.1756915
  18.7666657  18.4044979  63.2681235  19.1506036  18.9731877  62.7286010
  18.7025798  17.6794489  62.7887051  18.8140084  18.3820442  63.1175098
  24.0113156   9.9819274  59.6512724  23.8952681  10.7326960  60.0804862
  24.8069042   9.7243227  59.9008811  24.1117745  10.0554121  59.7516816
  15.8943481  13.9713297  60.9382067  16.2159322  14.5118504  60.3343375
  16.5415578  13.4010068  61.0704356  16.0369536  13.9672472  60.8689102
  18.1333125  12.3599737  61.0096245  18.5726760  11.7516837  61.4551018
  17.9837787  11.9807110  60.2381710  18.1754590  12.2138208  60.9615412
  21.7342461  10.7126918  57.9627014  21.6493756  11.5687885  58.1076583
  22.2226844  10.4371242  58.6309173  21.7931358  10.7984239  58.0829096
  22.6660894   7.3311712  59.4624749  22.1372366   7.5471346  60.1222055
  23.1885914   8.0247851  59.3825719  22.6649347   7.4654849  59.5480348
  28.1208947  12.9058017  64.8357794  27.2906650  13.1168660  64.9991210
  28.0718200  12.0795071  64.5600077  27.9915683  12.8147623  64.8195159
  14.5560502  11.2274929  58.2632217  13.9717717  11.7324960  58.6698081
  14.1530597  11.0017316  57.5228809  14.4099806  11.2683177  58.2137242
  19.0137717   7.4740581  56.7401138  19.2533720   7.6818565  55.9276481
  19.3353558   6.6698090  56.8490082  19.0974874   7.3854682  56.6361691
  25.3773262  13.5757371  64.9722509  24.9408494  13.5794113  65.7281481
  25.0436178  14.2562870  64.5402087  25.2635882  13.6769827  65.0203342
  28.5117609  10.2938291  63.8642147  29.1734043   9.7328959  63.7638055
  27.8709021   9.7990322  64.1894838  28.5146476  10.1374700  63.8974487
  19.3994416  13.5908422  56.1723070  19.8145565  13.2593446  55.4807566
  18.5686346  13.3577325  56.0443207  19.3382425  13.5079678  56.0513917
  24.7982439  11.3103673  63.6054136  25.0338029  11.4548872  62.7780986
  24.9472003  12.0746081  63.9985649  24.8548243  11.4442728  63.5417739
  26.6272896  10.1505339  61.4423739  26.9581113  10.6832979  60.8363834
  27.2005984  10.2044227  62.0985690  26.7606575  10.2374908  61.4501521
  22.0927807   9.8418982  55.3584271  22.0107969   9.9121169  56.2239258
  22.7307527  10.4048726  55.1668012  22.1747644   9.9357953  55.4574221
  19.1967917   9.8639436  58.3692878  20.0108556  10.1554329  58.2575649
  19.1327058   9.2099298  57.7951171  19.3070656   9.8104631  58.2681715
  15.7078640   8.5563243  57.8340079  16.0923793   8.3370950  58.5856624
  15.4590260   9.3826189  57.9641156  15.7280713   8.6461389  57.9641156
  15.9901883  16.7768119  59.9072450  16.2800181  16.3857100  59.1831676
  16.7205364  16.9584824  60.3477725  16.1408767  16.7461933  59.8655257
  13.9307798  18.7535502  62.9732599  13.7108094  18.4632856  63.7659266
  13.7102320  18.0950457  62.4450512  13.8655392  18.6135210  63.0121508
  16.0975754  20.1264891  61.7563292  16.7499812  19.5941334  61.9854318
  15.4001363  19.7733544  62.1431166  16.0906472  19.9954414  61.8475460
  24.0915672  12.4469305  61.0994271  24.6573705  13.1062515  61.0152814
  23.4443576  12.7919004  61.5710673  24.0794429  12.5951247  61.1567028
  20.5622250  15.3908090  60.5231350  20.3208926  14.6575950  60.1158415
  20.7423583  15.9394947  59.8697684  20.5529874  15.3630481  60.3661573
  25.2878370  12.4975533  57.8919908  24.9085179  11.7112671  57.8849197
  24.6244616  13.0462390  57.7491552  25.1336845  12.4620357  57.8700704
  18.1125278  16.0489052  61.7308734  18.8775169  15.7798696  61.4091398
  18.0103368  15.5639063  62.4478797  18.2106774  15.9378617  61.7888561
  20.6343939  13.0801236  53.7108683  21.4016924  13.1401361  53.3014535
  20.1875248  12.5081677  53.2265002  20.6817366  13.0037812  53.5786393
  23.5338469  14.7421024  58.2271593  23.6158306  15.5488010  57.9033044
  24.0188211  14.7616983  58.9512367  23.6175627  14.8641687  58.2858492
  19.1696562   9.2915795  61.1963007  19.7112107   8.7886176  61.6601628
  19.4843121   9.2380990  60.3852492  19.2960959   9.2095216  61.1446819
  17.3383012  14.6833147  58.4803035  17.4075832  13.8247685  58.6196035
  18.1171467  14.9005028  58.1522060  17.4635862  14.5886011  58.4520192
  21.7290499  17.1070848  62.6939528  21.3370291  16.8037563  61.9762395
  21.8843571  17.9439938  62.5044482  21.6944089  17.1854685  62.5596026
  21.8930174  13.6720837  62.6345559  21.5344829  13.8435480  63.4109591
  21.4068885  14.1334042  62.0773557  21.7688871  13.7659808  62.6670828
  16.6818539   9.3520002  55.1745793  16.9711064  10.1284885  55.4489368
  16.7690338   8.8408734  55.8760293  16.7372796   9.3911921  55.3188291
  22.4980804  16.5106341  66.1269563  22.3000493  16.9997155  65.4325774
  21.8768515  16.7147582  66.7053696  22.3768369  16.6122879  66.1092786
  21.4750158   4.7453265  59.4299480  20.9473177   4.8282009  58.7405189
  21.9345866   5.4871137  59.4264125  21.4652009   4.8673928  59.3274175
  21.0287241  13.3156829  58.5609137  21.7521440  13.7814942  58.4173711
  20.5887832  13.3830439  57.8106734  21.0702933  13.3940666  58.4293919
  21.2891090  17.3777534  58.7207198  20.5720400  17.2038396  58.2554436
  21.9397828  17.1430106  58.1882684  21.2792941  17.3173326  58.5736416
  16.5704252  18.6139293  65.1497346  16.1564651  17.9513423  64.7601188
  17.2551627  18.7617151  64.6293040  16.6102624  18.5379951  65.0153843
  19.9369546  17.7729378  65.9020963  19.5385830  17.8831648  65.1341783
  19.3220766  17.9811444  66.4847523  19.7868436  17.8202946  65.8752262
  27.6711389  12.3481345  59.2864054  28.0544995  13.0972701  59.5162151
  26.8755502  12.5947164  59.0276043  27.6105171  12.4951038  59.2821627
  16.4826681   5.0200776  56.8624432  16.8625646   5.0380405  56.0775547
  15.7419277   5.4654765  56.7415280  16.4295519   5.0882551  56.7288001
  17.2811435  11.8578282  58.2533222  16.4722758  11.5344956  58.2066532
  17.7886344  11.1511505  58.1861471  17.2361102  11.7059599  58.2363517
  37.1629165  22.9252279  61.3794414  37.1323169  23.7796916  61.5512684
  37.7610513  22.6247572  61.9380558  37.2466323  23.0068776  61.4869217
  30.3628849  22.0127931  66.1347345  29.5066745  22.1736429  66.1856462
  30.4096503  21.1419994  66.1552406  30.2427961  21.9078732  66.1453411
  24.7469989  31.5490648  61.8984576  23.9952889  31.1706187  61.6700621
  25.1956001  31.5809082  61.1503387  24.7019656  31.4976256  61.7542079
  33.6722566  28.2814456  75.7407801  34.3789333  27.7866487  75.8694735
  33.8610501  28.7223538  75.0110459  33.8050472  28.2732807  75.6516846
  30.1994949  31.9716018  57.3270124  29.8646318  32.6492940  56.8914346
  30.7121820  31.5821329  56.7386995  30.2260530  32.0140596  57.1756915
  29.7399240  33.9230287  63.2681235  30.1238620  34.4917185  62.7286010
  29.6758382  33.1979797  62.7887051  29.7872668  33.9005750  63.1175098
  33.2080671  24.0719974  68.7778996  33.7536631  24.7505061  68.8372966
  33.1497547  23.9307435  67.9180578  33.2796585  24.1511976  68.6591057
  26.3254745  31.5609041  64.1647349  26.4265108  30.7509395  64.4744477
  25.7296491  31.4665987  63.5347027  26.2527284  31.4274069  64.1173587
  34.9845739  25.5004582  59.6512724  34.8685265  26.2512268  60.0804862
  35.7801626  25.2428535  59.9008811  35.0850329  25.5739428  59.7516816
  26.1655485  36.4786630  65.5662205  26.8092940  36.9199794  65.9558363
  26.4911741  35.6740056  65.4792464  26.3087314  36.4251824  65.6107682
  19.5219790  27.5829327  63.7899683  19.2869974  26.7496980  63.6831951
  19.6605430  27.8633993  62.9760884  19.5075452  27.5012831  63.6542038
  21.8209877  19.7515058  66.6883990  21.2014909  19.1607705  66.5194005
  21.7193741  20.3426493  66.0548314  21.7147553  19.7519140  66.5688980
  26.8676065  29.4898605  60.9382067  27.1891906  30.0303812  60.3343375
  27.5148161  28.9195376  61.0704356  27.0102120  29.4857780  60.8689102
  28.9177773  21.4914600  61.0216453  29.6157937  21.6702727  61.5137917
  29.2330105  20.9684939  60.3986843  29.0673110  21.4408372  61.0018464
  21.5479010  23.2967339  68.9327559  21.4237707  23.8829785  69.5677378
  22.1997295  22.8027535  69.2339834  21.6252659  23.3106144  69.0713489
  29.1065708  27.8785045  61.0096245  29.5459344  27.2702145  61.4551018
  28.9570371  27.4992418  60.2381710  29.1487174  27.7323516  60.9615412
  26.5737351  26.4729056  68.2115070  27.2186354  25.9801500  67.8926019
  26.8139128  26.6153843  69.0381149  26.7047936  26.4206499  68.2864604
  29.1123442  29.3183962  67.8621963  29.3946685  28.5235368  67.6408719
  29.8409603  29.7964550  67.8827024  29.2613006  29.2718559  67.8324978
  27.0904636  16.8606996  65.1037728  26.7607966  17.3118140  64.4341427
  26.4149638  16.7823160  65.6510734  26.9415073  16.9158131  65.0860951
  32.7075045  26.2312226  57.9627014  32.6226340  27.0873192  58.1076583
  33.1959428  25.9556550  58.6309173  32.7663942  26.3169547  58.0829096
  34.2981044  12.8492519  63.3487339  33.9834485  13.5395998  63.7807761
  33.7807986  12.7937301  62.6472839  34.1745515  12.9427408  63.3084288
  33.6393478  22.8497020  59.4624749  33.1104949  23.0656654  60.1222055
  34.1618498  23.5433158  59.3825719  33.6381931  22.9840157  59.5480348
  39.0941531  28.4243324  64.8357794  38.2639234  28.6353968  64.9991210
  39.0450783  27.5980379  64.5600077  38.9648266  28.3332931  64.8195159
  25.5293086  26.7460237  58.2632217  24.9450301  27.2510268  58.6698081
  25.1263181  26.5202624  57.5228809  25.3832390  26.7868485  58.2137242
  21.0837114  32.4614998  65.0655889  20.6004693  33.1865488  65.0415472
  21.8960433  32.7591128  65.1766046  21.1327862  32.6117352  65.0783168
  27.1551268  31.2547179  67.6705703  26.6378210  30.8954594  67.0667011
  27.8525660  30.7309353  67.6811769  27.1816850  31.1244867  67.5835962
  30.8114860  31.7041993  73.6321876  30.8998206  31.5168133  74.4800087
  31.2404573  31.0579422  73.2326723  30.8876963  31.5805000  73.6993628
  28.3785320  30.9873153  72.6139538  27.8156155  30.5745762  73.1379200
  29.1406344  30.9126058  73.0332682  28.4079769  30.9150553  72.7532539
  29.9870300  22.9925889  56.7401138  30.2266304  23.2003873  55.9276481
  30.3086141  22.1883398  56.8490082  30.0707458  22.9039990  56.6361691
  25.2960590  14.9219285  60.5860676  26.0506558  15.2897602  60.3477726
  25.1188125  15.2958839  61.3539855  25.3815069  15.0317472  60.6645564
  23.9381312  32.9771174  65.2176169  24.6401891  32.4623163  65.2748925
  23.8578795  33.3045325  66.0223044  24.0305072  32.9485400  65.3448961
  38.5895489  21.0713725  68.6308215  37.7523910  21.1415912  68.8655810
  38.5583720  21.0738220  67.7582517  38.4613772  21.0823952  68.5367763
  23.6517655  17.3289604  57.2838789  23.4693228  17.5461484  56.4579782
  24.5143268  17.4428616  57.3397403  23.7522245  17.3779502  57.1693276
  23.2632087  29.1677526  64.7261777  24.1020986  29.4000459  64.7735538
  23.2943856  28.2981837  64.6568812  23.3913805  29.0734472  64.7226421
  23.8884790  29.5878401  69.0275082  24.4283015  29.4449532  69.6978455
  23.2054736  29.9875152  69.3959108  23.8676944  29.6258072  69.1809504
  29.3317374  14.3316014  60.3187813  30.0603535  14.1531969  59.8725969
  29.4212267  15.1734094  60.5294991  29.4524036  14.4299893  60.2841330
  33.3125675  25.2669402  64.2220107  34.0683190  25.7000916  64.2609015
  33.4187999  24.6174171  64.7954743  33.4395846  25.2346885  64.3118132
  36.3505846  29.0942679  64.9722509  35.9141078  29.0979421  65.7281481
  36.0168762  29.7748178  64.5402087  36.2368466  29.1955135  65.0203342
  30.9234920  31.1351012  76.2965660  31.7075336  31.2481859  76.6621402
  30.7231514  30.3092149  76.4924346  31.0100945  31.0297731  76.3800046
  19.2921935  25.8078692  69.1809504  19.0260350  24.9917808  69.3400494
  19.3060499  25.8531847  68.3105019  19.2546657  25.6935597  69.0762986
  36.2703329  16.1356507  67.2151937  36.9129237  16.2054611  67.8013853
  36.5226350  15.4685730  66.7131479  36.4025461  16.0482855  67.2279217
  23.1979682  20.6063776  55.7961262  22.4837859  20.3201956  56.2083694
  23.6823651  20.9460402  56.4367649  23.1639045  20.6145426  55.9516897
  31.0805313  33.0461114  69.9432115  30.2820559  32.8060614  70.2005984
  31.5291324  33.0975507  70.6899163  31.0279924  33.0183505  70.0917040
  39.4850192  25.8123599  63.8642147  40.1466626  25.2514267  63.7638055
  38.8441604  25.3175630  64.1894838  39.4879060  25.6560008  63.8974487
  30.3727000  29.1093730  56.1723070  30.7878148  28.7778754  55.4807566
  29.5418930  28.8762632  56.0443207  30.3115009  29.0264986  56.0513917
  19.7015349  26.5937471  66.4621248  19.5190922  26.5684357  65.6093540
  20.4365018  27.0636409  66.5010157  19.7829413  26.6598833  66.3419166
  35.7715023  26.8288981  63.6054136  36.0070612  26.9734180  62.7780986
  35.9204587  27.5931389  63.9985649  35.8280826  26.9628036  63.5417739
  37.6005480  25.6690647  61.4423739  37.9313697  26.2018287  60.8363834
  38.1738568  25.7229535  62.0985690  37.7339159  25.7560216  61.4501521
  32.8137369  23.5155550  62.1247319  32.9084223  24.2544844  62.5786945
  32.1896212  23.0873025  62.5581884  32.7346399  23.5616870  62.2555467
  31.0689843  26.6941762  72.7737600  31.6428704  26.0569007  72.9286164
  30.9904646  26.6945845  71.9047258  31.1423078  26.6006874  72.6684011
  19.6686259  23.4730972  66.6120315  20.2459762  23.3367423  67.2512560
  18.9700321  23.0166756  66.8665899  19.6507280  23.3853238  66.7442604
  33.0660390  25.3604290  55.3584271  32.9840553  25.4306477  56.2239258
  33.7040111  25.9234034  55.1668012  33.1480227  25.4543261  55.4574221
  26.4253561  25.1265028  64.8258798  26.1672806  24.2936762  64.7990097
  26.4802044  25.3522641  63.9851298  26.3953339  25.0362799  64.6978935
  31.5054611  17.2293478  64.9262890  30.8010938  16.7402664  65.0846810
  31.5539586  17.2415953  64.0551335  31.4084663  17.1583126  64.8202230
  25.3988273  22.6802790  65.3123692  24.8237865  22.8394958  65.9487653
  25.0223950  22.0438199  64.8492143  25.2591086  22.6100603  65.3378251
  29.0661562  21.1526139  70.1716071  28.6775995  20.7280357  69.5168262
  28.4016260  21.4008289  70.6793098  28.9108490  21.1264860  70.1503939
  38.7084831  20.9101144  62.9463901  38.4521396  20.0981085  62.7561784
  39.5514145  20.9178711  62.7194088  38.7950857  20.7913141  62.8848718
  15.1445092  22.3242865  63.3268133  15.2305344  21.9474733  64.1081663
  15.7720890  21.9503310  62.8488091  15.2501643  22.2128347  63.3713610
  32.8887924  14.8500768  67.6840055  33.2698435  14.1678939  68.0707929
  32.0851208  14.5610370  67.5015720  32.8264385  14.7067817  67.7144111
  30.1700500  25.3824744  58.3692878  30.9841139  25.6739637  58.2575649
  30.1059642  24.7284606  57.7951171  30.2803239  25.3289939  58.2681715
  36.3909990  28.0650740  72.7822454  36.1548628  27.2338805  72.6634514
  37.0353219  28.0136347  73.3677298  36.4504661  27.9348428  72.8508347
  26.0408409  28.8546261  63.4965190  26.6782356  28.6158009  64.0416983
  26.4663480  29.0583420  62.7618351  26.1984575  28.8497272  63.4682347
  20.7321051  31.0934598  67.3799494  20.7725196  31.3649449  66.5519273
  21.2915575  31.6176506  67.7957282  20.8204397  31.2110353  67.3191382
  26.6811224  24.0748551  57.8340079  27.0656376  23.8556258  58.5856624
  26.4322844  24.9011497  57.9641156  26.7013296  24.1646697  57.9641156
  37.4146411  27.8495189  68.8450748  37.1092228  28.5823246  69.2064064
  36.6952627  27.4433118  68.5643534  37.2633753  27.8976922  68.8563885
  28.4229881  29.3318684  65.1758976  28.4968889  29.1693856  66.0300826
  29.2399387  29.5208874  64.9319458  28.5546239  29.3355426  65.2657002
  43.1148203  24.4888189  68.1719092  43.0472704  24.5084149  67.3021679
  43.1003866  25.3318517  68.3974763  43.1026960  24.6161924  68.0771569
  22.1835637  29.6776547  62.2053420  21.3573755  29.9238284  62.0787699
  22.2447628  29.5988628  63.0715478  22.0709804  29.7021496  62.3142364
  24.4011661  15.7445488  63.1648860  23.5334086  15.8168087  63.2306469
  24.6886865  16.5467567  63.3536835  24.3151409  15.8739635  63.2023627
  26.9634466  32.2953427  59.9072450  27.2532765  31.9042408  59.1831676
  27.6937947  32.4770132  60.3477725  27.1141350  32.2647241  59.8655257
  40.9006821  23.2632576  66.4465687  41.4514742  22.6300645  66.6862779
  40.8850936  23.7947968  67.1381191  40.9792017  23.2481524  66.5844545
  27.5529211  27.0971173  70.9925580  27.0540905  27.8086941  71.0710469
  28.3629436  27.4171840  70.9543743  27.5985318  27.2498022  70.9982149
  24.9040382  34.2720809  62.9732599  24.6840677  33.9818164  63.7659266
  24.6834904  33.6135764  62.4450512  24.8387976  34.1320518  63.0121508
  23.8157329  26.3594126  65.2388301  23.5270578  25.7331597  65.7734028
  24.6840677  26.3014413  65.3052982  23.9017581  26.2581670  65.3279256
  34.6035227  21.5028909  65.5570283  34.2599993  20.7819245  65.9077533
  34.7028269  21.2942761  64.7148641  34.5677270  21.3653113  65.4841963
  27.0708338  35.6450199  61.7563292  27.7232396  35.1126642  61.9854318
  26.3733946  35.2918852  62.1431166  27.0639056  35.5139722  61.8475460
  24.0189602  27.9989377  61.1630666  24.7735570  28.3802416  61.3766129
  23.4260215  28.4500521  61.6177363  24.0426316  28.1218204  61.2613545
  35.0648256  27.9654613  61.0994271  35.6306289  28.6247823  61.0152814
  34.4176159  28.3104312  61.5710673  35.0527012  28.1136555  61.1567028
  25.3387829  29.1697938  66.5370782  24.8168583  29.3098230  67.2222646
  25.7261849  28.4108603  66.7272899  25.3191530  29.0783462  66.6671858
  22.3279013  19.2203747  60.6065736  22.0403809  18.8505018  59.8697683
  23.0149481  19.6898602  60.3449441  22.3867910  19.2350716  60.4580812
  31.5354834  30.9093398  60.5231350  31.2941510  30.1761258  60.1158415
  31.7156167  31.4580255  59.8697684  31.5262458  30.8815789  60.3661573
  26.7654155  26.2001957  61.9352273  26.5696937  26.8076692  61.3412576
  26.9888500  25.5069901  61.4543946  26.7688796  26.1879483  61.7768353
  25.1632685  23.0856695  62.0533141  25.8855337  23.2497853  61.5936947
  24.6840677  23.8066360  61.9472481  25.1996415  23.2154925  61.9698755
  33.1226192  19.4220494  67.4329826  32.2837293  19.4481773  67.1968089
  33.1930560  20.0691230  68.0135172  33.0094586  19.5216620  67.4838943
  22.8140301  25.4914768  71.1587281  23.3261398  25.7699021  70.5096041
  22.5276644  26.2304062  71.5250094  22.8475164  25.6417121  71.1177159
  31.5695470  16.3205871  62.1657442  32.2721823  16.1213619  61.6877400
  31.3039659  15.5481813  62.4726285  31.6342103  16.1768837  62.1402883
  36.9983716  24.6288481  64.7191068  36.9117691  24.7843907  65.5725846
  36.5434196  25.2726556  64.3450473  36.9186973  24.7464236  64.7898174
  19.9007208  19.9984960  61.4551017  20.0023344  20.8011121  61.7831993
  20.6963094  19.7972295  61.1574098  20.0335113  20.0870858  61.4586373
  30.8709532  21.9499228  63.3416627  30.6244246  21.8694979  64.1753416
  31.1994655  21.1652696  63.1479155  30.8830776  21.8225493  63.4364150
  34.7657581  28.6582587  67.1303408  34.6271940  29.3563633  67.6352151
  33.9857579  28.5031244  66.7739590  34.6300808  28.7382754  67.1529682
  33.1035666  24.9578963  73.3825790  33.0983705  24.0858779  73.3868216
  33.8096660  25.1567132  72.9095246  33.2080670  24.8582837  73.3132825
  26.8306559  24.6855947  72.7539610  26.9749935  25.2657155  72.1182720
  27.1782208  25.0632243  73.4589465  26.9034021  24.8276651  72.7638605
  29.0026477  23.8846115  70.5364742  28.2549791  24.0777129  70.1313020
  29.1568002  23.0591334  70.2988863  28.9148904  23.7911226  70.4410148
  25.9034314  32.8758718  69.6200637  26.0523878  32.3161634  68.9674041
  26.6834316  32.9550720  70.0033156  26.0408408  32.8044284  69.5797586
  36.2610954  28.0160841  57.8919908  35.8817763  27.2297979  57.8849197
  35.5977199  28.5647698  57.7491552  36.1069429  27.9805665  57.8700704
  28.4287615  33.0473361  70.8985128  28.3531286  32.3782172  71.4535916
  28.3577474  33.7491149  71.4125794  28.4068222  33.0518269  71.0561976
  33.7155580  10.9586541  65.2953988  33.8339148  11.4163004  64.5621291
  33.5417755  10.1531802  65.0090206  33.7074751  10.9080313  65.1454922
  29.0857862  31.5674360  61.7308734  29.8507753  31.2984004  61.4091398
  28.9835952  31.0824370  62.4478797  29.1839357  31.4563925  61.7888561
  27.1210632  19.7698770  68.2701970  26.3306706  19.5890230  68.5919305
  27.5171255  18.9925722  68.2532264  27.0627508  19.6286231  68.3154518
  31.6076522  28.5986544  53.7108683  32.3749508  28.6586669  53.3014535
  31.1607831  28.0266985  53.2265002  31.6549950  28.5223120  53.5786393
  32.5054318  27.4041200  65.9961415  31.8299320  27.1726432  66.4974802
  32.5146694  26.7962383  65.3703520  32.4072823  27.2800125  65.9777568
  29.6348462  22.2459029  72.7525468  29.5707603  23.1068985  72.6245605
  29.7745650  21.9291022  71.9521020  29.6463932  22.3259195  72.6153681
  34.5071053  30.2606332  58.2271593  34.5890890  31.0673318  57.9033044
  34.9920795  30.2802291  58.9512367  34.5908210  30.3826995  58.2858492
  28.3167556  24.9391168  66.8941671  27.8929805  25.1395667  66.1580690
  28.1412411  24.0920016  67.0065971  28.2278436  24.8439950  66.8015361
  27.8179249  36.4541681  69.3563129  28.3075180  35.7552470  69.1738793
  27.2463482  36.1565551  69.9439186  27.8063779  36.3067905  69.4164169
  23.6050001  25.4343219  62.3269644  23.7614620  25.3690022  63.1825636
  23.9450594  26.2091772  62.1148323  23.6783236  25.5392418  62.4224238
  30.1429145  24.8101103  61.1963007  30.6844691  24.3071484  61.6601628
  30.4575704  24.7566298  60.3852492  30.2693543  24.7280524  61.1446819
  34.0146253  29.0203750  78.3089919  34.8281118  28.7488899  78.4695052
  33.8541219  28.7211290  77.5050115  34.1116201  28.9358676  78.2135325
  28.3115595  30.2018455  58.4803035  28.3808415  29.3432993  58.6196035
  29.0904050  30.4190335  58.1522060  28.4368445  30.1071319  58.4520192
  31.2918415  19.7037408  71.2485308  31.5060384  19.0648322  70.6948662
  30.6752314  20.1483231  70.8193169  31.2323744  19.6747551  71.1035739
  32.7023083  32.6256156  62.6939528  32.3102874  32.3222871  61.9762395
  32.8576155  33.4625246  62.5044482  32.6676673  32.7039993  62.5596026
  20.1784262  22.6178170  62.6430411  20.5583227  23.0362715  61.9790678
  19.6039627  23.1991626  62.9499254  20.1495587  22.7656029  62.5907152
  33.4557503  21.3126473  72.1868615  32.6434185  21.0052363  72.2681787
  33.9147437  20.8325473  72.7511327  33.4037888  21.1962965  72.2823209
  32.8662757  29.1906145  62.6345559  32.5077412  29.3620788  63.4109591
  32.3801468  29.6519350  62.0773557  32.7421454  29.2845116  62.6670828
  30.6833143  12.8137343  66.2372650  29.8126701  12.7876064  66.1905960
  30.9373485  12.6414535  65.4198496  30.5926704  12.7847487  66.1092787
  27.6551123  24.8705310  55.1745793  27.9443648  25.6470193  55.4489368
  27.7422922  24.3594042  55.8760293  27.7105379  24.9097228  55.3188291
  34.0267497  30.0810041  73.5812760  34.6647217  29.5870236  73.2475216
  33.3841588  30.0087441  72.9964987  34.0261723  29.9969049  73.4455115
  35.7524497  21.9299187  68.1478675  35.3252105  21.8425535  67.3926775
  35.1150550  22.0376962  68.7333520  35.5954104  21.9331846  68.1224117
  34.0821753  30.7729849  70.2218117  34.8714132  30.4218914  70.3420198
  34.2565351  31.5866237  69.9594750  34.2242035  30.8415706  70.2005985
  23.8215064  24.1838575  67.2745905  22.9803070  24.0842449  67.4824799
  24.0305072  24.9534055  67.6260226  23.7279756  24.2830618  67.3573220
  21.2990631  21.8058112  65.1030656  20.9047329  21.8801123  64.3280766
  20.7430748  22.1916058  65.6539018  21.1593443  21.8739886  65.0698316
  32.9355578  14.7839406  64.7834535  33.1405171  14.7161714  65.6291532
  32.6082002  15.5898227  64.7155712  32.9170826  14.8925346  64.8994190
  27.6331729  22.1119974  66.5243503  27.3294866  21.5575962  67.1253911
  26.9311150  22.2912184  66.0371537  27.4847939  22.0564756  66.5413209
  26.6897826  19.4220494  61.0888205  26.9657560  18.7039406  60.6765772
  27.2896495  20.0205414  60.8809311  26.8191090  19.4040864  60.9968966
  25.6950080  29.3269695  71.2315601  25.5870435  29.3371757  72.0977659
  25.9045861  30.1524475  71.0420555  25.7100191  29.4510769  71.3319692
  36.1889265  15.3371170  64.2637300  35.5763579  15.8241572  64.6491032
  36.2853440  14.6614661  64.8074952  36.1127163  15.3089479  64.4016159
  30.1908346  17.0934011  59.3634800  30.6452093  17.2644571  60.0882644
  30.6648392  16.4802122  58.9632576  30.3276666  17.0284896  59.4108561
  23.7123872  26.5782337  68.6937538  23.1211805  27.2191835  68.6640553
  24.4744895  27.0019954  68.6668838  23.7372132  26.7358175  68.6852686
  39.8314293  26.4088107  69.6914817  39.8897417  26.8574755  70.4374793
  39.1980761  26.8186919  69.2544897  39.7465588  26.5361841  69.7367365
  33.4713388  32.0291649  66.1269563  33.2733077  32.5182463  65.4325774
  32.8501099  32.2332890  66.7053696  33.3500952  32.1308187  66.1092786
  27.5321366  23.7976545  60.4679807  28.2763411  24.1850822  60.7062757
  27.6782062  22.9533971  60.6320295  27.6631951  23.7307018  60.5273777
  29.4500942  15.5926804  65.5011668  28.6036987  15.7649612  65.3753018
  29.4472074  14.7876148  65.8377497  29.3248092  15.4987833  65.5322795
  30.5199242  19.3702019  66.3673726  30.0459196  18.8443781  66.8779037
  30.8917378  18.8231492  65.7988588  30.5049131  19.2118015  66.3588874
  36.7835973  24.4304394  67.7780507  36.5434196  23.5910810  67.7822933
  37.2627980  24.5104561  68.5021280  36.8188156  24.3185794  67.8855309
  32.4482742  20.2638573  59.4299480  31.9205760  20.3467317  58.7405189
  32.9078450  21.0056445  59.4264125  32.4384592  20.3859236  59.3274175
  38.7841160  21.2105852  65.7309766  38.5450930  21.1701686  64.8930551
  38.9475061  22.0577004  65.8575487  38.7731463  21.3297937  65.6263248
  35.3887190  25.5955801  71.6614811  36.1121389  25.1428327  71.4825831
  35.1237152  25.8760467  70.8787139  35.4568463  25.5706769  71.5193527
  24.2574058  20.1915974  68.3967690  23.6327128  20.2034366  67.7893643
  23.9219653  20.6676150  69.0458931  24.1159550  20.2634491  68.4024259
  24.4415807  18.5341093  54.4540375  24.0928611  19.1860818  54.9171925
  23.9612253  18.5198206  53.7264247  24.3186051  18.6284146  54.4151467
  20.9699734  28.2516435  69.8371455  20.4399658  27.5608873  69.8866429
  21.2424827  28.2426620  69.0084163  20.9324456  28.1483566  69.7218871
  32.0019824  28.8342137  58.5609137  32.7254023  29.3000250  58.4173711
  31.5620415  28.9015746  57.8106734  32.0435517  28.9125974  58.4293919
  31.1705979  25.6939679  69.8109826  30.5562973  25.1497729  70.1058462
  31.6873264  25.1803916  69.3315642  31.1561642  25.5376088  69.7834055
  30.4102277  26.7643949  67.5454125  29.9829885  26.1393668  67.1119560
  30.4027221  26.4818871  68.3713132  30.3461418  26.6296730  67.6033952
  28.7387986  17.6412704  67.7596659  28.7630473  17.1072816  67.0709439
  28.9899460  17.1330013  68.4222249  28.7797905  17.4873608  67.7561304
  16.2495576  24.9244199  67.1939803  16.1439025  24.8791043  66.3291887
  15.4995796  25.2697979  67.4754088  16.1231179  24.9685107  67.1077133
  25.0189308  16.3683522  67.1402403  25.0587680  16.8692729  67.8537111
  24.1938973  16.4593916  66.8708326  24.9028834  16.4565338  67.2052941
  26.4403672  22.8844032  69.4376302  25.6095602  23.0517850  69.2311550
  26.3855189  22.5079983  70.2225187  26.3093087  22.8533763  69.5224830
  24.8139716  21.1599623  59.9666420  24.9542677  21.6572088  60.6695061
  25.3122249  20.4585918  60.1080634  24.9080797  21.1301602  60.0917999
  24.8439938  22.0266734  57.2958997  25.4785018  22.6227159  57.2308458
  24.9265549  21.7270192  58.1104867  24.9496489  22.0707643  57.4062083
  37.8222504  24.5582212  70.1645361  38.4140344  25.1979462  70.1963559
  38.2581498  23.8605248  70.4537428  37.9740935  24.5500562  70.2126194
  26.4218921  17.9580710  57.2704439  26.7434762  17.4783792  56.6163701
  26.6845865  18.7680356  57.0795250  26.5084946  18.0070608  57.1459931
  29.6515894  28.9799584  70.7903255  29.1440985  29.5335431  71.2343885
  29.3542540  29.0407874  69.9722029  29.5320779  29.0705895  70.7351712
  31.8178076  17.3452904  69.6327918  32.2433147  16.8925430  69.0211444
  31.2035069  16.7912974  69.9092705  31.7906721  17.1966880  69.5832943
  21.3492926  24.2234575  60.5648543  21.8585155  24.8199083  60.9459848
  21.8227198  23.9560549  59.8824962  21.4936302  24.2720391  60.5203065
  32.2623674  32.8962842  58.7207198  31.5452984  32.7223704  58.2554436
  32.9130412  32.6615414  58.1882684  32.2525525  32.8358634  58.5736416
  30.2572299  13.8168004  63.0418495  29.6140617  13.6665650  63.6103633
  29.9171706  13.5710349  62.2767599  30.1117376  13.7580126  63.0121510
  34.8471645  21.7727430  62.4648503  34.1762835  22.3157133  62.3361569
  35.5411396  22.2422286  62.2230198  34.8500513  21.9225702  62.4104031
  28.8958379  33.9124142  67.6960262  28.6724033  33.1542972  68.0644288
  28.4068222  33.9422164  66.9740701  28.7901828  33.8046367  67.6437003
  35.0099773  18.2283314  65.3738877  35.3627383  17.8013037  66.0484675
  34.1514574  18.1434158  65.5039953  34.9349217  18.1528055  65.4933887
  23.7083458  20.8590834  63.4321723  22.9895447  21.2754966  63.6994587
  24.0795820  21.4245072  62.8813361  23.6575389  21.0040115  63.3904530
  33.0083039  21.4918683  69.3223719  32.9880966  21.3101978  70.1758498
  33.0562239  22.3630701  69.2983303  33.0117680  21.5935221  69.4447014
  30.9529368  28.0805875  75.2472195  30.9125223  27.4355552  74.6617351
  31.7652687  28.0242492  75.5597607  31.0672522  27.9764841  75.2069145
  27.5436836  34.1324600  65.1497346  27.1297235  33.4698731  64.7601188
  28.2284210  34.2802459  64.6293040  27.5835208  34.0565259  65.0153843
  30.9102130  33.2914686  65.9020963  30.5118413  33.4016956  65.1341783
  30.2953350  33.4996752  66.4847523  30.7601019  33.3388254  65.8752262
  29.4830032  19.8988834  58.7695103  28.8894871  20.2205830  58.2179670
  29.5205310  19.0529929  58.5616209  29.4004421  19.8213162  58.6577874
  36.4423833  13.3501726  66.3023189  35.9354697  12.6430865  66.2344367
  37.2391267  13.0194915  66.4324266  36.4851072  13.1974877  66.3122184
  32.3587849  19.8568338  62.1996853  32.1301542  19.8801040  61.3575211
  32.6185925  19.0325805  62.3191863  32.3634037  19.7384418  62.0922051
  25.4132611  18.3944884  63.4951049  25.8889977  18.7561964  62.8601230
  24.9121211  19.0501352  63.7751191  25.4097970  18.5439073  63.4427789
  38.6443973  27.8666652  59.2864054  39.0277579  28.6158009  59.5162151
  37.8488086  28.1132472  59.0276043  38.5837755  28.0136346  59.2821627
  27.4559264  20.5386084  56.8624432  27.8358229  20.5565713  56.0775547
  26.7151860  20.9840073  56.7415280  27.4028102  20.6067859  56.7288001
  35.0844555  18.8468275  62.4500011  35.0838781  18.6916932  63.3084288
  34.8800735  19.6931262  62.3941397  35.0544333  18.9488896  62.5687951
  17.1461826  22.2708060  66.8658828  16.9683587  21.8184669  67.5913743
  16.8580848  23.0734221  67.0497305  17.0774779  22.3230618  67.0002331
  32.8085407  23.5265777  66.1036218  33.3039072  22.8088772  66.0640238
  31.9985183  23.2236575  65.9890705  32.7629300  23.3763423  66.0809944
  28.2544018  27.3763590  58.2533222  27.4455341  27.0530264  58.2066532
  28.7618927  26.6696812  58.1861471  28.2093685  27.2244907  58.2363517
  18.8834296  24.8035784  63.9780587  18.0179815  24.7921474  63.8663358
  18.9833112  24.6166006  64.8251726  18.7708463  24.7741845  64.0869531
  34.8737226  26.2769465  68.7913347  35.2992297  25.7543886  68.2383772
  34.5094146  26.8750302  68.2701970  34.8823828  26.2879692  68.6322357
  24.5091306  34.5733682  67.5510692  24.8237865  35.3870071  67.5588474
  24.9184719  34.1883901  68.2192851  24.6159404  34.6362385  67.6514784
  31.4615825  29.9903729  65.1214504  31.9327003  30.7043992  65.2904489
  31.7976004  29.3902479  65.6574374  31.5810940  30.0075193  65.2246880
  33.5492810  31.6005042  77.3006576  33.6589775  30.8113603  77.6563324
  33.8783706  31.5110978  76.4980914  33.6145216  31.4710895  77.2348967
  32.0989772  29.7821663  71.8842197  31.5510718  29.1579547  71.6162262
  32.5602800  29.9715935  71.1686276  32.0856981  29.7180713  71.7392628
  34.9083636  17.8507018  69.2693389  34.3246625  18.3516224  68.8570957
  35.2287930  17.3436574  68.6357713  34.8696811  17.8498853  69.1151896
  27.4478435  16.7647612  59.5452064  28.2694129  16.9345925  59.3033759
  26.9848086  16.9194873  58.8218362  27.5009597  16.8129345  59.4023708
  21.8504326  28.5206791  67.1989301  22.4549183  28.4802625  66.5703121
  21.6431638  29.3677943  67.2293357  21.9093223  28.6394793  67.1105417
  31.6648098  30.7872736  68.4151538  32.4846472  30.6435702  68.6767833
  31.3842175  31.4118935  68.9567976  31.7444841  30.8583088  68.5339478
  17.0855608  27.5041408  67.0688224  16.9879886  26.6937680  67.3778281
  17.8684478  27.4833201  66.6834492  17.1871744  27.3808498  67.0575087
  41.3361433  37.5313238  66.1347345  40.4799329  37.6921737  66.1856462
  41.3829087  36.6605302  66.1552406  41.2160545  37.4264040  66.1453411
  44.6455150  43.7999764  75.7407801  45.3521917  43.3051795  75.8694735
  44.8343085  44.2408846  75.0110459  44.7783055  43.7918114  75.6516846
  44.1813254  39.5905282  68.7778996  44.7269214  40.2690369  68.8372966
  44.1230130  39.4492743  67.9180578  44.2529168  39.6697284  68.6591057
  37.2987329  47.0794348  64.1647349  37.3997692  46.2694702  64.4744477
  36.7029074  46.9851295  63.5347027  37.2259868  46.9459377  64.1173587
  37.1388069  51.9971938  65.5662205  37.7825524  52.4385102  65.9558363
  37.4644324  51.1925364  65.4792464  37.2819897  51.9437132  65.6107682
  30.4952373  43.1014635  63.7899683  30.2602558  42.2682287  63.6831951
  30.6338014  43.3819301  62.9760884  30.4808036  43.0198138  63.6542038
  32.7942461  35.2700366  66.6883990  32.1747492  34.6793013  66.5194005
  32.6926324  35.8611801  66.0548314  32.6880136  35.2704448  66.5688980
  39.8910356  37.0099907  61.0216453  40.5890521  37.1888035  61.5137917
  40.2062689  36.4870247  60.3986843  40.0405694  36.9593680  61.0018464
  32.5211594  38.8152647  68.9327559  32.3970291  39.4015093  69.5677378
  33.1729878  38.3212843  69.2339834  32.5985243  38.8291452  69.0713489
  37.5469935  41.9914364  68.2115070  38.1918937  41.4986807  67.8926019
  37.7871712  42.1339151  69.0381149  37.6780520  41.9391807  68.2864604
  40.0856026  44.8369270  67.8621963  40.3679269  44.0420676  67.6408719
  40.8142186  45.3149858  67.8827024  40.2345590  44.7903867  67.8324978
  38.0637220  32.3792304  65.1037728  37.7340550  32.8303448  64.4341427
  37.3882222  32.3008467  65.6510734  37.9147656  32.4343439  65.0860951
  45.2713628  28.3677827  63.3487339  44.9567069  29.0581306  63.7807761
  44.7540569  28.3122609  62.6472839  45.1478098  28.4612716  63.3084288
  36.5025669  42.2645545  58.2632217  35.9182885  42.7695576  58.6698081
  36.0995764  42.0387932  57.5228809  36.3564973  42.3053793  58.2137242
  32.0569698  47.9800306  65.0655889  31.5737276  48.7050795  65.0415472
  32.8693016  48.2776436  65.1766046  32.1060446  48.1302660  65.0783168
  38.1283852  46.7732487  67.6705703  37.6110794  46.4139902  67.0667011
  38.8258243  46.2494661  67.6811769  38.1549433  46.6430174  67.5835962
  41.7847444  47.2227301  73.6321876  41.8730790  47.0353441  74.4800087
  42.2137156  46.5764730  73.2326723  41.8609546  47.0990308  73.6993628
  39.3517904  46.5058461  72.6139538  38.7888739  46.0931070  73.1379200
  40.1138927  46.4311366  73.0332682  39.3812352  46.4335861  72.7532539
  36.2693174  30.4404593  60.5860676  37.0239142  30.8082910  60.3477726
  36.0920709  30.8144147  61.3539855  36.3547652  30.5502780  60.6645564
  34.9113895  48.4956482  65.2176169  35.6134474  47.9808471  65.2748925
  34.8311378  48.8230633  66.0223044  35.0037656  48.4670708  65.3448961
  49.5628073  36.5899033  68.6308215  48.7256494  36.6601220  68.8655810
  49.5316304  36.5923528  67.7582517  49.4346355  36.6009260  68.5367763
  35.9592802  38.7332069  74.3456584  36.1313305  38.6237963  75.1941865
  36.4962159  39.3786474  74.1087776  36.0637806  38.8124070  74.4361680
  34.6250239  32.8474911  57.2838789  34.4425812  33.0646792  56.4579782
  35.4875852  32.9613924  57.3397403  34.7254828  32.8964809  57.1693276
  34.2364671  44.6862834  64.7261777  35.0753570  44.9185767  64.7735538
  34.2676440  43.8167145  64.6568812  34.3646388  44.5919780  64.7226421
  34.8617374  45.1063709  69.0275082  35.4015599  44.9634840  69.6978455
  34.1787320  45.5060460  69.3959108  34.8409527  45.1443380  69.1809504
  40.3049958  29.8501322  60.3187813  41.0336118  29.6717277  59.8725969
  40.3944851  30.6919402  60.5294991  40.4256620  29.9485201  60.2841330
  44.2858259  40.7854710  64.2220107  45.0415774  41.2186224  64.2609015
  44.3920583  40.1359479  64.7954743  44.4128429  40.7532193  64.3118132
  47.3238430  44.6127987  64.9722509  46.8873661  44.6164729  65.7281481
  46.9901345  45.2933486  64.5402087  47.2101050  44.7140443  65.0203342
  41.8967503  46.6536320  76.2965660  42.6807920  46.7667167  76.6621402
  41.6964098  45.8277457  76.4924346  41.9833529  46.5483039  76.3800046
  30.2654519  41.3264000  69.1809504  29.9992934  40.5103116  69.3400494
  30.2793083  41.3717155  68.3105019  30.2279241  41.2120905  69.0762986
  47.2435913  31.6541815  67.2151937  47.8861821  31.7239919  67.8013853
  47.4958933  30.9871038  66.7131479  47.3758045  31.5668163  67.2279217
  35.0153125  34.8642378  71.8276511  34.3224922  34.3939358  72.0737243
  35.6313452  34.6380683  72.4018219  35.0037655  34.7609510  71.9485664
  42.0537897  48.5646422  69.9432115  41.2553142  48.3245922  70.2005984
  42.5023908  48.6160815  70.6899163  42.0012508  48.5368813  70.0917040
  30.6747932  42.1122779  66.4621248  30.4923506  42.0869665  65.6093540
  31.4097601  42.5821717  66.5010157  30.7561996  42.1784141  66.3419166
  46.7447607  42.3474289  63.6054136  46.9803196  42.4919488  62.7780986
  46.8937170  43.1116697  63.9985649  46.8013410  42.4813343  63.5417739
  33.7393684  38.8307782  72.9703357  34.4633656  38.8160813  73.4568251
  33.8409821  39.5403137  72.4725325  33.8611893  38.9332485  72.9682143
  41.1138633  42.3106867  77.8352304  40.3211614  42.6250378  78.0204923
  41.2287561  42.5258335  76.9973088  41.0134044  42.3890703  77.7390638
  42.0422426  42.2127070  72.7737600  42.6161288  41.5754315  72.9286164
  41.9637230  42.2131153  71.9047258  42.1155661  42.1192182  72.6684011
  30.6418843  38.9916280  66.6120315  31.2192345  38.8552731  67.2512560
  29.9432904  38.5352064  66.8665899  30.6239864  38.9038546  66.7442604
  37.3986145  40.6450335  64.8258798  37.1405389  39.8122070  64.7990097
  37.4534628  40.8707948  63.9851298  37.3685923  40.5548107  64.6978935
  42.4787195  32.7478786  64.9262890  41.7743522  32.2587972  65.0846810
  42.5272169  32.7601261  64.0551335  42.3817247  32.6768434  64.8202230
  36.3720857  38.1988098  65.3123692  35.7970448  38.3580266  65.9487653
  35.9956533  37.5623507  64.8492143  36.2323669  38.1285911  65.3378251
  40.0394146  36.6711447  70.1716071  39.6508578  36.2465665  69.5168262
  39.3748844  36.9193597  70.6793098  39.8841073  36.6450168  70.1503939
  49.6817415  36.4286452  62.9463901  49.4253980  35.6166393  62.7561784
  50.5246729  36.4364019  62.7194088  49.7683440  36.3098449  62.8848718
  26.1177676  37.8428173  63.3268133  26.2037928  37.4660041  64.1081663
  26.7453473  37.4688618  62.8488091  26.2234227  37.7313655  63.3713610
  43.8620507  30.3686076  67.6840055  44.2431019  29.6864247  68.0707929
  43.0583791  30.0795678  67.5015720  43.7996969  30.2253124  67.7144111
  47.3642574  43.5836048  72.7822454  47.1281211  42.7524113  72.6634514
  48.0085803  43.5321655  73.3677298  47.4237245  43.4533736  72.8508347
  37.0140992  44.3731569  63.4965190  37.6514939  44.1343317  64.0416983
  37.4396064  44.5768728  62.7618351  37.1717158  44.3682579  63.4682347
  31.7053635  46.6119906  67.3799494  31.7457780  46.8834757  66.5519273
  32.2648159  47.1361814  67.7957282  31.7936980  46.7295661  67.3191382
  37.6543807  39.5933859  57.8340079  38.0388960  39.3741566  58.5856624
  37.4055428  40.4196804  57.9641156  37.6745880  39.6832005  57.9641156
  37.8212348  32.8740274  77.5502664  37.5065789  33.6439837  77.2872226
  37.5002280  32.3110530  76.9654891  37.7271267  32.9050543  77.4244014
  48.3878995  43.3680497  68.8450748  48.0824812  44.1008554  69.2064064
  47.6685210  42.9618426  68.5643534  48.2366337  43.4162230  68.8563885
  39.3962464  44.8503992  65.1758976  39.4701472  44.6879164  66.0300826
  40.2131970  45.0394181  64.9319458  39.5278823  44.8540734  65.2657002
  54.0880787  40.0073497  68.1719092  54.0205287  40.0269457  67.3021679
  54.0736449  40.8503825  68.3974763  54.0759543  40.1347232  68.0771569
  33.1568221  45.1961855  62.2053420  32.3306338  45.4423592  62.0787699
  33.2180212  45.1173936  63.0715478  33.0442388  45.2206804  62.3142364
  35.3744245  31.2630796  63.1648860  34.5066670  31.3353395  63.2306469
  35.6619449  32.0652875  63.3536835  35.2883993  31.3924943  63.2023627
  44.4977133  31.4108655  71.4960182  45.2430725  31.2218465  71.0823607
  44.0814438  31.9366893  70.9374038  44.5462108  31.4610800  71.3524755
  51.8739404  38.7817884  66.4465687  52.4247326  38.1485953  66.6862779
  51.8583520  39.3133276  67.1381191  51.9524601  38.7666832  66.5844545
  38.5261795  42.6156481  70.9925580  38.0273489  43.3272249  71.0710469
  39.3362019  42.9357147  70.9543743  38.5717902  42.7683329  70.9982149
  35.8772965  49.7906117  62.9732599  35.6573261  49.5003472  63.7659266
  35.6567487  49.1321072  62.4450512  35.8120560  49.6505826  63.0121508
  34.7889913  41.8779434  65.2388301  34.5003161  41.2516905  65.7734028
  35.6573261  41.8199721  65.3052982  34.8750165  41.7766978  65.3279256
  45.5767810  37.0214217  65.5570283  45.2332576  36.3004552  65.9077533
  45.6760853  36.8128068  64.7148641  45.5409853  36.8838421  65.4841963
  38.0440921  51.1635507  61.7563292  38.6964979  50.6311950  61.9854318
  37.3466530  50.8104160  62.1431166  38.0371639  51.0325030  61.8475460
  34.9922186  43.5174685  61.1630666  35.7468154  43.8987724  61.3766129
  34.3992799  43.9685829  61.6177363  35.0158900  43.6403512  61.2613545
  37.4528853  35.4737525  76.2887878  36.6428629  35.7795305  76.1777721
  37.9303540  36.1943108  76.4040462  37.4032332  35.6252126  76.2894949
  36.3120413  44.6883246  66.5370782  35.7901166  44.8283538  67.2222646
  36.6994433  43.9293911  66.7272899  36.2924114  44.5968770  66.6671858
  33.3011597  34.7389055  60.6065736  33.0136392  34.3690325  59.8697683
  33.9882065  35.2083910  60.3449441  33.3600494  34.7536024  60.4580812
  37.7386738  41.7187265  61.9352273  37.5429521  42.3262000  61.3412576
  37.9621084  41.0255209  61.4543946  37.7421379  41.7064791  61.7768353
  36.1365268  38.6042003  62.0533141  36.8587920  38.7683161  61.5936947
  35.6573261  39.3251668  61.9472481  36.1728999  38.7340233  61.9698755
  44.0958776  34.9405802  67.4329826  43.2569876  34.9667081  67.1968089
  44.1663143  35.5876537  68.0135172  43.9827169  35.0401928  67.4838943
  33.7872885  41.0100076  71.1587281  34.2993982  41.2884329  70.5096041
  33.5009228  41.7489370  71.5250094  33.8207748  41.1602429  71.1177159
  42.5428054  31.8391179  62.1657442  43.2454407  31.6398927  61.6877400
  42.2772243  31.0667121  62.4726285  42.6074686  31.6954145  62.1402883
  47.9716300  40.1473789  64.7191068  47.8850274  40.3029215  65.5725846
  47.5166780  40.7911864  64.3450473  47.8919556  40.2649544  64.7898174
  30.8739791  35.5170267  61.4551017  30.9755928  36.3196429  61.7831993
  31.6695678  35.3157603  61.1574098  31.0067697  35.6056166  61.4586373
  37.3056610  33.1026464  71.2188322  37.1139807  33.1181599  72.0687746
  38.1555206  33.2990139  71.1954977  37.4032332  33.1340815  71.3411617
  31.6903523  35.6317446  69.1972139  31.5489015  34.7801386  69.3216647
  31.9744087  35.6746106  68.3734345  31.7111369  35.5117196  69.0939763
  41.8442116  37.4684536  63.3416627  41.5976830  37.3880287  64.1753416
  42.1727239  36.6838004  63.1479155  41.8563359  37.3410801  63.4364150
  45.7390165  44.1767895  67.1303408  45.6004524  44.8748941  67.6352151
  44.9590162  44.0216552  66.7739590  45.6033391  44.2568062  67.1529682
  44.0768250  40.4764271  73.3825790  44.0716288  39.6044087  73.3868216
  44.7829243  40.6752440  72.9095246  44.1813254  40.3768145  73.3132825
  37.8039143  40.2041254  72.7539610  37.9482519  40.7842463  72.1182720
  38.1514792  40.5817551  73.4589465  37.8766604  40.3461959  72.7638605
  39.9759060  39.4031423  70.5364742  39.2282374  39.5962437  70.1313020
  40.1300586  38.5776642  70.2988863  39.8881488  39.3096534  70.4410148
  36.8766898  48.3944026  69.6200637  37.0256462  47.8346942  68.9674041
  37.6566900  48.4736028  70.0033156  37.0140992  48.3229592  69.5797586
  39.4020199  48.5658669  70.8985128  39.3263870  47.8967480  71.4535916
  39.3310058  49.2676457  71.4125794  39.3800805  48.5703577  71.0561976
  40.2160837  33.2981974  71.4260145  40.6733451  34.0305948  71.5532938
  40.2917166  32.8748439  72.1847401  40.2951807  33.3439212  71.5561222
  32.4593829  33.5447793  72.5149589  31.9236018  32.9328151  72.8310356
  32.5211593  34.1195929  73.1683256  32.3889461  33.5394721  72.6585016
  44.6888163  26.4771849  65.2953988  44.8071731  26.9348312  64.5621291
  44.5150339  25.6717110  65.0090206  44.6807334  26.4265621  65.1454922
  38.0943215  35.2884078  68.2701970  37.3039290  35.1075538  68.5919305
  38.4903838  34.5111030  68.2532264  38.0360091  35.1471538  68.3154518
  43.4786902  42.9226508  65.9961415  42.8031903  42.6911740  66.4974802
  43.4879278  42.3147691  65.3703520  43.3805406  42.7985433  65.9777568
  40.6081046  37.7644337  72.7525468  40.5440187  38.6254293  72.6245605
  40.7478233  37.4476330  71.9521020  40.6196516  37.8444503  72.6153681
  39.2900139  40.4576476  66.8941671  38.8662389  40.6580975  66.1580690
  39.1144995  39.6105324  67.0065971  39.2011020  40.3625257  66.8015361
  38.7911833  51.9726989  69.3563129  39.2807763  51.2737778  69.1738793
  38.2196065  51.6750859  69.9439186  38.7796363  51.8253213  69.4164169
  34.5782584  40.9528527  62.3269644  34.7347204  40.8875330  63.1825636
  34.9183178  41.7277080  62.1148323  34.6515819  41.0577726  62.4224238
  44.9878836  44.5389058  78.3089919  45.8013702  44.2674207  78.4695052
  44.8273803  44.2396598  77.5050115  45.0848785  44.4543984  78.2135325
  42.2650998  35.2222715  71.2485308  42.4792968  34.5833630  70.6948662
  41.6484898  35.6668539  70.8193169  42.2056328  35.1932859  71.1035739
  43.6755666  48.1441464  62.6939528  43.2835458  47.8408179  61.9762395
  43.8308739  48.9810554  62.5044482  43.6409256  48.2225301  62.5596026
  31.1516846  38.1363478  62.6430411  31.5315811  38.5548023  61.9790678
  30.5772211  38.7176934  62.9499254  31.1228171  38.2841337  62.5907152
  44.4290086  36.8311781  72.1868615  43.6166768  36.5237671  72.2681787
  44.8880021  36.3510781  72.7511327  44.3770471  36.7148273  72.2823209
  43.8395341  44.7091453  62.6345559  43.4809996  44.8806096  63.4109591
  43.3534052  45.1704658  62.0773557  43.7154038  44.8030424  62.6670828
  41.6565727  28.3322651  66.2372650  40.7859285  28.3061372  66.1905960
  41.9106068  28.1599843  65.4198496  41.5659287  28.3032795  66.1092787
  41.5243594  38.2371852  76.9697317  41.9943225  38.8613969  77.3565191
  41.5705474  37.5688828  77.5290532  41.6011470  38.2306532  77.1097388
  38.6814868  30.3428880  67.6946121  38.1653356  29.6509071  67.8197700
  38.1208796  31.0099657  67.6408719  38.5221381  30.3392137  67.7052187
  40.7507101  30.8821840  69.5238973  40.3638854  30.9070871  70.3052503
  40.2640038  30.3163518  69.0713490  40.6219610  30.8017590  69.5726877
  45.0000080  45.5995349  73.5812760  45.6379801  45.1055544  73.2475216
  44.3574172  45.5272749  72.9964987  44.9994307  45.5154357  73.4455115
  46.7257081  37.4484495  68.1478675  46.2984689  37.3610843  67.3926775
  46.0883133  37.5562270  68.7333520  46.5686688  37.4517154  68.1224117
  40.4164243  27.7688825  71.8149233  41.0457361  28.3049125  71.5370304
  40.5850105  27.6766184  72.6662799  40.5342037  27.8350187  71.8997761
  40.2178158  32.5560020  74.0875645  41.0451587  32.2845169  74.1434259
  40.2386004  33.3520862  74.4439463  40.3431008  32.6339774  74.1490828
  45.0554337  46.2915157  70.2218117  45.8446715  45.9404222  70.3420198
  45.2297935  47.1051545  69.9594750  45.1974619  46.3601014  70.2005985
  34.7947647  39.7023883  67.2745905  33.9535654  39.6027757  67.4824799
  35.0037655  40.4719363  67.6260226  34.7012340  39.8015926  67.3573220
  32.2723214  37.3243420  65.1030656  31.8779912  37.3986431  64.3280766
  31.7163331  37.7101366  65.6539018  32.1326027  37.3925194  65.0698316
  43.9088161  30.3024714  64.7834535  44.1137755  30.2347021  65.6291532
  43.5814585  31.1083535  64.7155712  43.8903409  30.4110654  64.8994190
  38.6064312  37.6305282  66.5243503  38.3027450  37.0761270  67.1253911
  37.9043733  37.8097492  66.0371537  38.4580522  37.5750064  66.5413209
  37.6630409  34.9405802  61.0888205  37.9390144  34.2224714  60.6765772
  38.2629079  35.5390722  60.8809311  37.7923674  34.9226172  60.9968966
  36.6682663  44.8455003  71.2315601  36.5603018  44.8557065  72.0977659
  36.8778445  45.6709783  71.0420555  36.6832774  44.9696077  71.3319692
  47.1621849  30.8556478  64.2637300  46.5496163  31.3426880  64.6491032
  47.2586024  30.1799969  64.8074952  47.0859747  30.8274787  64.4016159
  41.1640930  32.6119319  59.3634800  41.6184676  32.7829879  60.0882644
  41.6380976  31.9987430  58.9632576  41.3009250  32.5470204  59.4108561
  34.6856455  42.0967645  68.6937538  34.0944389  42.7377143  68.6640553
  35.4477479  42.5205262  68.6668838  34.7104716  42.2543483  68.6852686
  35.0817078  33.2569643  69.3605556  35.5418560  33.3308572  70.0980680
  35.1273185  34.0550897  69.0105377  35.1567633  33.3863790  69.4178312
  36.7300428  33.9236338  73.9277583  36.3385993  33.2769685  74.3633361
  36.8986291  34.5147773  74.5471838  36.6971338  33.9150605  74.0840289
  50.8046877  41.9273415  69.6914817  50.8630001  42.3760063  70.4374793
  50.1713344  42.3372227  69.2544897  50.7198172  42.0547149  69.7367365
  44.4445972  47.5476957  66.1269563  44.2465660  48.0367771  65.4325774
  43.8233683  47.7518198  66.7053696  44.3233536  47.6493495  66.1092786
  38.5053950  39.3161853  60.4679807  39.2495995  39.7036130  60.7062757
  38.6514646  38.4719279  60.6320295  38.6364535  39.2492326  60.5273777
  40.4233525  31.1112112  65.5011668  39.5769570  31.2834920  65.3753018
  40.4204658  30.3061456  65.8377497  40.2980675  31.0173141  65.5322795
  41.4931826  34.8887327  66.3673726  41.0191780  34.3629089  66.8779037
  41.8649962  34.3416799  65.7988588  41.4781715  34.7303323  66.3588874
  31.8704856  36.8858833  71.7357272  32.7330469  36.7854543  71.6494602
  31.5396639  36.3053543  71.1742844  31.9490052  36.7850460  71.6402678
  47.7568556  39.9489702  67.7780507  47.5166779  39.1096117  67.7822933
  48.2360564  40.0289869  68.5021280  47.7920740  39.8371102  67.8855309
  49.7573743  36.7291160  65.7309766  49.5183513  36.6886994  64.8930551
  49.9207645  37.5762312  65.8575487  49.7464047  36.8483245  65.6263248
  46.3619773  41.1141109  71.6614811  47.0853972  40.6613635  71.4825831
  46.0969736  41.3945774  70.8787139  46.4301047  41.0892077  71.5193527
  35.2306642  35.7101282  68.3967690  34.6059712  35.7219674  67.7893643
  34.8952237  36.1861457  69.0458931  35.0892134  35.7819799  68.4024259
  31.9432317  43.7701742  69.8371455  31.4132242  43.0794181  69.8866429
  32.2157411  43.7611928  69.0084163  31.9057040  43.6668874  69.7218871
  42.1438563  41.2124987  69.8109826  41.5295556  40.6683037  70.1058462
  42.6605848  40.6989224  69.3315642  42.1294225  41.0561396  69.7834055
  41.3834860  42.2829257  67.5454125  40.9562468  41.6578976  67.1119560
  41.3759805  42.0004179  68.3713132  41.3194001  42.1482038  67.6033952
  34.4997387  37.3194430  70.6142559  34.6590874  36.5637754  71.0194281
  34.3190281  37.8685370  71.2683297  34.4962746  37.2888244  70.7705265
  42.4417690  29.4855666  71.1693348  41.9458251  29.6819340  70.4784915
  43.1986752  29.8848334  70.9982150  42.4804515  29.5733400  71.0413485
  39.7120570  33.1598012  67.7596659  39.7363057  32.6258124  67.0709439
  39.9632043  32.6515320  68.4222249  39.7530489  33.0058916  67.7561304
  27.2228160  40.4429507  67.1939803  27.1171609  40.3976351  66.3291887
  26.4728380  40.7883287  67.4754088  27.0963763  40.4870415  67.1077133
  35.9921892  31.8868830  67.1402403  36.0320264  32.3878036  67.8537111
  35.1671557  31.9779224  66.8708326  35.8761418  31.9750646  67.2052941
  38.1751505  41.4529570  75.2422698  37.3247135  41.5901284  75.3780343
  38.3379633  40.7193348  75.6870399  38.0735368  41.3643671  75.3278297
  37.4136255  38.4029340  69.4376302  36.5828185  38.5703158  69.2311550
  37.3587773  38.0265290  70.2225187  37.2825670  38.3719071  69.5224830
  35.2220039  31.8938233  75.0732713  35.8472742  31.3500365  75.3462145
  34.7670519  31.4133150  74.5040503  35.2468299  31.7427714  75.0294307
  35.7872299  36.6784931  59.9666420  35.9275260  37.1757395  60.6695061
  36.2854832  35.9771226  60.1080634  35.8813380  36.6486910  60.0917999
  35.8172522  37.5452042  57.2958997  36.4517601  38.1412467  57.2308458
  35.8998132  37.2455500  58.1104867  35.9229073  37.5892950  57.4062083
  48.7955087  40.0767520  70.1645361  49.3872928  40.7164770  70.1963559
  49.2314082  39.3790556  70.4537428  48.9473519  40.0685870  70.2126194
  37.3951505  33.4766018  57.2704439  37.7167346  32.9969100  56.6163701
  37.6578448  34.2865664  57.0795250  37.4817530  33.5255916  57.1459931
  40.6248477  44.4984892  70.7903255  40.1173568  45.0520739  71.2343885
  40.3275124  44.5593182  69.9722029  40.5053362  44.5891203  70.7351712
  42.7910660  32.8638212  69.6327918  43.2165731  32.4110738  69.0211444
  42.1767653  32.3098282  69.9092705  42.7639305  32.7152188  69.5832943
  32.3225510  39.7419883  60.5648543  32.8317739  40.3384391  60.9459848
  32.7959782  39.4745857  59.8824962  32.4668885  39.7905698  60.5203065
  41.2304882  29.3353311  63.0418495  40.5873200  29.1850958  63.6103633
  40.8904289  29.0895657  62.2767599  41.0849960  29.2765434  63.0121510
  39.8690963  49.4309450  67.6960262  39.6456617  48.6728280  68.0644288
  39.3800806  49.4607471  66.9740701  39.7634412  49.3231675  67.6437003
  45.9832356  33.7468622  65.3738877  46.3359966  33.3198345  66.0484675
  45.1247158  33.6619465  65.5039953  45.9081801  33.6713363  65.4933887
  34.6816041  36.3776142  63.4321723  33.9628030  36.7940274  63.6994587
  35.0528404  36.9430380  62.8813361  34.6307973  36.5225423  63.3904530
  43.9815622  37.0103990  69.3223719  43.9613549  36.8287286  70.1758498
  44.0294823  37.8816009  69.2983303  43.9850263  37.1120529  69.4447014
  41.9261952  43.5991182  75.2472195  41.8857807  42.9540859  74.6617351
  42.7385270  43.5427800  75.5597607  42.0405105  43.4950149  75.2069145
  38.5169420  49.6509908  65.1497346  38.1029818  48.9884039  64.7601188
  39.2016794  49.7987767  64.6293040  38.5567791  49.5750567  65.0153843
  41.8834714  48.8099994  65.9020963  41.4850997  48.9202264  65.1341783
  41.2685933  49.0182060  66.4847523  41.7333603  48.8573562  65.8752262
  40.4562616  35.4174141  58.7695103  39.8627455  35.7391138  58.2179670
  40.4937893  34.5715237  58.5616209  40.3737005  35.3398470  58.6577874
  47.4156416  28.8687034  66.3023189  46.9087281  28.1616173  66.2344367
  48.2123850  28.5380223  66.4324266  47.4583656  28.7160185  66.3122184
  37.6139661  37.2288119  71.8021953  37.1018564  36.6209302  72.1606984
  37.4419157  37.9444712  72.2695929  37.5129298  37.2451418  71.9238177
  32.4605375  35.6725694  74.4524315  32.2907966  36.3327069  73.9072521
  32.0171325  35.8832256  75.1736804  32.3704709  35.8011676  74.4785944
  36.3865195  33.9130192  63.4951049  36.8622561  34.2747272  62.8601230
  35.8853794  34.5686660  63.7751191  36.3830554  34.0624381  63.4427789
  41.4908731  35.1512364  74.2424209  42.0480161  34.9226173  73.6102674
  41.1669796  35.9118029  73.9659421  41.5255141  35.2296200  74.1080706
  29.3607440  38.5772560  69.7112805  28.8134159  37.9073205  69.8293673
  30.1499818  38.2102408  69.7756272  29.3959624  38.4237546  69.7381505
  39.2091848  38.2380017  75.2076216  39.9603175  38.5531694  75.5215770
  39.4014425  38.0359188  74.3810137  39.3483262  38.2547399  75.1319611
  46.0577138  34.3653583  62.4500011  46.0571365  34.2102240  63.3084288
  45.8533318  35.2116570  62.3941397  46.0276916  34.4674204  62.5687951
  28.1194409  37.7893368  66.8658828  27.9416170  37.3369977  67.5913743
  27.8313432  38.5919529  67.0497305  28.0507363  37.8415926  67.0002331
  43.7817990  39.0451085  66.1036218  44.2771656  38.3274080  66.0640238
  42.9717766  38.7421883  65.9890705  43.7361884  38.8948731  66.0809944
  29.8566879  40.3221091  63.9780587  28.9912399  40.3106782  63.8663358
  29.9565695  40.1351314  64.8251726  29.7441046  40.2927153  64.0869531
  45.8469809  41.7954773  68.7913347  46.2724881  41.2729194  68.2383772
  45.4826729  42.3935610  68.2701970  45.8556412  41.8065000  68.6322357
  35.4823889  50.0918990  67.5510692  35.7970448  50.9055379  67.5588474
  35.8917302  49.7069209  68.2192851  35.5891987  50.1547692  67.6514784
  42.4348409  45.5089037  65.1214504  42.9059587  46.2229299  65.2904489
  42.7708587  44.9087787  65.6574374  42.5543524  45.5260501  65.2246880
  44.5225393  47.1190350  77.3006576  44.6322359  46.3298911  77.6563324
  44.8516290  47.0296286  76.4980914  44.5877799  46.9896203  77.2348967
  39.3517904  30.2816507  72.0772599  39.4845809  29.4847501  72.4053575
  39.7363056  30.8082910  72.6570875  39.4274233  30.2416424  72.2116102
  43.0722355  45.3006971  71.8842197  42.5243301  44.6764855  71.6162262
  43.5335384  45.4901243  71.1686276  43.0589565  45.2366021  71.7392628
  42.4250259  27.2046834  68.6753692  41.6196223  27.0944563  68.9921531
  42.2956994  27.3059289  67.8183558  42.2870392  27.2030504  68.5961733
  45.8816219  33.3692325  69.2693389  45.2979208  33.8701532  68.8570957
  46.2020514  32.8621882  68.6357713  45.8429395  33.3684160  69.1151896
  38.4211019  32.2832920  59.5452064  39.2426713  32.4531233  59.3033759
  37.9580670  32.4380181  58.8218362  38.4742181  32.3314653  59.4023708
  37.0106351  30.2775682  70.3250493  37.5550763  29.9366809  70.9154835
  37.0643286  31.1361144  70.4671777  37.0995470  30.3530942  70.4332366
  32.8236909  44.0392099  67.1989301  33.4281767  43.9987933  66.5703121
  32.6164222  44.8863251  67.2293357  32.8825807  44.1580101  67.1105417
  42.6380681  46.3058044  68.4151538  43.4579055  46.1621010  68.6767833
  42.3574759  46.9304243  68.9567976  42.7177425  46.3768396  68.5339478
  28.0588192  43.0226716  67.0688224  27.9612470  42.2122988  67.3778281
  28.8417061  43.0018509  66.6834492  28.1604328  42.8993806  67.0575087
  59.1094332  53.9622895  61.3794414  59.0788336  54.8167532  61.5512684
  59.7075681  53.6618188  61.9380558  59.1931490  54.0439392  61.4869217
  52.3094017  53.0498546  66.1347345  51.4531912  53.2107045  66.1856462
  52.3561670  52.1790610  66.1552406  52.1893128  52.9449348  66.1453411
  46.6935156  62.5861264  61.8984576  45.9418056  62.2076803  61.6700621
  47.1421168  62.6179698  61.1503387  46.6484823  62.5346871  61.7542079
  52.1460116  63.0086634  57.3270124  51.8111485  63.6863555  56.8914346
  52.6586987  62.6191945  56.7386995  52.1725697  63.0511212  57.1756915
  51.6864408  64.9600902  63.2681235  52.0703787  65.5287801  62.7286010
  51.6223549  64.2350413  62.7887051  51.7337835  64.9376366  63.1175098
  55.1545838  55.1090590  68.7778996  55.7001798  55.7875677  68.8372966
  55.0962714  54.9678051  67.9180578  55.2261752  55.1882592  68.6591057
  48.2719913  62.5979656  64.1647349  48.3730275  61.7880010  64.4744477
  47.6761658  62.5036603  63.5347027  48.1992451  62.4644685  64.1173587
  56.9310906  56.5375197  59.6512724  56.8150432  57.2882883  60.0804862
  57.7266793  56.2799151  59.9008811  57.0315496  56.6110044  59.7516816
  48.1120652  67.5157246  65.5662205  48.7558108  67.9570410  65.9558363
  48.4376908  66.7110672  65.4792464  48.2552481  67.4622440  65.6107682
  41.4684957  58.6199943  63.7899683  41.2335141  57.7867595  63.6831951
  41.6070598  58.9004609  62.9760884  41.4540619  58.5383446  63.6542038
  43.7675044  50.7885674  66.6883990  43.1480076  50.1978321  66.5194005
  43.6658908  51.3797109  66.0548314  43.6612720  50.7889756  66.5688980
  48.8141232  60.5269220  60.9382067  49.1357073  61.0674428  60.3343375
  49.4613328  59.9565992  61.0704356  48.9567287  60.5228396  60.8689102
  50.8642940  52.5285215  61.0216453  51.5623105  52.7073343  61.5137917
  51.1795272  52.0055555  60.3986843  51.0138277  52.4778987  61.0018464
  43.4944177  54.3337955  68.9327559  43.3702874  54.9200401  69.5677378
  44.1462462  53.8398151  69.2339834  43.5717827  54.3476760  69.0713489
  51.0530875  58.9155660  61.0096245  51.4924511  58.3072761  61.4551018
  50.9035538  58.5363034  60.2381710  51.0952341  58.7694132  60.9615412
  48.5202518  57.5099672  68.2115070  49.1651521  57.0172115  67.8926019
  48.7604295  57.6524459  69.0381149  48.6513103  57.4577114  68.2864604
  51.0588610  60.3554578  67.8621963  51.3411852  59.5605984  67.6408719
  51.7874770  60.8335166  67.8827024  51.2078173  60.3089175  67.8324978
  54.6540212  57.2682842  57.9627014  54.5691507  58.1243808  58.1076583
  55.1424595  56.9927166  58.6309173  54.7129109  57.3540163  58.0829096
  56.2446211  43.8863135  63.3487339  55.9299652  44.5766614  63.7807761
  55.7273153  43.8307917  62.6472839  56.1210682  43.9798023  63.3084288
  55.5858645  53.8867636  59.4624749  55.0570117  54.1027269  60.1222055
  56.1083665  54.5803774  59.3825719  55.5847098  54.0210773  59.5480348
  61.0406698  59.4613940  64.8357794  60.2104401  59.6724584  64.9991210
  60.9915950  58.6350995  64.5600077  60.9113433  59.3703547  64.8195159
  47.4758253  57.7830853  58.2632217  46.8915468  58.2880884  58.6698081
  47.0728348  57.5573240  57.5228809  47.3297557  57.8239101  58.2137242
  43.0302281  63.4985614  65.0655889  42.5469860  64.2236103  65.0415472
  43.8425600  63.7961744  65.1766046  43.0793029  63.6487967  65.0783168
  49.1016436  62.2917794  67.6705703  48.5843377  61.9325209  67.0667011
  49.7990827  61.7679969  67.6811769  49.1282017  62.1615482  67.5835962
  51.9335467  54.0296505  56.7401138  52.1731471  54.2374488  55.9276481
  52.2551308  53.2254013  56.8490082  52.0172625  53.9410606  56.6361691
  45.8846479  64.0141790  65.2176169  46.5867058  63.4993779  65.2748925
  45.8043962  64.3415941  66.0223044  45.9770239  63.9856016  65.3448961
  60.5360656  52.1084341  68.6308215  59.6989077  52.1786528  68.8655810
  60.5048887  52.1108836  67.7582517  60.4078939  52.1194568  68.5367763
  46.9325385  54.2517377  74.3456584  47.1045889  54.1423271  75.1941865
  47.4694743  54.8971782  74.1087776  47.0370389  54.3309378  74.4361680
  45.2097254  60.2048142  64.7261777  46.0486154  60.4371074  64.7735538
  45.2409023  59.3352453  64.6568812  45.3378972  60.1105088  64.7226421
  45.8349957  60.6249017  69.0275082  46.3748182  60.4820148  69.6978455
  45.1519903  61.0245768  69.3959108  45.8142111  60.6628688  69.1809504
  55.2590842  56.3040017  64.2220107  56.0148357  56.7371532  64.2609015
  55.3653167  55.6544787  64.7954743  55.3861013  56.2717501  64.3118132
  58.2971013  60.1313295  64.9722509  57.8606245  60.1350037  65.7281481
  57.9633929  60.8118794  64.5402087  58.1833633  60.2325751  65.0203342
  41.2387102  56.8449308  69.1809504  40.9725517  56.0288424  69.3400494
  41.2525666  56.8902463  68.3105019  41.2011825  56.7306212  69.0762986
  58.2168496  47.1727123  67.2151937  58.8594405  47.2425227  67.8013853
  58.4691517  46.5056345  66.7131479  58.3490628  47.0853471  67.2279217
  45.9885709  50.3827686  71.8276511  45.2957505  49.9124666  72.0737243
  46.6046036  50.1565990  72.4018219  45.9770239  50.2794818  71.9485664
  61.4315359  56.8494215  63.8642147  62.0931793  56.2884883  63.7638055
  60.7906771  56.3546245  64.1894838  61.4344227  56.6930624  63.8974487
  52.3192167  60.1464346  56.1723070  52.7343316  59.8149370  55.4807566
  51.4884097  59.9133248  56.0443207  52.2580176  60.0635602  56.0513917
  41.6480516  57.6308087  66.4621248  41.4656089  57.6054973  65.6093540
  42.3830185  58.1007025  66.5010157  41.7294580  57.6969449  66.3419166
  57.7180190  57.8659597  63.6054136  57.9535779  58.0104796  62.7780986
  57.8669754  58.6302005  63.9985649  57.7745993  57.9998651  63.5417739
  44.7126268  54.3493090  72.9703357  45.4366240  54.3346121  73.4568251
  44.8142404  55.0588445  72.4725325  44.8344477  54.4517793  72.9682143
  59.5470647  56.7061263  61.4423739  59.8778864  57.2388903  60.8363834
  60.1203735  56.7600151  62.0985690  59.6804326  56.7930832  61.4501521
  54.7602536  54.5526166  62.1247319  54.8549390  55.2915460  62.5786945
  54.1361380  54.1243641  62.5581884  54.6811566  54.5987486  62.2555467
  41.6151426  54.5101588  66.6120315  42.1924929  54.3738039  67.2512560
  40.9165488  54.0537372  66.8665899  41.5972448  54.4223854  66.7442604
  55.0125557  56.3974905  55.3584271  54.9305720  56.4677093  56.2239258
  55.6505278  56.9604649  55.1668012  55.0945395  56.4913877  55.4574221
  48.3718728  56.1635643  64.8258798  48.1137973  55.3307378  64.7990097
  48.4267211  56.3893256  63.9851298  48.3418506  56.0733415  64.6978935
  47.3453441  53.7173406  65.3123692  46.7703032  53.8765574  65.9487653
  46.9689117  53.0808815  64.8492143  47.2056253  53.6471219  65.3378251
  51.0126729  52.1896755  70.1716071  50.6241162  51.7650973  69.5168262
  50.3481428  52.4378905  70.6793098  50.8573657  52.1635476  70.1503939
  60.6549998  51.9471760  62.9463901  60.3986563  51.1351701  62.7561784
  61.4979312  51.9549327  62.7194088  60.7416024  51.8283757  62.8848718
  37.0910259  53.3613481  63.3268133  37.1770511  52.9845349  64.1081663
  37.7186057  52.9873926  62.8488091  37.1966810  53.2498963  63.3713610
  54.8353091  45.8871384  67.6840055  55.2163603  45.2049555  68.0707929
  54.0316375  45.5980986  67.5015720  54.7729552  45.7438432  67.7144111
  52.1165667  56.4195360  58.3692878  52.9306306  56.7110253  58.2575649
  52.0524809  55.7655222  57.7951171  52.2268407  56.3660554  58.2681715
  47.9873576  59.8916877  63.4965190  48.6247523  59.6528625  64.0416983
  48.4128647  60.0954036  62.7618351  48.1449742  59.8867887  63.4682347
  42.6786218  62.1305214  67.3799494  42.7190363  62.4020065  66.5519273
  43.2380742  62.6547122  67.7957282  42.7669564  62.2480969  67.3191382
  48.6276391  55.1119167  57.8340079  49.0121543  54.8926874  58.5856624
  48.3788011  55.9382112  57.9641156  48.6478463  55.2017313  57.9641156
  48.7944931  48.3925582  77.5502664  48.4798372  49.1625145  77.2872226
  48.4734864  47.8295838  76.9654891  48.7003850  48.4235851  77.4244014
  50.3695048  60.3689300  65.1758976  50.4434056  60.2064472  66.0300826
  51.1864554  60.5579489  64.9319458  50.5011406  60.3726042  65.2657002
  44.1300804  60.7147163  62.2053420  43.3038922  60.9608900  62.0787699
  44.1912796  60.6359244  63.0715478  44.0174971  60.7392112  62.3142364
  46.3476828  46.7816104  63.1648860  45.4799254  46.8538703  63.2306469
  46.6352032  47.5838183  63.3536835  46.2616576  46.9110251  63.2023627
  55.4709717  46.9293963  71.4960182  56.2163309  46.7403773  71.0823607
  55.0547021  47.4552201  70.9374038  55.5194691  46.9796108  71.3524755
  48.9099633  63.3324043  59.9072450  49.1997932  62.9413024  59.1831676
  49.6403114  63.5140748  60.3477725  49.0606518  63.3017857  59.8655257
  62.8471988  54.3003192  66.4465687  63.3979909  53.6671261  66.6862779
  62.8316103  54.8318584  67.1381191  62.9257184  54.2852140  66.5844545
  49.4994379  58.1341789  70.9925580  49.0006072  58.8457557  71.0710469
  50.3094603  58.4542455  70.9543743  49.5450485  58.2868637  70.9982149
  46.8505549  65.3091425  62.9732599  46.6305844  65.0188780  63.7659266
  46.6300071  64.6506380  62.4450512  46.7853143  65.1691134  63.0121508
  45.7622496  57.3964742  65.2388301  45.4735745  56.7702213  65.7734028
  46.6305844  57.3385029  65.3052982  45.8482748  57.2952286  65.3279256
  56.5500394  52.5399525  65.5570283  56.2065160  51.8189860  65.9077533
  56.6493437  52.3313376  64.7148641  56.5142437  52.4023728  65.4841963
  49.0173505  66.6820815  61.7563292  49.6697563  66.1497258  61.9854318
  48.3199113  66.3289468  62.1431166  49.0104223  66.5510338  61.8475460
  45.9654770  59.0359993  61.1630666  46.7200738  59.4173032  61.3766129
  45.3725382  59.4871137  61.6177363  45.9891483  59.1588820  61.2613545
  57.0113423  59.0025229  61.0994271  57.5771456  59.6618439  61.0152814
  56.3641326  59.3474927  61.5710673  56.9992179  59.1507171  61.1567028
  48.4261437  50.9922833  76.2887878  47.6161212  51.2980613  76.1777721
  48.9036123  51.7128416  76.4040462  48.3764915  51.1437434  76.2894949
  47.2852996  60.2068554  66.5370782  46.7633750  60.3468846  67.2222646
  47.6727016  59.4479219  66.7272899  47.2656697  60.1154078  66.6671858
  44.2744180  50.2574363  60.6065736  43.9868976  49.8875633  59.8697683
  44.9614648  50.7269218  60.3449441  44.3333077  50.2721332  60.4580812
  53.4820001  61.9464013  60.5231350  53.2406677  61.2131874  60.1158415
  53.6621334  62.4950870  59.8697684  53.4727625  61.9186405  60.3661573
  48.7119322  57.2372573  61.9352273  48.5162104  57.8447308  61.3412576
  48.9353667  56.5440517  61.4543946  48.7153963  57.2250099  61.7768353
  47.1097852  54.1227311  62.0533141  47.8320504  54.2868469  61.5936947
  46.6305845  54.8436976  61.9472481  47.1461582  54.2525541  61.9698755
  55.0691359  50.4591110  67.4329826  54.2302460  50.4852389  67.1968089
  55.1395727  51.1061845  68.0135172  54.9559753  50.5587236  67.4838943
  44.7605468  56.5285384  71.1587281  45.2726565  56.8069637  70.5096041
  44.4741811  57.2674678  71.5250094  44.7940332  56.6787737  71.1177159
  58.9448883  55.6659097  64.7191068  58.8582858  55.8214523  65.5725846
  58.4899363  56.3097172  64.3450473  58.8652140  55.7834852  64.7898174
  41.8472375  51.0355575  61.4551017  41.9488511  51.8381737  61.7831993
  42.6428262  50.8342911  61.1574098  41.9800280  51.1241474  61.4586373
  48.2789194  48.6211772  71.2188322  48.0872391  48.6366907  72.0687746
  49.1287790  48.8175446  71.1954977  48.3764916  48.6526123  71.3411617
  42.6636107  51.1502754  69.1972139  42.5221599  50.2986694  69.3216647
  42.9476670  51.1931414  68.3734345  42.6843953  51.0302504  69.0939763
  52.8174699  52.9869844  63.3416627  52.5709414  52.9065595  64.1753416
  53.1459822  52.2023312  63.1479155  52.8295943  52.8596109  63.4364150
  56.7122748  59.6953203  67.1303408  56.5737107  60.3934249  67.6352151
  55.9322746  59.5401860  66.7739590  56.5765975  59.7753370  67.1529682
  48.7771727  55.7226562  72.7539610  48.9215102  56.3027771  72.1182720
  49.1247375  56.1002859  73.4589465  48.8499188  55.8647266  72.7638605
  50.9491644  54.9216731  70.5364742  50.2014958  55.1147745  70.1313020
  51.1033169  54.0961950  70.2988863  50.8614071  54.8281842  70.4410148
  47.8499482  63.9129334  69.6200637  47.9989045  63.3532250  68.9674041
  48.6299484  63.9921336  70.0033156  47.9873575  63.8414900  69.5797586
  58.2076121  59.0531457  57.8919908  57.8282930  58.2668595  57.8849197
  57.5442366  59.6018314  57.7491552  58.0534596  59.0176281  57.8700704
  51.1893421  48.8167281  71.4260145  51.6466035  49.5491256  71.5532938
  51.2649750  48.3933747  72.1847401  51.2684391  48.8624520  71.5561222
  43.4326412  49.0633101  72.5149589  42.8968602  48.4513459  72.8310356
  43.4944177  49.6381237  73.1683256  43.3622045  49.0580029  72.6585016
  55.6620747  41.9957157  65.2953988  55.7804315  42.4533620  64.5621291
  55.4882923  41.1902418  65.0090206  55.6539918  41.9450929  65.1454922
  51.0323029  62.6044976  61.7308734  51.7972920  62.3354620  61.4091398
  50.9301119  62.1194986  62.4478797  51.1304525  62.4934541  61.7888561
  49.0675799  50.8069385  68.2701970  48.2771874  50.6260846  68.5919305
  49.4636422  50.0296338  68.2532264  49.0092675  50.6656846  68.3154518
  53.5541690  59.6357160  53.7108683  54.3214675  59.6957285  53.3014535
  53.1072999  59.0637601  53.2265002  53.6015117  59.5593735  53.5786393
  54.4519485  58.4411816  65.9961415  53.7764487  58.2097048  66.4974802
  54.4611861  57.8332999  65.3703520  54.3537990  58.3170741  65.9777568
  51.5813629  53.2829645  72.7525468  51.5172770  54.1439601  72.6245605
  51.7210817  52.9661638  71.9521020  51.5929099  53.3629811  72.6153681
  56.4536220  61.2976948  58.2271593  56.5356057  62.1043934  57.9033044
  56.9385962  61.3172907  58.9512367  56.5373378  61.4197610  58.2858492
  50.2632723  55.9761784  66.8941671  49.8394972  56.1766283  66.1580690
  50.0877578  55.1290632  67.0065971  50.1743604  55.8810565  66.8015361
  45.5515168  56.4713835  62.3269644  45.7079787  56.4060638  63.1825636
  45.8915761  57.2462388  62.1148323  45.6248403  56.5763033  62.4224238
  52.0894313  55.8471719  61.1963007  52.6309858  55.3442100  61.6601628
  52.4040872  55.7936914  60.3852492  52.2158710  55.7651140  61.1446819
  50.2580762  61.2389070  58.4803035  50.3273583  60.3803609  58.6196035
  51.0369217  61.4560951  58.1522060  50.3833612  61.1441934  58.4520192
  53.2383582  50.7408023  71.2485308  53.4525552  50.1018938  70.6948662
  52.6217481  51.1853847  70.8193169  53.1788911  50.7118167  71.1035739
  54.6488250  63.6626772  62.6939528  54.2568042  63.3593487  61.9762395
  54.8041322  64.4995862  62.5044482  54.6141840  63.7410608  62.5596026
  42.1249429  53.6548786  62.6430411  42.5048394  54.0733331  61.9790678
  41.5504794  54.2362241  62.9499254  42.0960754  53.8026645  62.5907152
  55.4022670  52.3497089  72.1868615  54.5899352  52.0422979  72.2681787
  55.8612605  51.8696089  72.7511327  55.3503055  52.2333581  72.2823209
  54.8127925  60.2276761  62.6345559  54.4542579  60.3991403  63.4109591
  54.3266635  60.6889966  62.0773557  54.6886622  60.3215732  62.6670828
  52.6298311  43.8507959  66.2372650  51.7591869  43.8246680  66.1905960
  52.8838652  43.6785151  65.4198496  52.5391871  43.8218103  66.1092787
  49.6016290  55.9075926  55.1745793  49.8908815  56.6840808  55.4489368
  49.6888089  55.3964657  55.8760293  49.6570546  55.9467844  55.3188291
  49.6547451  45.8614187  67.6946121  49.1385940  45.1694379  67.8197700
  49.0941380  46.5284965  67.6408719  49.4953964  45.8577445  67.7052187
  51.7239685  46.4007148  69.5238973  51.3371438  46.4256179  70.3052503
  51.2372622  45.8348826  69.0713490  51.5952193  46.3202898  69.5726877
  57.6989664  52.9669802  68.1478675  57.2717272  52.8796151  67.3926775
  57.0615717  53.0747578  68.7333520  57.5419271  52.9702462  68.1224117
  51.3896826  43.2874133  71.8149233  52.0189944  43.8234433  71.5370304
  51.5582689  43.1951492  72.6662799  51.5074621  43.3535495  71.8997761
  51.1910741  48.0745328  74.0875645  52.0184171  47.8030477  74.1434259
  51.2118587  48.8706169  74.4439463  51.3163591  48.1525082  74.1490828
  45.7680231  55.2209191  67.2745905  44.9268238  55.1213065  67.4824799
  45.9770239  55.9904671  67.6260226  45.6744924  55.3201234  67.3573220
  43.2455798  52.8428727  65.1030656  42.8512496  52.9171739  64.3280766
  42.6895915  53.2286674  65.6539018  43.1058610  52.9110502  65.0698316
  54.8820745  45.8210021  64.7834535  55.0870338  45.7532329  65.6291532
  54.5547169  46.6268843  64.7155712  54.8635993  45.9295962  64.8994190
  49.5796896  53.1490590  66.5243503  49.2760033  52.5946578  67.1253911
  48.8776317  53.3282800  66.0371537  49.4313106  53.0935372  66.5413209
  47.6415247  60.3640310  71.2315601  47.5335602  60.3742373  72.0977659
  47.8511028  61.1895091  71.0420555  47.6565358  60.4881385  71.3319692
  58.1354432  46.3741786  64.2637300  57.5228746  46.8612188  64.6491032
  58.2318607  45.6985277  64.8074952  58.0592330  46.3460094  64.4016159
  45.6589039  57.6152953  68.6937538  45.0676972  58.2562451  68.6640553
  46.4210062  58.0390570  68.6668838  45.6837300  57.7728791  68.6852686
  46.0549662  48.7754951  69.3605556  46.5151143  48.8493880  70.0980680
  46.1005768  49.5736205  69.0105377  46.1300217  48.9049098  69.4178312
  47.7033011  49.4421645  73.9277583  47.3118577  48.7954993  74.3633361
  47.8718874  50.0333081  74.5471838  47.6703922  49.4335913  74.0840289
  55.4178555  63.0662264  66.1269563  55.2198244  63.5553079  65.4325774
  54.7966266  63.2703506  66.7053696  55.2966120  63.1678803  66.1092786
  49.4786533  54.8347161  60.4679807  50.2228578  55.2221438  60.7062757
  49.6247230  53.9904587  60.6320295  49.6097119  54.7677634  60.5273777
  52.4664409  50.4072635  66.3673726  51.9924364  49.8814397  66.8779037
  52.8382545  49.8602107  65.7988588  52.4514298  50.2488631  66.3588874
  58.7301140  55.4675010  67.7780507  58.4899363  54.6281425  67.7822933
  59.2093147  55.5475177  68.5021280  58.7653324  55.3556410  67.8855309
  60.7306327  52.2476467  65.7309766  60.4916097  52.2072302  64.8930551
  60.8940228  53.0947619  65.8575487  60.7196630  52.3668552  65.6263248
  46.2039225  51.2286590  68.3967690  45.5792296  51.2404982  67.7893643
  45.8684820  51.7046765  69.0458931  46.0624717  51.3005107  68.4024259
  42.9164901  59.2887050  69.8371455  42.3864826  58.5979489  69.8866429
  43.1889994  59.2797236  69.0084163  42.8789623  59.1854182  69.7218871
  53.9484992  59.8712753  58.5609137  54.6719190  60.3370866  58.4173711
  53.5085583  59.9386362  57.8106734  53.9900684  59.9496589  58.4293919
  53.1171147  56.7310295  69.8109826  52.5028140  56.1868345  70.1058462
  53.6338432  56.2174531  69.3315642  53.1026809  56.5746704  69.7834055
  52.3567444  57.8014565  67.5454125  51.9295052  57.1764284  67.1119560
  52.3492388  57.5189487  68.3713132  52.2926585  57.6667346  67.6033952
  45.4729971  52.8379738  70.6142559  45.6323458  52.0823062  71.0194281
  45.2922864  53.3870678  71.2683297  45.4695330  52.8073552  70.7705265
  53.4150274  45.0040974  71.1693348  52.9190835  45.2004648  70.4784915
  54.1719336  45.4033642  70.9982150  53.4537099  45.0918707  71.0413485
  50.6853153  48.6783320  67.7596659  50.7095641  48.1443432  67.0709439
  50.9364627  48.1700628  68.4222249  50.7263072  48.5244223  67.7561304
  38.1960743  55.9614815  67.1939803  38.0904192  55.9161659  66.3291887
  37.4460963  56.3068595  67.4754088  38.0696346  56.0055723  67.1077133
  46.9654476  47.4054138  67.1402403  47.0052847  47.9063344  67.8537111
  46.1404140  47.4964531  66.8708326  46.8494002  47.4935954  67.2052941
  48.3868839  53.9214648  69.4376302  47.5560769  54.0888466  69.2311550
  48.3320356  53.5450598  70.2225187  48.2558254  53.8904379  69.5224830
  46.1952622  47.4123541  75.0732713  46.8205326  46.8685673  75.3462145
  45.7403102  46.9318458  74.5040503  46.2200883  47.2613022  75.0294307
  46.7604883  52.1970239  59.9666420  46.9007844  52.6942703  60.6695061
  47.2587416  51.4956534  60.1080634  46.8545964  52.1672218  60.0917999
  46.7905105  53.0637350  57.2958997  47.4250185  53.6597775  57.2308458
  46.8730716  52.7640808  58.1104867  46.8961656  53.1078258  57.4062083
  48.3684088  48.9951326  57.2704439  48.6899929  48.5154408  56.6163701
  48.6311032  49.8050972  57.0795250  48.4550114  49.0441224  57.1459931
  53.7643243  48.3823520  69.6327918  54.1898315  47.9296046  69.0211444
  53.1500236  47.8283590  69.9092705  53.7371888  48.2337496  69.5832943
  43.2958093  55.2605191  60.5648543  43.8050322  55.8569698  60.9459848
  43.7692365  54.9931165  59.8824962  43.4401469  55.3091006  60.5203065
  54.2088841  63.9333458  58.7207198  53.4918151  63.7594320  58.2554436
  54.8595579  63.6986030  58.1882684  54.1990692  63.8729250  58.5736416
  56.7936812  52.8098046  62.4648503  56.1228002  53.3527748  62.3361569
  57.4876563  53.2792902  62.2230198  56.7965680  52.9596317  62.4104031
  50.8423546  64.9494758  67.6960262  50.6189201  64.1913587  68.0644288
  50.3533389  64.9792779  66.9740701  50.7366995  64.8416983  67.6437003
  56.9564940  49.2653930  65.3738877  57.3092550  48.8383653  66.0484675
  56.0979741  49.1804773  65.5039953  56.8814385  49.1898670  65.4933887
  45.6548625  51.8961450  63.4321723  44.9360614  52.3125582  63.6994587
  46.0260987  52.4615688  62.8813361  45.6040557  52.0410731  63.3904530
  54.9548206  52.5289298  69.3223719  54.9346133  52.3472594  70.1758498
  55.0027406  53.4001317  69.2983303  54.9582847  52.6305837  69.4447014
  49.4902003  65.1695216  65.1497346  49.0762402  64.5069347  64.7601188
  50.1749377  65.3173075  64.6293040  49.5300375  65.0935874  65.0153843
  52.8567297  64.3285302  65.9020963  52.4583580  64.4387572  65.1341783
  52.2418517  64.5367368  66.4847523  52.7066187  64.3758870  65.8752262
  58.3889000  44.3872342  66.3023189  57.8819865  43.6801481  66.2344367
  59.1856434  44.0565530  66.4324266  58.4316239  44.2345493  66.3122184
  54.3053016  50.8938954  62.1996853  54.0766709  50.9171655  61.3575211
  54.5651092  50.0696421  62.3191863  54.3099204  50.7755034  62.0922051
  48.5872244  52.7473427  71.8021953  48.0751147  52.1394610  72.1606984
  48.4151740  53.4630019  72.2695929  48.4861881  52.7636726  71.9238177
  43.4337959  51.1911002  74.4524315  43.2640549  51.8512377  73.9072521
  42.9903909  51.4017563  75.1736804  43.3437293  51.3196984  74.4785944
  47.3597778  49.4315500  63.4951049  47.8355145  49.7932580  62.8601230
  46.8586378  50.0871968  63.7751191  47.3563137  49.5809689  63.4427789
  60.5909140  58.9037268  59.2864054  60.9742746  59.6528624  59.5162151
  59.7953253  59.1503088  59.0276043  60.5302922  59.0506962  59.2821627
  52.4641315  50.6697672  74.2424209  53.0212745  50.4411481  73.6102674
  52.1402380  51.4303337  73.9659421  52.4987725  50.7481508  74.1080706
  40.3340023  54.0957868  69.7112805  39.7866743  53.4258513  69.8293673
  41.1232402  53.7287716  69.7756272  40.3692207  53.9422854  69.7381505
  49.4024431  51.5756700  56.8624432  49.7823396  51.5936329  56.0775547
  48.6617028  52.0210689  56.7415280  49.3493269  51.6438475  56.7288001
  57.0309722  49.8838891  62.4500011  57.0303948  49.7287548  63.3084288
  56.8265902  50.7301878  62.3941397  57.0009500  49.9859512  62.5687951
  39.0926993  53.3078676  66.8658828  38.9148754  52.8555285  67.5913743
  38.8046015  54.1104837  67.0497305  39.0239946  53.3601233  67.0002331
  54.7550574  54.5636393  66.1036218  55.2504239  53.8459388  66.0640238
  53.9450350  54.2607191  65.9890705  54.7094467  54.4134039  66.0809944
  50.2009186  58.4134206  58.2533222  49.3920508  58.0900880  58.2066532
  50.7084094  57.7067428  58.1861471  50.1558852  58.2615523  58.2363517
  40.8299463  55.8406399  63.9780587  39.9644982  55.8292090  63.8663358
  40.9298279  55.6536622  64.8251726  40.7173630  55.8112461  64.0869531
  56.8202393  57.3140080  68.7913347  57.2457464  56.7914502  68.2383772
  56.4559313  57.9120918  68.2701970  56.8288995  57.3250308  68.6322357
  46.4556473  65.6104298  67.5510692  46.7703032  66.4240686  67.5588474
  46.8649886  65.2254517  68.2192851  46.5624571  65.6733000  67.6514784
  53.4080992  61.0274345  65.1214504  53.8792171  61.7414607  65.2904489
  53.7441171  60.4273095  65.6574374  53.5276107  61.0445809  65.2246880
  50.3250487  45.8001815  72.0772599  50.4578393  45.0032809  72.4053575
  50.7095640  46.3268218  72.6570875  50.4006816  45.7601732  72.2116102
  53.3982842  42.7232141  68.6753692  52.5928806  42.6129871  68.9921531
  53.2689578  42.8244597  67.8183558  53.2602975  42.7215812  68.5961733
  56.8548803  48.8877633  69.2693389  56.2711792  49.3886840  68.8570957
  57.1753097  48.3807190  68.6357713  56.8161978  48.8869468  69.1151896
  47.9838934  45.7960990  70.3250493  48.5283347  45.4552117  70.9154835
  48.0375870  46.6546452  70.4671777  48.0728053  45.8716250  70.4332366
  43.7969493  59.5577406  67.1989301  44.4014350  59.5173241  66.5703121
  43.5896805  60.4048558  67.2293357  43.8558390  59.6765409  67.1105417
  53.6113265  61.8243352  68.4151538  54.4311639  61.6806318  68.6767833
  53.3307343  62.4489550  68.9567976  53.6910008  61.8953704  68.5339478
  39.0320775  58.5412024  67.0688224  38.9345053  57.7308295  67.3778281
  39.8149645  58.5203817  66.6834492  39.1336912  58.4179114  67.0575087
  61.8375523  68.0470523  61.0216453  62.5355688  68.2258651  61.5137917
  62.1527856  67.5240863  60.3986843  61.9870861  67.9964295  61.0018464
  60.0102387  63.4162920  65.1037728  59.6805717  63.8674064  64.4341427
  59.3347389  63.3379083  65.6510734  59.8612823  63.4714055  65.0860951
  67.2178795  59.4048443  63.3487339  66.9032236  60.0951921  63.7807761
  66.7005736  59.3493225  62.6472839  67.0943265  59.4983331  63.3084288
  58.4490836  73.3016161  58.2632217  57.8648052  73.8066192  58.6698081
  58.0460932  73.0758547  57.5228809  58.3030140  73.3424409  58.2137242
  62.9068051  69.5481813  56.7401138  63.1464055  69.7559796  55.9276481
  63.2283892  68.7439321  56.8490082  62.9905209  69.4595914  56.6361691
  58.2158341  61.4775208  60.5860676  58.9704309  61.8453525  60.3477726
  58.0385876  61.8514763  61.3539855  58.3012820  61.5873396  60.6645564
  56.5715406  63.8845527  57.2838789  56.3890979  64.1017408  56.4579782
  57.4341019  63.9984540  57.3397403  56.6719995  63.9335425  57.1693276
  62.2515125  60.8871938  60.3187813  62.9801285  60.7087893  59.8725969
  62.3410018  61.7290018  60.5294991  62.3721787  60.9855816  60.2841330
  56.1177433  67.1619700  55.7961262  55.4035610  66.8757880  56.2083694
  56.6021401  67.5016326  56.4367649  56.0836796  67.1701350  55.9516897
  63.2924751  75.6649654  56.1723070  63.7075899  75.3334678  55.4807566
  62.4616680  75.4318556  56.0443207  63.2312759  75.5820910  56.0513917
  65.9858141  71.9160213  55.3584271  65.9038303  71.9862401  56.2239258
  66.6237861  72.4789957  55.1668012  66.0677978  72.0099184  55.4574221
  48.0642843  68.8798789  63.3268133  48.1503095  68.5030657  64.1081663
  48.6918641  68.5059234  62.8488091  48.1699394  68.7684271  63.3713610
  63.0898251  71.9380668  58.3692878  63.9038890  72.2295560  58.2575649
  63.0257392  71.2840530  57.7951171  63.2000990  71.8845862  58.2681715
  59.6008974  70.6304475  57.8340079  59.9854127  70.4112182  58.5856624
  59.3520595  71.4567420  57.9641156  59.6211047  70.7202621  57.9641156
  57.3209412  62.3001412  63.1648860  56.4531837  62.3724011  63.2306469
  57.6084616  63.1023491  63.3536835  57.2349160  62.4295559  63.2023627
  55.2476764  65.7759671  60.6065736  54.9601560  65.4060941  59.8697683
  55.9347232  66.2454526  60.3449441  55.3065661  65.7906640  60.4580812
  58.0830435  69.6412619  62.0533141  58.8053087  69.8053777  61.5936947
  57.6038428  70.3622284  61.9472481  58.1194166  69.7710849  61.9698755
  64.4893221  62.8761795  62.1657442  65.1919574  62.6769543  61.6877400
  64.2237410  62.1037737  62.4726285  64.5539854  62.7324761  62.1402883
  52.8204958  66.5540883  61.4551017  52.9221095  67.3567045  61.7831993
  53.6160845  66.3528219  61.1574098  52.9532864  66.6426782  61.4586373
  66.6353330  57.5142465  65.2953988  66.7536899  57.9718928  64.5621291
  66.4615506  56.7087726  65.0090206  66.6272501  57.4636237  65.1454922
  64.5274273  75.1542468  53.7108683  65.2947258  75.2142593  53.3014535
  64.0805582  74.5822909  53.2265002  64.5747700  75.0779043  53.5786393
  53.0982013  69.1734094  62.6430411  53.4780978  69.5918639  61.9790678
  52.5237378  69.7547549  62.9499254  53.0693338  69.3211953  62.5907152
  63.6030894  59.3693267  66.2372650  62.7324452  59.3431988  66.1905960
  63.8571235  59.1970459  65.4198496  63.5124454  59.3403411  66.1092787
  60.5748874  71.4261234  55.1745793  60.8641398  72.2026116  55.4489368
  60.6620672  70.9149965  55.8760293  60.6303130  71.4653152  55.3188291
  59.6095577  65.9776417  61.0888205  59.8855311  65.2595330  60.6765772
  60.2094246  66.5761337  60.8809311  59.7388841  65.9596788  60.9968966
  63.1106097  63.6489935  59.3634800  63.5649844  63.8200495  60.0882644
  63.5846143  63.0358046  58.9632576  63.2474417  63.5840820  59.4108561
  60.4519117  70.3532469  60.4679807  61.1961162  70.7406745  60.7062757
  60.5979813  69.5089895  60.6320295  60.5829702  70.2862942  60.5273777
  65.3680493  66.8194497  59.4299480  64.8403511  66.9023241  58.7405189
  65.8276201  67.5612369  59.4264125  65.3582343  66.9415159  59.3274175
  57.3613558  65.0897017  54.4540375  57.0126362  65.7416742  54.9171925
  56.8810004  65.0754130  53.7264247  57.2383802  65.1840070  54.4151467
  57.7337466  67.7155547  59.9666420  57.8740428  68.2128011  60.6695061
  58.2319999  67.0141841  60.1080634  57.8278547  67.6857526  60.0917999
  57.7637689  68.5822658  57.2958997  58.3982768  69.1783083  57.2308458
  57.8463300  68.2826116  58.1104867  57.8694240  68.6263566  57.4062083
  59.3416672  64.5136634  57.2704439  59.6632513  64.0339716  56.6163701
  59.6043615  65.3236280  57.0795250  59.4282697  64.5626531  57.1459931
  54.2690677  70.7790499  60.5648543  54.7782906  71.3755006  60.9459848
  54.7424949  70.5116473  59.8824962  54.4134052  70.8276314  60.5203065
  63.1770050  60.3723927  63.0418495  62.5338367  60.2221574  63.6103633
  62.8369457  60.1266273  62.2767599  63.0315127  60.3136050  63.0121510
  56.6281208  67.4146757  63.4321723  55.9093198  67.8310890  63.6994587
  56.9993571  67.9800996  62.8813361  56.5773140  67.5596039  63.3904530
  62.4027783  66.4544757  58.7695103  61.8092622  66.7761754  58.2179670
  62.4403061  65.6085853  58.5616209  62.3202172  66.3769086  58.6577874
  58.3330362  64.9500808  63.4951049  58.8087728  65.3117888  62.8601230
  57.8318962  65.6057276  63.7751191  58.3295721  65.0994997  63.4427789
  60.3757015  67.0942008  56.8624432  60.7555980  67.1121637  56.0775547
  59.6349611  67.5395997  56.7415280  60.3225853  67.1623783  56.7288001
  61.1741769  73.9319514  58.2533222  60.3653092  73.6086188  58.2066532
  61.6816678  73.2252736  58.1861471  61.1291436  73.7800831  58.2363517
  60.3676186  63.3203536  59.5452064  61.1891880  63.4901849  59.3033759
  59.9045837  63.4750797  58.8218362  60.4207348  63.3685269  59.4023708
  36.8579989  -0.1369589  48.3134461  36.8273993   0.7175047  48.4852731
  37.4561337  -0.4374297  48.8720605  36.9417146  -0.0553093  48.4209264
  30.0579673  -1.0493938  53.0687392  29.2017569  -0.8885440  53.1196508
  30.1047327  -1.9201874  53.0892453  29.9378785  -1.1543136  53.0793458
  24.4420813   8.4868780  48.8324623  23.6903713   8.1084318  48.6040668
  24.8906825   8.5187213  48.0843434  24.3970480   8.4354387  48.6882125
  33.3673390   5.2192587  62.6747848  34.0740157   4.7244618  62.8034782
  33.5561325   5.6601669  61.9450506  33.5001296   5.2110938  62.5856893
  29.8945773   8.9094149  44.2610170  29.5597141   9.5871071  43.8254392
  30.4072643   8.5199460  43.6727042  29.9211354   8.9518727  44.1096962
  29.4350064  10.8608418  50.2021282  29.8189444  11.4295316  49.6626057
  29.3709206  10.1357928  49.7227098  29.4823492  10.8383881  50.0515144
  32.9031494   1.0098106  55.7119043  33.4487454   1.6883192  55.7713013
  32.8448371   0.8685567  54.8520625  32.9747409   1.0890107  55.5931104
  26.0205569   8.4987172  51.0987396  26.1215932   7.6887526  51.4084524
  25.4247315   8.4044118  50.4687074  25.9478108   8.3652200  51.0513634
  34.6796563   2.4382713  46.5852771  34.5636089   3.1890399  47.0144909
  35.4752450   2.1806666  46.8348858  34.7801153   2.5117560  46.6856863
  25.8606309  13.4164761  52.5002252  26.5043764  13.8577925  52.8898410
  26.1862564  12.6118187  52.4132511  26.0038138  13.3629956  52.5447729
  19.2170614   4.5207458  50.7239729  18.9820798   3.6875111  50.6171998
  19.3556254   4.8012124  49.9100930  19.2026276   4.4390962  50.5882084
  26.5626889   6.4276736  47.8722114  26.8842730   6.9681943  47.2683422
  27.2098985   5.8573507  48.0044403  26.7052944   6.4235911  47.8029149
  28.6128597  -1.5707269  47.9556500  29.3108761  -1.3919142  48.4477963
  28.9280929  -2.0936930  47.3326890  28.7623934  -1.6213497  47.9358510
  21.2429834   0.2345471  55.8667606  21.1188531   0.8207916  56.5017425
  21.8948119  -0.2594334  56.1679881  21.3203483   0.2484275  56.0053535
  28.8016532   4.8163176  47.9436292  29.2410168   4.2080276  48.3891064
  28.6521195   4.4370549  47.1721757  28.8437998   4.6701647  47.8955459
  26.2688175   3.4107188  55.1455117  26.9137178   2.9179631  54.8266066
  26.5089952   3.5531974  55.9721195  26.3998760   3.3584630  55.2204650
  28.8074266   6.2562093  54.7962010  29.0897509   5.4613499  54.5748766
  29.5360427   6.7342681  54.8167071  28.9563830   6.2096690  54.7665025
  32.4025869   3.1690357  44.8967061  32.3177164   4.0251324  45.0416630
  32.8910252   2.8934681  45.5649220  32.4614766   3.2547678  45.0169142
  33.3344302  -0.2124849  46.3964796  32.8055773   0.0034785  47.0562102
  33.8569322   0.4811290  46.3165765  33.3332755  -0.0781712  46.4820395
  38.7892355   5.3621456  51.7697841  37.9590058   5.5732099  51.9331257
  38.7401607   4.5358510  51.4940124  38.6599090   5.2711062  51.7535206
  25.2243910   3.6838368  45.1972264  24.6401125   4.1888399  45.6038128
  24.8214005   3.4580755  44.4568856  25.0783213   3.7246616  45.1477289
  20.7787938   9.3993129  51.9995936  20.2955517  10.1243619  51.9755519
  21.5911257   9.6969259  52.1106093  20.8278686   9.5495483  52.0123215
  26.8502092   8.1925310  54.6045750  26.3329034   7.8332725  54.0007058
  27.5476484   7.6687484  54.6151816  26.8767673   8.0622998  54.5176009
  30.5065684   8.6420124  60.5661923  30.5949030   8.4546264  61.4140133
  30.9355397   7.9957553  60.1666770  30.5827787   8.5183132  60.6333675
  28.0736144   7.9251284  59.5479585  27.5106979   7.5123894  60.0719246
  28.8357168   7.8504189  59.9672729  28.1030593   7.8528684  59.6872586
  29.6821124  -0.0695980  43.6741185  29.9217128   0.1382004  42.8616528
  30.0036965  -0.8738471  43.7830129  29.7658282  -0.1581879  43.5701738
  23.6332136   9.9149305  52.1516215  24.3352715   9.4001294  52.2088972
  23.5529619  10.2423456  52.9563091  23.7255896   9.8863531  52.2789008
  38.2846313  -1.9908144  55.5648262  37.4474734  -1.9205957  55.7995856
  38.2534544  -1.9883649  54.6922564  38.1564595  -1.9797917  55.4707810
  22.9582911   6.1055657  51.6601823  23.7971810   6.3378590  51.7075585
  22.9894680   5.2359968  51.5908859  23.0864629   6.0112603  51.6566468
  23.5835614   6.5256532  55.9615129  24.1233839   6.3827663  56.6318501
  22.9005560   6.9253283  56.3299155  23.5627768   6.5636203  56.1149551
  33.0076499   2.2047533  51.1560153  33.7634014   2.6379047  51.1949062
  33.1138823   1.5552303  51.7294789  33.1346669   2.1725017  51.2458179
  36.0456670   6.0320810  51.9062556  35.6091902   6.0357552  52.6621528
  35.7119585   6.7126309  51.4742134  35.9319290   6.1333266  51.9543389
  30.6185744   8.0729143  63.2305707  31.4026160   8.1859991  63.5961449
  30.4182338   7.2470280  63.4264392  30.7051769   7.9675862  63.3140093
  18.9872759   2.7456823  56.1149551  18.7211174   1.9295940  56.2740541
  19.0011323   2.7909979  55.2445066  18.9497481   2.6313728  56.0103032
  22.8930506  -2.4558093  42.7301309  22.1788683  -2.7419913  43.1423741
  23.3774475  -2.1161467  43.3707696  22.8589869  -2.4476443  42.8856944
  30.7756137   9.9839245  56.8772162  29.9771383   9.7438745  57.1346031
  31.2242148  10.0353638  57.6239210  30.7230748   9.9561636  57.0257086
  39.1801016   2.7501730  50.7982194  39.8417450   2.1892398  50.6978102
  38.5392428   2.2553761  51.1234885  39.1829884   2.5938139  50.8314534
  30.0677824   6.0471861  43.1063117  30.4828972   5.7156885  42.4147613
  29.2369754   5.8140764  42.9783253  30.0065833   5.9643117  42.9853964
  19.3966173   3.5315602  53.3961295  19.2141746   3.5062488  52.5433587
  20.1315842   4.0014540  53.4350204  19.4780237   3.5976965  53.2759213
  35.4665847   3.7667112  50.5394182  35.7021436   3.9112311  49.7121033
  35.6155411   4.5309520  50.9325696  35.5231650   3.9006167  50.4757786
  37.2956304   2.6068778  48.3763786  37.6264521   3.1396418  47.7703881
  37.8689392   2.6607666  49.0325737  37.4289983   2.6938347  48.3841568
  32.5088193   0.4533681  49.0587366  32.6035047   1.1922975  49.5126992
  31.8847036   0.0251156  49.4921931  32.4297223   0.4995002  49.1895514
  30.7640667   3.6319894  59.7077647  31.3379528   2.9947138  59.8626211
  30.6855470   3.6323976  58.8387305  30.8373901   3.5385005  59.6024058
  19.3637083   0.4109103  53.5460361  19.9410586   0.2745554  54.1852607
  18.6651145  -0.0455113  53.8005946  19.3458104   0.3231369  53.6782651
  32.7611214   2.2982421  42.2924318  32.6791377   2.3684608  43.1579305
  33.3990935   2.8612165  42.1008059  32.8431051   2.3921392  42.3914268
  26.1204385   2.0643159  51.7598845  25.8623629   1.2314894  51.7330144
  26.1752868   2.2900772  50.9191345  26.0904163   1.9740930  51.6318981
  25.0939097  -0.3819079  52.2463739  24.5188689  -0.2226910  52.8827700
  24.7174774  -1.0183670  51.7832190  24.9541910  -0.4521266  52.2718298
  28.7612386  -1.9095730  57.1056118  28.3726819  -2.3341512  56.4508309
  28.0967084  -1.6613580  57.6133144  28.6059314  -1.9357008  57.0843986
  29.8651324   2.3202875  45.3032925  30.6791963   2.6117768  45.1915696
  29.8010466   1.6662737  44.7291218  29.9754063   2.2668070  45.2021762
  36.0860814   5.0028871  59.7162500  35.8499452   4.1716936  59.5974561
  36.7304043   4.9514478  60.3017345  36.1455485   4.8726559  59.7848394
  25.7359233   5.7924393  50.4305237  26.3733179   5.5536140  50.9757030
  26.1614304   5.9961551  49.6958397  25.8935399   5.7875403  50.4022394
  20.4271875   8.0312729  54.3139541  20.4676020   8.3027580  53.4859320
  20.9866399   8.5554637  54.7297328  20.5155221   8.1488484  54.2531429
  26.3762048   1.0126682  44.7680126  26.7607200   0.7934389  45.5196671
  26.1273668   1.8389628  44.8981203  26.3964120   1.1024829  44.8981203
  37.1097235   4.7873320  55.7790795  36.8043052   5.5201377  56.1404110
  36.3903451   4.3811249  55.4983581  36.9584577   4.8355053  55.7903932
  28.1180704   6.2696815  52.1099023  28.1919713   6.1071987  52.9640873
  28.9350211   6.4587005  51.8659505  28.2497063   6.2733558  52.1997049
  42.8099027   1.4266321  55.1059139  42.7423527   1.4462280  54.2361726
  42.7954690   2.2696648  55.3314810  42.7977784   1.5540055  55.0111616
  21.8786461   6.6154678  49.1393467  21.0524579   6.8616415  49.0127745
  21.9398452   6.5366759  50.0055525  21.7660628   6.6399627  49.2482411
  26.6585290   9.2331558  46.8412496  26.9483589   8.8420540  46.1171723
  27.3888771   9.4148263  47.2817772  26.8092174   9.2025372  46.7995303
  40.5957645   0.2010707  53.3805734  41.1465566  -0.4321224  53.6202826
  40.5801760   0.7326100  54.0721238  40.6742841   0.1859655  53.5184592
  27.2480035   4.0349304  57.9265627  26.7491729   4.7465072  58.0050515
  28.0580260   4.3549971  57.8883789  27.2936142   4.1876153  57.9322195
  24.5991206  11.2098941  49.9072646  24.3791501  10.9196295  50.6999313
  24.3785728  10.5513896  49.3790559  24.5338800  11.0698649  49.9461555
  23.5108153   3.2972257  52.1728348  23.2221402   2.6709728  52.7074075
  24.3791501   3.2392545  52.2393028  23.5968405   3.1959801  52.2619302
  34.2986051  -1.5592959  52.4910330  33.9550817  -2.2802624  52.8417579
  34.3979093  -1.7679108  51.6488688  34.2628094  -1.6968756  52.4182010
  26.7659161  12.5828331  48.6903339  27.4183220  12.0504773  48.9194365
  26.0684770  12.2296983  49.0771213  26.7589879  12.4517854  48.7815506
  23.7140426   4.9367508  48.0970713  24.4686394   5.3180547  48.3106175
  23.1211039   5.3878652  48.5517409  23.7377140   5.0596336  48.1953591
  34.7599080   4.9032745  48.0334318  35.3257112   5.5625954  47.9492861
  34.1126983   5.2482443  48.5050720  34.7477836   5.0514686  48.0907074
  25.0338653   6.1076070  53.4710828  24.5119406   6.2476361  54.1562693
  25.4212673   5.3486734  53.6612946  25.0142354   6.0161593  53.6011905
  31.2305658   7.8471529  47.4571397  30.9892334   7.1139389  47.0498462
  31.4106991   8.3958386  46.8037730  31.2213282   7.8193920  47.3001620
  26.4604979   3.1380089  48.8692319  26.2647761   3.7454823  48.2752622
  26.6839324   2.4448033  48.3883993  26.4639620   3.1257614  48.7108400
  24.8583509   0.0234827  48.9873188  25.5806160   0.1875985  48.5276994
  24.3791501   0.7444491  48.8812527  24.8947239   0.1533056  48.9038802
  32.8177016  -3.6401375  54.3669873  31.9788117  -3.6140096  54.1308136
  32.8881383  -2.9930639  54.9475219  32.7045410  -3.5405249  54.4178989
  22.5091125   2.4292899  58.0927328  23.0212222   2.7077152  57.4436087
  22.2227468   3.1682193  58.4590141  22.5425988   2.5795253  58.0517206
  36.6934540   1.5666612  51.6531114  36.6068515   1.7222038  52.5065893
  36.2385020   2.2104688  51.2790519  36.6137797   1.6842367  51.7238221
  30.5660356  -1.1122641  50.2756674  30.3195070  -1.1926890  51.1093463
  30.8945479  -1.8969173  50.0819201  30.5781600  -1.2396376  50.3704197
  34.4608405   5.5960718  54.0643455  34.3222764   6.2941764  54.5692198
  33.6808403   5.4409375  53.7079637  34.3251632   5.6760885  54.0869729
  32.7986490   1.8957094  60.3165837  32.7934529   1.0236910  60.3208263
  33.5047484   2.0945263  59.8435293  32.9031494   1.7960968  60.2472872
  26.5257383   1.6234078  59.6879657  26.6700759   2.2035286  59.0522767
  26.8733032   2.0010374  60.3929512  26.5984845   1.7654782  59.6978652
  28.6977301   0.8224246  57.4704789  27.9500615   1.0155260  57.0653067
  28.8518826  -0.0030534  57.2328910  28.6099728   0.7289358  57.3750194
  25.5985138   9.8136850  56.5540684  25.7474702   9.2539765  55.9014088
  26.3785140   9.8928851  56.9373203  25.7359232   9.7422415  56.5137633
  35.9561778   4.9538972  44.8259954  35.5768586   4.1676110  44.8189244
  35.2928023   5.5025829  44.6831599  35.8020252   4.9183796  44.8040751
  28.1238439   9.9851492  57.8325175  28.0482110   9.3160303  58.3875963
  28.0528298  10.6869281  58.3465841  28.1019046   9.9896400  57.9902023
  28.7808686   8.5052491  48.6648781  29.5458577   8.2362135  48.3431445
  28.6786776   8.0202502  49.3818843  28.8790181   8.3942056  48.7228608
  26.8161456  -3.2923099  55.2042016  26.0257530  -3.4731639  55.5259352
  27.2122078  -4.0696147  55.1872311  26.7578332  -3.4335638  55.2494565
  31.3027346   5.5364675  40.6448730  32.0700332   5.5964800  40.2354582
  30.8558655   4.9645117  40.1605048  31.3500774   5.4601251  40.5126440
  32.2005142   4.3419331  52.9301462  31.5250144   4.1104563  53.4314849
  32.2097518   3.7340514  52.3043567  32.1023646   4.2178256  52.9117614
  29.3299286  -0.8162840  59.6865515  29.2658427   0.0447116  59.5585652
  29.4696474  -1.1330847  58.8861067  29.3414756  -0.7362673  59.5493728
  34.2021877   7.1984463  45.1611640  34.2841714   8.0051449  44.8373091
  34.6871619   7.2180423  45.8852414  34.2859034   7.3205126  45.2198539
  28.0118380   1.8769299  53.8281718  27.5880629   2.0773798  53.0920736
  27.8363235   1.0298147  53.9406018  27.9229260   1.7818081  53.7355408
  27.5130073  13.3919812  56.2903175  28.0026004  12.6930601  56.1078840
  26.9414306  13.0943682  56.8779233  27.5014603  13.2446036  56.3504216
  23.3000825   2.3721351  49.2609691  23.4565444   2.3068153  50.1165683
  23.6401418   3.1469903  49.0488370  23.3734060   2.4770549  49.3564285
  29.8379969   1.7479234  48.1303054  30.3795515   1.2449615  48.5941674
  30.1526528   1.6944429  47.3192539  29.9644366   1.6658655  48.0786866
  33.7097077   5.9581882  65.2429966  34.5231942   5.6867030  65.4035099
  33.5492043   5.6589422  64.4390162  33.8067025   5.8736808  65.1475372
  28.0066419   7.1396586  45.4143082  28.0759239   6.2811124  45.5536082
  28.7854874   7.3568467  45.0862106  28.1319269   7.0449450  45.3860239
  30.9869239  -3.3584461  58.1825354  31.2011208  -3.9973547  57.6288708
  30.3703138  -2.9138637  57.7533216  30.9274568  -3.3874318  58.0375785
  32.3973907   9.5634287  49.6279575  32.0053698   9.2601002  48.9102441
  32.5526979  10.4003377  49.4384529  32.3627497   9.6418124  49.4936072
  19.8735086  -0.4443699  49.5770458  20.2534051  -0.0259154  48.9130725
  19.2990451   0.1369757  49.8839301  19.8446411  -0.2965840  49.5247199
  33.1508327  -1.7495396  59.1208661  32.3385008  -2.0569506  59.2021834
  33.6098261  -2.2296396  59.6851374  33.0988712  -1.8658904  59.2163256
  32.5613581   6.1284276  49.5685606  32.2028236   6.2998919  50.3449638
  32.0752292   6.5897482  49.0113604  32.4372278   6.2223247  49.6010875
  27.3501947   1.8083441  42.1085840  27.6394472   2.5848324  42.3829414
  27.4373746   1.2972173  42.8100339  27.4056203   1.8475360  42.2528338
  33.7218321   7.0188172  60.5152807  34.3598041   6.5248368  60.1815263
  33.0792412   6.9465572  59.9305033  33.7212547   6.9347180  60.3795162
  35.4475321  -1.1322682  55.0818722  35.0202929  -1.2196334  54.3266822
  34.8101374  -1.0244907  55.6673566  35.2904928  -1.1290022  55.0564164
  33.7772577   7.7107980  57.1558163  34.5664956   7.3597045  57.2760245
  33.9516175   8.5244369  56.8934797  33.9192859   7.7793837  57.1346031
  23.5165888   1.1216706  54.2085952  22.6753894   1.0220580  54.4164846
  23.7255896   1.8912186  54.5600273  23.4230580   1.2208749  54.2913267
  20.9941455  -1.2563757  52.0370703  20.5998153  -1.1820745  51.2620813
  20.4381572  -0.8705811  52.5879065  20.8544267  -1.1881983  52.0038363
  27.3282553  -0.9501895  53.4583550  27.0245690  -1.5045907  54.0593957
  26.6261973  -0.7709685  52.9711584  27.1798762  -1.0057113  53.4753255
  26.3848650  -3.6401375  48.0228252  26.6608384  -4.3582463  47.6105819
  26.9847319  -3.0416455  47.8149358  26.5141914  -3.6581004  47.9309013
  25.3900904   6.2647826  58.1655648  25.2821259   6.2749888  59.0317706
  25.5996685   7.0902606  57.9760601  25.4051015   6.3888901  58.2659739
  23.4074696   3.5160468  55.6277585  22.8162629   4.1569966  55.5980600
  24.1695719   3.9398085  55.6008885  23.4322956   3.6736307  55.6192732
  39.5265117   3.3466238  56.6254863  39.5848241   3.7952887  57.3714840
  38.8931585   3.7565051  56.1884943  39.4416412   3.4739973  56.6707412
  33.1664212   8.9669780  53.0609610  32.9683901   9.4560594  52.3665821
  32.5451923   9.1711021  53.6393743  33.0451776   9.0686318  53.0432833
  27.2272190   0.7354677  47.4019854  27.9714235   1.1228953  47.6402804
  27.3732886  -0.1087898  47.5660342  27.3582775   0.6685149  47.4613824
  30.2150066  -3.6919850  53.3013773  29.7410020  -4.2178088  53.8119084
  30.5868202  -4.2390377  52.7328635  30.1999955  -3.8503853  53.2928920
  36.4786797   1.3682526  54.7120554  36.2385020   0.5288941  54.7162980
  36.9578804   1.4482692  55.4361327  36.5138980   1.2563925  54.8195356
  32.1433566  -2.7983296  46.3639527  31.6156584  -2.7154552  45.6745236
  32.6029274  -2.0565424  46.3604172  32.1335416  -2.6762633  46.2614222
  38.4791984  -1.8516017  52.6649813  38.2401754  -1.8920183  51.8270597
  38.6425885  -1.0044865  52.7915534  38.4682287  -1.7323932  52.5603295
  35.0838014   2.5333932  58.5954858  35.8072213   2.0806458  58.4165878
  34.8187976   2.8138598  57.8127186  35.1519287   2.5084901  58.4533573
  23.9524882  -2.8705894  55.3307737  23.3277952  -2.8587502  54.7233690
  23.6170477  -2.3945719  55.9798977  23.8110374  -2.7987377  55.3364306
  20.6650558   5.1894566  56.7711501  20.1350482   4.4987005  56.8206476
  20.9375651   5.1804751  55.9424210  20.6275280   5.0861698  56.6558917
  31.6970648   5.7720268  45.4949184  32.4204847   6.2378381  45.3513757
  31.2571239   5.8393878  44.7446781  31.7386340   5.8504105  45.3633965
  30.8656803   2.6317810  56.7449873  30.2513796   2.0875861  57.0398508
  31.3824088   2.1182047  56.2655689  30.8512466   2.4754219  56.7174101
  30.1053101   3.7022080  54.4794172  29.6780709   3.0771799  54.0459607
  30.0978045   3.4197002  55.3053179  30.0412242   3.5674861  54.5373999
  15.9446400   1.8622330  54.1279850  15.8389849   1.8169174  53.2631934
  15.1946620   2.2076110  54.4094135  15.8182003   1.9063238  54.0417179
  26.1354496  -0.1777837  56.3716349  25.3046425  -0.0104019  56.1651597
  26.0806013  -0.5541886  57.1565234  26.0043911  -0.2088106  56.4564877
  24.5090540  -1.9022246  46.9006467  24.6493501  -1.4049781  47.6035108
  25.0073072  -2.6035951  47.0420680  24.6031621  -1.9320267  47.0258046
  24.5390762  -1.0355134  44.2299044  25.1735842  -0.4394709  44.1648505
  24.6216373  -1.3351677  45.0444914  24.6447313  -0.9914226  44.3402130
  37.5173328   1.4960343  57.0985408  38.1091168   2.1357594  57.1303606
  37.9532322   0.7983380  57.3877475  37.6691759   1.4878693  57.1466240
  26.1169745  -5.1041159  44.2044486  26.4385586  -5.5838077  43.5503748
  26.3796689  -4.2941513  44.0135297  26.2035770  -5.0551261  44.0799978
  29.3466718   5.9177715  57.7243302  28.8391809   6.4713562  58.1683932
  29.0493364   5.9786005  56.9062076  29.2271603   6.0084026  57.6691758
  21.0443750   1.1612706  47.4988590  21.5535979   1.7577214  47.8799895
  21.5178022   0.8938680  46.8165009  21.1887126   1.2098522  47.4543112
  31.9574498   9.8340973  45.6547245  31.2403808   9.6601835  45.1894482
  32.6081236   9.5993545  45.1222731  31.9476348   9.7736765  45.5076463
  34.5422469  -1.2894438  49.3988550  33.8713659  -0.7464736  49.2701616
  35.2362219  -0.8199583  49.1570245  34.5451337  -1.1396167  49.3444078
  28.5909203  10.8502274  54.6300308  28.3674857  10.0921103  54.9984335
  28.1019046  10.8800295  53.9080748  28.4852652  10.7424498  54.5777049
  23.4034282  -2.2031035  50.3661770  22.6846271  -1.7866903  50.6334633
  23.7746644  -1.6376796  49.8153408  23.3526213  -2.0581754  50.3244577
  32.7033862  -1.5703186  56.2563766  32.6831790  -1.7519891  57.1098545
  32.7513063  -0.6991168  56.2323349  32.7068503  -1.4686648  56.3787060
  30.6480192   5.0184006  62.1812242  30.6076047   4.3733683  61.5957398
  31.4603511   4.9620623  62.4937654  30.7623346   4.9142973  62.1409191
  27.2387660  11.0702732  52.0837393  26.8248058  10.4076862  51.6941235
  27.9235034  11.2180590  51.5633087  27.2786032  10.9943390  51.9493890
  30.6052954  10.2292817  52.8361010  30.2069237  10.3395087  52.0681830
  29.9904174  10.4374883  53.4187569  30.4551843  10.2766385  52.8092309
  29.1780856  -3.1633035  45.7035149  28.5845695  -2.8416039  45.1519716
  29.2156134  -4.0091940  45.4956256  29.0955245  -3.2408707  45.5917921
  32.0538673  -3.2053531  49.1336900  31.8252366  -3.1820829  48.2915258
  32.3136749  -4.0296064  49.2531910  32.0584861  -3.3237451  49.0262097
  25.1083435  -4.6676984  50.4291095  25.5840801  -4.3059905  49.7941276
  24.6072035  -4.0120517  50.7091238  25.1048794  -4.5182796  50.3767836
  38.3394797   4.8044784  46.2204100  38.7228402   5.5536140  46.4502197
  37.5438910   5.0510603  45.9616089  38.2788579   4.9514477  46.2161674
  27.1510088  -2.5235785  43.7964479  27.5309053  -2.5056155  43.0115594
  26.4102684  -2.0781796  43.6755327  27.0978926  -2.4554010  43.6628047
  32.5036231   0.4643908  53.0376265  32.9989896  -0.2533097  52.9980285
  31.6936007   0.1614706  52.9230752  32.4580124   0.3141555  53.0149991
  27.9494842   4.3141722  45.1873269  27.1406165   3.9908395  45.1406579
  28.4569751   3.6074944  45.1201518  27.9044509   4.1623038  45.1703564
  18.5785120   1.7413915  50.9120634  17.7130639   1.7299605  50.8003405
  18.6783935   1.5544138  51.7591773  18.4659287   1.7119976  51.0209578
  34.5688050   3.2147596  55.7253394  34.9943121   2.6922018  55.1723819
  34.2044970   3.8128433  55.2042017  34.5774652   3.2257823  55.5662403
  24.2042130  11.5111813  54.4850739  24.5188688  12.3248202  54.4928521
  24.6135543  11.1262032  55.1532898  24.3110227  11.5740516  54.5854831
  31.1566649   6.9281860  52.0554551  31.6277827   7.6422123  52.2244536
  31.4926828   6.3280610  52.5914421  31.2761764   6.9453324  52.1586927
  33.2443634   8.5383173  64.2346623  33.3540599   7.7491734  64.5903370
  33.5734530   8.4489110  63.4320961  33.3096040   8.4089026  64.1689014
  31.7940595   6.7199794  58.8182244  31.2461541   6.0957678  58.5502309
  32.2553624   6.9094066  58.1026323  31.7807805   6.6558844  58.6732675
  21.5455150   5.4584922  54.1329348  22.1500007   5.4180756  53.5043168
  21.3382462   6.3056074  54.1633403  21.6044047   5.5772924  54.0445464
  31.3598922   7.7250867  55.3491585  32.1797296   7.5813833  55.6107880
  31.0792999   8.3497066  55.8908023  31.4395665   7.7961219  55.4679524
  16.7806432   4.4419539  54.0028271  16.6830710   3.6315811  54.3118327
  17.5635302   4.4211333  53.6174539  16.8822568   4.3186629  53.9915134
  41.0312257  14.4691370  53.0687392  40.1750153  14.6299868  53.1196508
  41.0779911  13.5983434  53.0892453  40.9111368  14.3642172  53.0793458
  44.3405974  20.7377895  62.6747848  45.0472741  20.2429926  62.8034782
  44.5293909  21.1786977  61.9450506  44.4733879  20.7296246  62.5856893
  43.8764078  16.5283414  55.7119043  44.4220038  17.2068500  55.7713013
  43.8180954  16.3870874  54.8520625  43.9479992  16.6075415  55.5931104
  36.8338892  28.9350069  52.5002252  37.4776348  29.3763233  52.8898410
  37.1595148  28.1303495  52.4132511  36.9770721  28.8815264  52.5447729
  30.1903197  20.0392766  50.7239729  29.9553382  19.2060419  50.6171998
  30.3288838  20.3197432  49.9100930  30.1758860  19.9576270  50.5882084
  32.4893285  12.2078497  53.6224037  31.8698316  11.6171144  53.4534052
  32.3877148  12.7989932  52.9888360  32.3830960  12.2082579  53.5029027
  39.5861180  13.9478039  47.9556500  40.2841345  14.1266166  48.4477963
  39.9013513  13.4248378  47.3326890  39.7356517  13.8971811  47.9358510
  32.2162418  15.7530779  55.8667606  32.0921115  16.3393224  56.5017425
  32.8680702  15.2590974  56.1679881  32.2936067  15.7669583  56.0053535
  39.7749116  20.3348484  47.9436292  40.2142751  19.7265584  48.3891064
  39.6253779  19.9555857  47.1721757  39.8170581  20.1886955  47.8955459
  37.2420759  18.9292496  55.1455117  37.8869761  18.4364939  54.8266066
  37.4822536  19.0717282  55.9721195  37.3731344  18.8769938  55.2204650
  39.7806850  21.7747401  54.7962010  40.0630093  20.9798807  54.5748766
  40.5093010  22.2527989  54.8167071  39.9296414  21.7281998  54.7665025
  37.7588044   9.3170435  52.0377775  37.4291374   9.7681579  51.3681474
  37.0833046   9.2386599  52.5850781  37.6098480   9.3721570  52.0200998
  44.9664452   5.3055958  50.2827386  44.6517893   5.9959437  50.7147808
  44.4491393   5.2500740  49.5812886  44.8428922   5.3990847  50.2424335
  49.7624938  20.8806764  51.7697841  48.9322641  21.0917407  51.9331257
  49.7134191  20.0543818  51.4940124  49.6331674  20.7896370  51.7535206
  36.1976493  19.2023676  45.1972264  35.6133708  19.7073707  45.6038128
  35.7946588  18.9766063  44.4568856  36.0515797  19.2431924  45.1477289
  31.7520522  24.9178437  51.9995936  31.2688100  25.6428927  51.9755519
  32.5643840  25.2154567  52.1106093  31.8011270  25.0680791  52.0123215
  37.8234676  23.7110618  54.6045750  37.3061618  23.3518033  54.0007058
  38.5209067  23.1872792  54.6151816  37.8500257  23.5808306  54.5176009
  41.4798268  24.1605432  60.5661923  41.5681614  23.9731572  61.4140133
  41.9087980  23.5142861  60.1666770  41.5560370  24.0368439  60.6333675
  39.0468728  23.4436592  59.5479585  38.4839562  23.0309202  60.0719246
  39.8089751  23.3689497  59.9672729  39.0763176  23.3713992  59.6872586
  40.6553708  15.4489328  43.6741185  40.8949711  15.6567312  42.8616528
  40.9769549  14.6446837  43.7830129  40.7390866  15.3603429  43.5701738
  35.9643998   7.3782724  47.5200723  36.7189966   7.7461041  47.2817773
  35.7871533   7.7522278  48.2879902  36.0498476   7.4880912  47.5985611
  34.6064719  25.4334613  52.1516215  35.3085298  24.9186602  52.2088972
  34.5262202  25.7608764  52.9563091  34.6988480  25.4048839  52.2789008
  49.2578897  13.5277164  55.5648262  48.4207318  13.5979351  55.7995856
  49.2267128  13.5301659  54.6922564  49.1297179  13.5387391  55.4707810
  35.6543626  15.6710200  61.2796631  35.8264129  15.5616094  62.1281912
  36.1912983  16.3164605  61.0427823  35.7588630  15.7502202  61.3701727
  34.3201063   9.7853043  44.2178836  34.1376636  10.0024924  43.3919828
  35.1826676   9.8992055  44.2737450  34.4205652   9.8342941  44.1033323
  33.9315495  21.6240965  51.6601823  34.7704394  21.8563898  51.7075585
  33.9627264  20.7545276  51.5908859  34.0597212  21.5297911  51.6566468
  34.5568198  22.0441840  55.9615129  35.0966423  21.9012971  56.6318501
  33.8738144  22.4438591  56.3299155  34.5360351  22.0821511  56.1149551
  40.0000782   6.7879453  47.2527859  40.7286942   6.6095408  46.8066016
  40.0895675   7.6297533  47.4635038  40.1207444   6.8863332  47.2181377
  43.9809082  17.7232841  51.1560153  44.7366597  18.1564355  51.1949062
  44.0871407  17.0737610  51.7294789  44.1079253  17.6910325  51.2458179
  47.0189254  21.5506118  51.9062556  46.5824485  21.5542860  52.6621528
  46.6852169  22.2311617  51.4742134  46.9051874  21.6518574  51.9543389
  41.5918327  23.5914451  63.2305707  42.3758744  23.7045299  63.5961449
  41.3914922  22.7655588  63.4264392  41.6784353  23.4861170  63.3140093
  29.9605343  18.2642131  56.1149551  29.6943758  17.4481248  56.2740541
  29.9743907  18.3095286  55.2445066  29.9230065  18.1499036  56.0103032
  46.9386736   8.5919946  54.1491984  47.5812645   8.6618050  54.7353900
  47.1909757   7.9249169  53.6471526  47.0708869   8.5046294  54.1619264
  33.8663090  13.0627215  42.7301309  33.1521267  12.7765395  43.1423741
  34.3507058  13.4023841  43.3707696  33.8322453  13.0708865  42.8856944
  34.7103949  11.8020509  58.7616558  34.0175746  11.3317489  59.0077290
  35.3264276  11.5758814  59.3358265  34.6988479  11.6987641  58.8825711
  41.7488720  25.5024553  56.8772162  40.9503966  25.2624053  57.1346031
  42.1974732  25.5538946  57.6239210  41.6963332  25.4746944  57.0257086
  50.1533600  18.2687038  50.7982194  50.8150034  17.7077706  50.6978102
  49.5125012  17.7739069  51.1234885  50.1562467  18.1123447  50.8314534
  30.3698756  19.0500910  53.3961295  30.1874329  19.0247796  52.5433587
  31.1048425  19.5199848  53.4350204  30.4512820  19.1162273  53.2759213
  46.4398430  19.2852420  50.5394182  46.6754020  19.4297619  49.7121033
  46.5887994  20.0494828  50.9325696  46.4964234  19.4191475  50.4757786
  33.4344508  15.7685913  59.9043403  34.1584480  15.7538944  60.3908298
  33.5360644  16.4781268  59.4065372  33.5562717  15.8710616  59.9022190
  40.8089457  19.2484998  64.7692350  40.0162438  19.5628510  64.9544970
  40.9238384  19.4636466  63.9313135  40.7084868  19.3268834  64.6730685
  43.4820776  15.9718989  49.0587366  43.5767631  16.7108283  49.5126992
  42.8579620  15.5436464  49.4921931  43.4029806  16.0180310  49.1895514
  41.7373250  19.1505202  59.7077647  42.3112112  18.5132446  59.8626211
  41.6588054  19.1509284  58.8387305  41.8106485  19.0570313  59.6024058
  30.3369667  15.9294411  53.5460361  30.9143169  15.7930862  54.1852607
  29.6383728  15.4730195  53.8005946  30.3190688  15.8416677  53.6782651
  37.0936969  17.5828467  51.7598845  36.8356213  16.7500202  51.7330144
  37.1485452  17.8086080  50.9191345  37.0636747  17.4926238  51.6318981
  42.1738019   9.6856917  51.8602937  41.4694346   9.1966103  52.0186856
  42.2222993   9.6979392  50.9891382  42.0768071   9.6146565  51.7542277
  36.0671681  15.1366229  52.2463739  35.4921272  15.2958397  52.8827700
  35.6907357  14.5001638  51.7832190  35.9274493  15.0664042  52.2718298
  39.7344970  13.6089578  57.1056118  39.3459402  13.1843796  56.4508309
  39.0699668  13.8571728  57.6133144  39.5791897  13.5828300  57.0843986
  49.3768239  13.3664583  49.8803948  49.1204804  12.5544525  49.6901831
  50.2197553  13.3742150  49.6534135  49.4634264  13.2476581  49.8188765
  25.8128500  14.7806304  50.2608180  25.8988752  14.4038172  51.0421710
  26.4404297  14.4066750  49.7828138  25.9185051  14.6691786  50.3053657
  43.5571331   7.3064207  54.6180102  43.9381843   6.6242378  55.0047976
  42.7534615   7.0173809  54.4355766  43.4947793   7.1631256  54.6484158
  40.8383908  17.8388183  45.3032925  41.6524547  18.1303076  45.1915696
  40.7743049  17.1848045  44.7291218  40.9486647  17.7853378  45.2021762
  47.0593398  20.5214179  59.7162500  46.8232035  19.6902244  59.5974561
  47.7036627  20.4699786  60.3017345  47.1188069  20.3911867  59.7848394
  36.7091816  21.3109700  50.4305237  37.3465763  21.0721448  50.9757030
  37.1346888  21.5146859  49.6958397  36.8667982  21.3060711  50.4022394
  31.4004458  23.5498037  54.3139541  31.4408604  23.8212888  53.4859320
  31.9598983  24.0739945  54.7297328  31.4887804  23.6673792  54.2531429
  37.3494631  16.5311990  44.7680126  37.7339784  16.3119697  45.5196671
  37.1006251  17.3574936  44.8981203  37.3696704  16.6210136  44.8981203
  37.5163172   9.8118405  64.4842710  37.2016613  10.5817968  64.2212273
  37.1953104   9.2488661  63.8994937  37.4222091   9.8428674  64.3584060
  48.0829819  20.3058628  55.7790795  47.7775636  21.0386685  56.1404110
  47.3636034  19.8996557  55.4983581  47.9317161  20.3540361  55.7903932
  39.0913288  21.7882123  52.1099023  39.1652296  21.6257295  52.9640873
  39.9082794  21.9772313  51.8659505  39.2229647  21.7918865  52.1997049
  53.7831611  16.9451629  55.1059139  53.7156111  16.9647588  54.2361726
  53.7687273  17.7881956  55.3314810  53.7710367  17.0725363  55.0111616
  32.8519045  22.1339986  49.1393467  32.0257162  22.3801723  49.0127745
  32.9131036  22.0552067  50.0055525  32.7393212  22.1584935  49.2482411
  35.0695068   8.2008927  50.0988907  34.2017494   8.2731526  50.1646516
  35.3570273   9.0031006  50.2876882  34.9834817   8.3303074  50.1363673
  44.1927957   8.3486786  58.4300229  44.9381549   8.1596597  58.0163654
  43.7765262   8.8745024  57.8714085  44.2412931   8.3988932  58.2864802
  51.5690228  15.7196015  53.3805734  52.1198150  15.0864084  53.6202826
  51.5534343  16.2511408  54.0721238  51.6475424  15.7044963  53.5184592
  38.2212619  19.5534612  57.9265627  37.7224313  20.2650380  58.0050515
  39.0312843  19.8735279  57.8883789  38.2668726  19.7061461  57.9322195
  34.4840737  18.8157565  52.1728348  34.1953985  18.1895036  52.7074075
  35.3524085  18.7577852  52.2393028  34.5700988  18.7145109  52.2619302
  45.2718634  13.9592348  52.4910330  44.9283400  13.2382684  52.8417579
  45.3711677  13.7506200  51.6488688  45.2360677  13.8216552  52.4182010
  45.7331663  20.4218053  48.0334318  46.2989696  21.0811262  47.9492861
  45.0859567  20.7667751  48.5050720  45.7210420  20.5699994  48.0907074
  37.1479677  12.4115656  63.2227925  36.3379453  12.7173436  63.1117767
  37.6254364  13.1321239  63.3380509  37.0983156  12.5630258  63.2234996
  36.0071237  21.6261377  53.4710828  35.4851990  21.7661669  54.1562693
  36.3945257  20.8672042  53.6612946  35.9874937  21.5346901  53.6011905
  32.9962421  11.6767186  47.5405783  32.7087216  11.3068457  46.8037730
  33.6832889  12.1462042  47.2789488  33.0551318  11.6914156  47.3920859
  37.4337562  18.6565396  48.8692319  37.2380345  19.2640131  48.2752622
  37.6571908  17.9633340  48.3883993  37.4372203  18.6442922  48.7108400
  35.8316092  15.5420134  48.9873188  36.5538744  15.7061293  48.5276994
  35.3524085  16.2629799  48.8812527  35.8679823  15.6718364  48.9038802
  43.7909600  11.8783933  54.3669873  42.9520700  11.9045212  54.1308136
  43.8613967  12.5254669  54.9475219  43.6777993  11.9780059  54.4178989
  33.4823709  17.9478207  58.0927328  33.9944806  18.2262460  57.4436087
  33.1960051  18.6867501  58.4590141  33.5158572  18.0980561  58.0517206
  42.2378878   8.7769310  49.0997489  42.9405231   8.5777059  48.6217447
  41.9723067   8.0045253  49.4066332  42.3025510   8.6332276  49.0742930
  47.6667124  17.0851920  51.6531114  47.5801098  17.2407346  52.5065893
  47.2117603  17.7289996  51.2790519  47.5870380  17.2027675  51.7238221
  30.5690615  12.4548399  48.3891064  30.6706752  13.2574560  48.7172039
  31.3646502  12.2535735  48.0914145  30.7018521  12.5434297  48.3926419
  37.0007434  10.0404595  58.1528369  36.8090631  10.0559730  59.0027793
  37.8506030  10.2368270  58.1295024  37.0983156  10.0718947  58.2751664
  31.3854347  12.5695577  56.1312186  31.2439839  11.7179518  56.2556694
  31.6694911  12.6124238  55.3074392  31.4062193  12.4495327  56.0279810
  41.5392940  14.4062667  50.2756674  41.2927654  14.3258418  51.1093463
  41.8678063  13.6216135  50.0819201  41.5514183  14.2788932  50.3704197
  45.4340988  21.1146026  54.0643455  45.2955348  21.8127072  54.5692198
  44.6540986  20.9594683  53.7079637  45.2984215  21.1946193  54.0869729
  43.7719074  17.4142402  60.3165837  43.7667112  16.5422218  60.3208263
  44.4780067  17.6130571  59.8435293  43.8764078  17.3146276  60.2472872
  37.4989967  17.1419386  59.6879657  37.6433343  17.7220594  59.0522767
  37.8465615  17.5195682  60.3929512  37.5717428  17.2840090  59.6978652
  39.6709884  16.3409554  57.4704789  38.9233198  16.5340568  57.0653067
  39.8251409  15.5154774  57.2328910  39.5832312  16.2474665  57.3750194
  36.5717722  25.3322157  56.5540684  36.7207286  24.7725073  55.9014088
  37.3517724  25.4114159  56.9373203  36.7091816  25.2607723  56.5137633
  39.0971023  25.5036800  57.8325175  39.0214694  24.8345611  58.3875963
  39.0260882  26.2054589  58.3465841  39.0751629  25.5081708  57.9902023
  39.9111661  10.2360105  58.3600192  40.3684275  10.9684079  58.4872985
  39.9867990   9.8126570  59.1187448  39.9902631  10.2817343  58.4901269
  32.1544653  10.4825924  59.4489636  31.6186842   9.8706283  59.7650403
  32.2162417  11.0574060  60.1023303  32.0840285  10.4772852  59.5925063
  44.3838987   3.4149980  52.2294035  44.5022555   3.8726443  51.4961338
  44.2101163   2.6095241  51.9430253  44.3758158   3.3643752  52.0794969
  37.7894039  12.2262209  55.2042016  36.9990114  12.0453669  55.5259352
  38.1854662  11.4489161  55.1872311  37.7310915  12.0849670  55.2494565
  43.1737726  19.8604639  52.9301462  42.4982727  19.6289871  53.4314849
  43.1830102  19.2525822  52.3043567  43.0756230  19.7363564  52.9117614
  40.3031869  14.7022468  59.6865515  40.2391011  15.5632424  59.5585652
  40.4429057  14.3854461  58.8861067  40.3147340  14.7822634  59.5493728
  38.9850963  17.3954607  53.8281718  38.5613212  17.5959106  53.0920736
  38.8095819  16.5483455  53.9406018  38.8961844  17.3003389  53.7355408
  38.4862657  28.9105120  56.2903175  38.9758587  28.2115909  56.1078840
  37.9146889  28.6128990  56.8779233  38.4747187  28.7631344  56.3504216
  34.2733408  17.8906659  49.2609691  34.4298028  17.8253461  50.1165683
  34.6134001  18.6655211  49.0488370  34.3466643  17.9955857  49.3564285
  40.8112553  17.2664542  48.1303054  41.3528098  16.7634923  48.5941674
  41.1259112  17.2129737  47.3192539  40.9376950  17.1843963  48.0786866
  44.6829660  21.4767190  65.2429966  45.4964526  21.2052338  65.4035099
  44.5224627  21.1774729  64.4390162  44.7799609  21.3922116  65.1475372
  41.9601822  12.1600847  58.1825354  42.1743792  11.5211761  57.6288708
  41.3435722  12.6046671  57.7533216  41.9007152  12.1310990  58.0375785
  30.8467670  15.0741609  49.5770458  31.2266635  15.4926154  48.9130725
  30.2723035  15.6555065  49.8839301  30.8178995  15.2219468  49.5247199
  44.1240910  13.7689912  59.1208661  43.3117592  13.4615802  59.2021834
  44.5830845  13.2888912  59.6851374  44.0721295  13.6526404  59.2163256
  43.5346165  21.6469584  49.5685606  43.1760820  21.8184227  50.3449638
  43.0484876  22.1082789  49.0113604  43.4104862  21.7408555  49.6010875
  41.3516551   5.2700782  53.1712697  40.4810109   5.2439503  53.1246007
  41.6056892   5.0977975  52.3538543  41.2610111   5.2410926  53.0432834
  38.3234530  17.3268749  42.1085840  38.6127055  18.1033632  42.3829414
  38.4106329  16.8157481  42.8100339  38.3788787  17.3660668  42.2528338
  41.2194418  15.1749983  63.9037364  41.6894049  15.7992100  64.2905238
  41.2656298  14.5066959  64.4630578  41.2962294  15.1684664  64.0437435
  38.3765691   7.2807011  54.6286168  37.8604180   6.5887202  54.7537747
  37.8159620   7.9477788  54.5748766  38.2172205   7.2770268  54.6392234
  40.4457925   7.8199971  56.4579020  40.0589678   7.8449002  57.2392550
  39.9590862   7.2541649  56.0053537  40.3170434   7.7395722  56.5066924
  44.6950904  22.5373480  60.5152807  45.3330625  22.0433675  60.1815263
  44.0524996  22.4650880  59.9305033  44.6945131  22.4532488  60.3795162
  46.4207904  14.3862626  55.0818722  45.9935513  14.2988974  54.3266822
  45.7833957  14.4940401  55.6673566  46.2637512  14.3895286  55.0564164
  40.1115067   4.7066956  58.7489280  40.7408185   5.2427256  58.4710350
  40.2800929   4.6144315  59.6002846  40.2292861   4.7728319  58.8337808
  39.9128982   9.4938151  61.0215692  40.7402411   9.2223300  61.0774306
  39.9336828  10.2898993  61.3779510  40.0381832   9.5717905  61.0830875
  44.7505161  23.2293288  57.1558163  45.5397539  22.8782353  57.2760245
  44.9248759  24.0429676  56.8934797  44.8925443  23.2979145  57.1346031
  34.4898471  16.6402014  54.2085952  33.6486478  16.5405888  54.4164846
  34.6988479  17.4097494  54.5600273  34.3963164  16.7394057  54.2913267
  31.9674038  14.2621551  52.0370703  31.5730736  14.3364563  51.2620813
  31.4114155  14.6479497  52.5879065  31.8276851  14.3303325  52.0038363
  43.6038985   7.2402845  51.7174582  43.8088579   7.1725153  52.5631579
  43.2765409   8.0461666  51.6495759  43.5854233   7.3488785  51.8334237
  38.3015136  14.5683413  53.4583550  37.9978274  14.0139401  54.0593957
  37.5994557  14.7475623  52.9711584  38.1531346  14.5128195  53.4753255
  37.3581233  11.8783933  48.0228252  37.6340968  11.1602845  47.6105819
  37.9579903  12.4768853  47.8149358  37.4874498  11.8604304  47.9309013
  36.3633487  21.7833134  58.1655648  36.2553842  21.7935196  59.0317706
  36.5729269  22.6087914  57.9760601  36.3783598  21.9074208  58.2659739
  46.8572673   7.7934609  51.1977347  46.2446986   8.2805011  51.5831079
  46.9536848   7.1178100  51.7414998  46.7810570   7.7652918  51.3356205
  40.8591754   9.5497450  46.2974847  41.3135500   9.7208011  47.0222691
  41.3331800   8.9365561  45.8972622  40.9960074   9.4848335  46.3448608
  34.3807279  19.0345776  55.6277585  33.7895213  19.6755274  55.5980600
  35.1428303  19.4583393  55.6008885  34.4055540  19.1921615  55.6192732
  34.7767902  10.1947774  56.2945603  35.2369384  10.2686703  57.0320727
  34.8224009  10.9929028  55.9445424  34.8518457  10.3241921  56.3518359
  36.4251252  10.8614469  60.8617630  36.0336817  10.2147816  61.2973408
  36.5937115  11.4525904  61.4811885  36.3922162  10.8528737  61.0180336
  50.4997701  18.8651546  56.6254863  50.5580825  19.3138195  57.3714840
  49.8664168  19.2750359  56.1884943  50.4148996  18.9925280  56.6707412
  44.1396796  24.4855088  53.0609610  43.9416484  24.9745902  52.3665821
  43.5184507  24.6896329  53.6393743  44.0184360  24.5871626  53.0432833
  38.2004774  16.2539985  47.4019854  38.9446819  16.6414261  47.6402804
  38.3465470  15.4097410  47.5660342  38.3315359  16.1870457  47.4613824
  40.1184349   8.0490243  52.4351715  39.2720394   8.2213051  52.3093065
  40.1155482   7.2439587  52.7717544  39.9931499   7.9551272  52.4662842
  41.1882650  11.8265458  53.3013773  40.7142604  11.3007220  53.8119084
  41.5600786  11.2794931  52.7328635  41.1732539  11.6681454  53.2928920
  31.5655680  13.8236965  58.6697319  32.4281293  13.7232674  58.5834649
  31.2347463  13.2431674  58.1082891  31.6440876  13.7228591  58.5742725
  47.4519380  16.8867833  54.7120554  47.2117603  16.0474249  54.7162980
  47.9311387  16.9668000  55.4361327  47.4871564  16.7749233  54.8195356
  43.1166149  12.7202012  46.3639527  42.5889168  12.8030756  45.6745236
  43.5761858  13.4619884  46.3604172  43.1068000  12.8422675  46.2614222
  49.4524567  13.6669291  52.6649813  49.2134337  13.6265125  51.8270597
  49.6158469  14.5140443  52.7915534  49.4414871  13.7861376  52.5603295
  46.0570597  18.0519240  58.5954858  46.7804796  17.5991766  58.4165878
  45.7920560  18.3323906  57.8127186  46.1251871  18.0270209  58.4533573
  34.9257466  12.6479414  55.3307737  34.3010536  12.6597806  54.7233690
  34.5903061  13.1239589  55.9798977  34.7842958  12.7197931  55.3364306
  35.1099215  10.9904532  41.3880422  34.7612019  11.6424257  41.8511972
  34.6295660  10.9761645  40.6604293  34.9869458  11.0847586  41.3491513
  41.8389387  18.1503118  56.7449873  41.2246380  17.6061169  57.0398508
  42.3556672  17.6367355  56.2655689  41.8245049  17.9939527  56.7174101
  41.0785684  19.2207388  54.4794172  40.6513292  18.5957107  54.0459607
  41.0710628  18.9382310  55.3053179  41.0144825  19.0860169  54.5373999
  34.1948211  14.2572561  57.5482606  34.3541698  13.5015885  57.9534328
  34.0141105  14.8063501  58.2023343  34.1913570  14.2266375  57.7045312
  42.1368514   6.4233797  58.1033395  41.6409075   6.6197471  57.4124962
  42.8937576   6.8226465  57.9322197  42.1755339   6.5111531  57.9753532
  39.4071394  10.0976143  54.6936706  39.4313881   9.5636255  54.0049486
  39.6582867   9.5893452  55.3562296  39.4481312   9.9437047  54.6901350
  26.9178984  17.3807638  54.1279850  26.8122433  17.3354482  53.2631934
  26.1679204  17.7261418  54.4094135  26.7914587  17.4248546  54.0417179
  35.6872716   8.8246961  54.0742450  35.7271088   9.3256168  54.7877157
  34.8622381   8.9157355  53.8048373  35.5712242   8.9128777  54.1392988
  37.8702329  18.3907701  62.1762745  37.0197959  18.5279415  62.3120389
  38.0330457  17.6571479  62.6210446  37.7686192  18.3021802  62.2618344
  37.1087079  15.3407471  56.3716349  36.2779009  15.5081289  56.1651597
  37.0538597  14.9643422  57.1565234  36.9776494  15.3097202  56.4564877
  34.9170863   8.8316364  62.0072760  35.5423566   8.2878497  62.2802192
  34.4621343   8.3511281  61.4380550  34.9419123   8.6805845  61.9634354
  35.4823123  13.6163062  46.9006467  35.6226084  14.1135527  47.6035108
  35.9805656  12.9149357  47.0420680  35.5764204  13.5865041  47.0258046
  35.5123346  14.4830173  44.2299044  36.1468425  15.0790598  44.1648505
  35.5948956  14.1833631  45.0444914  35.6179897  14.5271082  44.3402130
  48.4905911  17.0145651  57.0985408  49.0823752  17.6542902  57.1303606
  48.9264906  16.3168688  57.3877475  48.6424343  17.0064001  57.1466240
  37.0902328  10.4144149  44.2044486  37.4118170   9.9347231  43.5503748
  37.3529272  11.2243795  44.0135297  37.1768354  10.4634047  44.0799978
  40.3199301  21.4363023  57.7243302  39.8124392  21.9898870  58.1683932
  40.0225947  21.4971313  56.9062076  40.2004186  21.5269334  57.6691758
  42.4861483   9.8016343  56.5667965  42.9116555   9.3488869  55.9551491
  41.8718477   9.2476414  56.8432752  42.4590129   9.6530319  56.5172990
  32.0176334  16.6798014  47.4988590  32.5268563  17.2762522  47.8799895
  32.4910606  16.4123988  46.8165009  32.1619709  16.7283830  47.4543112
  40.9255706   6.2731443  49.9758542  40.2824024   6.1229089  50.5443680
  40.5855113   6.0273788  49.2107646  40.7800784   6.2143565  49.9461557
  45.5155053  14.2290869  49.3988550  44.8446243  14.7720572  49.2701616
  46.2094803  14.6985725  49.1570245  45.5183920  14.3789141  49.3444078
  39.5641787  26.3687581  54.6300308  39.3407441  25.6106411  54.9984335
  39.0751630  26.3985603  53.9080748  39.4585236  26.2609806  54.5777049
  45.6783180  10.6846753  52.3078923  46.0310790  10.2576476  52.9824722
  44.8197982  10.5997597  52.4380000  45.6032625  10.6091494  52.4273934
  34.3766865  13.3154273  50.3661770  33.6578854  13.7318405  50.6334633
  34.7479228  13.8808512  49.8153408  34.3258797  13.4603554  50.3244577
  43.6766446  13.9482122  56.2563766  43.6564373  13.7665417  57.1098545
  43.7245647  14.8194140  56.2323349  43.6801087  14.0498660  56.3787060
  41.6212776  20.5369314  62.1812242  41.5808631  19.8918991  61.5957398
  42.4336094  20.4805931  62.4937654  41.7355929  20.4328281  62.1409191
  41.5785538  25.7478125  52.8361010  41.1801821  25.8580395  52.0681830
  40.9636757  25.9560191  53.4187569  41.4284427  25.7951693  52.8092309
  40.1513440  12.3552273  45.7035149  39.5578279  12.6769269  45.1519716
  40.1888717  11.5093368  45.4956256  40.0687829  12.2776601  45.5917921
  47.1107240   5.8065165  53.2363236  46.6038105   5.0994304  53.1684413
  47.9074674   5.4758354  53.3664312  47.1534480   5.6538316  53.2462231
  43.0271256  12.3131777  49.1336900  42.7984949  12.3364479  48.2915258
  43.2869332  11.4889244  49.2531910  43.0317444  12.1947857  49.0262097
  37.3090485  14.1666250  58.7362000  36.7969388  13.5587433  59.0947031
  37.1369981  14.8822843  59.2035976  37.2080122  14.1829549  58.8578224
  32.1556199  12.6103826  61.3864362  31.9858790  13.2705200  60.8412568
  31.7122149  12.8210387  62.1076851  32.0655533  12.7389808  61.4125991
  36.0816019  10.8508323  50.4291095  36.5573385  11.2125403  49.7941276
  35.5804618  11.5064791  50.7091238  36.0781378  11.0002512  50.3767836
  41.1859555  12.0890495  61.1764255  41.7430985  11.8604304  60.5442721
  40.8620620  12.8496160  60.8999468  41.2205965  12.1674332  61.0420753
  29.0558264  15.5150691  56.6452851  28.5084983  14.8451337  56.7633720
  29.8450642  15.1480539  56.7096319  29.0910447  15.3615677  56.6721552
  38.9042672  15.1758148  62.1416263  39.6553999  15.4909825  62.4555817
  39.0965249  14.9737319  61.3150184  39.0434086  15.1925530  62.0659658
  38.1242672  12.9949523  43.7964479  38.5041637  13.0129152  43.0115594
  37.3835268  13.4403512  43.6755327  38.0711510  13.0631298  43.6628047
  45.7527962  11.3031714  49.3840058  45.7522189  11.1480371  50.2424334
  45.5484142  12.1494702  49.3281444  45.7227740  11.4052335  49.5027997
  27.8145233  14.7271499  53.7998875  27.6366994  14.2748108  54.5253790
  27.5264255  15.5297660  53.9837352  27.7458186  14.7794057  53.9342377
  43.4768814  15.9829216  53.0376265  43.9722480  15.2652211  52.9980285
  42.6668590  15.6800014  52.9230752  43.4312708  15.8326863  53.0149991
  29.5517703  17.2599223  50.9120634  28.6863223  17.2484913  50.8003405
  29.6516519  17.0729446  51.7591773  29.4391870  17.2305284  51.0209578
  45.5420633  18.7332904  55.7253394  45.9675705  18.2107326  55.1723819
  45.1777553  19.3313741  55.2042017  45.5507236  18.7443131  55.5662403
  35.1774713  27.0297121  54.4850739  35.4921272  27.8433510  54.4928521
  35.5868126  26.6447340  55.1532898  35.2842811  27.0925824  54.5854831
  42.1299233  22.4467168  52.0554551  42.6010411  23.1607431  52.2244536
  42.4659411  21.8465918  52.5914421  42.2494348  22.4638632  52.1586927
  44.2176217  24.0568481  64.2346623  44.3273183  23.2677042  64.5903370
  44.5467114  23.9674418  63.4320961  44.2828623  23.9274334  64.1689014
  39.0468728   7.2194639  59.0112646  39.1796633   6.4225632  59.3393621
  39.4313880   7.7461042  59.5910921  39.1225057   7.1794555  59.1456149
  42.7673179  22.2385102  58.8182244  42.2194125  21.6142986  58.5502309
  43.2286208  22.4279374  58.1026323  42.7540389  22.1744152  58.6732675
  42.1201083   4.1424965  55.6093739  41.3147047   4.0322694  55.9261577
  41.9907818   4.2437420  54.7523605  41.9821216   4.1408635  55.5301780
  45.5767043  10.3070457  56.2033436  44.9930032  10.8079663  55.7911003
  45.8971337   9.8000013  55.5697759  45.5380219  10.3062292  56.0491943
  38.1161843   9.2211051  46.4792111  38.9377537   9.3909364  46.2373806
  37.6531493   9.3758312  45.7558408  38.1693005   9.2692784  46.3363755
  36.7057174   7.2153814  57.2590540  37.2501587   6.8744940  57.8494881
  36.7594110   8.0739275  57.4011824  36.7946294   7.2909073  57.3672413
  32.5187733  20.9770230  54.1329348  33.1232591  20.9366064  53.5043168
  32.3115046  21.8241382  54.1633403  32.5776631  21.0958232  54.0445464
  42.3331505  23.2436175  55.3491585  43.1529879  23.0999141  55.6107880
  42.0525583  23.8682374  55.8908023  42.4128249  23.3146527  55.4679524
  27.7539016  19.9604847  54.0028271  27.6563294  19.1501119  54.3118327
  28.5367885  19.9396641  53.6174539  27.8555152  19.8371937  53.9915134
  58.8045156  30.9001027  48.3134461  58.7739160  31.7545663  48.4852731
  59.4026504  30.5996319  48.8720605  58.8882314  30.9817523  48.4209264
  52.0044841  29.9876678  53.0687392  51.1482736  30.1485176  53.1196508
  52.0512494  29.1168742  53.0892453  51.8843952  29.8827479  53.0793458
  55.3138557  36.2563203  62.6747848  56.0205324  35.7615234  62.8034782
  55.5026493  36.6972285  61.9450506  55.4466463  36.2481554  62.5856893
  54.8496662  32.0468722  55.7119043  55.3952622  32.7253808  55.7713013
  54.7913538  31.9056182  54.8520625  54.9212576  32.1260723  55.5931104
  43.4625868  27.7263805  53.6224037  42.8430900  27.1356452  53.4534052
  43.3609732  28.3175240  52.9888360  43.3563544  27.7267887  53.5029027
  50.5593764  29.4663347  47.9556500  51.2573929  29.6451474  48.4477963
  50.8746096  28.9433686  47.3326890  50.7089101  29.4157119  47.9358510
  43.1895001  31.2716086  55.8667606  43.0653698  31.8578532  56.5017425
  43.8413286  30.7776282  56.1679881  43.2668651  31.2854891  56.0053535
  48.7320627  24.8355743  52.0377775  48.4023957  25.2866887  51.3681474
  48.0565629  24.7571907  52.5850781  48.5831064  24.8906878  52.0200998
  55.9397035  20.8241266  50.2827386  55.6250476  21.5144745  50.7147808
  55.4223977  20.7686048  49.5812886  55.8161506  20.9176155  50.2424335
  60.7357522  36.3992071  51.7697841  59.9055225  36.6102715  51.9331257
  60.6866774  35.5729126  51.4940124  60.6064257  36.3081678  51.7535206
  60.2311480  29.0462472  55.5648262  59.3939901  29.1164659  55.7995856
  60.1999711  29.0486967  54.6922564  60.1029763  29.0572699  55.4707810
  46.6276209  31.1895508  61.2796631  46.7996713  31.0801402  62.1281912
  47.1645567  31.8349913  61.0427823  46.7321213  31.2687509  61.3701727
  57.9921837  37.0691426  51.9062556  57.5557069  37.0728168  52.6621528
  57.6584753  37.7496925  51.4742134  57.8784457  37.1703882  51.9543389
  52.5650911  39.1099759  63.2305707  53.3491327  39.2230607  63.5961449
  52.3647505  38.2840896  63.4264392  52.6516936  39.0046478  63.3140093
  57.9119320  24.1105254  54.1491984  58.5545228  24.1803358  54.7353900
  58.1642341  23.4434477  53.6471526  58.0441452  24.0231602  54.1619264
  45.6836533  27.3205817  58.7616558  44.9908329  26.8502797  59.0077290
  46.2996860  27.0944122  59.3358265  45.6721063  27.2172949  58.8825711
  61.1266183  33.7872346  50.7982194  61.7882617  33.2263014  50.6978102
  60.4857595  33.2924377  51.1234885  61.1295051  33.6308755  50.8314534
  57.4131014  34.8037728  50.5394182  57.6486603  34.9482927  49.7121033
  57.5620578  35.5680136  50.9325696  57.4696817  34.9376783  50.4757786
  44.4077092  31.2871221  59.9043403  45.1317064  31.2724252  60.3908298
  44.5093228  31.9966576  59.4065372  44.5295301  31.3895924  59.9022190
  59.2421471  33.6439394  48.3763786  59.5729688  34.1767034  47.7703881
  59.8154559  33.6978282  49.0325737  59.3755150  33.7308963  48.3841568
  51.7822041  34.7670306  64.7692350  50.9895022  35.0813818  64.9544970
  51.8970968  34.9821774  63.9313135  51.6817451  34.8454142  64.6730685
  52.7105834  34.6690509  59.7077647  53.2844695  34.0317754  59.8626211
  52.6320637  34.6694592  58.8387305  52.7839069  34.5755621  59.6024058
  53.1470603  25.2042225  51.8602937  52.4426929  24.7151411  52.0186856
  53.1955577  25.2164700  50.9891382  53.0500654  25.1331873  51.7542277
  50.7077553  29.1274886  57.1056118  50.3191986  28.7029104  56.4508309
  50.0432252  29.3757036  57.6133144  50.5524481  29.1013607  57.0843986
  60.3500822  28.8849891  49.8803948  60.0937387  28.0729833  49.6901831
  61.1930136  28.8927458  49.6534135  60.4366848  28.7661888  49.8188765
  54.5303915  22.8249515  54.6180102  54.9114426  22.1427686  55.0047976
  53.7267199  22.5359117  54.4355766  54.4680376  22.6816564  54.6484158
  58.0325982  36.0399487  59.7162500  57.7964619  35.2087552  59.5974561
  58.6769211  35.9885094  60.3017345  58.0920652  35.9097175  59.7848394
  48.4895755  25.3303713  64.4842710  48.1749196  26.1003276  64.2212273
  48.1685688  24.7673969  63.8994937  48.3954674  25.3613982  64.3584060
  59.0562402  35.8243936  55.7790795  58.7508219  36.5571993  56.1404110
  58.3368618  35.4181865  55.4983581  58.9049745  35.8725669  55.7903932
  64.7564194  32.4636937  55.1059139  64.6888695  32.4832896  54.2361726
  64.7419857  33.3067264  55.3314810  64.7442951  32.5910671  55.0111616
  46.0427652  23.7194235  50.0988907  45.1750078  23.7916834  50.1646516
  46.3302856  24.5216314  50.2876882  45.9567400  23.8488382  50.1363673
  55.1660541  23.8672094  58.4300229  55.9114133  23.6781905  58.0163654
  54.7497845  24.3930332  57.8714085  55.2145515  23.9174240  58.2864802
  62.5422812  31.2381323  53.3805734  63.0930733  30.6049392  53.6202826
  62.5266927  31.7696716  54.0721238  62.6208008  31.2230271  53.5184592
  49.1945203  35.0719920  57.9265627  48.6956896  35.7835688  58.0050515
  50.0045427  35.3920587  57.8883789  49.2401309  35.2246769  57.9322195
  56.2451218  29.4777656  52.4910330  55.9015984  28.7567992  52.8417579
  56.3444260  29.2691508  51.6488688  56.2093261  29.3401860  52.4182010
  48.1212261  27.9300964  63.2227925  47.3112036  28.2358744  63.1117767
  48.5986947  28.6506547  63.3380509  48.0715739  28.0815566  63.2234996
  54.7642183  27.3969241  54.3669873  53.9253284  27.4230520  54.1308136
  54.8346551  28.0439977  54.9475219  54.6510577  27.4965367  54.4178989
  44.4556292  33.4663515  58.0927328  44.9677389  33.7447768  57.4436087
  44.1692635  34.2052809  58.4590141  44.4891156  33.6165868  58.0517206
  53.2111462  24.2954618  49.0997489  53.9137814  24.0962366  48.6217447
  52.9455650  23.5230561  49.4066332  53.2758094  24.1517584  49.0742930
  58.6399707  32.6037228  51.6531114  58.5533682  32.7592654  52.5065893
  58.1850187  33.2475303  51.2790519  58.5602964  32.7212983  51.7238221
  47.9740018  25.5589903  58.1528369  47.7823215  25.5745038  59.0027793
  48.8238614  25.7553578  58.1295024  48.0715740  25.5904255  58.2751664
  42.3586931  28.0880885  56.1312186  42.2172423  27.2364825  56.2556694
  42.6427494  28.1309545  55.3074392  42.3794777  27.9680635  56.0279810
  52.5125523  29.9247975  50.2756674  52.2660237  29.8443726  51.1093463
  52.8410646  29.1401443  50.0819201  52.5246767  29.7974240  50.3704197
  56.4073572  36.6331334  54.0643455  56.2687931  37.3312380  54.5692198
  55.6273570  36.4779991  53.7079637  56.2716799  36.7131501  54.0869729
  54.7451657  32.9327710  60.3165837  54.7399696  32.0607526  60.3208263
  55.4512651  33.1315879  59.8435293  54.8496661  32.8331584  60.2472872
  48.4722550  32.6604694  59.6879657  48.6165926  33.2405902  59.0522767
  48.8198199  33.0380990  60.3929512  48.5450012  32.8025398  59.6978652
  50.6442468  31.8594862  57.4704789  49.8965782  32.0525876  57.0653067
  50.7983993  31.0340082  57.2328910  50.5564895  31.7659973  57.3750194
  50.8844245  25.7545413  58.3600192  51.3416859  26.4869387  58.4872985
  50.9600574  25.3311878  59.1187448  50.9635215  25.8002651  58.4901269
  43.1277236  26.0011232  59.4489636  42.5919426  25.3891591  59.7650403
  43.1895001  26.5759368  60.1023303  43.0572869  25.9958160  59.5925063
  55.3571571  18.9335288  52.2294035  55.4755139  19.3911751  51.4961338
  55.1833747  18.1280549  51.9430253  55.3490742  18.8829060  52.0794969
  48.7626623  27.7447517  55.2042016  47.9722698  27.5638977  55.5259352
  49.1587246  26.9674469  55.1872311  48.7043499  27.6034978  55.2494565
  51.2764453  30.2207776  59.6865515  51.2123594  31.0817732  59.5585652
  51.4161641  29.9039769  58.8861067  51.2879923  30.3007942  59.5493728
  55.6562244  36.9952497  65.2429966  56.4697109  36.7237646  65.4035099
  55.4957210  36.6960037  64.4390162  55.7532192  36.9107423  65.1475372
  52.9334406  27.6786155  58.1825354  53.1476375  27.0397069  57.6288708
  52.3168305  28.1231978  57.7533216  52.8739735  27.6496298  58.0375785
  55.0973494  29.2875220  59.1208661  54.2850176  28.9801110  59.2021834
  55.5563429  28.8074220  59.6851374  55.0453879  29.1711712  59.2163256
  52.3249135  20.7886090  53.1712697  51.4542693  20.7624811  53.1246007
  52.5789476  20.6163282  52.3538543  52.2342695  20.7596234  53.0432834
  52.1927001  30.6935291  63.9037364  52.6626633  31.3177408  64.2905238
  52.2388882  30.0252267  64.4630578  52.2694877  30.6869972  64.0437435
  49.3498275  22.7992319  54.6286168  48.8336764  22.1072510  54.7537747
  48.7892204  23.4663096  54.5748766  49.1904788  22.7955576  54.6392234
  51.4190509  23.3385279  56.4579020  51.0322262  23.3634310  57.2392550
  50.9323446  22.7726957  56.0053537  51.2903017  23.2581030  56.5066924
  55.6683488  38.0558788  60.5152807  56.3063208  37.5618983  60.1815263
  55.0257580  37.9836188  59.9305033  55.6677714  37.9717796  60.3795162
  57.3940488  29.9047934  55.0818722  56.9668096  29.8174282  54.3266822
  56.7566541  30.0125709  55.6673566  57.2370095  29.9080594  55.0564164
  51.0847650  20.2252264  58.7489280  51.7140768  20.7612564  58.4710350
  51.2533513  20.1329623  59.6002846  51.2025445  20.2913626  58.8337808
  50.8861565  25.0123459  61.0215692  51.7134994  24.7408608  61.0774306
  50.9069411  25.8084301  61.3779510  51.0114415  25.0903213  61.0830875
  55.7237745  38.7478596  57.1558163  56.5130123  38.3967661  57.2760245
  55.8981342  39.5614984  56.8934797  55.8658026  38.8164453  57.1346031
  54.5771569  22.7588153  51.7174582  54.7821162  22.6910461  52.5631579
  54.2497993  23.5646974  51.6495759  54.5586817  22.8674093  51.8334237
  49.2747720  30.0868721  53.4583550  48.9710857  29.5324709  54.0593957
  48.5727141  30.2660931  52.9711584  49.1263930  30.0313503  53.4753255
  57.8305256  23.3119917  51.1977347  57.2179570  23.7990319  51.5831079
  57.9269431  22.6363408  51.7414998  57.7543154  23.2838226  51.3356205
  51.8324337  25.0682758  46.2974847  52.2868084  25.2393318  47.0222691
  52.3064383  24.4550869  45.8972622  51.9692658  25.0033643  46.3448608
  45.7500486  25.7133082  56.2945603  46.2101967  25.7872011  57.0320727
  45.7956592  26.5114336  55.9445424  45.8251041  25.8427229  56.3518359
  47.3983835  26.3799777  60.8617630  47.0069401  25.7333124  61.2973408
  47.5669698  26.9711212  61.4811885  47.3654746  26.3714045  61.0180336
  61.4730284  34.3836854  56.6254863  61.5313408  34.8323502  57.3714840
  60.8396752  34.7935667  56.1884943  61.3881579  34.5110588  56.6707412
  55.1129379  40.0040396  53.0609610  54.9149068  40.4931210  52.3665821
  54.4917090  40.2081637  53.6393743  54.9916944  40.1056934  53.0432833
  51.0916933  23.5675551  52.4351715  50.2452978  23.7398359  52.3093065
  51.0888065  22.7624895  52.7717544  50.9664083  23.4736580  52.4662842
  52.1615233  27.3450766  53.3013773  51.6875188  26.8192528  53.8119084
  52.5333369  26.7980239  52.7328635  52.1465122  27.1866762  53.2928920
  42.5388263  29.3422272  58.6697319  43.4013876  29.2417982  58.5834649
  42.2080046  28.7616982  58.1082891  42.6173460  29.2413899  58.5742725
  58.4251964  32.4053141  54.7120554  58.1850187  31.5659557  54.7162980
  58.9043971  32.4853308  55.4361327  58.4604148  32.2934541  54.8195356
  54.0898733  28.2387320  46.3639527  53.5621752  28.3216064  45.6745236
  54.5494441  28.9805192  46.3604172  54.0800583  28.3607983  46.2614222
  60.4257151  29.1854599  52.6649813  60.1866921  29.1450433  51.8270597
  60.5891052  30.0325751  52.7915534  60.4147454  29.3046684  52.5603295
  57.0303181  33.5704548  58.5954858  57.7537380  33.1177074  58.4165878
  56.7653143  33.8509214  57.8127186  57.0984454  33.5455516  58.4533573
  45.8990049  28.1664721  55.3307737  45.2743120  28.1783113  54.7233690
  45.5635644  28.6424897  55.9798977  45.7575541  28.2383238  55.3364306
  52.8121971  33.6688426  56.7449873  52.1978964  33.1246476  57.0398508
  53.3289255  33.1552663  56.2655689  52.7977633  33.5124835  56.7174101
  45.1680795  29.7757869  57.5482606  45.3274281  29.0201193  57.9534328
  44.9873688  30.3248809  58.2023343  45.1646154  29.7451683  57.7045312
  53.1101098  21.9419105  58.1033395  52.6141659  22.1382779  57.4124962
  53.8670160  22.3411773  57.9322197  53.1487922  22.0296839  57.9753532
  50.3803977  25.6161451  54.6936706  50.4046465  25.0821563  54.0049486
  50.6315451  25.1078760  55.3562296  50.4213896  25.4622355  54.6901350
  46.6605300  24.3432269  54.0742450  46.7003671  24.8441476  54.7877157
  45.8354964  24.4342663  53.8048373  46.5444826  24.4314085  54.1392988
  48.8434912  33.9093009  62.1762745  47.9930543  34.0464723  62.3120389
  49.0063040  33.1756787  62.6210446  48.7418776  33.8207110  62.2618344
  48.0819663  30.8592779  56.3716349  47.2511593  31.0266597  56.1651597
  48.0271180  30.4828730  57.1565234  47.9509078  30.8282510  56.4564877
  45.8903446  24.3501672  62.0072760  46.5156150  23.8063805  62.2802192
  45.4353926  23.8696589  61.4380550  45.9151707  24.1991153  61.9634354
  59.4638495  32.5330959  57.0985408  60.0556335  33.1728209  57.1303606
  59.8997489  31.8353995  57.3877475  59.6156926  32.5249309  57.1466240
  51.2931885  36.9548331  57.7243302  50.7856976  37.5084178  58.1683932
  50.9958531  37.0156621  56.9062076  51.1736770  37.0454642  57.6691758
  53.4594067  25.3201651  56.5667965  53.8849139  24.8674177  55.9551491
  52.8451060  24.7661721  56.8432752  53.4322712  25.1715627  56.5172990
  51.8988290  21.7916751  49.9758542  51.2556608  21.6414397  50.5443680
  51.5587697  21.5459096  49.2107646  51.7533367  21.7328873  49.9461557
  56.4887636  29.7476177  49.3988550  55.8178826  30.2905880  49.2701616
  57.1827387  30.2171033  49.1570245  56.4916504  29.8974449  49.3444078
  56.6515764  26.2032061  52.3078923  57.0043374  25.7761784  52.9824722
  55.7930565  26.1182905  52.4380000  56.5765208  26.1276802  52.4273934
  54.6499030  29.4667430  56.2563766  54.6296957  29.2850725  57.1098545
  54.6978230  30.3379448  56.2323349  54.6533671  29.5683968  56.3787060
  52.5945359  36.0554622  62.1812242  52.5541214  35.4104299  61.5957398
  53.4068678  35.9991239  62.4937654  52.7088513  35.9513588  62.1409191
  51.1246023  27.8737581  45.7035149  50.5310862  28.1954577  45.1519716
  51.1621301  27.0278676  45.4956256  51.0420412  27.7961909  45.5917921
  54.0003840  27.8317085  49.1336900  53.7717533  27.8549787  48.2915258
  54.2601916  27.0074552  49.2531910  54.0050028  27.7133165  49.0262097
  48.2823068  29.6851558  58.7362000  47.7701971  29.0772741  59.0947031
  48.1102564  30.4008151  59.2035976  48.1812705  29.7014857  58.8578224
  43.1288783  28.1289133  61.3864362  42.9591373  28.7890508  60.8412568
  42.6854733  28.3395695  62.1076851  43.0388116  28.2575116  61.4125991
  47.0548602  26.3693631  50.4291095  47.5305969  26.7310711  49.7941276
  46.5537202  27.0250099  50.7091238  47.0513961  26.5187820  50.3767836
  60.2859964  35.8415399  46.2204100  60.6693570  36.5906756  46.4502197
  59.4904077  36.0881219  45.9616089  60.2253746  35.9885093  46.2161674
  52.1592139  27.6075803  61.1764255  52.7163569  27.3789612  60.5442721
  51.8353204  28.3681468  60.8999468  52.1938549  27.6859639  61.0420753
  40.0290847  31.0335999  56.6452851  39.4817567  30.3636645  56.7633720
  40.8183226  30.6665847  56.7096319  40.0643031  30.8800985  56.6721552
  49.8775256  30.6943456  62.1416263  50.6286583  31.0095133  62.4555817
  50.0697832  30.4922627  61.3150184  50.0166670  30.7110838  62.0659658
  56.7260546  26.8217022  49.3840058  56.7254772  26.6665679  50.2424334
  56.5216726  27.6680009  49.3281444  56.6960324  26.9237643  49.5027997
  38.7877817  30.2456807  53.7998875  38.6099578  29.7933416  54.5253790
  38.4996839  31.0482968  53.9837352  38.7190770  30.2979365  53.9342377
  54.4501398  31.5014524  53.0376265  54.9455063  30.7837519  52.9980285
  53.6401174  31.1985322  52.9230752  54.4045291  31.3512170  53.0149991
  56.5153217  34.2518212  55.7253394  56.9408288  33.7292634  55.1723819
  56.1510137  34.8499049  55.2042017  56.5239819  34.2628439  55.5662403
  55.1908801  39.5753789  64.2346623  55.3005766  38.7862350  64.5903370
  55.5199697  39.4859726  63.4320961  55.2561207  39.4459642  64.1689014
  50.0201311  22.7379947  59.0112646  50.1529217  21.9410940  59.3393621
  50.4046464  23.2646350  59.5910921  50.0957640  22.6979863  59.1456149
  53.7405763  37.7570410  58.8182244  53.1926709  37.1328294  58.5502309
  54.2018791  37.9464682  58.1026323  53.7272972  37.6929460  58.6732675
  53.0933666  19.6610273  55.6093739  52.2879630  19.5508002  55.9261577
  52.9640402  19.7622728  54.7523605  52.9553799  19.6593943  55.5301780
  56.5499627  25.8255765  56.2033436  55.9662616  26.3264971  55.7911003
  56.8703921  25.3185321  55.5697759  56.5112802  25.8247600  56.0491943
  47.6789758  22.7339122  57.2590540  48.2234171  22.3930248  57.8494881
  47.7326694  23.5924583  57.4011824  47.7678877  22.8094381  57.3672413
  53.3064089  38.7621483  55.3491585  54.1262463  38.6184449  55.6107880
  53.0258167  39.3867682  55.8908023  53.3860832  38.8331835  55.4679524
  69.7777739  46.4186334  48.3134461  69.7471744  47.2730971  48.4852731
  70.3759088  46.1181627  48.8720605  69.8614897  46.5002831  48.4209264
  62.9777424  45.5061985  53.0687392  62.1215320  45.6670484  53.1196508
  63.0245078  44.6354049  53.0892453  62.8576536  45.4012787  53.0793458
  57.3618564  55.0424703  48.8324623  56.6101463  54.6640242  48.6040668
  57.8104576  55.0743137  48.0843434  57.3168231  54.9910311  48.6882125
  66.2871141  51.7748511  62.6747848  66.9937908  51.2800542  62.8034782
  66.4759076  52.2157593  61.9450506  66.4199046  51.7666861  62.5856893
  62.3547815  57.4164342  50.2021282  62.7387194  57.9851240  49.6626057
  62.2906956  56.6913852  49.7227098  62.4021242  57.3939805  50.0515144
  65.8229245  47.5654029  55.7119043  66.3685205  48.2439116  55.7713013
  65.7646121  47.4241490  54.8520625  65.8945160  47.6446031  55.5931104
  58.9403320  55.0543096  51.0987396  59.0413683  54.2443449  51.4084524
  58.3445065  54.9600042  50.4687074  58.8675859  54.9208124  51.0513634
  67.5994314  48.9938637  46.5852771  67.4833840  49.7446323  47.0144909
  68.3950201  48.7362590  46.8348858  67.6998903  49.0673483  46.6856863
  58.7804060  59.9720685  52.5002252  59.4241515  60.4133849  52.8898410
  59.1060315  59.1674111  52.4132511  58.9235888  59.9185879  52.5447729
  59.4824639  52.9832660  47.8722114  59.8040480  53.5237867  47.2683422
  60.1296736  52.4129431  48.0044403  59.6250695  52.9791835  47.8029149
  61.7214283  51.3719100  47.9436292  62.1607918  50.7636200  48.3891064
  61.5718946  50.9926473  47.1721757  61.7635748  51.2257571  47.8955459
  59.1885926  49.9663111  55.1455117  59.8334928  49.4735554  54.8266066
  59.4287703  50.1087898  55.9721195  59.3196511  49.9140554  55.2204650
  61.7272017  52.8118017  54.7962010  62.0095260  52.0169423  54.5748766
  62.4558178  53.2898605  54.8167071  61.8761581  52.7652614  54.7665025
  59.7053211  40.3541051  52.0377775  59.3756541  40.8052195  51.3681474
  59.0298213  40.2757214  52.5850781  59.5563647  40.4092186  52.0200998
  65.3223619  49.7246281  44.8967061  65.2374914  50.5807247  45.0416630
  65.8108003  49.4490605  45.5649220  65.3812517  49.8103602  45.0169142
  66.9129619  36.3426574  50.2827386  66.5983060  37.0330053  50.7147808
  66.3956560  36.2871356  49.5812886  66.7894089  36.4361463  50.2424335
  66.2542053  46.3431075  46.3964796  65.7253524  46.5590708  47.0562102
  66.7767073  47.0367213  46.3165765  66.2530506  46.4774212  46.4820395
  71.7090105  51.9177379  51.7697841  70.8787809  52.1288023  51.9331257
  71.6599358  51.0914434  51.4940124  71.5796841  51.8266986  51.7535206
  53.6985689  55.9549053  51.9995936  53.2153267  56.6799543  51.9755519
  54.5109007  56.2525183  52.1106093  53.7476437  56.1051407  52.0123215
  59.7699843  54.7481234  54.6045750  59.2526785  54.3888649  54.0007058
  60.4674234  54.2243408  54.6151816  59.7965424  54.6178922  54.5176009
  63.4263435  55.1976048  60.5661923  63.5146781  55.0102188  61.4140133
  63.8553148  54.5513477  60.1666770  63.5025537  55.0739055  60.6333675
  60.9933895  54.4807208  59.5479585  60.4304730  54.0679817  60.0719246
  61.7554918  54.4060113  59.9672729  61.0228343  54.4084608  59.6872586
  56.5529886  56.4705229  52.1516215  57.2550466  55.9557218  52.2088972
  56.4727369  56.7979380  52.9563091  56.6453647  56.4419455  52.2789008
  71.2044064  44.5647780  55.5648262  70.3672485  44.6349967  55.7995856
  71.1732295  44.5672275  54.6922564  71.0762346  44.5758007  55.4707810
  57.6008793  46.7080816  61.2796631  57.7729297  46.5986710  62.1281912
  58.1378150  47.3535221  61.0427823  57.7053797  46.7872817  61.3701727
  56.5033365  53.0812456  55.9615129  57.0431590  52.9383587  56.6318501
  55.8203311  53.4809207  56.3299155  56.4825519  53.1192127  56.1149551
  61.9465949  37.8250069  47.2527859  62.6752109  37.6466024  46.8066016
  62.0360842  38.6668149  47.4635038  62.0672611  37.9233948  47.2181377
  65.9274250  48.7603457  51.1560153  66.6831765  49.1934971  51.1949062
  66.0336574  48.1108226  51.7294789  66.0544420  48.7280940  51.2458179
  68.9654421  52.5876734  51.9062556  68.5289653  52.5913476  52.6621528
  68.6317336  53.2682233  51.4742134  68.8517041  52.6889190  51.9543389
  63.5383494  54.6285067  63.2305707  64.3223911  54.7415914  63.5961449
  63.3380089  53.8026204  63.4264392  63.6249520  54.5231786  63.3140093
  68.8851904  39.6290562  54.1491984  69.5277812  39.6988666  54.7353900
  69.1374924  38.9619785  53.6471526  69.0174036  39.5416910  54.1619264
  63.6953888  56.5395169  56.8772162  62.8969133  56.2994669  57.1346031
  64.1439899  56.5909562  57.6239210  63.6428499  56.5117560  57.0257086
  72.0998767  49.3057654  50.7982194  72.7615201  48.7448322  50.6978102
  71.4590179  48.8109684  51.1234885  72.1027634  49.1494063  50.8314534
  62.9875575  52.6027785  43.1063117  63.4026723  52.2712809  42.4147613
  62.1567504  52.3696687  42.9783253  62.9263583  52.5199041  42.9853964
  68.3863598  50.3223036  50.5394182  68.6219187  50.4668235  49.7121033
  68.5353161  51.0865444  50.9325696  68.4429401  50.4562091  50.4757786
  70.2154054  49.1624702  48.3763786  70.5462271  49.6952342  47.7703881
  70.7887142  49.2163590  49.0325737  70.3487733  49.2494271  48.3841568
  62.7554625  50.2855614  64.7692350  61.9627605  50.5999125  64.9544970
  62.8703552  50.5007082  63.9313135  62.6550035  50.3639450  64.6730685
  65.4285943  47.0089605  49.0587366  65.5232798  47.7478899  49.5126992
  64.8044787  46.5807080  49.4921931  65.3494974  47.0550925  49.1895514
  63.6838417  50.1875817  59.7077647  64.2577279  49.5503062  59.8626211
  63.6053221  50.1879900  58.8387305  63.7571652  50.0940929  59.6024058
  65.6808965  48.8538345  42.2924318  65.5989127  48.9240532  43.1579305
  66.3188685  49.4168088  42.1008059  65.7628802  48.9477316  42.3914268
  59.0402136  48.6199083  51.7598845  58.7821380  47.7870817  51.7330144
  59.0950619  48.8456695  50.9191345  59.0101914  48.5296854  51.6318981
  64.1203186  40.7227533  51.8602937  63.4159513  40.2336719  52.0186856
  64.1688160  40.7350008  50.9891382  64.0233238  40.6517181  51.7542277
  61.6810137  44.6460194  57.1056118  61.2924569  44.2214412  56.4508309
  61.0164835  44.8942344  57.6133144  61.5257065  44.6198915  57.0843986
  71.3233406  44.4035199  49.8803948  71.0669971  43.5915140  49.6901831
  72.1662720  44.4112766  49.6534135  71.4099431  44.2847196  49.8188765
  69.0058565  51.5584795  59.7162500  68.7697203  50.7272860  59.5974561
  69.6501794  51.5070402  60.3017345  69.0653236  51.4282483  59.7848394
  58.6556983  52.3480316  50.4305237  59.2930930  52.1092064  50.9757030
  59.0812055  52.5517475  49.6958397  58.8133149  52.3431327  50.4022394
  53.3469626  54.5868653  54.3139541  53.3873771  54.8583504  53.4859320
  53.9064150  55.1110561  54.7297328  53.4352972  54.7044408  54.2531429
  59.4628339  40.8489021  64.4842710  59.1481780  41.6188584  64.2212273
  59.1418271  40.2859277  63.8994937  59.3687258  40.8799290  64.3584060
  70.0294986  51.3429244  55.7790795  69.7240803  52.0757301  56.1404110
  69.3101201  50.9367173  55.4983581  69.8782328  51.3910977  55.7903932
  61.0378455  52.8252739  52.1099023  61.1117463  52.6627911  52.9640873
  61.8547962  53.0142929  51.8659505  61.1694814  52.8289481  52.1997049
  75.7296778  47.9822244  55.1059139  75.6621278  48.0018204  54.2361726
  75.7152440  48.8252572  55.3314810  75.7175534  48.1095979  55.0111616
  66.1393124  39.3857402  58.4300229  66.8846716  39.1967213  58.0163654
  65.7230429  39.9115640  57.8714085  66.1878099  39.4359548  58.2864802
  59.5783041  55.7887482  46.8412496  59.8681339  55.3976463  46.1171723
  60.3086522  55.9704187  47.2817772  59.7289925  55.7581296  46.7995303
  73.5155395  46.7566631  53.3805734  74.0663317  46.1234700  53.6202826
  73.4999511  47.2882023  54.0721238  73.5940592  46.7415579  53.5184592
  60.1677786  50.5905228  57.9265627  59.6689480  51.3020996  58.0050515
  60.9778010  50.9105894  57.8883789  60.2133893  50.7432077  57.9322195
  57.5188957  57.7654864  49.9072646  57.2989252  57.4752219  50.6999313
  57.2983479  57.1069819  49.3790559  57.4536551  57.6254573  49.9461555
  67.2183801  44.9962964  52.4910330  66.8748567  44.2753300  52.8417579
  67.3176844  44.7876815  51.6488688  67.1825844  44.8587168  52.4182010
  59.6856912  59.1384254  48.6903339  60.3380970  58.6060697  48.9194365
  58.9882521  58.7852907  49.0771213  59.6787630  59.0073777  48.7815506
  67.6796831  51.4588668  48.0334318  68.2454863  52.1181878  47.9492861
  67.0324734  51.8038366  48.5050720  67.6675587  51.6070610  48.0907074
  59.0944844  43.4486272  63.2227925  58.2844620  43.7544052  63.1117767
  59.5719531  44.1691855  63.3380509  59.0448323  43.6000873  63.2234996
  57.9536404  52.6631993  53.4710828  57.4317157  52.8032285  54.1562693
  58.3410424  51.9042658  53.6612946  57.9340105  52.5717517  53.6011905
  64.1503409  54.4027453  47.4571397  63.9090085  53.6695313  47.0498462
  64.3304742  54.9514310  46.8037730  64.1411033  54.3749844  47.3001620
  59.3802729  49.6936012  48.8692319  59.1845512  50.3010747  48.2752622
  59.6037075  49.0003956  48.3883993  59.3837370  49.6813538  48.7108400
  65.7374767  42.9154549  54.3669873  64.8985868  42.9415828  54.1308136
  65.8079134  43.5625285  54.9475219  65.6243160  43.0150675  54.4178989
  64.1844045  39.8139926  49.0997489  64.8870398  39.6147674  48.6217447
  63.9188234  39.0415868  49.4066332  64.2490677  39.6702892  49.0742930
  69.6132291  48.1222536  51.6531114  69.5266265  48.2777962  52.5065893
  69.1582771  48.7660611  51.2790519  69.5335547  48.2398291  51.7238221
  58.9472601  41.0775211  58.1528369  58.7555798  41.0930346  59.0027793
  59.7971197  41.2738886  58.1295024  59.0448323  41.1089562  58.2751664
  63.4858107  45.4433283  50.2756674  63.2392821  45.3629034  51.1093463
  63.8143230  44.6586751  50.0819201  63.4979350  45.3159548  50.3704197
  67.3806156  52.1516642  54.0643455  67.2420515  52.8497688  54.5692198
  66.6006153  51.9965299  53.7079637  67.2449382  52.2316809  54.0869729
  65.7184241  48.4513018  60.3165837  65.7132279  47.5792834  60.3208263
  66.4245235  48.6501187  59.8435293  65.8229245  48.3516892  60.2472872
  59.4455134  48.1790002  59.6879657  59.5898510  48.7591210  59.0522767
  59.7930783  48.5566298  60.3929512  59.5182595  48.3210706  59.6978652
  61.6175051  47.3780170  57.4704789  60.8698365  47.5711184  57.0653067
  61.7716577  46.5525389  57.2328910  61.5297479  47.2845281  57.3750194
  58.5182889  56.3692773  56.5540684  58.6672453  55.8095689  55.9014088
  59.2982891  56.4484775  56.9373203  58.6556983  56.2978339  56.5137633
  68.8759528  51.5094896  44.8259954  68.4966337  50.7232034  44.8189244
  68.2125774  52.0581753  44.6831599  68.7218003  51.4739720  44.8040751
  61.0436190  56.5407416  57.8325175  60.9679861  55.8716227  58.3875963
  60.9726049  57.2425204  58.3465841  61.0216797  56.5452324  57.9902023
  61.8576828  41.2730721  58.3600192  62.3149443  42.0054695  58.4872985
  61.9333157  40.8497186  59.1187448  61.9367798  41.3187959  58.4901269
  66.3304154  34.4520596  52.2294035  66.4487722  34.9097059  51.4961338
  66.1566330  33.6465857  51.9430253  66.3223325  34.4014368  52.0794969
  61.7006437  55.0608415  48.6648781  62.4656328  54.7918059  48.3431445
  61.5984527  54.5758425  49.3818843  61.7987932  54.9497980  48.7228608
  59.7359206  43.2632825  55.2042016  58.9455281  43.0824285  55.5259352
  60.1319829  42.4859777  55.1872311  59.6776083  43.1220285  55.2494565
  64.2225097  52.0920599  40.6448730  64.9898082  52.1520724  40.2354582
  63.7756406  51.5201040  40.1605048  64.2698524  52.0157175  40.5126440
  65.1202893  50.8975255  52.9301462  64.4447894  50.6660487  53.4314849
  65.1295269  50.2896438  52.3043567  65.0221397  50.7734180  52.9117614
  62.2497037  45.7393084  59.6865515  62.1856178  46.6003040  59.5585652
  62.3894224  45.4225077  58.8861067  62.2612507  45.8193250  59.5493728
  67.1219627  53.7540387  45.1611640  67.2039465  54.5607373  44.8373091
  67.6069369  53.7736346  45.8852414  67.2056785  53.8761049  45.2198539
  60.9316131  48.4325223  53.8281718  60.5078380  48.6329722  53.0920736
  60.7560986  47.5854071  53.9406018  60.8427011  48.3374004  53.7355408
  60.4327824  59.9475736  56.2903175  60.9223754  59.2486525  56.1078840
  59.8612056  59.6499606  56.8779233  60.4212354  59.8001960  56.3504216
  66.6294828  52.5137805  65.2429966  67.4429693  52.2422954  65.4035099
  66.4689794  52.2145345  64.4390162  66.7264776  52.4292731  65.1475372
  60.9264170  53.6952510  45.4143082  60.9956990  52.8367048  45.5536082
  61.7052625  53.9124390  45.0862106  61.0517020  53.6005374  45.3860239
  63.9066990  43.1971463  58.1825354  64.1208959  42.5582377  57.6288708
  63.2900889  43.6417286  57.7533216  63.8472319  43.1681606  58.0375785
  65.3171657  56.1190211  49.6279575  64.9251449  55.8156926  48.9102441
  65.4724730  56.9559301  49.4384529  65.2825247  56.1974048  49.4936072
  66.0706078  44.8060528  59.1208661  65.2582759  44.4986418  59.2021834
  66.5296012  44.3259528  59.6851374  66.0186462  44.6897020  59.2163256
  65.4811332  52.6840200  49.5685606  65.1225987  52.8554843  50.3449638
  64.9950043  53.1453405  49.0113604  65.3570029  52.7779171  49.6010875
  63.2981718  36.3071398  53.1712697  62.4275276  36.2810119  53.1246007
  63.5522059  36.1348590  52.3538543  63.2075278  36.2781542  53.0432834
  63.1659585  46.2120599  63.9037364  63.6359216  46.8362716  64.2905238
  63.2121465  45.5437575  64.4630578  63.2427461  46.2055279  64.0437435
  60.3230859  38.3177627  54.6286168  59.8069347  37.6257818  54.7537747
  59.7624788  38.9848404  54.5748766  60.1637372  38.3140884  54.6392234
  62.3923092  38.8570587  56.4579020  62.0054845  38.8819618  57.2392550
  61.9056029  38.2912265  56.0053537  62.2635601  38.7766338  56.5066924
  66.6416072  53.5744096  60.5152807  67.2795792  53.0804291  60.1815263
  65.9990163  53.5021496  59.9305033  66.6410298  53.4903104  60.3795162
  68.3673072  45.4233242  55.0818722  67.9400680  45.3359590  54.3266822
  67.7299125  45.5311017  55.6673566  68.2102679  45.4265901  55.0564164
  62.0580234  35.7437572  58.7489280  62.6873352  36.2797872  58.4710350
  62.2266097  35.6514931  59.6002846  62.1758028  35.8098934  58.8337808
  61.8594149  40.5308767  61.0215692  62.6867578  40.2593916  61.0774306
  61.8801995  41.3269609  61.3779510  61.9846999  40.6088521  61.0830875
  66.6970328  54.2663904  57.1558163  67.4862706  53.9152969  57.2760245
  66.8713926  55.0800292  56.8934797  66.8390610  54.3349761  57.1346031
  56.4363639  47.6772630  54.2085952  55.5951645  47.5776504  54.4164846
  56.6453646  48.4468110  54.5600273  56.3428331  47.7764673  54.2913267
  65.5504152  38.2773461  51.7174582  65.7553746  38.2095768  52.5631579
  65.2230576  39.0832282  51.6495759  65.5319400  38.3859401  51.8334237
  60.2480303  45.6054029  53.4583550  59.9443441  45.0510017  54.0593957
  59.5459724  45.7846239  52.9711584  60.0996513  45.5498811  53.4753255
  58.3098654  52.8203750  58.1655648  58.2019009  52.8305812  59.0317706
  58.5194436  53.6458530  57.9760601  58.3248765  52.9444824  58.2659739
  68.8037840  38.8305225  51.1977347  68.1912154  39.3175627  51.5831079
  68.9002015  38.1548716  51.7414998  68.7275738  38.8023534  51.3356205
  56.3272446  50.0716392  55.6277585  55.7360380  50.7125890  55.5980600
  57.0893470  50.4954009  55.6008885  56.3520707  50.2292230  55.6192732
  56.7233069  41.2318390  56.2945603  57.1834551  41.3057319  57.0320727
  56.7689176  42.0299644  55.9445424  56.7983625  41.3612537  56.3518359
  58.3716419  41.8985085  60.8617630  57.9801984  41.2518432  61.2973408
  58.5402282  42.4896520  61.4811885  58.3387329  41.8899352  61.0180336
  72.4462868  49.9022162  56.6254863  72.5045992  50.3508810  57.3714840
  71.8129336  50.3120974  56.1884943  72.3614163  50.0295896  56.6707412
  66.0861963  55.5225704  53.0609610  65.8881651  56.0116518  52.3665821
  65.4649674  55.7266945  53.6393743  65.9649527  55.6242242  53.0432833
  62.0649516  39.0860859  52.4351715  61.2185562  39.2583667  52.3093065
  62.0620649  38.2810203  52.7717544  61.9396666  38.9921888  52.4662842
  63.1347817  42.8636074  53.3013773  62.6607771  42.3377836  53.8119084
  63.5065953  42.3165547  52.7328635  63.1197706  42.7052070  53.2928920
  69.3984547  47.9238449  54.7120554  69.1582770  47.0844865  54.7162980
  69.8776555  48.0038616  55.4361327  69.4336731  47.8119849  54.8195356
  65.0631317  43.7572628  46.3639527  64.5354335  43.8401372  45.6745236
  65.5227025  44.4990500  46.3604172  65.0533167  43.8793291  46.2614222
  71.3989734  44.7039907  52.6649813  71.1599504  44.6635741  51.8270597
  71.5623636  45.5511059  52.7915534  71.3880038  44.8231992  52.5603295
  68.0035765  49.0889856  58.5954858  68.7269963  48.6362382  58.4165878
  67.7385727  49.3694522  57.8127186  68.0717038  49.0640824  58.4533573
  64.6168399  52.3276192  45.4949184  65.3402598  52.7934305  45.3513757
  64.1768990  52.3949801  44.7446781  64.6584091  52.4060029  45.3633965
  63.7854554  49.1873734  56.7449873  63.1711547  48.6431784  57.0398508
  64.3021839  48.6737971  56.2655689  63.7710217  49.0310143  56.7174101
  63.0250851  50.2578004  54.4794172  62.5978459  49.6327723  54.0459607
  63.0175796  49.9752926  55.3053179  62.9609992  50.1230785  54.5373999
  64.0833681  37.4604413  58.1033395  63.5874243  37.6568087  57.4124962
  64.8402743  37.8597081  57.9322197  64.1220506  37.5482147  57.9753532
  61.3536561  41.1346759  54.6936706  61.3779048  40.6006871  54.0049486
  61.6048035  40.6264067  55.3562296  61.3946480  40.9807663  54.6901350
  57.6337883  39.8617577  54.0742450  57.6736255  40.3626783  54.7877157
  56.8087548  39.9527971  53.8048373  57.5177409  39.9499393  54.1392988
  59.8167496  49.4278317  62.1762745  58.9663127  49.5650031  62.3120389
  59.9795624  48.6942095  62.6210446  59.7151360  49.3392418  62.2618344
  59.0552247  46.3778087  56.3716349  58.2244176  46.5451905  56.1651597
  59.0003764  46.0014038  57.1565234  58.9241661  46.3467818  56.4564877
  56.8636030  39.8686980  62.0072760  57.4888733  39.3249112  62.2802192
  56.4086510  39.3881897  61.4380550  56.8884290  39.7176461  61.9634354
  70.4371079  48.0516267  57.0985408  71.0288919  48.6913517  57.1303606
  70.8730073  47.3539303  57.3877475  70.5889510  48.0434617  57.1466240
  62.2664468  52.4733639  57.7243302  61.7589559  53.0269486  58.1683932
  61.9691115  52.5341929  56.9062076  62.1469353  52.5639950  57.6691758
  64.4326651  40.8386959  56.5667965  64.8581722  40.3859485  55.9551491
  63.8183644  40.2847029  56.8432752  64.4055296  40.6900935  56.5172990
  64.8772249  56.3896897  45.6547245  64.1601558  56.2157759  45.1894482
  65.5278986  56.1549469  45.1222731  64.8674099  56.3292689  45.5076463
  62.8720873  37.3102058  49.9758542  62.2289191  37.1599705  50.5443680
  62.5320280  37.0644404  49.2107646  62.7265951  37.2514181  49.9461557
  67.4620220  45.2661485  49.3988550  66.7911410  45.8091188  49.2701616
  68.1559970  45.7356341  49.1570245  67.4649087  45.4159757  49.3444078
  61.5106954  57.4058197  54.6300308  61.2872608  56.6477027  54.9984335
  61.0216797  57.4356218  53.9080748  61.4050403  57.2980422  54.5777049
  67.6248347  41.7217369  52.3078923  67.9775957  41.2947092  52.9824722
  66.7663149  41.6368212  52.4380000  67.5497792  41.6462110  52.4273934
  65.6231613  44.9852738  56.2563766  65.6029541  44.8036033  57.1098545
  65.6710814  45.8564756  56.2323349  65.6266254  45.0869276  56.3787060
  63.5677943  51.5739930  62.1812242  63.5273798  50.9289606  61.5957398
  64.3801261  51.5176547  62.4937654  63.6821097  51.4698896  62.1409191
  60.1585411  57.6258655  52.0837393  59.7445809  56.9632786  51.6941235
  60.8432785  57.7736514  51.5633087  60.1983782  57.5499314  51.9493890
  63.5250705  56.7848741  52.8361010  63.1266988  56.8951011  52.0681830
  62.9101924  56.9930807  53.4187569  63.3749594  56.8322309  52.8092309
  69.0572407  36.8435781  53.2363236  68.5503272  36.1364920  53.1684413
  69.8539841  36.5128970  53.3664312  69.0999647  36.6908932  53.2462231
  64.9736423  43.3502393  49.1336900  64.7450116  43.3735094  48.2915258
  65.2334500  42.5259860  49.2531910  64.9782611  43.2318473  49.0262097
  59.2555652  45.2036866  58.7362000  58.7434555  44.5958049  59.0947031
  59.0835148  45.9193459  59.2035976  59.1545289  45.2200165  58.8578224
  54.1021366  43.6474441  61.3864362  53.9323957  44.3075816  60.8412568
  53.6587316  43.8581003  62.1076851  54.0120700  43.7760423  61.4125991
  71.2592547  51.3600707  46.2204100  71.6426153  52.1092064  46.4502197
  70.4636661  51.6066527  45.9616089  71.1986330  51.5070401  46.2161674
  63.1324722  43.1261111  61.1764255  63.6896152  42.8974920  60.5442721
  62.8085787  43.8866776  60.8999468  63.1671132  43.2044947  61.0420753
  60.8507839  46.2128764  62.1416263  61.6019166  46.5280441  62.4555817
  61.0430416  46.0107935  61.3150184  60.9899254  46.2296146  62.0659658
  67.6993130  42.3402330  49.3840058  67.6987356  42.1850987  50.2424334
  67.4949310  43.1865317  49.3281444  67.6692907  42.4422951  49.5027997
  65.4233982  47.0199832  53.0376265  65.9187647  46.3022827  52.9980285
  64.6133757  46.7170630  52.9230752  65.3777875  46.8697478  53.0149991
  67.4885800  49.7703520  55.7253394  67.9140872  49.2477941  55.1723819
  67.1242720  50.3684357  55.2042017  67.4972403  49.7813747  55.5662403
  57.1239880  58.0667737  54.4850739  57.4386439  58.8804126  54.4928521
  57.5333294  57.6817956  55.1532898  57.2307978  58.1296439  54.5854831
  64.0764400  53.4837784  52.0554551  64.5475578  54.1978046  52.2244536
  64.4124578  52.8836534  52.5914421  64.1959515  53.5009248  52.1586927
  66.1641384  55.0939097  64.2346623  66.2738350  54.3047658  64.5903370
  66.4932281  55.0045033  63.4320961  66.2293790  54.9644950  64.1689014
  60.9933895  38.2565254  59.0112646  61.1261800  37.4596248  59.3393621
  61.3779048  38.7831657  59.5910921  61.0690224  38.2165171  59.1456149
  64.7138346  53.2755718  58.8182244  64.1659292  52.6513602  58.5502309
  65.1751375  53.4649990  58.1026323  64.7005556  53.2114768  58.6732675
  64.0666250  35.1795581  55.6093739  63.2612214  35.0693310  55.9261577
  63.9372985  35.2808036  54.7523605  63.9286383  35.1779251  55.5301780
  67.5232211  41.3441072  56.2033436  66.9395199  41.8450279  55.7911003
  67.8436505  40.8370629  55.5697759  67.4845386  41.3432908  56.0491943
  58.6522342  38.2524430  57.2590540  59.1966755  37.9115556  57.8494881
  58.7059277  39.1109891  57.4011824  58.7411461  38.3279689  57.3672413
  54.4652900  52.0140846  54.1329348  55.0697758  51.9736680  53.5043168
  54.2580213  52.8611998  54.1633403  54.5241798  52.1328848  54.0445464
  64.2796673  54.2806791  55.3491585  65.0995046  54.1369757  55.6107880
  63.9990750  54.9052990  55.8908023  64.3593416  54.3517143  55.4679524
  73.9510008  61.0247293  53.0687392  73.0947903  61.1855792  53.1196508
  73.9977661  60.1539357  53.0892453  73.8309119  60.9198095  53.0793458
  68.3351147  70.5610011  48.8324623  67.5834047  70.1825550  48.6040668
  68.7837159  70.5928445  48.0843434  68.2900814  70.5095618  48.6882125
  76.7961829  63.0839337  55.7119043  77.3417789  63.7624424  55.7713013
  76.7378705  62.9426798  54.8520625  76.8677743  63.1631339  55.5931104
  69.9135904  70.5728403  51.0987396  70.0146267  69.7628757  51.4084524
  69.3177649  70.4785350  50.4687074  69.8408442  70.4393432  51.0513634
  63.1100948  66.5948690  50.7239729  62.8751132  65.7616342  50.6171998
  63.2486589  66.8753356  49.9100930  63.0956610  66.5132193  50.5882084
  65.4091035  58.7634421  53.6224037  64.7896067  58.1727068  53.4534052
  65.3074899  59.3545856  52.9888360  65.3028711  58.7638503  53.5029027
  70.4557223  68.5017967  47.8722114  70.7773064  69.0423175  47.2683422
  71.1029319  67.9314739  48.0044403  70.5983278  68.4977143  47.8029149
  72.5058931  60.5033962  47.9556500  73.2039096  60.6822090  48.4477963
  72.8211264  59.9804302  47.3326890  72.6554268  60.4527735  47.9358510
  65.1360168  62.3086702  55.8667606  65.0118865  62.8949148  56.5017425
  65.7878453  61.8146898  56.1679881  65.2133818  62.3225507  56.0053535
  72.6946866  66.8904407  47.9436292  73.1340502  66.2821508  48.3891064
  72.5451529  66.5111781  47.1721757  72.7368332  66.7442879  47.8955459
  70.1618509  65.4848419  55.1455117  70.8067512  64.9920862  54.8266066
  70.4020286  65.6273206  55.9721195  70.2929094  65.4325861  55.2204650
  72.7004601  68.3303325  54.7962010  72.9827844  67.5354731  54.5748766
  73.4290761  68.8083913  54.8167071  72.8494164  68.2837922  54.7665025
  70.6785795  55.8726359  52.0377775  70.3489125  56.3237503  51.3681474
  70.0030796  55.7942522  52.5850781  70.5296231  55.9277494  52.0200998
  76.2956203  65.2431589  44.8967061  76.2107498  66.0992555  45.0416630
  76.7840586  64.9675913  45.5649220  76.3545100  65.3288910  45.0169142
  77.8862202  51.8611882  50.2827386  77.5715643  52.5515361  50.7147808
  77.3689144  51.8056664  49.5812886  77.7626673  51.9546771  50.2424335
  77.2274636  61.8616383  46.3964796  76.6986108  62.0776016  47.0562102
  77.7499656  62.5552521  46.3165765  77.2263089  61.9959520  46.4820395
  69.1174244  65.7579600  45.1972264  68.5331459  66.2629631  45.6038128
  68.7144339  65.5321987  44.4568856  68.9713548  65.7987848  45.1477289
  64.6718273  71.4734361  51.9995936  64.1885851  72.1984850  51.9755519
  65.4841591  71.7710491  52.1106093  64.7209020  71.6236715  52.0123215
  70.7432427  70.2666542  54.6045750  70.2259368  69.9073957  54.0007058
  71.4406818  69.7428716  54.6151816  70.7698008  70.1364229  54.5176009
  73.5751458  62.0045252  43.6741185  73.8147462  62.2123235  42.8616528
  73.8967299  61.2002760  43.7830129  73.6588616  61.9159353  43.5701738
  68.8841749  53.9338647  47.5200723  69.6387717  54.3016965  47.2817773
  68.7069283  54.3078202  48.2879902  68.9696227  54.0436835  47.5985611
  67.5262470  71.9890537  52.1516215  68.2283049  71.4742526  52.2088972
  67.4459953  72.3164688  52.9563091  67.6186230  71.9604763  52.2789008
  68.5741376  62.2266124  61.2796631  68.7461880  62.1172018  62.1281912
  69.1110734  62.8720529  61.0427823  68.6786380  62.3058125  61.3701727
  67.2398813  56.3408966  44.2178836  67.0574387  56.5580847  43.3919828
  68.1024426  56.4547979  44.2737450  67.3403403  56.3898864  44.1033323
  66.8513245  68.1796889  51.6601823  67.6902145  68.4119821  51.7075585
  66.8825014  67.3101200  51.5908859  66.9794963  68.0853835  51.6566468
  67.4765948  68.5997764  55.9615129  68.0164173  68.4568895  56.6318501
  66.7935895  68.9994515  56.3299155  67.4558102  68.6377435  56.1149551
  72.9198532  53.3435377  47.2527859  73.6484693  53.1651332  46.8066016
  73.0093425  54.1853457  47.4635038  73.0405195  53.4419256  47.2181377
  76.9006833  64.2788765  51.1560153  77.6564348  64.7120279  51.1949062
  77.0069158  63.6293534  51.7294789  77.0277004  64.2466248  51.2458179
  62.8803093  64.8198055  56.1149551  62.6141509  64.0037171  56.2740541
  62.8941657  64.8651210  55.2445066  62.8427816  64.7054959  56.0103032
  66.7860840  59.6183139  42.7301309  66.0719017  59.3321319  43.1423741
  67.2704809  59.9579765  43.3707696  66.7520204  59.6264789  42.8856944
  67.6301700  58.3576433  58.7616558  66.9373496  57.8873413  59.0077290
  68.2462027  58.1314737  59.3358265  67.6186230  58.2543565  58.8825711
  73.9608158  68.1213093  43.1063117  74.3759307  67.7898117  42.4147613
  73.1300088  67.8881995  42.9783253  73.8996167  68.0384349  42.9853964
  63.2896507  65.6056834  53.3961295  63.1072080  65.5803720  52.5433587
  64.0246176  66.0755772  53.4350204  63.3710571  65.6718196  53.2759213
  66.3542259  62.3241837  59.9043403  67.0782231  62.3094868  60.3908298
  66.4558395  63.0337192  59.4065372  66.4760468  62.4266540  59.9022190
  76.4018527  62.5274913  49.0587366  76.4965381  63.2664207  49.5126992
  75.7777371  62.0992388  49.4921931  76.3227557  62.5736233  49.1895514
  63.2567417  62.4850335  53.5460361  63.8340920  62.3486786  54.1852607
  62.5581479  62.0286119  53.8005946  63.2388439  62.3972601  53.6782651
  76.6541548  64.3723653  42.2924318  76.5721711  64.4425840  43.1579305
  77.2921269  64.9353396  42.1008059  76.7361386  64.4662624  42.3914268
  70.0134720  64.1384390  51.7598845  69.7553964  63.3056125  51.7330144
  70.0683202  64.3642003  50.9191345  69.9834497  64.0482162  51.6318981
  75.0935770  56.2412841  51.8602937  74.3892096  55.7522027  52.0186856
  75.1420744  56.2535316  50.9891382  74.9965821  56.1702489  51.7542277
  68.9869432  61.6922153  52.2463739  68.4119023  61.8514321  52.8827700
  68.6105108  61.0557562  51.7832190  68.8472244  61.6219966  52.2718298
  72.6542720  60.1645502  57.1056118  72.2657153  59.7399720  56.4508309
  71.9897419  60.4127652  57.6133144  72.4989648  60.1384223  57.0843986
  58.7326251  61.3362228  50.2608180  58.8186502  60.9594096  51.0421710
  59.3602048  60.9622673  49.7828138  58.8382802  61.2247710  50.3053657
  76.4769082  53.8620131  54.6180102  76.8579594  53.1798302  55.0047976
  75.6732366  53.5729733  54.4355766  76.4145544  53.7187179  54.6484158
  73.7581659  64.3944107  45.3032925  74.5722297  64.6859000  45.1915696
  73.6940800  63.7403969  44.7291218  73.8684398  64.3409302  45.2021762
  69.6289567  67.8665624  50.4305237  70.2663514  67.6277372  50.9757030
  70.0544638  68.0702783  49.6958397  69.7865733  67.8616634  50.4022394
  64.3202209  70.1053961  54.3139541  64.3606354  70.3768812  53.4859320
  64.8796733  70.6295869  54.7297328  64.4085555  70.2229716  54.2531429
  70.2692382  63.0867914  44.7680126  70.6537535  62.8675621  45.5196671
  70.0204002  63.9130859  44.8981203  70.2894454  63.1766060  44.8981203
  70.4360922  56.3674329  64.4842710  70.1214363  57.1373892  64.2212273
  70.1150855  55.8044585  63.8994937  70.3419841  56.3984598  64.3584060
  72.0111039  68.3438047  52.1099023  72.0850047  68.1813219  52.9640873
  72.8280545  68.5328236  51.8659505  72.1427397  68.3474789  52.1997049
  65.7716795  68.6895910  49.1393467  64.9454913  68.9357647  49.0127745
  65.8328787  68.6107991  50.0055525  65.6590962  68.7140859  49.2482411
  67.9892819  54.7564851  50.0988907  67.1215245  54.8287450  50.1646516
  68.2768024  55.5586930  50.2876882  67.9032567  54.8858998  50.1363673
  77.1125708  54.9042710  58.4300229  77.8579300  54.7152520  58.0163654
  76.6963013  55.4300948  57.8714085  77.1610682  54.9544855  58.2864802
  70.5515624  71.3072790  46.8412496  70.8413923  70.9161771  46.1171723
  71.2819105  71.4889495  47.2817772  70.7022509  71.2766604  46.7995303
  71.1410370  66.1090536  57.9265627  70.6422063  66.8206304  58.0050515
  71.9510594  66.4291202  57.8883789  71.1866476  66.2617384  57.9322195
  68.4921540  73.2840172  49.9072646  68.2721835  72.9937527  50.6999313
  68.2716062  72.6255127  49.3790559  68.4269134  73.1439881  49.9461555
  67.4038487  65.3713489  52.1728348  67.1151736  64.7450960  52.7074075
  68.2721835  65.3133776  52.2393028  67.4898739  65.2701033  52.2619302
  78.1916385  60.5148272  52.4910330  77.8481151  59.7938607  52.8417579
  78.2909428  60.3062123  51.6488688  78.1558428  60.3772475  52.4182010
  67.6070761  67.0108740  48.0970713  68.3616729  67.3921779  48.3106175
  67.0141373  67.4619884  48.5517409  67.6307474  67.1337567  48.1953591
  70.0677428  58.9671580  63.2227925  69.2577203  59.2729360  63.1117767
  70.5452114  59.6877163  63.3380509  70.0180906  59.1186181  63.2234996
  68.9268987  68.1817301  53.4710828  68.4049741  68.3217593  54.1562693
  69.3143008  67.4227966  53.6612946  68.9072688  68.0902825  53.6011905
  65.9160171  58.2323110  47.5405783  65.6284967  57.8624380  46.8037730
  66.6030640  58.7017965  47.2789488  65.9749069  58.2470079  47.3920859
  70.3535313  65.2121320  48.8692319  70.1578096  65.8196055  48.2752622
  70.5769658  64.5189264  48.3883993  70.3569954  65.1998846  48.7108400
  68.7513843  62.0976058  48.9873188  69.4736495  62.2617216  48.5276994
  68.2721836  62.8185723  48.8812527  68.7877574  62.2274288  48.9038802
  76.7107350  58.4339857  54.3669873  75.8718451  58.4601136  54.1308136
  76.7811718  59.0810592  54.9475219  76.5975744  58.5335983  54.4178989
  66.4021460  64.5034131  58.0927328  66.9142557  64.7818384  57.4436087
  66.1157802  65.2423425  58.4590141  66.4356323  64.6536484  58.0517206
  75.1576629  55.3325234  49.0997489  75.8602982  55.1332982  48.6217447
  74.8920817  54.5601176  49.4066332  75.2223261  55.1888200  49.0742930
  63.4888366  59.0104322  48.3891064  63.5904502  59.8130484  48.7172039
  64.2844253  58.8091658  48.0914145  63.6216272  59.0990221  48.3926419
  69.9205185  56.5960519  58.1528369  69.7288382  56.6115654  59.0027793
  70.7703781  56.7924193  58.1295024  70.0180907  56.6274870  58.2751664
  64.3052098  59.1251501  56.1312186  64.1637590  58.2735441  56.2556694
  64.5892661  59.1680161  55.3074392  64.3259944  59.0051251  56.0279810
  74.4590690  60.9618591  50.2756674  74.2125405  60.8814342  51.1093463
  74.7875813  60.1772059  50.0819201  74.4711934  60.8344856  50.3704197
  70.4187718  63.6975309  59.6879657  70.5631093  64.2776518  59.0522767
  70.7663366  64.0751606  60.3929512  70.4915179  63.8396013  59.6978652
  72.5907635  62.8965478  57.4704789  71.8430949  63.0896492  57.0653067
  72.7449160  62.0710697  57.2328910  72.5030063  62.8030589  57.3750194
  72.8309412  56.7916029  58.3600192  73.2882026  57.5240003  58.4872985
  72.9065741  56.3682494  59.1187448  72.9100382  56.8373267  58.4901269
  65.0742403  57.0381848  59.4489636  64.5384593  56.4262206  59.7650403
  65.1360168  57.6129984  60.1023303  65.0038036  57.0328776  59.5925063
  77.3036738  49.9705904  52.2294035  77.4220306  50.4282367  51.4961338
  77.1298914  49.1651165  51.9430253  77.2955909  49.9199676  52.0794969
  72.6739020  70.5793723  48.6648781  73.4388911  70.3103367  48.3431445
  72.5717110  70.0943733  49.3818843  72.7720516  70.4683288  48.7228608
  70.7091790  58.7818132  55.2042016  69.9187865  58.6009593  55.5259352
  71.1052413  58.0045085  55.1872311  70.6508666  58.6405593  55.2494565
  75.1957681  67.6105907  40.6448730  75.9630666  67.6706032  40.2354582
  74.7488990  67.0386348  40.1605048  75.2431108  67.5342482  40.5126440
  76.0935476  66.4160563  52.9301462  75.4180478  66.1845795  53.4314849
  76.1027852  65.8081746  52.3043567  75.9953981  66.2919488  52.9117614
  73.2229620  61.2578392  59.6865515  73.1588761  62.1188348  59.5585652
  73.3626808  60.9410385  58.8861067  73.2345090  61.3378558  59.5493728
  71.9048714  63.9510531  53.8281718  71.4810963  64.1515030  53.0920736
  71.7293569  63.1039379  53.9406018  71.8159595  63.8559312  53.7355408
  67.1931159  64.4462582  49.2609691  67.3495778  64.3809385  50.1165683
  67.5331752  65.2211135  49.0488370  67.2664394  64.5511780  49.3564285
  73.7310304  63.8220466  48.1303054  74.2725849  63.3190847  48.5941674
  74.0456863  63.7685661  47.3192539  73.8574701  63.7399887  48.0786866
  71.8996753  69.2137817  45.4143082  71.9689574  68.3552356  45.5536082
  72.6785209  69.4309698  45.0862106  72.0249603  69.1190681  45.3860239
  74.8799573  58.7156770  58.1825354  75.0941543  58.0767685  57.6288708
  74.2633472  59.1602594  57.7533216  74.8204902  58.6866914  58.0375785
  63.7665421  61.6297533  49.5770458  64.1464385  62.0482078  48.9130725
  63.1920785  62.2110989  49.8839301  63.7376745  61.7775392  49.5247199
  77.0438661  60.3245836  59.1208661  76.2315343  60.0171726  59.2021834
  77.5028596  59.8444836  59.6851374  76.9919046  60.2082328  59.2163256
  76.4543916  68.2025508  49.5685606  76.0958570  68.3740150  50.3449638
  75.9682627  68.6638713  49.0113604  76.3302613  68.2964479  49.6010875
  74.2714302  51.8256706  53.1712697  73.4007860  51.7995427  53.1246007
  74.5254643  51.6533898  52.3538543  74.1807862  51.7966850  53.0432834
  71.2432281  63.8824673  42.1085840  71.5324806  64.6589556  42.3829414
  71.3304080  63.3713404  42.8100339  71.2986537  63.9216591  42.2528338
  71.2963442  53.8362935  54.6286168  70.7801931  53.1443126  54.7537747
  70.7357371  54.5033712  54.5748766  71.1369955  53.8326192  54.6392234
  73.3655676  54.3755895  56.4579020  72.9787429  54.4004926  57.2392550
  72.8788613  53.8097573  56.0053537  73.2368185  54.2951645  56.5066924
  73.0312817  51.2622880  58.7489280  73.6605935  51.7983180  58.4710350
  73.1998680  51.1700239  59.6002846  73.1490612  51.3284242  58.8337808
  72.8326732  56.0494075  61.0215692  73.6600162  55.7779224  61.0774306
  72.8534578  56.8454916  61.3779510  72.9579582  56.1273829  61.0830875
  67.4096222  63.1957938  54.2085952  66.5684229  63.0961812  54.4164846
  67.6186230  63.9653418  54.5600273  67.3160915  63.2949981  54.2913267
  64.8871789  60.8177475  52.0370703  64.4928487  60.8920486  51.2620813
  64.3311906  61.2035421  52.5879065  64.7474601  60.8859249  52.0038363
  76.5236736  53.7958769  51.7174582  76.7286329  53.7281076  52.5631579
  76.1963160  54.6017590  51.6495759  76.5051984  53.9044709  51.8334237
  71.2212887  61.1239337  53.4583550  70.9176025  60.5695325  54.0593957
  70.5192308  61.3031547  52.9711584  71.0729097  61.0684119  53.4753255
  70.2778984  58.4339857  48.0228252  70.5538718  57.7158769  47.6105819
  70.8777653  59.0324776  47.8149358  70.4072249  58.4160227  47.9309013
  69.2831238  68.3389057  58.1655648  69.1751593  68.3491120  59.0317706
  69.4927019  69.1643838  57.9760601  69.2981349  68.4630132  58.2659739
  73.7789505  56.1053374  46.2974847  74.2333251  56.2763934  47.0222691
  74.2529550  55.4921485  45.8972622  73.9157825  56.0404259  46.3448608
  67.3005030  65.5901700  55.6277585  66.7092963  66.2311198  55.5980600
  68.0626054  66.0139317  55.6008885  67.3253291  65.7477538  55.6192732
  67.6965653  56.7503698  56.2945603  68.1567134  56.8242627  57.0320727
  67.7421760  57.5484952  55.9445424  67.7716208  56.8797845  56.3518359
  69.3449003  57.4170393  60.8617630  68.9534568  56.7703740  61.2973408
  69.5134865  58.0081828  61.4811885  69.3119913  57.4084660  61.0180336
  71.1202525  62.8095908  47.4019854  71.8644570  63.1970185  47.6402804
  71.2663221  61.9653334  47.5660342  71.2513110  62.7426381  47.4613824
  73.0382100  54.6046167  52.4351715  72.1918145  54.7768975  52.3093065
  73.0353232  53.7995511  52.7717544  72.9129250  54.5107196  52.4662842
  74.1080400  58.3821382  53.3013773  73.6340355  57.8563144  53.8119084
  74.4798536  57.8350854  52.7328635  74.0930289  58.2237378  53.2928920
  64.4853431  60.3792888  58.6697319  65.3479044  60.2788598  58.5834649
  64.1545214  59.7987598  58.1082891  64.5638627  60.2784515  58.5742725
  76.0363900  59.2757936  46.3639527  75.5086919  59.3586680  45.6745236
  76.4959608  60.0175808  46.3604172  76.0265751  59.3978599  46.2614222
  67.8455217  59.2035337  55.3307737  67.2208287  59.2153729  54.7233690
  67.5100811  59.6795512  55.9798977  67.7040708  59.2753854  55.3364306
  68.0296965  57.5460456  41.3880422  67.6809770  58.1980181  41.8511972
  67.5493411  57.5317569  40.6604293  67.9067209  57.6403509  41.3491513
  64.5580892  67.2635797  56.7711501  64.0280817  66.5728236  56.8206476
  64.8305985  67.2545983  55.9424210  64.5205614  67.1602929  56.6558917
  75.5900983  67.8461500  45.4949184  76.3135181  68.3119613  45.3513757
  75.1501574  67.9135109  44.7446781  75.6316675  67.9245336  45.3633965
  74.7587138  64.7059042  56.7449873  74.1444131  64.1617092  57.0398508
  75.2754423  64.1923278  56.2655689  74.7442800  64.5495451  56.7174101
  73.9983435  65.7763312  54.4794172  73.5711043  65.1513031  54.0459607
  73.9908379  65.4938234  55.3053179  73.9342576  65.6416093  54.5373999
  67.1145962  60.8128485  57.5482606  67.2739449  60.0571809  57.9534328
  66.9338856  61.3619425  58.2023343  67.1111321  60.7822299  57.7045312
  75.0566265  52.9789721  58.1033395  74.5606826  53.1753395  57.4124962
  75.8135327  53.3782389  57.9322197  75.0953090  53.0667454  57.9753532
  72.3269145  56.6532067  54.6936706  72.3511632  56.1192179  54.0049486
  72.5780618  56.1449375  55.3562296  72.3679063  56.4992971  54.6901350
  59.8376734  63.9363562  54.1279850  59.7320183  63.8910406  53.2631934
  59.0876954  64.2817342  54.4094135  59.7112337  63.9804470  54.0417179
  68.6070467  55.3802885  54.0742450  68.6468838  55.8812091  54.7877157
  67.7820131  55.4713279  53.8048373  68.4909993  55.4684701  54.1392988
  70.0284830  61.8963395  56.3716349  69.1976760  62.0637213  56.1651597
  69.9736347  61.5199345  57.1565234  69.8974245  61.8653126  56.4564877
  67.8368613  55.3872288  62.0072760  68.4621317  54.8434420  62.2802192
  67.3819093  54.9067205  61.4380550  67.8616874  55.2361769  61.9634354
  68.4020874  60.1718986  46.9006467  68.5423835  60.6691450  47.6035108
  68.9003407  59.4705281  47.0420680  68.4961955  60.1420965  47.0258046
  68.4321096  61.0386097  44.2299044  69.0666176  61.6346522  44.1648505
  68.5146707  60.7389555  45.0444914  68.5377647  61.0827005  44.3402130
  70.0100079  56.9700073  44.2044486  70.3315920  56.4903155  43.5503748
  70.2727023  57.7799719  44.0135297  70.0966105  57.0189971  44.0799978
  75.4059234  56.3572267  56.5667965  75.8314306  55.9044793  55.9551491
  74.7916227  55.8032337  56.8432752  75.3787880  56.2086243  56.5172990
  64.9374084  63.2353938  47.4988590  65.4466314  63.8318446  47.8799895
  65.4108357  62.9679912  46.8165009  65.0817460  63.2839753  47.4543112
  73.8453457  52.8287366  49.9758542  73.2021775  52.6785013  50.5443680
  73.5052864  52.5829712  49.2107646  73.6998534  52.7699489  49.9461557
  67.2964616  59.8710197  50.3661770  66.5776605  60.2874329  50.6334633
  67.6676978  60.4364435  49.8153408  67.2456548  60.0159478  50.3244577
  76.5964197  60.5038045  56.2563766  76.5762124  60.3221341  57.1098545
  76.6443397  61.3750064  56.2323349  76.5998838  60.6054584  56.3787060
  73.0711190  58.9108196  45.7035149  72.4776030  59.2325193  45.1519716
  73.1086468  58.0649292  45.4956256  72.9885579  58.8332525  45.5917921
  75.9469007  58.8687701  49.1336900  75.7182700  58.8920402  48.2915258
  76.2067083  58.0445168  49.2531910  75.9515195  58.7503781  49.0262097
  70.2288235  60.7222174  58.7362000  69.7167138  60.1143357  59.0947031
  70.0567732  61.4378767  59.2035976  70.1277872  60.7385473  58.8578224
  65.0753950  59.1659749  61.3864362  64.9056540  59.8261124  60.8412568
  64.6319900  59.3766311  62.1076851  64.9853284  59.2945731  61.4125991
  69.0013769  57.4064247  50.4291095  69.4771136  57.7681327  49.7941276
  68.5002369  58.0620715  50.7091238  68.9979128  57.5558436  50.3767836
  74.1057306  58.6446419  61.1764255  74.6628736  58.4160228  60.5442721
  73.7818371  59.4052084  60.8999468  74.1403716  58.7230255  61.0420753
  61.9756015  62.0706615  56.6452851  61.4282734  61.4007260  56.7633720
  62.7648393  61.7036463  56.7096319  62.0108198  61.9171601  56.6721552
  71.0440423  59.5505447  43.7964479  71.4239387  59.5685076  43.0115594
  70.3033019  59.9959436  43.6755327  70.9909260  59.6187222  43.6628047
  78.6725713  57.8587638  49.3840058  78.6719940  57.7036295  50.2424334
  78.4681893  58.7050625  49.3281444  78.6425491  57.9608259  49.5027997
  60.7342984  61.2827423  53.7998875  60.5564745  60.8304032  54.5253790
  60.4462006  62.0853584  53.9837352  60.6655937  61.3349980  53.9342377
  76.3966565  62.5385140  53.0376265  76.8920230  61.8208135  52.9980285
  75.5866341  62.2355938  52.9230752  76.3510458  62.3882786  53.0149991
  71.8425177  66.3882953  45.1873269  71.0336499  66.0649627  45.1406579
  72.3500086  65.6816175  45.1201518  71.7974843  66.2364270  45.1703564
  62.4715454  63.8155146  50.9120634  61.6060973  63.8040837  50.8003405
  62.5714270  63.6285369  51.7591773  62.3589621  63.7861208  51.0209578
  68.0972464  73.5853045  54.4850739  68.4119023  74.3989433  54.4928521
  68.5065877  73.2003264  55.1532898  68.2040562  73.6481747  54.5854831
  75.0496983  69.0023092  52.0554551  75.5208162  69.7163354  52.2244536
  75.3857162  68.4021842  52.5914421  75.1692099  69.0194556  52.1586927
  71.9666478  53.7750562  59.0112646  72.0994384  52.9781556  59.3393621
  72.3511631  54.3016965  59.5910921  72.0422807  53.7350479  59.1456149
  75.0398834  50.6980889  55.6093739  74.2344797  50.5878618  55.9261577
  74.9105569  50.7993344  54.7523605  74.9018966  50.6964559  55.5301780
  78.4964794  56.8626380  56.2033436  77.9127783  57.3635587  55.7911003
  78.8169088  56.3555937  55.5697759  78.4577969  56.8618215  56.0491943
  71.0359593  55.7766975  46.4792111  71.8575288  55.9465288  46.2373806
  70.5729244  55.9314236  45.7558408  71.0890756  55.8248708  46.3363755
  69.6254925  53.7709737  57.2590540  70.1699338  53.4300864  57.8494881
  69.6791861  54.6295199  57.4011824  69.7144045  53.8464997  57.3672413
  65.4385484  67.5326153  54.1329348  66.0430341  67.4921988  53.5043168
  65.2312796  68.3797305  54.1633403  65.4974381  67.6514156  54.0445464
  60.6736766  66.5160771  54.0028271  60.5761044  65.7057042  54.3118327
  61.4565636  66.4952564  53.6174539  60.7752903  66.3927861  53.9915134
  35.1104221   0.9432219  35.7664670  34.3587120   0.5647757  35.5380715
  35.5590232   0.9750652  35.0183480  35.0653887   0.8917826  35.6222172
  40.5629181   1.3657588  31.1950217  40.2280549   2.0434510  30.7594439
  41.0756051   0.9762899  30.6067089  40.5894762   1.4082166  31.0437009
  40.1033472   3.3171857  37.1361329  40.4872851   3.8858756  36.5966104
  40.0392613   2.5921367  36.6567145  40.1506899   3.2947320  36.9855191
  36.6888977   0.9550611  38.0327443  36.7899340   0.1450965  38.3424570
  36.0930722   0.8607557  37.4027121  36.6161515   0.8215639  37.9853681
  36.5289716   5.8728200  39.4342299  37.1727172   6.3141364  39.8238457
  36.8545972   5.0681626  39.3472557  36.6721545   5.8193395  39.4787776
  29.8854021  -3.0229103  37.6579776  29.6504206  -3.8561450  37.5512045
  30.0239662  -2.7424437  36.8440977  29.8709684  -3.1045599  37.5222131
  37.2310296  -1.1159825  34.8062160  37.5526137  -0.5754618  34.2023468
  37.8782393  -1.6863054  34.9384450  37.3736351  -1.1200650  34.7369196
  31.4471346   1.8556568  38.9335982  30.9638924   2.5807058  38.9095566
  32.2594664   2.1532698  39.0446140  31.4962094   2.0058922  38.9463262
  37.5185500   0.6488749  41.5385797  37.0012441   0.2896164  40.9347105
  38.2159891   0.1250923  41.5491863  37.5451081   0.5186437  41.4516056
  41.1749092   1.0983563  47.5001970  41.2632438   0.9109703  48.3480180
  41.6038804   0.4520993  47.1006817  41.2511194   0.9746571  47.5673721
  38.7419552   0.3814723  46.4819632  38.1790386  -0.0312667  47.0059293
  39.5040575   0.3067629  46.9012775  38.7714000   0.3092123  46.6212632
  34.3015543   2.3712744  39.0856262  35.0036122   1.8564733  39.1429019
  34.2213026   2.6986895  39.8903137  34.3939303   2.3426970  39.2129054
  33.6266318  -1.4380904  38.5941870  34.4655218  -1.2057971  38.6415632
  33.6578088  -2.3076592  38.5248906  33.7548036  -1.5323957  38.5906515
  34.2519021  -1.0180029  42.8955176  34.7917246  -1.1608898  43.5658548
  33.5688968  -0.6183278  43.2639202  34.2311175  -0.9800358  43.0489598
  41.2869151   0.5292582  50.1645753  42.0709568   0.6423430  50.5301496
  41.0865746  -0.2966281  50.3604439  41.3735176   0.4239301  50.2480139
  41.4439544   2.4402684  43.8112209  40.6454790   2.2002184  44.0686078
  41.8925556   2.4917077  44.5579257  41.3914156   2.4125075  43.9597133
  30.0649580  -4.0120959  40.3301342  29.8825153  -4.0374072  39.4773634
  30.7999249  -3.5422021  40.3690250  30.1463644  -3.9459596  40.2099260
  36.4042640  -1.7512168  37.3645284  37.0416587  -1.9900421  37.9097077
  36.8297712  -1.5475009  36.6298444  36.5618806  -1.7561158  37.3362441
  31.0955282   0.4876168  41.2479587  31.1359428   0.7591019  40.4199367
  31.6549806   1.0118076  41.6637375  31.1838628   0.6051923  41.1871476
  38.7864112  -1.2739746  39.0439070  38.8603120  -1.4364574  39.8980920
  39.6033618  -1.0849556  38.7999552  38.9180471  -1.2703003  39.1337096
  32.5469869  -0.9281883  36.0733513  31.7207986  -0.6820146  35.9467792
  32.6081860  -1.0069802  36.9395571  32.4344036  -0.9036934  36.1822458
  37.3268698   1.6894997  33.7752543  37.6166996   1.2983979  33.0511770
  38.0572179   1.8711702  34.2157819  37.4775582   1.6588811  33.7335350
  35.2674613   3.6662380  36.8412693  35.0474909   3.3759734  37.6339360
  35.0469135   3.0077335  36.3130605  35.2022207   3.5262088  36.8801602
  37.4342569   5.0391770  35.6243385  38.0866627   4.5068212  35.8534411
  36.7368178   4.6860422  36.0111259  37.4273287   4.9081293  35.7155553
  34.3823834  -2.6069053  35.0310760  35.1369802  -2.2256014  35.2446222
  33.7894447  -2.1557909  35.4857456  34.4060547  -2.4840225  35.1293638
  35.7022060  -1.4360491  40.4050875  35.1802814  -1.2960200  41.0902740
  36.0896081  -2.1949827  40.5952992  35.6825761  -1.5274968  40.5351952
  41.8989065   0.3034968  34.3911444  41.6575741  -0.4297171  33.9838509
  42.0790398   0.8521825  33.7377777  41.8896689   0.2757359  34.2341667
  36.2668546   2.2700289  43.4880731  36.4158110   1.7103205  42.8354135
  37.0468548   2.3492290  43.8713249  36.4042639   2.1985854  43.4477680
  38.7921846   2.4414932  44.7665221  38.7165518   1.7723742  45.3216010
  38.7211706   3.1432720  45.2805888  38.7702453   2.4459839  44.9242070
  39.4492093   0.9615930  35.5988827  40.2141985   0.6925574  35.2771492
  39.3470183   0.4765941  36.3158890  39.5473589   0.8505495  35.6568655
  38.1813481   5.8483251  43.2243222  38.6709411   5.1494041  43.0418887
  37.6097713   5.5507121  43.8119280  38.1698011   5.7009475  43.2844263
  38.6749827  -0.4039975  32.3483129  38.7442647  -1.2625437  32.4876129
  39.4538282  -0.1868094  32.0202153  38.8002677  -0.4987111  32.3200286
  43.0657314   2.0197726  36.5619622  42.6737106   1.7164441  35.8442488
  43.2210386   2.8566816  36.3724576  43.0310904   2.0981563  36.4276119
  36.0584311  -1.2788735  45.0995694  35.9504666  -1.2686673  45.9657752
  36.2680093  -0.4533955  44.9100648  36.0734422  -1.1547660  45.1999786
  43.8347619   1.4233219  39.9949656  43.6367308   1.9124033  39.3005868
  43.2135330   1.6274460  40.5733790  43.7135184   1.5249757  39.9772880
  31.3333965  -2.3541995  43.7051548  30.8033890  -3.0449556  43.7546523
  31.6059059  -2.3631810  42.8764257  31.2958688  -2.4574863  43.5898964
  26.6129808  -5.6814231  41.0619897  26.5073257  -5.7267387  40.1971981
  25.8630028  -5.3360450  41.3434181  26.4865410  -5.6373323  40.9757226
  40.0150125  -1.6258846  44.6583348  39.5075216  -1.0722999  45.1023979
  39.7176771  -1.5650556  43.8402123  39.8955010  -1.5352534  44.6031805
  42.6257906   2.2904412  32.5887292  41.9087215   2.1165274  32.1234529
  43.2764643   2.0556984  32.0562778  42.6159756   2.2300205  32.4416510
  39.2592610   3.3065713  41.5640355  39.0358265   2.5484542  41.9324382
  38.7702454   3.3363734  40.8420795  39.1536059   3.1987937  41.5117096
  37.9071067   3.5266171  39.0177440  37.4931466   2.8640301  38.6281282
  38.5918442   3.6744030  38.4973134  37.9469439   3.4506829  38.8833937
  41.2736362   2.6856256  39.7701056  40.8752645   2.7958526  39.0021877
  40.6587581   2.8938322  40.3527616  41.1235251   2.7329824  39.7432356
  34.8725537   3.9675252  41.4190786  35.1872096   4.7811641  41.4268568
  35.2818950   3.5825471  42.0872945  34.9793635   4.0303955  41.5194878
  43.9127041   0.9946613  51.1686670  44.0224007   0.2055173  51.5243417
  44.2417938   0.9052549  50.3661008  43.9779447   0.8652465  51.1029061
  32.2138557  -2.0851639  41.0669394  32.8183415  -2.1255805  40.4383215
  32.0065870  -1.2380487  41.0973450  32.2727454  -1.9663637  40.9785511
  42.0282329   0.1814306  42.2831632  42.8480703   0.0377272  42.5447927
  41.7476407   0.8060505  42.8248070  42.1079073   0.2524658  42.4019571
  27.4489839  -3.1017022  40.9368317  27.3514117  -3.9120750  41.2458374
  28.2318709  -3.1225228  40.5514586  27.5505976  -3.2249931  40.9255180
  58.4995980   7.8379158  35.2474508  58.4689984   8.6923794  35.4192777
  59.0977328   7.5374450  35.8060652  58.5833138   7.9195654  35.3549310
  51.6995665   6.9254809  40.0027439  50.8433560   7.0863307  40.0536555
  51.7463318   6.0546873  40.0232500  51.5794776   6.8205611  40.0133505
  55.0089381  13.1941334  49.6087895  55.7156148  12.6993365  49.7374829
  55.1977316  13.6350416  48.8790553  55.1417287  13.1859685  49.5196940
  51.5361764  16.8842896  31.1950217  51.2013133  17.5619818  30.7594439
  52.0488635  16.4948207  30.6067089  51.5627345  16.9267474  31.0437009
  51.0766055  18.8357165  37.1361329  51.4605435  19.4044063  36.5966104
  51.0125197  18.1106675  36.6567145  51.1239483  18.8132628  36.9855191
  54.5447486   8.9846853  42.6459090  55.0903446   9.6631939  42.7053060
  54.4864362   8.8434314  41.7860672  54.6163400   9.0638854  42.5271151
  56.3212554  10.4131460  33.5192818  56.2052080  11.1639146  33.9484956
  57.1168441  10.1555413  33.7688905  56.4217144  10.4866307  33.6196910
  40.8586605  12.4956205  37.6579776  40.6236789  11.6623858  37.5512045
  40.9972245  12.7760871  36.8440977  40.8442267  12.4139709  37.5222131
  43.1576692   4.6641936  40.5564084  42.5381724   4.0734583  40.3874099
  43.0560556   5.2553371  39.9228407  43.0514368   4.6646018  40.4369073
  50.2544588   6.4041478  34.8896547  50.9524752   6.5829605  35.3818010
  50.5696920   5.8811817  34.2666936  50.4039925   6.3535250  34.8698557
  42.8845825   8.2094218  42.8007653  42.7604522   8.7956663  43.4357472
  43.5364110   7.7154413  43.1019928  42.9619475   8.2233022  42.9393582
  47.9104166  11.3855935  42.0795164  48.5553169  10.8928378  41.7606113
  48.1505943  11.5280721  42.9061242  48.0414751  11.3333377  42.1544697
  50.4490258  14.2310840  41.7302057  50.7313500  13.4362246  41.5088812
  51.1776418  14.7091428  41.7507118  50.5979821  14.1845437  41.7005072
  48.4271451   1.7733874  38.9717822  48.0974781   2.2245018  38.3021520
  47.7516453   1.6950038  39.5190828  48.2781888   1.8285010  38.9541045
  54.0441860  11.1439104  31.8307108  53.9593155  12.0000071  31.9756677
  54.5326243  10.8683428  32.4989267  54.1030757  11.2296425  31.9509189
  54.9760293   7.7623898  33.3304843  54.4471764   7.9783532  33.9902149
  55.4985313   8.4560037  33.2505812  54.9748746   7.8967035  33.4160442
  60.4308346  13.3370203  38.7037887  59.6006049  13.5480846  38.8671304
  60.3817598  12.5107257  38.4280171  60.3015081  13.2459809  38.6875253
  46.8659901  11.6587115  32.1312311  46.2817116  12.1637146  32.5378175
  46.4629996  11.4329502  31.3908903  46.7199205  11.6995363  32.0817336
  52.1481675  16.6168871  47.5001970  52.2365021  16.4295011  48.3480180
  52.5771388  15.9706300  47.1006817  52.2243778  16.4931879  47.5673721
  51.3237115   7.9052767  30.6081231  51.5633119   8.1130751  29.7956575
  51.6452956   7.1010276  30.7170176  51.4074273   7.8166868  30.5041785
  59.9262304   5.9840603  42.4988309  59.0890725   6.0542790  42.7335903
  59.8950535   5.9865098  41.6262611  59.7980587   5.9950830  42.4047857
  46.3227033   8.1273639  48.2136677  46.4947537   8.0179534  49.0621959
  46.8596391   8.7728044  47.9767870  46.4272037   8.2065641  48.3041774
  44.9884470   2.2416482  31.1518882  44.8060043   2.4588363  30.3259875
  45.8510083   2.3555495  31.2077497  45.0889060   2.2906380  31.0373369
  54.6492490  10.1796280  38.0900200  55.4050005  10.6127794  38.1289109
  54.7554814   9.5301050  38.6634836  54.7762661  10.1473764  38.1798226
  57.6872661  14.0069557  38.8402603  57.2507893  14.0106300  39.5961575
  57.3535577  14.6875056  38.4082181  57.5735281  14.1082013  38.8883436
  52.2601735  16.0477890  50.1645753  53.0442151  16.1608738  50.5301496
  52.0598329  15.2219027  50.3604439  52.3467760  15.9424609  50.2480139
  40.6288750  10.7205570  43.0489597  40.3627165   9.9044687  43.2080588
  40.6427314  10.7658726  42.1785113  40.5913472  10.6062475  42.9443079
  44.5346497   5.5190654  29.6641355  43.8204674   5.2328834  30.0763788
  45.0190466   5.8587280  30.3047743  44.5005860   5.5272304  29.8196990
  45.3787357   4.2583948  45.6956605  44.6859153   3.7880928  45.9417337
  45.9947684   4.0322253  46.2698312  45.3671886   4.1551080  45.8165758
  60.8217007  10.7250477  37.7322240  61.4833441  10.1641145  37.6318149
  60.1808419  10.2302508  38.0574932  60.8245875  10.5686886  37.7654581
  51.7093815  14.0220608  30.0403164  52.1244964  13.6905632  29.3487659
  50.8785745  13.7889511  29.9123300  51.6481824  13.9391864  29.9194011
  41.0382164  11.5064349  40.3301342  40.8557737  11.4811235  39.4773634
  41.7731833  11.9763287  40.3690250  41.1196228  11.5725712  40.2099260
  57.1081838  11.7415859  37.4734229  57.3437427  11.8861058  36.6461080
  57.2571402  12.5058267  37.8665743  57.1647641  11.8754914  37.4097833
  44.1027915   8.2249352  46.8383450  44.8267888   8.2102383  47.3248345
  44.2044052   8.9344708  46.3405418  44.2246125   8.3274055  46.8362237
  58.9372295  10.5817525  35.3103833  59.2680512  11.1145165  34.7043928
  59.5105383  10.6356413  35.9665784  59.0705974  10.6687094  35.3181615
  51.4772865  11.7048437  51.7032397  50.6845846  12.0191949  51.8885017
  51.5921792  11.9199905  50.8653182  51.3768275  11.7832274  51.6070732
  54.1504184   8.4282428  35.9927413  54.2451038   9.1671722  36.4467039
  53.5263027   7.9999903  36.4261978  54.0713214   8.4743749  36.1235561
  52.4056658  11.6068641  46.6417694  52.9795519  10.9695885  46.7966258
  52.3271461  11.6072723  45.7727352  52.4789893  11.5133752  46.5364105
  41.0053074   8.3857850  40.4800408  41.5826577   8.2494301  41.1192654
  40.3067136   7.9293634  40.7345993  40.9874096   8.2980116  40.6122698
  54.4027205  10.2731168  29.2264365  54.3207368  10.3433355  30.0919352
  55.0406926  10.8360912  29.0348106  54.4847043  10.3670139  29.3254315
  47.7620376  10.0391906  38.6938891  47.5039621   9.2063641  38.6670191
  47.8168859  10.2649519  37.8531392  47.7320154   9.9489677  38.5659028
  46.7355088   7.5929668  39.1803786  46.1604680   7.7521837  39.8167747
  46.3590765   6.9565077  38.7172237  46.5957901   7.5227481  39.2058345
  50.4028377   6.0653018  44.0396165  50.0142810   5.6407235  43.3848356
  49.7383075   6.3135167  44.5473191  50.2475305   6.0391739  44.0184033
  36.4811907   7.2369743  37.1948227  36.5672159   6.8601611  37.9761757
  37.1087705   6.8630189  36.7168185  36.5868458   7.1255225  37.2393704
  51.5067315  10.2951622  32.2372972  52.3207954  10.5866515  32.1255743
  51.4426457   9.6411484  31.6631265  51.6170054  10.2416817  32.1361809
  57.7276806  12.9777618  46.6502547  57.4915443  12.1465683  46.5314608
  58.3720034  12.9263225  47.2357391  57.7871476  12.8475306  46.7188441
  48.0178039   8.9875429  31.7020173  48.4023191   8.7683136  32.4536718
  47.7689659   9.8138375  31.8321249  48.0380111   9.0773576  31.8321249
  48.1846579   2.2681845  51.4182757  47.8700020   3.0381407  51.1552320
  47.8636512   1.7052101  50.8334984  48.0905498   2.2992113  51.2924107
  58.7513226  12.7622067  42.7130842  58.4459043  13.4950124  43.0744157
  58.0319442  12.3559996  42.4323628  58.6000568  12.8103800  42.7243979
  64.4515018   9.4015068  42.0399186  64.3839519   9.4211027  41.1701772
  64.4370681  10.2445395  42.2654856  64.4393775   9.5288802  41.9451663
  43.5202452  14.5903425  36.0733513  42.6940570  14.8365162  35.9467792
  43.5814443  14.5115506  36.9395571  43.4076619  14.6148374  36.1822458
  45.7378476   0.6572366  37.0328954  44.8700901   0.7294965  37.0986563
  46.0253680   1.4594445  37.2216929  45.6518224   0.7866513  37.0703720
  62.2373636   8.1759454  40.3145780  62.7881557   7.5427523  40.5542872
  62.2217751   8.7074847  41.0061285  62.3158832   8.1608402  40.4524639
  48.8896026  12.0098051  44.8605674  48.3907720  12.7213819  44.9390562
  49.6996251  12.3298718  44.8223836  48.9352133  12.1624900  44.8662242
  45.1524144  11.2721004  39.1068395  44.8637393  10.6458475  39.6414122
  46.0207492  11.2141292  39.1733075  45.2384396  11.1708548  39.1959349
  55.9402042   6.4155788  39.4250377  55.5966808   5.6946123  39.7757626
  56.0395084   6.2069639  38.5828735  55.9044085   6.2779991  39.3522057
  56.4015071  12.8781492  34.9674365  56.9673104  13.5374702  34.8832908
  55.7542974  13.2231190  35.4390767  56.3893827  13.0263433  35.0247121
  47.8163084   4.8679096  50.1567972  47.0062860   5.1736875  50.0457814
  48.2937771   5.5884678  50.2720556  47.7666563   5.0193697  50.1575043
  43.6645828   4.1330625  34.4745830  43.3770624   3.7631896  33.7377777
  44.3516296   4.6025481  34.2129535  43.7234725   4.1477595  34.3260906
  52.8721649  15.8220276  34.3911444  52.6308325  15.0888136  33.9838509
  53.0522982  16.3707133  33.7377777  52.8629273  15.7942667  34.2341667
  46.4999500   7.9983574  35.9213235  47.2222152   8.1624732  35.4617041
  46.0207492   8.7193238  35.8152574  46.5363230   8.1281803  35.8378849
  54.4593007   4.3347372  41.3009919  53.6204108   4.3608651  41.0648183
  54.5297375   4.9818108  41.8815266  54.3461401   4.4343498  41.3519036
  44.1507116  10.4041646  45.0267374  44.6628213  10.6825899  44.3776134
  43.8643459  11.1430940  45.3930187  44.1841980  10.5544000  44.9857252
  58.3350531   9.5415359  38.5871161  58.2484506   9.6970785  39.4405940
  57.8801011  10.1853435  38.2130566  58.2553788   9.6591114  38.6578268
  41.2374023   4.9111838  35.3231111  41.3390159   5.7137999  35.6512086
  42.0329909   4.7099174  35.0254191  41.3701928   4.9997737  35.3266466
  47.6690842   2.4968035  45.0868416  47.4774039   2.5123169  45.9367839
  48.5189438   2.6931709  45.0635071  47.7666564   2.5282386  45.2091711
  42.0537755   5.0259016  43.0652232  41.9123247   4.1742957  43.1896740
  42.3378318   5.0687677  42.2414438  42.0745601   4.9058766  42.9619857
  52.2076347   6.8626106  37.2096721  51.9611061   6.7821857  38.0433510
  52.5361470   6.0779574  37.0159248  52.2197591   6.7352372  37.3044244
  56.1024396  13.5709466  40.9983502  55.9638755  14.2690511  41.5032244
  55.3224394  13.4158122  40.6419684  55.9667623  13.6509632  41.0209776
  54.4402481   9.8705841  47.2505884  54.4350520   8.9985657  47.2548310
  55.1463475  10.0694010  46.7775339  54.5447485   9.7709715  47.1812919
  48.1673374   9.5982825  46.6219704  48.3116750  10.1784033  45.9862814
  48.5149023   9.9759121  47.3269558  48.2400836   9.7403529  46.6318699
  50.3393292   8.7972993  44.4044835  49.5916606   8.9904008  43.9993113
  50.4934817   7.9718213  44.1668957  50.2515719   8.7038105  44.3090241
  57.5977769  12.9287719  31.7600001  57.2184578  12.1424857  31.7529291
  56.9344014  13.4774576  31.6171645  57.4436244  12.8932543  31.7380798
  50.5795069   2.6923544  45.2940239  51.0367683   3.4247518  45.4213031
  50.6551398   2.2690009  46.0527495  50.6586039   2.7380782  45.4241316
  42.8228060   2.9389364  46.3829683  42.2870250   2.3269722  46.6990450
  42.8845825   3.5137500  47.0363349  42.7523693   2.9336291  46.5265110
  48.4577447   4.6825648  42.1382063  47.6673521   4.5017108  42.4599399
  48.8538070   3.9052600  42.1212358  48.3994323   4.5413109  42.1834611
  52.9443338  13.5113422  27.5788777  53.7116323  13.5713547  27.1694629
  52.4974646  12.9393864  27.0945095  52.9916765  13.4349998  27.4466487
  53.8421133  12.3168078  39.8641509  53.1666135  12.0853310  40.3654896
  53.8513509  11.7089261  39.2383614  53.7439638  12.1927003  39.8457661
  50.9715277   7.1585907  46.6205562  50.9074418   8.0195863  46.4925699
  51.1112465   6.8417900  45.8201113  50.9830747   7.2386074  46.4833775
  55.8437868  15.1733210  32.0951687  55.9257705  15.9800197  31.7713138
  56.3287610  15.1929170  32.8192460  55.9275025  15.2953873  32.1538586
  49.6534371   9.8518046  40.7621765  49.2296620  10.0522545  40.0260783
  49.4779226   9.0046894  40.8746065  49.5645252   9.7566828  40.6695455
  44.9416816  10.3470098  36.1949737  45.0981435  10.2816900  37.0505730
  45.2817409  11.1218650  35.9828417  45.0150051  10.4519296  36.2904332
  51.4795960   9.7227981  35.0643101  52.0211506   9.2198362  35.5281721
  51.7942520   9.6693176  34.2532586  51.6060358   9.6407402  35.0126913
  55.3513068  13.9330629  52.1770013  56.1647933  13.6615777  52.3375145
  55.1908034  13.6338169  51.3730209  55.4483016  13.8485555  52.0815419
  52.6285230   4.6164286  45.1165401  52.8427199   3.9775200  44.5628755
  52.0119129   5.0610110  44.6873263  52.5690559   4.5874429  44.9715832
  54.0389898  17.5383034  36.5619622  53.6469689  17.2349749  35.8442488
  54.1942970  18.3752124  36.3724576  54.0043488  17.6166871  36.4276119
  41.5151077   7.5305048  36.5110505  41.8950042   7.9489593  35.8470772
  40.9406442   8.1118504  36.8179348  41.4862402   7.6782907  36.4587246
  54.7924318   6.2253351  46.0548708  53.9801000   5.9179241  46.1361881
  55.2514252   5.7452351  46.6191420  54.7404703   6.1089843  46.1503302
  54.2029573  14.1033023  36.5025653  53.8444227  14.2747666  37.2789685
  53.7168283  14.5646229  35.9453651  54.0788269  14.1971994  36.5350922
  48.9917938   9.7832188  29.0425887  49.2810463  10.5597071  29.3169461
  49.0789737   9.2720920  29.7440386  49.0472194   9.8224107  29.1868385
  51.8877825   7.6313422  50.8377411  52.3577457   8.2555539  51.2245285
  51.9339706   6.9630398  51.3970625  51.9645701   7.6248103  50.9777482
  55.3634312  14.9936919  47.4492853  56.0014032  14.4997115  47.1155310
  54.7208403  14.9214319  46.8645080  55.3628538  14.9095927  47.3135208
  57.0891312   6.8426065  42.0158769  56.6618920   6.7552413  41.2606869
  56.4517365   6.9503840  42.6013613  56.9320919   6.8458725  41.9904211
  55.4188568  15.6856727  44.0898210  56.2080947  15.3345792  44.2100292
  55.5932166  16.4993116  43.8274844  55.5608850  15.7542584  44.0686078
  45.1581879   9.0965453  41.1425999  44.3169885   8.9969327  41.3504893
  45.3671887   9.8660933  41.4940320  45.0646571   9.1957496  41.2253314
  42.6357446   6.7184990  38.9710750  42.2414144   6.7928002  38.1960859
  42.0797563   7.1042936  39.5219111  42.4960258   6.7866764  38.9378410
  48.9698544   7.0246852  40.3923597  48.6661681   6.4702840  40.9934004
  48.2677965   7.2039062  39.9051631  48.8214754   6.9691634  40.4093302
  48.0264641   4.3347372  34.9568298  48.3024375   3.6166284  34.5445866
  48.6263310   4.9332292  34.7489405  48.1557905   4.3167743  34.8649060
  45.0490687  11.4909215  42.5617632  44.4578620  12.1318713  42.5320647
  45.8111710  11.9146832  42.5348931  45.0738947  11.6485054  42.5532779
  45.4451310   2.6511213  43.2285650  45.9052791   2.7250142  43.9660773
  45.4907416   3.4492467  42.8785471  45.5201865   2.7805360  43.2858406
  47.0934659   3.3177908  47.7957677  46.7020224   2.6711255  48.2313454
  47.2620522   3.9089343  48.4151932  47.0605570   3.3092176  47.9520383
  61.1681108  11.3214985  43.5594910  61.2264232  11.7701634  44.3054887
  60.5347576  11.7313798  43.1224990  61.0832403  11.4488720  43.6047459
  54.8080203  16.9418527  39.9949656  54.6099892  17.4309341  39.3005868
  54.1867914  17.1459768  40.5733790  54.6867767  17.0435065  39.9772880
  48.8688181   8.7103424  34.3359901  49.6130226   9.0977700  34.5742851
  49.0148878   7.8660849  34.5000388  48.9998766   8.6433896  34.3953870
  51.8566057   4.2828897  40.2353820  51.3826011   3.7570659  40.7459131
  52.2284193   3.7358370  39.6668682  51.8415946   4.1244894  40.2268967
  42.2339087   6.2800404  45.6037366  43.0964700   6.1796113  45.5174696
  41.9030870   5.6995113  45.0422938  42.3124284   6.1792030  45.5082772
  58.1202788   9.3431273  41.6460601  57.8801011   8.5037688  41.6503027
  58.5994795   9.4231439  42.3701374  58.1554971   9.2312672  41.7535403
  53.7849557   5.1765452  33.2979574  53.2572575   5.2594196  32.6085283
  54.2445265   5.9183323  33.2944218  53.7751407   5.2986114  33.1954269
  60.1207975   6.1232730  39.5989860  59.8817745   6.0828564  38.7610644
  60.2841876   6.9703882  39.7255581  60.1098278   6.2424815  39.4943342
  56.7254005  10.5082679  45.5294905  57.4488204  10.0555206  45.3505925
  56.4603967  10.7887345  44.7467233  56.7935278  10.4833648  45.3873620
  45.5940873   5.1042853  42.2647784  44.9693943   5.1161245  41.6573737
  45.2586468   5.5803028  42.9139024  45.4526365   5.1761370  42.2704353
  45.7782622   3.4467971  28.3220469  45.4295426   4.0987696  28.7852018
  45.2979068   3.4325084  27.5944340  45.6552866   3.5411025  28.2831560
  42.3066549  13.1643313  43.7051548  41.7766473  12.4735752  43.7546523
  42.5791642  13.1553498  42.8764257  42.2691271  13.0610445  43.5898964
  53.3386639  13.7469015  32.4289231  54.0620838  14.2127128  32.2853804
  52.8987230  13.8142625  31.6786828  53.3802332  13.8252852  32.2974012
  52.5072794  10.6066557  43.6789920  51.8929788  10.0624608  43.9738555
  53.0240079  10.0930794  43.1995736  52.4928457  10.4502966  43.6514148
  51.7469092  11.6770827  41.4134218  51.3196700  11.0520546  40.9799654
  51.7394036  11.3945749  42.2393226  51.6828233  11.5423608  41.4714046
  44.8631619   6.7136000  44.4822652  45.0225105   5.9579325  44.8874374
  44.6824512   7.2626940  45.1363390  44.8596978   6.6829814  44.6385358
  50.0754801   2.5539582  41.6276752  50.0997288   2.0199694  40.9389532
  50.3266275   2.0456891  42.2902343  50.1164720   2.4000486  41.6241397
  37.5862391   9.8371077  41.0619897  37.4805840   9.7917921  40.1971981
  36.8362611  10.1824857  41.3434181  37.4597994   9.8811985  40.9757226
  46.3556124   1.2810400  41.0082497  46.3954495   1.7819607  41.7217204
  45.5305788   1.3720794  40.7388420  46.2395649   1.3692216  41.0733035
  48.5385736  10.8471140  49.1102791  47.6881367  10.9842854  49.2460436
  48.7013864  10.1134918  49.5550493  48.4369600  10.7585241  49.1958391
  47.7770487   7.7970910  43.3056396  46.9462417   7.9644728  43.0991644
  47.7222004   7.4206861  44.0905281  47.6459902   7.7660641  43.3904924
  45.5854270   1.2879803  48.9412807  46.2106974   0.7441936  49.2142239
  45.1304750   0.8074720  48.3720597  45.6102531   1.1369284  48.8974400
  46.1506531   6.0726502  33.8346514  46.2909492   6.5698966  34.5375155
  46.6489064   5.3712796  33.9760727  46.2447612   6.0428480  33.9598093
  46.1806753   6.9393613  31.1639090  46.8151833   7.5354038  31.0988552
  46.2632364   6.6397070  31.9784960  46.2863304   6.9834521  31.2742177
  59.1589319   9.4709090  44.0325455  59.7507159  10.1106341  44.0643653
  59.5948313   8.7732127  44.3217521  59.3107750   9.4627440  44.0806287
  47.7585736   2.8707588  31.1384532  48.0801577   2.3910670  30.4843795
  48.0212680   3.6807234  30.9475344  47.8451761   2.9197486  31.0140024
  50.9882709  13.8926462  44.6583348  50.4807800  14.4462309  45.1023979
  50.6909355  13.9534752  43.8402123  50.8687594  13.9832773  44.6031805
  42.6859741   9.1361453  34.4328636  43.1951970   9.7325961  34.8139942
  43.1594013   8.8687427  33.7505056  42.8303117   9.1847269  34.3883159
  53.5990489  17.8089720  32.5887292  52.8819799  17.6350582  32.1234529
  54.2497227  17.5742292  32.0562778  53.5892340  17.7485513  32.4416510
  56.1838460   6.6854309  36.3328597  55.5129650   7.2284011  36.2041663
  56.8778211   7.1549164  36.0910292  56.1867328   6.8352580  36.2784125
  45.0450273   5.7717712  37.3001817  44.3262262   6.1881844  37.5674680
  45.4162635   6.3371951  36.7493455  44.9942205   5.9166993  37.2584624
  54.3449854   6.4045561  43.1903812  54.3247781   6.2228856  44.0438591
  54.3929054   7.2757579  43.1663396  54.3484495   6.5062099  43.3127107
  52.2896183  12.9932753  49.1152289  52.2492038  12.3482430  48.5297445
  53.1019502  12.9369370  49.4277701  52.4039337  12.8891720  49.0749238
  52.2468945  18.2041564  39.7701056  51.8485228  18.3143834  39.0021877
  51.6320165  18.4123630  40.3527616  52.0967834  18.2515132  39.7432356
  50.8196847   4.8115712  32.6375196  50.2261686   5.1332708  32.0859763
  50.8572125   3.9656807  32.4296302  50.7371236   4.7340040  32.5257968
  53.6954664   4.7695216  36.0676946  53.4668357   4.7927918  35.2255305
  53.9552740   3.9452683  36.1871957  53.7000852   4.6511296  35.9602144
  47.9773892   6.6229689  45.6702047  47.4652795   6.0150872  46.0287078
  47.8053388   7.3386282  46.1376022  47.8763529   6.6392989  45.7918270
  42.8239607   5.0667265  48.3204408  42.6542197   5.7268639  47.7752615
  42.3805557   5.2773826  49.0416898  42.7338940   5.1953247  48.3466038
  46.7499426   3.3071763  37.3631142  47.2256792   3.6688842  36.7281323
  46.2488026   3.9628230  37.6431285  46.7464785   3.4565951  37.3107883
  59.9810788  12.7793531  33.1544147  60.3644394  13.5284887  33.3842244
  59.1854901  13.0259350  32.8956136  59.9204570  12.9263224  33.1501721
  51.8542962   4.5453934  48.1104302  52.4114393   4.3167743  47.4782768
  51.5304027   5.3059600  47.8339515  51.8889373   4.6237771  47.9760799
  39.7241671   7.9714130  43.5792898  39.1768391   7.3014776  43.6973767
  40.5134050   7.6043978  43.6436366  39.7593855   7.8179117  43.6061599
  49.5726080   7.6321587  49.0756309  50.3237407   7.9473264  49.3895864
  49.7648656   7.4300758  48.2490231  49.7117494   7.6488969  48.9999705
  48.7926079   5.4512962  30.7304526  49.1725044   5.4692592  29.9455641
  48.0518675   5.8966951  30.6095373  48.7394917   5.5194737  30.5968094
  38.4828641   7.1834938  40.7338921  38.3050402   6.7311547  41.4593837
  38.1947663   7.9861099  40.9177399  38.4141594   7.2357496  40.8682424
  54.1452222   8.4392655  39.9716312  54.6405887   7.7215650  39.9320332
  53.3351998   8.1363453  39.8570799  54.0996115   8.2890302  39.9490037
  49.5910833  12.2890469  32.1213316  48.7822156  11.9657142  32.0746626
  50.0985742  11.5823691  32.0541565  49.5460500  12.1371785  32.1043610
  40.2201111   9.7162662  37.8460680  39.3546630   9.7048352  37.7343452
  40.3199927   9.5292885  38.6931820  40.1075278   9.6868723  37.9549625
  56.2104041  11.1896343  42.6593440  56.6359112  10.6670765  42.1063865
  55.8460961  11.7877180  42.1382063  56.2190643  11.2006570  42.5002450
  52.7982640  14.9030607  38.9894598  53.2693818  15.6170870  39.1584583
  53.1342819  14.3029357  39.5254467  52.9177755  14.9202071  39.0926974
  54.8859625  16.5131920  51.1686670  54.9956590  15.7240481  51.5243417
  55.2150521  16.4237857  50.3661008  54.9512031  16.3837773  51.1029061
  53.4356587  14.6948541  45.7522291  52.8877533  14.0706425  45.4842356
  53.8969615  14.8842813  45.0366370  53.4223796  14.6307591  45.6072722
  48.7845250   1.6774491  33.4132158  49.6060944   1.8472803  33.1713853
  48.3214901   1.8321752  32.6898455  48.8376412   1.7256224  33.2703802
  43.1871141  13.4333669  41.0669394  43.7915998  13.3929503  40.4383215
  42.9798453  14.2804821  41.0973450  43.2460038  13.5521671  40.9785511
  53.0014913  15.6999614  42.2831632  53.8213287  15.5562580  42.5447927
  52.7208991  16.3245813  42.8248070  53.0811656  15.7709966  42.4019571
  38.4222423  12.4168286  40.9368317  38.3246701  11.6064558  41.2458374
  39.2051293  12.3960080  40.5514586  38.5238560  12.2935377  40.9255180
  69.4728563  23.3564466  35.2474508  69.4422568  24.2109102  35.4192777
  70.0709912  23.0559758  35.8060652  69.5565721  23.4380962  35.3549310
  62.6728248  22.4440117  40.0027439  61.8166144  22.6048615  40.0536555
  62.7195902  21.5732181  40.0232500  62.5527360  22.3390919  40.0133505
  65.9821965  28.7126642  49.6087895  66.6888732  28.2178673  49.7374829
  66.1709900  29.1535724  48.8790553  66.1149870  28.7044993  49.5196940
  62.5094348  32.4028204  31.1950217  62.1745716  33.0805126  30.7594439
  63.0221218  32.0133515  30.6067089  62.5359929  32.4452782  31.0437009
  62.0498639  34.3542473  37.1361329  62.4338018  34.9229371  36.5966104
  61.9857780  33.6291983  36.6567145  62.0972066  34.3317936  36.9855191
  65.5180069  24.5032161  42.6459090  66.0636029  25.1817247  42.7053060
  65.4596945  24.3619621  41.7860672  65.5895983  24.5824162  42.5271151
  58.6354144  31.9921227  38.0327443  58.7364507  31.1821581  38.3424570
  58.0395889  31.8978173  37.4027121  58.5626683  31.8586255  37.9853681
  67.2945138  25.9316768  33.5192818  67.1784664  26.6824454  33.9484956
  68.0901024  25.6740721  33.7688905  67.3949727  26.0051615  33.6196910
  54.1309276  20.1827244  40.5564084  53.5114307  19.5919891  40.3874099
  54.0293139  20.7738679  39.9228407  54.0246951  20.1831326  40.4369073
  59.1775463  29.9210791  34.8062160  59.4991304  30.4615998  34.2023468
  59.8247560  29.3507562  34.9384450  59.3201518  29.9169966  34.7369196
  61.2277171  21.9226786  34.8896547  61.9257336  22.1014913  35.3818010
  61.5429504  21.3997125  34.2666936  61.3772509  21.8720558  34.8698557
  53.8578409  23.7279526  42.8007653  53.7337106  24.3141971  43.4357472
  54.5096693  23.2339721  43.1019928  53.9352058  23.7418330  42.9393582
  61.4165107  28.3097231  34.8776338  61.8558742  27.7014331  35.3231111
  61.2669770  27.9304604  34.1061804  61.4586572  28.1635702  34.8295506
  58.8836750  26.9041243  42.0795164  59.5285752  26.4113686  41.7606113
  59.1238527  27.0466029  42.9061242  59.0147335  26.8518685  42.1544697
  61.4222841  29.7496148  41.7302057  61.7046084  28.9547554  41.5088812
  62.1509002  30.2276736  41.7507118  61.5712405  29.7030745  41.7005072
  59.4004035  17.2919182  38.9717822  59.0707365  17.7430326  38.3021520
  58.7249037  17.2135346  39.5190828  59.2514471  17.3470318  38.9541045
  65.0174443  26.6624412  31.8307108  64.9325738  27.5185379  31.9756677
  65.5058827  26.3868736  32.4989267  65.0763341  26.7481733  31.9509189
  66.6080443  13.2804705  37.2167432  66.2933884  13.9708184  37.6487855
  66.0907384  13.2249487  36.5152933  66.4844913  13.3739594  37.1764381
  65.9492877  23.2809206  33.3304843  65.4204348  23.4968840  33.9902149
  66.4717896  23.9745345  33.2505812  65.9481329  23.4152343  33.4160442
  71.4040929  28.8555511  38.7037887  70.5738633  29.0666154  38.8671304
  71.3550182  28.0292565  38.4280171  71.2747665  28.7645117  38.6875253
  57.8392484  27.1772423  32.1312311  57.2549700  27.6822454  32.5378175
  57.4362580  26.9514810  31.3908903  57.6931788  27.2180671  32.0817336
  59.4650667  31.6859365  41.5385797  58.9477609  31.3266780  40.9347105
  60.1625058  31.1621539  41.5491863  59.4916248  31.5557053  41.4516056
  63.1214259  32.1354179  47.5001970  63.2097605  31.9480319  48.3480180
  63.5503972  31.4891608  47.1006817  63.1976361  32.0117187  47.5673721
  60.6884719  31.4185339  46.4819632  60.1255554  31.0057949  47.0059293
  61.4505742  31.3438244  46.9012775  60.7179167  31.3462739  46.6212632
  57.6059989  15.3531471  34.4540769  58.3605957  15.7209788  34.2157820
  57.4287524  15.7271025  35.2219949  57.6914467  15.4629659  34.5325658
  70.8994888  21.5025911  42.4988309  70.0623309  21.5728098  42.7335903
  70.8683119  21.5050406  41.6262611  70.7713170  21.5136138  42.4047857
  57.2959617  23.6458947  48.2136677  57.4680120  23.5364842  49.0621959
  57.8328974  24.2913352  47.9767870  57.4004621  23.7250949  48.3041774
  55.9617054  17.7601790  31.1518882  55.7792627  17.9773671  30.3259875
  56.8242667  17.8740802  31.2077497  56.0621643  17.8091688  31.0373369
  56.1984189  30.0190587  42.8955176  56.7382414  29.8761718  43.5658548
  55.5154135  30.4187338  43.2639202  56.1776343  30.0570258  43.0489598
  61.6416773  14.7628200  34.1867906  62.3702933  14.5844155  33.7406062
  61.7311666  15.6046280  34.3975084  61.7623435  14.8612079  34.1521424
  65.6225074  25.6981588  38.0900200  66.3782589  26.1313102  38.1289109
  65.7287398  25.0486358  38.6634836  65.7495244  25.6659072  38.1798226
  68.6605245  29.5254865  38.8402603  68.2240477  29.5291607  39.5961575
  68.3268160  30.2060364  38.4082181  68.5467865  29.6267321  38.8883436
  63.2334318  31.5663198  50.1645753  64.0174735  31.6794046  50.5301496
  63.0330913  30.7404335  50.3604439  63.3200344  31.4609917  50.2480139
  51.6021334  26.2390878  43.0489597  51.3359749  25.4229995  43.2080588
  51.6159898  26.2844033  42.1785113  51.5646056  26.1247783  42.9443079
  68.5802728  16.5668693  41.0832031  69.2228636  16.6366797  41.6693946
  68.8325748  15.8997916  40.5811573  68.7124860  16.4795041  41.0959310
  55.5079081  21.0375962  29.6641355  54.7937258  20.7514142  30.0763788
  55.9923049  21.3772588  30.3047743  55.4738444  21.0457612  29.8196990
  56.3519940  19.7769256  45.6956605  55.6591737  19.3066236  45.9417337
  56.9680267  19.5507561  46.2698312  56.3404470  19.6736388  45.8165758
  63.3904712  33.4773300  43.8112209  62.5919957  33.2372800  44.0686078
  63.8390723  33.5287693  44.5579257  63.3379323  33.4495691  43.9597133
  71.7949591  26.2435785  37.7322240  72.4566025  25.6826453  37.6318149
  71.1541003  25.7487816  38.0574932  71.7978458  26.0872194  37.7654581
  62.6826399  29.5405916  30.0403164  63.0977547  29.2090940  29.3487659
  61.8518328  29.3074819  29.9123300  62.6214407  29.4577172  29.9194011
  68.0814422  27.2601167  37.4734229  68.3170011  27.4046366  36.6461080
  68.2303985  28.0243575  37.8665743  68.1380225  27.3940222  37.4097833
  55.0760499  23.7434660  46.8383450  55.8000471  23.7287691  47.3248345
  55.1776636  24.4530015  46.3405418  55.1978708  23.8459363  46.8362237
  69.9104878  26.1002833  35.3103833  70.2413095  26.6330473  34.7043928
  70.4837966  26.1541721  35.9665784  70.0438557  26.1872402  35.3181615
  62.4505448  27.2233745  51.7032397  61.6578429  27.5377257  51.8885017
  62.5654376  27.4385213  50.8653182  62.3500859  27.3017582  51.6070732
  65.1236767  23.9467736  35.9927413  65.2183622  24.6857030  36.4467039
  64.4995611  23.5185211  36.4261978  65.0445798  23.9929057  36.1235561
  63.3789241  27.1253949  46.6417694  63.9528103  26.4881193  46.7966258
  63.3004045  27.1258031  45.7727352  63.4522476  27.0319060  46.5364105
  65.3759789  25.7916476  29.2264365  65.2939951  25.8618663  30.0919352
  66.0139509  26.3546220  29.0348106  65.4579626  25.8855447  29.3254315
  58.7352960  25.5577214  38.6938891  58.4772204  24.7248949  38.6670191
  58.7901443  25.7834827  37.8531392  58.7052738  25.4674985  38.5659028
  63.8154010  17.6605664  38.7942984  63.1110337  17.1714850  38.9526903
  63.8638984  17.6728139  37.9231429  63.7184062  17.5895312  38.6882324
  57.7087672  23.1114976  39.1803786  57.1337263  23.2707145  39.8167747
  57.3323348  22.4750385  38.7172237  57.5690484  23.0412789  39.2058345
  61.3760961  21.5838325  44.0396165  60.9875393  21.1592543  43.3848356
  60.7115659  21.8320475  44.5473191  61.2207888  21.5577047  44.0184033
  71.0184230  21.3413330  36.8143995  70.7620795  20.5293272  36.6241877
  71.8613544  21.3490897  36.5874182  71.1050255  21.2225328  36.7528812
  65.1987322  15.2812954  41.5520149  65.5797834  14.5991125  41.9388023
  64.3950607  14.9922556  41.3695813  65.1363784  15.1380003  41.5824205
  62.4799899  25.8136930  32.2372972  63.2940538  26.1051823  32.1255743
  62.4159040  25.1596792  31.6631265  62.5902638  25.7602125  32.1361809
  68.7009389  28.4962926  46.6502547  68.4648026  27.6650991  46.5314608
  69.3452618  28.4448533  47.2357391  68.7604060  28.3660614  46.7188441
  58.3507807  29.2858447  37.3645284  58.9881754  29.0470195  37.9097077
  58.7762879  29.4895606  36.6298444  58.5083973  29.2809458  37.3362441
  58.9910622  24.5060737  31.7020173  59.3755775  24.2868444  32.4536718
  58.7422243  25.3323683  31.8321249  59.0112695  24.5958884  31.8321249
  59.1579163  17.7867152  51.4182757  58.8432604  18.5566715  51.1552320
  58.8369095  17.2237408  50.8334984  59.0638082  17.8177421  51.2924107
  69.7245810  28.2807375  42.7130842  69.4191627  29.0135432  43.0744157
  69.0052025  27.8745304  42.4323628  69.5733152  28.3289108  42.7243979
  60.7329279  29.7630870  39.0439070  60.8068287  29.6006042  39.8980920
  61.5498785  29.9521060  38.7999552  60.8645638  29.7667612  39.1337096
  75.4247602  24.9200376  42.0399186  75.3572102  24.9396335  41.1701772
  75.4103264  25.7630703  42.2654856  75.4126358  25.0474110  41.9451663
  56.7111060  16.1757674  37.0328954  55.8433485  16.2480273  37.0986563
  56.9986264  16.9779753  37.2216929  56.6250808  16.3051821  37.0703720
  65.8343948  16.3235533  45.3640275  66.5797540  16.1345344  44.9503701
  65.4181253  16.8493771  44.8054132  65.8828923  16.3737679  45.2204849
  59.2733865  32.7265613  33.7752543  59.5632163  32.3354594  33.0511770
  60.0037346  32.9082318  34.2157819  59.4240749  32.6959427  33.7335350
  73.2106219  23.6944762  40.3145780  73.7614141  23.0612831  40.5542872
  73.1950335  24.2260155  41.0061285  73.2891416  23.6793710  40.4524639
  59.8628610  27.5283359  44.8605674  59.3640304  28.2399127  44.9390562
  60.6728834  27.8484026  44.8223836  59.9084717  27.6810208  44.8662242
  56.1256728  26.7906312  39.1068395  55.8369976  26.1643783  39.6414122
  56.9940076  26.7326600  39.1733075  56.2116980  26.6893856  39.1959349
  66.9134625  21.9341095  39.4250377  66.5699391  21.2131431  39.7757626
  67.0127668  21.7254947  38.5828735  66.8776668  21.7965299  39.3522057
  59.3807736  36.0762386  35.6243385  60.0331794  35.5438828  35.8534411
  58.6833345  35.7231038  36.0111259  59.3738454  35.9451909  35.7155553
  56.3289001  28.4301563  35.0310760  57.0834969  28.8114602  35.2446222
  55.7359614  28.8812707  35.4857456  56.3525715  28.5530391  35.1293638
  67.3747655  28.3966800  34.9674365  67.9405687  29.0560009  34.8832908
  66.7275558  28.7416498  35.4390767  67.3626411  28.5448741  35.0247121
  58.7895668  20.3864404  50.1567972  57.9795444  20.6922183  50.0457814
  59.2670355  21.1069986  50.2720556  58.7399147  20.5379005  50.1575043
  57.6487228  29.6010124  40.4050875  57.1267981  29.7410416  41.0902740
  58.0361248  28.8420789  40.5952992  57.6290929  29.5095648  40.5351952
  54.6378412  19.6515933  34.4745830  54.3503207  19.2817204  33.7377777
  55.3248880  20.1210789  34.2129535  54.6967309  19.6662903  34.3260906
  63.8454233  31.3405584  34.3911444  63.6040909  30.6073444  33.9838509
  64.0255566  31.8892441  33.7377777  63.8361857  31.3127975  34.2341667
  59.0753553  26.6314144  35.8032366  58.8796336  27.2388878  35.2092669
  59.2987899  25.9382088  35.3224040  59.0788194  26.6191669  35.6448447
  57.4732083  23.5168881  35.9213235  58.1954735  23.6810040  35.4617041
  56.9940076  24.2378546  35.8152574  57.5095814  23.6467111  35.8378849
  65.4325591  19.8532680  41.3009919  64.5936691  19.8793959  41.0648183
  65.5029958  20.5003416  41.8815266  65.3193984  19.9528806  41.3519036
  55.1239700  25.9226954  45.0267374  55.6360797  26.2011207  44.3776134
  54.8376043  26.6616248  45.3930187  55.1574563  26.0729308  44.9857252
  63.8794869  16.7518057  36.0337535  64.5821222  16.5525806  35.5557494
  63.6139058  15.9794000  36.3406379  63.9441501  16.6081023  36.0082977
  69.3083115  25.0600667  38.5871161  69.2217089  25.2156093  39.4405940
  68.8533595  25.7038743  38.2130566  69.2286371  25.1776422  38.6578268
  52.2106606  20.4297146  35.3231111  52.3122743  21.2323307  35.6512086
  53.0062493  20.2284482  35.0254191  52.3434512  20.5183044  35.3266466
  58.6423425  18.0153342  45.0868416  58.4506622  18.0308477  45.9367839
  59.4922021  18.2117017  45.0635071  58.7399147  18.0467694  45.2091711
  53.0270338  20.5444324  43.0652232  52.8855830  19.6928265  43.1896740
  53.3110902  20.5872985  42.2414438  53.0478184  20.4244074  42.9619857
  63.1808931  22.3811414  37.2096721  62.9343645  22.3007165  38.0433510
  63.5094054  21.5964882  37.0159248  63.1930174  22.2537679  37.3044244
  67.0756980  29.0894773  40.9983502  66.9371339  29.7875819  41.5032244
  66.2956977  28.9343430  40.6419684  66.9400206  29.1694940  41.0209776
  65.4135065  25.3891149  47.2505884  65.4083103  24.5170965  47.2548310
  66.1196059  25.5879318  46.7775339  65.5180069  25.2895023  47.1812919
  59.1405958  25.1168133  46.6219704  59.2849334  25.6969341  45.9862814
  59.4881607  25.4944429  47.3269558  59.2133419  25.2588837  46.6318699
  61.3125875  24.3158301  44.4044835  60.5649189  24.5089315  43.9993113
  61.4667401  23.4903521  44.1668957  61.2248303  24.2223412  44.3090241
  58.2133713  33.3070905  43.4880731  58.3623277  32.7473820  42.8354135
  58.9933715  33.3862906  43.8713249  58.3507807  33.2356470  43.4477680
  68.5710352  28.4473027  31.7600001  68.1917161  27.6610165  31.7529291
  67.9076598  28.9959884  31.6171645  68.4168827  28.4117851  31.7380798
  60.7387014  33.4785547  44.7665221  60.6630685  32.8094358  45.3216010
  60.6676873  34.1803336  45.2805888  60.7167621  33.4830455  44.9242070
  61.5527652  18.2108852  45.2940239  62.0100266  18.9432826  45.4213031
  61.6283981  17.7875317  46.0527495  61.6318622  18.2566090  45.4241316
  53.7960644  18.4574672  46.3829683  53.2602833  17.8455030  46.6990450
  53.8578408  19.0322807  47.0363349  53.7256276  18.4521599  46.5265110
  66.0254978  11.3898727  39.1634082  66.1438546  11.8475190  38.4301385
  65.8517154  10.5843988  38.8770300  66.0174149  11.3392499  39.0135016
  61.3957261  31.9986546  35.5988827  62.1607152  31.7296190  35.2771492
  61.2935351  31.5136557  36.3158890  61.4938756  31.8876111  35.6568655
  59.4310030  20.2010956  42.1382063  58.6406105  20.0202416  42.4599399
  59.8270653  19.4237908  42.1212358  59.3726907  20.0598417  42.1834611
  63.9175921  29.0298730  27.5788777  64.6848906  29.0898855  27.1694629
  63.4707230  28.4579171  27.0945095  63.9649348  28.9535306  27.4466487
  64.8153717  27.8353386  39.8641509  64.1398718  27.6038618  40.3654896
  64.8246093  27.2274569  39.2383614  64.7172221  27.7112311  39.8457661
  61.9447861  22.6771215  46.6205562  61.8807002  23.5381171  46.4925699
  62.0845048  22.3603208  45.8201113  61.9563331  22.7571381  46.4833775
  66.8170451  30.6918518  32.0951687  66.8990289  31.4985504  31.7713138
  67.3020193  30.7114477  32.8192460  66.9007609  30.8139181  32.1538586
  60.6266954  25.3703354  40.7621765  60.2029204  25.5707853  40.0260783
  60.4511810  24.5232202  40.8746065  60.5377835  25.2752136  40.6695455
  55.9149399  25.8655406  36.1949737  56.0714019  25.8002208  37.0505730
  56.2549993  26.6403958  35.9828417  55.9882634  25.9704604  36.2904332
  62.4528544  25.2413289  35.0643101  62.9944090  24.7383670  35.5281721
  62.7675103  25.1878484  34.2532586  62.5792941  25.1592710  35.0126913
  66.3245651  29.4515937  52.1770013  67.1380517  29.1801085  52.3375145
  66.1640618  29.1523477  51.3730209  66.4215600  29.3670863  52.0815419
  60.6214994  30.6330641  32.3483129  60.6907814  29.7745179  32.4876129
  61.4003449  30.8502522  32.0202153  60.7467844  30.5383505  32.3200286
  63.6017813  20.1349594  45.1165401  63.8159783  19.4960508  44.5628755
  62.9851713  20.5795418  44.6873263  63.5423143  20.1059737  44.9715832
  65.0122481  33.0568342  36.5619622  64.6202273  32.7535057  35.8442488
  65.1675554  33.8937432  36.3724576  64.9776071  33.1352179  36.4276119
  52.4883661  23.0490356  36.5110505  52.8682626  23.4674901  35.8470772
  51.9139026  23.6303812  36.8179348  52.4594986  23.1968215  36.4587246
  65.7656901  21.7438659  46.0548708  64.9533583  21.4364549  46.1361881
  66.2246836  21.2637659  46.6191420  65.7137286  21.6275151  46.1503302
  65.1762156  29.6218331  36.5025653  64.8176811  29.7932974  37.2789685
  64.6900867  30.0831537  35.9453651  65.0520853  29.7157302  36.5350922
  62.9932542  13.2449529  40.1052744  62.1226100  13.2188250  40.0586053
  63.2472883  13.0726722  39.2878590  62.9026102  13.2159673  39.9772881
  59.9650522  25.3017496  29.0425887  60.2543046  26.0782379  29.3169461
  60.0522320  24.7906228  29.7440386  60.0204778  25.3409415  29.1868385
  62.8610409  23.1498730  50.8377411  63.3310040  23.7740847  51.2245285
  62.9072289  22.4815706  51.3970625  62.9378285  23.1433411  50.9777482
  60.0181683  15.2555758  41.5626214  59.5020171  14.5635949  41.6877793
  59.4575611  15.9226535  41.5088813  59.8588196  15.2519015  41.5732280
  62.0873916  15.7948718  43.3919067  61.7005669  15.8197749  44.1732597
  61.6006853  15.2290396  42.9393584  61.9586425  15.7144469  43.4406971
  66.3366895  30.5122227  47.4492853  66.9746616  30.0182422  47.1155310
  65.6940987  30.4399627  46.8645080  66.3361122  30.4281235  47.3135208
  68.0623896  22.3611373  42.0158769  67.6351504  22.2737721  41.2606869
  67.4249949  22.4689148  42.6013613  67.9053503  22.3644033  41.9904211
  61.7531058  12.6815703  45.6829327  62.3824176  13.2176003  45.4050397
  61.9216920  12.5893062  46.5342892  61.8708852  12.7477066  45.7677855
  61.5544973  17.4686898  47.9555738  62.3818402  17.1972047  48.0114353
  61.5752819  18.2647740  48.3119557  61.6797823  17.5466652  48.0170921
  66.3921152  31.2042035  44.0898210  67.1813530  30.8531100  44.2100292
  66.5664750  32.0178424  43.8274844  66.5341434  31.2727892  44.0686078
  56.1314462  24.6150761  41.1425999  55.2902469  24.5154635  41.3504893
  56.3404470  25.3846241  41.4940320  56.0379155  24.7142804  41.2253314
  53.6090029  22.2370298  38.9710750  53.2146727  22.3113310  38.1960859
  53.0530146  22.6228244  39.5219111  53.4692842  22.3052072  38.9378410
  65.2454976  15.2151592  38.6514629  65.4504570  15.1473900  39.4971626
  64.9181400  16.0210413  38.5835806  65.2270224  15.3237532  38.7674284
  59.9431127  22.5432160  40.3923597  59.6394265  21.9888148  40.9934004
  59.2410548  22.7224370  39.9051631  59.7947337  22.4876942  40.4093302
  58.9997224  19.8532680  34.9568298  59.2756959  19.1351592  34.5445866
  59.5995894  20.4517600  34.7489405  59.1290489  19.8353051  34.8649060
  58.0049478  29.7581881  45.0995694  57.8969833  29.7683943  45.9657752
  58.2145260  30.5836661  44.9100648  58.0199589  29.8822956  45.1999786
  68.4988664  15.7683356  38.1317394  67.8862978  16.2553758  38.5171126
  68.5952839  15.0926847  38.6755045  68.4226562  15.7401665  38.2696252
  62.5007745  17.5246197  33.2314893  62.9551491  17.6956758  33.9562738
  62.9747791  16.9114308  32.8312669  62.6376065  17.4597082  33.2788655
  56.0223270  27.0094523  42.5617632  55.4311204  27.6504021  42.5320647
  56.7844294  27.4332140  42.5348931  56.0471531  27.1670362  42.5532779
  56.4183893  18.1696521  43.2285650  56.8785375  18.2435450  43.9660773
  56.4640000  18.9677775  42.8785471  56.4934448  18.2990668  43.2858406
  58.0667243  18.8363216  47.7957677  57.6752808  18.1896563  48.2313454
  58.2353106  19.4274651  48.4151932  58.0338153  18.8277484  47.9520383
  72.1413692  26.8400293  43.5594910  72.1996816  27.2886942  44.3054887
  71.5080160  27.2499106  43.1224990  72.0564987  26.9674027  43.6047459
  65.7812787  32.4603835  39.9949656  65.5832475  32.9494649  39.3005868
  65.1600498  32.6645076  40.5733790  65.6600351  32.5620373  39.9772880
  59.8420765  24.2288732  34.3359901  60.5862810  24.6163008  34.5742851
  59.9881461  23.3846157  34.5000388  59.9731350  24.1619204  34.3953870
  61.7600340  16.0238990  39.3691762  60.9136385  16.1961798  39.2433112
  61.7571473  15.2188334  39.7057590  61.6347490  15.9300019  39.4002889
  62.8298641  19.8014205  40.2353820  62.3558595  19.2755967  40.7459131
  63.2016777  19.2543678  39.6668682  62.8148530  19.6430201  40.2268967
  53.2071671  21.7985712  45.6037366  54.0697284  21.6981421  45.5174696
  52.8763454  21.2180421  45.0422938  53.2856867  21.6977338  45.5082772
  69.0935371  24.8616581  41.6460601  68.8533594  24.0222996  41.6503027
  69.5727379  24.9416747  42.3701374  69.1287555  24.7497980  41.7535403
  64.7582140  20.6950759  33.2979574  64.2305159  20.7779503  32.6085283
  65.2177849  21.4368631  33.2944218  64.7483991  20.8171422  33.1954269
  71.0940558  21.6418038  39.5989860  70.8550328  21.6013872  38.7610644
  71.2574460  22.4889190  39.7255581  71.0830862  21.7610123  39.4943342
  56.5673457  20.6228161  42.2647784  55.9426527  20.6346553  41.6573737
  56.2319052  21.0988336  42.9139024  56.4258949  20.6946678  42.2704353
  56.7515206  18.9653279  28.3220469  56.4028010  19.6173004  28.7852018
  56.2711651  18.9510392  27.5944340  56.6285450  19.0596333  28.2831560
  53.2799132  28.6828621  43.7051548  52.7499057  27.9921060  43.7546523
  53.5524226  28.6738806  42.8764257  53.2423855  28.5795752  43.5898964
  64.3119223  29.2654323  32.4289231  65.0353422  29.7312436  32.2853804
  63.8719814  29.3327933  31.6786828  64.3534915  29.3438160  32.2974012
  63.4805378  26.1251865  43.6789920  62.8662371  25.5809916  43.9738555
  63.9972663  25.6116102  43.1995736  63.4661040  25.9688274  43.6514148
  62.7201675  27.1956135  41.4134218  62.2929283  26.5705854  40.9799654
  62.7126620  26.9131057  42.2393226  62.6560816  27.0608916  41.4714046
  55.8364202  22.2321308  44.4822652  55.9957689  21.4764633  44.8874374
  55.6557096  22.7812248  45.1363390  55.8329561  22.2015122  44.6385358
  63.7784505  14.3982544  45.0373442  63.2825067  14.5946218  44.3465009
  64.5353567  14.7975212  44.8662244  63.8171330  14.4860278  44.9093579
  61.0487385  18.0724890  41.6276752  61.0729872  17.5385002  40.9389532
  61.2998858  17.5642199  42.2902343  61.0897304  17.9185794  41.6241397
  57.3288707  16.7995708  41.0082497  57.3687079  17.3004915  41.7217204
  56.5038372  16.8906102  40.7388420  57.2128233  16.8877524  41.0733035
  59.5118320  26.3656448  49.1102791  58.6613951  26.5028162  49.2460436
  59.6746448  25.6320226  49.5550493  59.4102184  26.2770549  49.1958391
  58.7503071  23.3156218  43.3056396  57.9195000  23.4830036  43.0991644
  58.6954588  22.9392169  44.0905281  58.6192485  23.2845949  43.3904924
  56.5586854  16.8065111  48.9412807  57.1839557  16.2627244  49.2142239
  56.1037334  16.3260028  48.3720597  56.5835114  16.6554592  48.8974400
  57.1239114  21.5911809  33.8346514  57.2642075  22.0884274  34.5375155
  57.6221647  20.8898104  33.9760727  57.2180195  21.5613788  33.9598093
  57.1539337  22.4578920  31.1639090  57.7884416  23.0539346  31.0988552
  57.2364948  22.1582378  31.9784960  57.2595888  22.5019829  31.2742177
  70.1321903  24.9894398  44.0325455  70.7239743  25.6291649  44.0643653
  70.5680897  24.2917435  44.3217521  70.2840334  24.9812748  44.0806287
  58.7318320  18.3892896  31.1384532  59.0534161  17.9095978  30.4843795
  58.9945263  19.1992542  30.9475344  58.8184345  18.4382794  31.0140024
  61.9615292  29.4111770  44.6583348  61.4540383  29.9647617  45.1023979
  61.6641939  29.4720060  43.8402123  61.8420177  29.5018081  44.6031805
  64.1277475  17.7765090  43.5008011  64.5532546  17.3237616  42.8891538
  63.5134468  17.2225161  43.7772799  64.1006120  17.6279066  43.4513037
  53.6592325  24.6546761  34.4328636  54.1684554  25.2511269  34.8139942
  54.1326597  24.3872735  33.7505056  53.8035700  24.7032577  34.3883159
  64.5723073  33.3275028  32.5887292  63.8552382  33.1535890  32.1234529
  65.2229810  33.0927600  32.0562778  64.5624923  33.2670820  32.4416510
  62.5671697  14.2480190  36.9098588  61.9240015  14.0977836  37.4783727
  62.2271104  14.0022535  36.1447693  62.4216775  14.1892312  36.8801604
  67.1571044  22.2039616  36.3328597  66.4862234  22.7469319  36.2041663
  67.8510794  22.6734472  36.0910292  67.1599911  22.3537888  36.2784125
  61.2057778  34.3436328  41.5640355  60.9823432  33.5855158  41.9324382
  60.7167621  34.3734350  40.8420795  61.1001227  34.2358553  41.5117096
  67.3199171  18.6595500  39.2418970  67.6726781  18.2325223  39.9164769
  66.4613973  18.5746344  39.3720047  67.2448616  18.5840241  39.3613981
  56.0182856  21.2903020  37.3001817  55.2994845  21.7067152  37.5674680
  56.3895219  21.8557259  36.7493455  55.9674788  21.4352301  37.2584624
  65.3182437  21.9230869  43.1903812  65.2980364  21.7414164  44.0438591
  65.3661638  22.7942887  43.1663396  65.3217078  22.0247407  43.3127107
  63.2628767  28.5118061  49.1152289  63.2224622  27.8667738  48.5297445
  64.0752085  28.4554678  49.4277701  63.3771921  28.4077028  49.0749238
  59.8536235  34.5636787  39.0177440  59.4396633  33.9010917  38.6281282
  60.5383609  34.7114645  38.4973134  59.8934606  34.4877445  38.8833937
  63.2201529  33.7226872  39.7701056  62.8217812  33.8329142  39.0021877
  62.6052748  33.9308938  40.3527616  63.0700418  33.7700440  39.7432356
  61.7929431  20.3301020  32.6375196  61.1994270  20.6518016  32.0859763
  61.8304708  19.4842115  32.4296302  61.7103820  20.2525348  32.5257968
  68.7523231  13.7813912  40.1703283  68.2454096  13.0743052  40.1024460
  69.5490665  13.4507101  40.3004359  68.7950471  13.6287063  40.1802278
  64.6687247  20.2880524  36.0676946  64.4400940  20.3113226  35.2255305
  64.9285323  19.4637991  36.1871957  64.6733435  20.1696604  35.9602144
  58.9506476  22.1414997  45.6702047  58.4385379  21.5336180  46.0287078
  58.7785972  22.8571590  46.1376022  58.8496113  22.1578297  45.7918270
  53.7972190  20.5852573  48.3204408  53.6274781  21.2453947  47.7752615
  53.3538140  20.7959134  49.0416898  53.7071524  20.7138555  48.3466038
  57.7232010  18.8257070  37.3631142  58.1989376  19.1874150  36.7281323
  57.2220609  19.4813538  37.6431285  57.7197369  18.9751259  37.3107883
  70.9543371  28.2978839  33.1544147  71.3376977  29.0470195  33.3842244
  70.1587485  28.5444658  32.8956136  70.8937154  28.4448532  33.1501721
  62.8275546  20.0639242  48.1104302  63.3846976  19.8353051  47.4782768
  62.5036611  20.8244908  47.8339515  62.8621956  20.1423079  47.9760799
  60.5458663  23.1506895  49.0756309  61.2969990  23.4658572  49.3895864
  60.7381240  22.9486066  48.2490231  60.6850077  23.1674277  48.9999705
  59.7658663  20.9698270  30.7304526  60.1457628  20.9877899  29.9455641
  59.0251259  21.4152259  30.6095373  59.7127501  21.0380045  30.5968094
  67.3943953  19.2780461  36.3180105  67.3938180  19.1229118  37.1764381
  67.1900134  20.1243449  36.2621490  67.3643731  19.3801082  36.4368044
  65.1184806  23.9577963  39.9716312  65.6138471  23.2400958  39.9320332
  64.3084581  23.6548761  39.8570799  65.0728699  23.8075610  39.9490037
  60.5643417  27.8075777  32.1213316  59.7554740  27.4842450  32.0746626
  61.0718326  27.1008999  32.0541565  60.5193084  27.6557093  32.1043610
  67.1836624  26.7081651  42.6593440  67.6091696  26.1856073  42.1063865
  66.8193544  27.3062488  42.1382063  67.1923227  26.7191878  42.5002450
  63.7715224  30.4215915  38.9894598  64.2426402  31.1356178  39.1584583
  64.1075402  29.8214665  39.5254467  63.8910339  30.4387379  39.0926974
  65.8592208  32.0317228  51.1686670  65.9689174  31.2425789  51.5243417
  66.1883105  31.9423165  50.3661008  65.9244614  31.9023081  51.1029061
  60.6884719  15.1943386  45.9452693  60.8212624  14.3974379  46.2733668
  61.0729872  15.7209789  46.5250968  60.7641048  15.1543302  46.0796196
  64.4089170  30.2133849  45.7522291  63.8610116  29.5891733  45.4842356
  64.8702199  30.4028121  45.0366370  64.3956380  30.1492899  45.6072722
  63.7617074  12.1173712  42.5433786  62.9563038  12.0071441  42.8601624
  63.6323809  12.2186167  41.6863652  63.6237207  12.1157382  42.4641826
  67.2183034  18.2819204  43.1373483  66.6346023  18.7828410  42.7251050
  67.5387329  17.7748760  42.5037806  67.1796210  18.2811039  42.9831990
  59.7577834  17.1959798  33.4132158  60.5793528  17.3658111  33.1713853
  59.2947485  17.3507059  32.6898455  59.8108996  17.2441531  33.2703802
  58.3473166  15.1902561  44.1930586  58.8917579  14.8493688  44.7834928
  58.4010101  16.0488022  44.3351871  58.4362285  15.2657820  44.3012460
  54.1603724  28.9518977  41.0669394  54.7648582  28.9114811  40.4383215
  53.9531037  29.7990129  41.0973450  54.2192622  29.0706979  40.9785511
  63.9747496  31.2184922  42.2831632  64.7945870  31.0747888  42.5447927
  63.6941574  31.8431121  42.8248070  64.0544240  31.2895274  42.4019571
  73.6460832  37.9625425  40.0027439  72.7898727  38.1233923  40.0536555
  73.6928485  37.0917489  40.0232500  73.5259943  37.8576226  40.0133505
  68.0301971  47.4988142  35.7664670  67.2784871  47.1203681  35.5380715
  68.4787983  47.5306576  35.0183480  67.9851638  47.4473750  35.6222172
  76.9554548  44.2311950  49.6087895  77.6621315  43.7363981  49.7374829
  77.1442484  44.6721032  48.8790553  77.0882454  44.2230301  49.5196940
  73.4826931  47.9213512  31.1950217  73.1478300  48.5990434  30.7594439
  73.9953802  47.5318823  30.6067089  73.5092512  47.9638090  31.0437009
  73.0231223  49.8727781  37.1361329  73.4070602  50.4414679  36.5966104
  72.9590364  49.1477291  36.6567145  73.0704650  49.8503244  36.9855191
  76.4912653  40.0217469  42.6459090  77.0368613  40.7002555  42.7053060
  76.4329529  39.8804929  41.7860672  76.5628567  40.1009470  42.5271151
  69.6086728  47.5106535  38.0327443  69.7097090  46.7006889  38.3424570
  69.0128473  47.4163481  37.4027121  69.5359266  47.3771563  37.9853681
  69.4487467  52.4284124  39.4342299  70.0924923  52.8697288  39.8238457
  69.7743723  51.6237550  39.3472557  69.5919296  52.3749319  39.4787776
  65.1041859  35.7012552  40.5564084  64.4846891  35.1105199  40.3874099
  65.0025723  36.2923987  39.9228407  64.9979535  35.7016634  40.4369073
  70.1508047  45.4396099  34.8062160  70.4723888  45.9801306  34.2023468
  70.7980143  44.8692870  34.9384450  70.2934102  45.4355274  34.7369196
  72.2009755  37.4412094  34.8896547  72.8989920  37.6200221  35.3818010
  72.5162087  36.9182433  34.2666936  72.3505092  37.3905866  34.8698557
  72.3897690  43.8282539  34.8776338  72.8291326  43.2199639  35.3231111
  72.2402353  43.4489912  34.1061804  72.4319156  43.6821010  34.8295506
  69.8569333  42.4226550  42.0795164  70.5018336  41.9298994  41.7606113
  70.0971110  42.5651337  42.9061242  69.9879918  42.3703993  42.1544697
  72.3955425  45.2681456  41.7302057  72.6778668  44.4732862  41.5088812
  73.1241585  45.7462044  41.7507118  72.5444988  45.2216053  41.7005072
  70.3736619  32.8104490  38.9717822  70.0439949  33.2615634  38.3021520
  69.6981620  32.7320654  39.5190828  70.2247055  32.8655625  38.9541045
  75.9907027  42.1809720  31.8307108  75.9058322  43.0370687  31.9756677
  76.4791410  41.9054044  32.4989267  76.0495924  42.2667041  31.9509189
  77.5813026  28.7990013  37.2167432  77.2666467  29.4893492  37.6487855
  77.0639968  28.7434795  36.5152933  77.4577497  28.8924902  37.1764381
  76.9225460  38.7994514  33.3304843  76.3936932  39.0154148  33.9902149
  77.4450480  39.4930653  33.2505812  76.9213913  38.9337651  33.4160442
  68.8125068  42.6957731  32.1312311  68.2282283  43.2007762  32.5378175
  68.4095163  42.4700118  31.3908903  68.6664372  42.7365979  32.0817336
  64.3669097  48.4112492  38.9335982  63.8836675  49.1362982  38.9095566
  65.1792415  48.7088622  39.0446140  64.4159844  48.5614846  38.9463262
  70.4383251  47.2044673  41.5385797  69.9210192  46.8452088  40.9347105
  71.1357642  46.6806847  41.5491863  70.4648832  47.0742361  41.4516056
  74.0946843  47.6539487  47.5001970  74.1830188  47.4665627  48.3480180
  74.5236555  47.0076916  47.1006817  74.1708945  47.5302494  47.5673721
  71.6617302  46.9370647  46.4819632  71.0988137  46.5243257  47.0059293
  72.4238326  46.8623552  46.9012775  71.6911751  46.8648047  46.6212632
  73.2702282  38.9423383  30.6081231  73.5098286  39.1501367  29.7956575
  73.5918123  38.1380892  30.7170176  73.3539440  38.8537484  30.5041785
  68.5792573  30.8716779  34.4540769  69.3338541  31.2395096  34.2157820
  68.4020107  31.2456333  35.2219949  68.6647051  30.9814967  34.5325658
  67.2213294  48.9268668  39.0856262  67.9233873  48.4120657  39.1429019
  67.1410777  49.2542819  39.8903137  67.3137054  48.8982894  39.2129054
  68.2692200  39.1644255  48.2136677  68.4412704  39.0550149  49.0621959
  68.8061558  39.8098660  47.9767870  68.3737204  39.2436256  48.3041774
  66.9349637  33.2787098  31.1518882  66.7525210  33.4958978  30.3259875
  67.7975250  33.3926110  31.2077497  67.0354227  33.3276996  31.0373369
  67.1716772  45.5375895  42.8955176  67.7114997  45.3947026  43.5658548
  66.4886718  45.9372646  43.2639202  67.1508926  45.5755566  43.0489598
  72.6149356  30.2813508  34.1867906  73.3435517  30.1029463  33.7406062
  72.7044249  31.1231588  34.3975084  72.7356018  30.3797387  34.1521424
  76.5957657  41.2166896  38.0900200  77.3515172  41.6498410  38.1289109
  76.7019982  40.5671665  38.6634836  76.7227828  41.1844380  38.1798226
  74.2066902  47.0848506  50.1645753  74.9907318  47.1979354  50.5301496
  74.0063496  46.2589643  50.3604439  74.2932927  46.9795225  50.2480139
  66.4811664  36.5561270  29.6641355  65.7669841  36.2699450  30.0763788
  66.9655633  36.8957896  30.3047743  66.4471028  36.5642920  29.8196990
  67.3252524  35.2954564  45.6956605  66.6324320  34.8251544  45.9417337
  67.9412851  35.0692869  46.2698312  67.3137054  35.1921696  45.8165758
  74.3637295  48.9958608  43.8112209  73.5652541  48.7558108  44.0686078
  74.8123307  49.0473001  44.5579257  74.3111906  48.9680999  43.9597133
  73.6558982  45.0591224  30.0403164  74.0710131  44.7276248  29.3487659
  72.8250912  44.8260127  29.9123300  73.5946991  44.9762480  29.9194011
  66.0493083  39.2619968  46.8383450  66.7733055  39.2472999  47.3248345
  66.1509219  39.9715323  46.3405418  66.1711292  39.3644671  46.8362237
  73.4238032  42.7419053  51.7032397  72.6311013  43.0562565  51.8885017
  73.5386959  42.9570521  50.8653182  73.3233443  42.8202889  51.6070732
  76.0969351  39.4653044  35.9927413  76.1916205  40.2042338  36.4467039
  75.4728195  39.0370519  36.4261978  76.0178381  39.5114364  36.1235561
  74.3521825  42.6439257  46.6417694  74.9260687  42.0066501  46.7966258
  74.2736629  42.6443339  45.7727352  74.4255060  42.5504368  46.5364105
  76.3492372  41.3101784  29.2264365  76.2672535  41.3803971  30.0919352
  76.9872093  41.8731528  29.0348106  76.4312210  41.4040755  29.3254315
  69.7085543  41.0762522  38.6938891  69.4504788  40.2434256  38.6670191
  69.7634026  41.3020135  37.8531392  69.6785321  40.9860293  38.5659028
  74.7886594  33.1790972  38.7942984  74.0842920  32.6900158  38.9526903
  74.8371568  33.1913447  37.9231429  74.6916645  33.1080620  38.6882324
  68.6820256  38.6300284  39.1803786  68.1069847  38.7892452  39.8167747
  68.3055932  37.9935693  38.7172237  68.5423068  38.5598097  39.2058345
  72.3493544  37.1023633  44.0396165  71.9607977  36.6777851  43.3848356
  71.6848243  37.3505783  44.5473191  72.1940472  37.0762354  44.0184033
  76.1719906  30.7998262  41.5520149  76.5530418  30.1176433  41.9388023
  75.3683190  30.5107864  41.3695813  76.1096368  30.6565311  41.5824205
  73.4532483  41.3322238  32.2372972  74.2673121  41.6237131  32.1255743
  73.3891624  40.6782100  31.6631265  73.5635222  41.2787433  32.1361809
  69.3240391  44.8043755  37.3645284  69.9614338  44.5655503  37.9097077
  69.7495462  45.0080914  36.6298444  69.4816557  44.7994766  37.3362441
  69.9643206  40.0246045  31.7020173  70.3488359  39.8053752  32.4536718
  69.7154826  40.8508991  31.8321249  69.9845278  40.1144191  31.8321249
  70.1311746  33.3052460  51.4182757  69.8165187  34.0752023  51.1552320
  69.8101679  32.7422716  50.8334984  70.0370665  33.3362729  51.2924107
  71.7061863  45.2816178  39.0439070  71.7800871  45.1191350  39.8980920
  72.5231369  45.4706368  38.7999552  71.8378221  45.2852920  39.1337096
  67.6843643  31.6942982  37.0328954  66.8166069  31.7665581  37.0986563
  67.9718847  32.4965061  37.2216929  67.5983391  31.8237129  37.0703720
  76.8076532  31.8420841  45.3640275  77.5530124  31.6530652  44.9503701
  76.3913837  32.3679079  44.8054132  76.8561506  31.8922987  45.2204849
  70.2466448  48.2450921  33.7752543  70.5364747  47.8539902  33.0511770
  70.9769929  48.4267626  34.2157819  70.3973333  48.2144735  33.7335350
  70.8361194  43.0468667  44.8605674  70.3372887  43.7584435  44.9390562
  71.6461418  43.3669334  44.8223836  70.8817300  43.1995516  44.8662242
  68.1872364  50.2218304  36.8412693  67.9672659  49.9315658  37.6339360
  67.9666886  49.5633259  36.3130605  68.1219958  50.0818012  36.8801602
  77.8867209  37.4526403  39.4250377  77.5431975  36.7316739  39.7757626
  77.9860252  37.2440255  38.5828735  77.8509252  37.3150607  39.3522057
  70.3540320  51.5947693  35.6243385  71.0064378  51.0624136  35.8534411
  69.6565928  51.2416346  36.0111259  70.3471038  51.4637216  35.7155553
  69.7628252  35.9049711  50.1567972  68.9528027  36.2107491  50.0457814
  70.2402938  36.6255294  50.2720556  69.7131730  36.0564313  50.1575043
  68.6219811  45.1195432  40.4050875  68.1000565  45.2595724  41.0902740
  69.0093832  44.3606097  40.5952992  68.6023512  45.0280956  40.5351952
  65.6110995  35.1701241  34.4745830  65.3235791  34.8002512  33.7377777
  66.2981463  35.6396096  34.2129535  65.6699893  35.1848211  34.3260906
  74.8186816  46.8590892  34.3911444  74.5773492  46.1258752  33.9838509
  74.9988149  47.4077749  33.7377777  74.8094440  46.8313283  34.2341667
  70.0486137  42.1499451  35.8032366  69.8528919  42.7574186  35.2092669
  70.2720482  41.4567395  35.3224040  70.0520778  42.1376977  35.6448447
  68.4464667  39.0354189  35.9213235  69.1687319  39.1995347  35.4617041
  67.9672660  39.7563854  35.8152574  68.4828397  39.1652419  35.8378849
  76.4058174  35.3717988  41.3009919  75.5669275  35.3979267  41.0648183
  76.4762542  36.0188724  41.8815266  76.2926568  35.4714114  41.3519036
  66.0972284  41.4412262  45.0267374  66.6093380  41.7196515  44.3776134
  65.8108626  42.1801556  45.3930187  66.1307147  41.5914615  44.9857252
  74.8527453  32.2703365  36.0337535  75.5553806  32.0711113  35.5557494
  74.5871641  31.4979308  36.3406379  74.9174085  32.1266331  36.0082977
  63.1839190  35.9482454  35.3231111  63.2855326  36.7508615  35.6512086
  63.9795077  35.7469790  35.0254191  63.3167095  36.0368352  35.3266466
  69.6156009  33.5338650  45.0868416  69.4239206  33.5493785  45.9367839
  70.4654605  33.7302325  45.0635071  69.7131731  33.5653002  45.2091711
  64.0002922  36.0629632  43.0652232  63.8588414  35.2113573  43.1896740
  64.2843485  36.1058292  42.2414438  64.0210768  35.9429382  42.9619857
  74.1541514  37.8996722  37.2096721  73.9076229  37.8192473  38.0433510
  74.4826637  37.1150190  37.0159248  74.1662758  37.7722987  37.3044244
  78.0489563  44.6080081  40.9983502  77.9103922  45.3061127  41.5032244
  77.2689561  44.4528738  40.6419684  77.9132790  44.6880248  41.0209776
  76.3867648  40.9076457  47.2505884  76.3815687  40.0356273  47.2548310
  77.0928642  41.1064626  46.7775339  76.4912652  40.8080331  47.1812919
  70.1138542  40.6353441  46.6219704  70.2581917  41.2154649  45.9862814
  70.4614190  41.0129737  47.3269558  70.1866003  40.7774145  46.6318699
  72.2858459  39.8343609  44.4044835  71.5381773  40.0274623  43.9993113
  72.4399984  39.0088829  44.1668957  72.1980887  39.7408720  44.3090241
  69.1866297  48.8256212  43.4880731  69.3355860  48.2659128  42.8354135
  69.9666299  48.9048214  43.8713249  69.3240390  48.7541778  43.4477680
  71.7119597  48.9970855  44.7665221  71.6363268  48.3279666  45.3216010
  71.6409456  49.6988643  45.2805888  71.6900204  49.0015763  44.9242070
  72.5260236  33.7294160  45.2940239  72.9832850  34.4618134  45.4213031
  72.6016565  33.3060625  46.0527495  72.6051206  33.7751398  45.4241316
  64.7693227  33.9759979  46.3829683  64.2335417  33.3640338  46.6990450
  64.8310992  34.5508115  47.0363349  64.6988860  33.9706907  46.5265110
  76.9987562  26.9084035  39.1634082  77.1171130  27.3660498  38.4301385
  76.8249738  26.1029296  38.8770300  76.9906733  26.8577807  39.0135016
  72.3689844  47.5171854  35.5988827  73.1339735  47.2481498  35.2771492
  72.2667934  47.0321865  36.3158890  72.4671340  47.4061419  35.6568655
  70.4042614  35.7196264  42.1382063  69.6138689  35.5387724  42.4599399
  70.8003237  34.9423216  42.1212358  70.3459490  35.5783725  42.1834611
  74.8908505  44.5484038  27.5788777  75.6581490  44.6084163  27.1694629
  74.4439814  43.9764479  27.0945095  74.9381932  44.4720614  27.4466487
  75.7886300  43.3538694  39.8641509  75.1131302  43.1223926  40.3654896
  75.7978676  42.7459877  39.2383614  75.6904805  43.2297619  39.8457661
  72.9180444  38.1956523  46.6205562  72.8539585  39.0566479  46.4925699
  73.0577632  37.8788516  45.8201113  72.9295914  38.2756689  46.4833775
  77.7903035  46.2103826  32.0951687  77.8722872  47.0170812  31.7713138
  78.2752777  46.2299785  32.8192460  77.8740193  46.3324489  32.1538586
  71.5999538  40.8888662  40.7621765  71.1761787  41.0893161  40.0260783
  71.4244393  40.0417510  40.8746065  71.5110419  40.7937444  40.6695455
  71.1011232  52.4039175  43.2243222  71.5907162  51.7049964  43.0418887
  70.5295464  52.1063045  43.8119280  71.0895761  52.2565399  43.2844263
  66.8881983  41.3840714  36.1949737  67.0446602  41.3187516  37.0505730
  67.2282576  42.1589266  35.9828417  66.9615218  41.4889912  36.2904332
  73.4261128  40.7598597  35.0643101  73.9676673  40.2568978  35.5281721
  73.7407687  40.7063792  34.2532586  73.5525525  40.6778018  35.0126913
  77.2978235  44.9701244  52.1770013  78.1113100  44.6986393  52.3375145
  77.1373201  44.6708784  51.3730209  77.3948184  44.8856170  52.0815419
  71.5947577  46.1515949  32.3483129  71.6640398  45.2930487  32.4876129
  72.3736033  46.3687830  32.0202153  71.7200427  46.0568813  32.3200286
  74.5750397  35.6534902  45.1165401  74.7892367  35.0145816  44.5628755
  73.9584296  36.0980725  44.6873263  74.5155726  35.6245045  44.9715832
  75.9855065  48.5753650  36.5619622  75.5934857  48.2720365  35.8442488
  76.1408137  49.4122740  36.3724576  75.9508655  48.6537487  36.4276119
  63.4616245  38.5675664  36.5110505  63.8415209  38.9860209  35.8470772
  62.8871609  39.1489120  36.8179348  63.4327569  38.7153523  36.4587246
  76.7389485  37.2623967  46.0548708  75.9266167  36.9549857  46.1361881
  77.1979420  36.7822967  46.6191420  76.6869870  37.1460459  46.1503302
  76.1494740  45.1403639  36.5025653  75.7909394  45.3118282  37.2789685
  75.6633450  45.6016844  35.9453651  76.0253437  45.2342610  36.5350922
  73.9665126  28.7634837  40.1052744  73.0958684  28.7373558  40.0586053
  74.2205467  28.5912029  39.2878590  73.8758686  28.7344981  39.9772881
  70.9383105  40.8202804  29.0425887  71.2275630  41.5967687  29.3169461
  71.0254904  40.3091536  29.7440386  70.9937361  40.8594723  29.1868385
  73.8342993  38.6684038  50.8377411  74.3042624  39.2926155  51.2245285
  73.8804873  38.0001014  51.3970625  73.9110868  38.6618719  50.9777482
  70.9914266  30.7741066  41.5626214  70.4752755  30.0821257  41.6877793
  70.4308195  31.4411843  41.5088813  70.8320779  30.7704323  41.5732280
  73.0606500  31.3134026  43.3919067  72.6738253  31.3383057  44.1732597
  72.5739437  30.7475704  42.9393584  72.9319009  31.2329777  43.4406971
  77.3099479  46.0307535  47.4492853  77.9479200  45.5367730  47.1155310
  76.6673571  45.9584935  46.8645080  77.3093706  45.9466543  47.3135208
  72.7263641  28.2001011  45.6829327  73.3556759  28.7361311  45.4050397
  72.8949504  28.1078370  46.5342892  72.8441436  28.2662374  45.7677855
  72.5277556  32.9872206  47.9555738  73.3550986  32.7157355  48.0114353
  72.5485402  33.7833048  48.3119557  72.6530406  33.0651960  48.0170921
  77.3653736  46.7227343  44.0898210  78.1546114  46.3716408  44.2100292
  77.5397333  47.5363731  43.8274844  77.5074017  46.7913200  44.0686078
  67.1047046  40.1336069  41.1425999  66.2635053  40.0339943  41.3504893
  67.3137054  40.9031549  41.4940320  67.0111739  40.2328112  41.2253314
  64.5822613  37.7555606  38.9710750  64.1879311  37.8298618  38.1960859
  64.0262730  38.1413552  39.5219111  64.4425425  37.8237380  38.9378410
  76.2187560  30.7336900  38.6514629  76.4237153  30.6659208  39.4971626
  75.8913984  31.5395721  38.5835806  76.2002808  30.8422840  38.7674284
  70.9163711  38.0617468  40.3923597  70.6126848  37.5073456  40.9934004
  70.2143132  38.2409678  39.9051631  70.7679921  38.0062250  40.4093302
  69.9729808  35.3717988  34.9568298  70.2489542  34.6536900  34.5445866
  70.5728477  35.9702908  34.7489405  70.1023073  35.3538358  34.8649060
  68.9782062  45.2767189  45.0995694  68.8702417  45.2869251  45.9657752
  69.1877843  46.1021969  44.9100648  68.9932173  45.4008263  45.1999786
  73.4740329  33.0431505  33.2314893  73.9284075  33.2142066  33.9562738
  73.9480374  32.4299616  32.8312669  73.6108649  32.9782390  33.2788655
  66.9955854  42.5279831  42.5617632  66.4043787  43.1689329  42.5320647
  67.7576877  42.9517448  42.5348931  67.0204115  42.6855669  42.5532779
  67.3916477  33.6881829  43.2285650  67.8517958  33.7620758  43.9660773
  67.4372583  34.4863083  42.8785471  67.4667032  33.8175976  43.2858406
  69.0399826  34.3548524  47.7957677  68.6485392  33.7081871  48.2313454
  69.2085689  34.9459959  48.4151932  69.0070737  34.3462792  47.9520383
  76.7545370  47.9789143  39.9949656  76.5565059  48.4679957  39.3005868
  76.1333081  48.1830384  40.5733790  76.6332935  48.0805681  39.9772880
  70.8153349  39.7474039  34.3359901  71.5595393  40.1348316  34.5742851
  70.9614045  38.9031465  34.5000388  70.9463934  39.6804512  34.3953870
  72.7332924  31.5424298  39.3691762  71.8868969  31.7147106  39.2433112
  72.7304056  30.7373642  39.7057590  72.6080074  31.4485327  39.4002889
  73.8031224  35.3199513  40.2353820  73.3291179  34.7941275  40.7459131
  74.1749360  34.7728986  39.6668682  73.7881113  35.1615509  40.2268967
  64.1804255  37.3171019  45.6037366  65.0429868  37.2166729  45.5174696
  63.8496038  36.7365729  45.0422938  64.2589451  37.2162646  45.5082772
  75.7314724  36.2136067  33.2979574  75.2037743  36.2964811  32.6085283
  76.1910432  36.9553939  33.2944218  75.7216575  36.3356730  33.1954269
  67.5406040  36.1413469  42.2647784  66.9159111  36.1531860  41.6573737
  67.2051635  36.6173644  42.9139024  67.3991532  36.2131985  42.2704353
  67.7247789  34.4838587  28.3220469  67.3760594  35.1358312  28.7852018
  67.2444235  34.4695700  27.5944340  67.6018033  34.5781641  28.2831560
  75.2851807  44.7839631  32.4289231  76.0086005  45.2497744  32.2853804
  74.8452398  44.8513241  31.6786828  75.3267499  44.8623468  32.2974012
  74.4537962  41.6437173  43.6789920  73.8394955  41.0995223  43.9738555
  74.9705247  41.1301410  43.1995736  74.4393624  41.4873582  43.6514148
  73.6934259  42.7141443  41.4134218  73.2661867  42.0891162  40.9799654
  73.6859203  42.4316365  42.2393226  73.6293400  42.5794224  41.4714046
  66.8096786  37.7506616  44.4822652  66.9690273  36.9949940  44.8874374
  66.6289679  38.2997556  45.1363390  66.8062145  37.7200430  44.6385358
  74.7517089  29.9167852  45.0373442  74.2557650  30.1131526  44.3465009
  75.5086151  30.3160520  44.8662244  74.7903914  30.0045586  44.9093579
  72.0219968  33.5910198  41.6276752  72.0462456  33.0570310  40.9389532
  72.2731442  33.0827507  42.2902343  72.0629887  33.4371102  41.6241397
  68.3021291  32.3181016  41.0082497  68.3419662  32.8190223  41.7217204
  67.4770955  32.4091410  40.7388420  68.1860817  32.4062832  41.0733035
  70.4850904  41.8841756  49.1102791  69.6346534  42.0213470  49.2460436
  70.6479031  41.1505534  49.5550493  70.3834767  41.7955857  49.1958391
  69.7235654  38.8341526  43.3056396  68.8927584  39.0015344  43.0991644
  69.6687171  38.4577477  44.0905281  69.5925069  38.8031257  43.3904924
  67.5319437  32.3250419  48.9412807  68.1572141  31.7812552  49.2142239
  67.0769917  31.8445336  48.3720597  67.5567698  32.1739900  48.8974400
  68.0971698  37.1097117  33.8346514  68.2374659  37.6069582  34.5375155
  68.5954231  36.4083412  33.9760727  68.1912779  37.0799096  33.9598093
  68.1271920  37.9764228  31.1639090  68.7617000  38.5724653  31.0988552
  68.2097531  37.6767686  31.9784960  68.2328471  38.0205137  31.2742177
  69.7050903  33.9078204  31.1384532  70.0266744  33.4281286  30.4843795
  69.9677847  34.7177850  30.9475344  69.7916929  33.9568102  31.0140024
  72.9347876  44.9297078  44.6583348  72.4272967  45.4832925  45.1023979
  72.6374522  44.9905368  43.8402123  72.8152761  45.0203389  44.6031805
  75.1010058  33.2950398  43.5008011  75.5265130  32.8422924  42.8891538
  74.4867051  32.7410468  43.7772799  75.0738704  33.1464374  43.4513037
  75.5455656  48.8460336  32.5887292  74.8284966  48.6721198  32.1234529
  76.1962394  48.6112908  32.0562778  75.5357507  48.7856128  32.4416510
  73.5404281  29.7665498  36.9098588  72.8972599  29.6163144  37.4783727
  73.2003688  29.5207843  36.1447693  73.3949358  29.7077620  36.8801604
  78.1303627  37.7224924  36.3328597  77.4594817  38.2654627  36.2041663
  78.8243378  38.1919780  36.0910292  78.1332495  37.8723196  36.2784125
  72.1790361  49.8621636  41.5640355  71.9556016  49.1040466  41.9324382
  71.6900204  49.8919658  40.8420795  72.0733810  49.7543861  41.5117096
  78.2931755  34.1780808  39.2418970  78.6459365  33.7510531  39.9164769
  77.4346556  34.0931652  39.3720047  78.2181200  34.1025549  39.3613981
  66.9915440  36.8088328  37.3001817  66.2727429  37.2252460  37.5674680
  67.3627802  37.3742567  36.7493455  66.9407372  36.9537609  37.2584624
  74.2361351  44.0303369  49.1152289  74.1957205  43.3853046  48.5297445
  75.0484669  43.9739986  49.4277701  74.3504504  43.9262335  49.0749238
  70.8268818  50.0822095  39.0177440  70.4129217  49.4196225  38.6281282
  71.5116192  50.2299953  38.4973134  70.8667190  50.0062753  38.8833937
  74.1934112  49.2412180  39.7701056  73.7950395  49.3514450  39.0021877
  73.5785332  49.4494246  40.3527616  74.0433002  49.2885748  39.7432356
  72.7662014  35.8486328  32.6375196  72.1726854  36.1703324  32.0859763
  72.8037292  35.0027423  32.4296302  72.6836403  35.7710656  32.5257968
  75.6419831  35.8065832  36.0676946  75.4133524  35.8298534  35.2255305
  75.9017907  34.9823299  36.1871957  75.6466019  35.6881912  35.9602144
  69.9239059  37.6600305  45.6702047  69.4117962  37.0521488  46.0287078
  69.7518555  38.3756898  46.1376022  69.8228696  37.6763604  45.7918270
  64.7704774  36.1037880  48.3204408  64.6007364  36.7639255  47.7752615
  64.3270724  36.3144442  49.0416898  64.6804108  36.2323863  48.3466038
  68.6964593  34.3442378  37.3631142  69.1721960  34.7059458  36.7281323
  68.1953193  34.9998846  37.6431285  68.6929952  34.4936567  37.3107883
  73.8008130  35.5824550  48.1104302  74.3579560  35.3538359  47.4782768
  73.4769195  36.3430215  47.8339515  73.8354540  35.6608387  47.9760799
  71.5191247  38.6692203  49.0756309  72.2702574  38.9843880  49.3895864
  71.7113823  38.4671374  48.2490231  71.6582661  38.6859585  48.9999705
  70.7391247  36.4883578  30.7304526  71.1190211  36.5063207  29.9455641
  69.9983843  36.9337567  30.6095373  70.6860084  36.5565353  30.5968094
  78.3676537  34.7965769  36.3180105  78.3670763  34.6414426  37.1764381
  78.1632717  35.6428756  36.2621490  78.3376315  34.8986390  36.4368044
  76.0917389  39.4763271  39.9716312  76.5871054  38.7586266  39.9320332
  75.2817165  39.1734069  39.8570799  76.0461282  39.3260917  39.9490037
  71.5376001  43.3261084  32.1213316  70.7287323  43.0027758  32.0746626
  72.0450909  42.6194307  32.0541565  71.4925667  43.1742401  32.1043610
  78.1569208  42.2266959  42.6593440  78.5824279  41.7041381  42.1063865
  77.7926128  42.8247796  42.1382063  78.1655811  42.2377186  42.5002450
  67.7923288  50.5231176  41.4190786  68.1069847  51.3367565  41.4268568
  68.2016701  50.1381395  42.0872945  67.8991386  50.5859879  41.5194878
  74.7447807  45.9401223  38.9894598  75.2158986  46.6541486  39.1584583
  75.0807986  45.3399973  39.5254467  74.8642922  45.9572687  39.0926974
  76.8324792  47.5502536  51.1686670  76.9421757  46.7611097  51.5243417
  77.1615689  47.4608473  50.3661008  76.8977198  47.4208389  51.1029061
  71.6617302  30.7128694  45.9452693  71.7945208  29.9159687  46.2733668
  72.0462455  31.2395097  46.5250968  71.7373631  30.6728610  46.0796196
  75.3821754  45.7319157  45.7522291  74.8342700  45.1077041  45.4842356
  75.8434782  45.9213429  45.0366370  75.3688963  45.6678207  45.6072722
  74.7349658  27.6359020  42.5433786  73.9295621  27.5256749  42.8601624
  74.6056393  27.7371475  41.6863652  74.5969790  27.6342690  42.4641826
  78.1915618  33.8004512  43.1373483  77.6078607  34.3013718  42.7251050
  78.5119912  33.2934068  42.5037806  78.1528793  33.7996347  42.9831990
  70.7310417  32.7145106  33.4132158  71.5526112  32.8843419  33.1713853
  70.2680068  32.8692367  32.6898455  70.7841579  32.7626839  33.2703802
  69.3205749  30.7087869  44.1930586  69.8650162  30.3678995  44.7834928
  69.3742685  31.5673330  44.3351871  69.4094869  30.7843128  44.3012460
  74.9480080  46.7370230  42.2831632  75.7678454  46.5933196  42.5447927
  74.6674158  47.3616429  42.8248070  75.0276823  46.8080582  42.4019571
  73.7784355  59.0512129  37.6579776  73.5434540  58.2179781  37.5512045
  73.9169996  59.3316795  36.8440977  73.7640018  58.9695633  37.5222131
  76.0774443  51.2197860  40.5564084  75.4579475  50.6290507  40.3874099
  75.9758306  51.8109295  39.9228407  75.9712118  51.2201942  40.4369073
  75.8043576  54.7650141  42.8007653  75.6802273  55.3512587  43.4357472
  76.4561860  54.2710337  43.1019928  75.8817225  54.7788946  42.9393582
  75.3401680  63.9297800  38.9335982  74.8569258  64.6548290  38.9095566
  76.1524998  64.2273930  39.0446140  75.3892428  64.0800154  38.9463262
  77.9082221  48.7972406  31.1518882  77.7257794  49.0144286  30.3259875
  78.7707834  48.9111418  31.2077497  78.0086810  48.8462303  31.0373369
  77.5196653  60.6360328  38.5941870  78.3585552  60.8683261  38.6415632
  77.5508422  59.7664639  38.5248906  77.6478370  60.5417274  38.5906515
  78.1449356  61.0561203  42.8955176  78.6847581  60.9132334  43.5658548
  77.4619302  61.4557954  43.2639202  78.1241510  61.0940874  43.0489598
  73.5486501  57.2761494  43.0489597  73.2824916  56.4600610  43.2080588
  73.5625065  57.3214649  42.1785113  73.5111223  57.1618399  42.9443079
  77.4544248  52.0746578  29.6641355  76.7402425  51.7884758  30.0763788
  77.9388217  52.4143204  30.3047743  77.4203611  52.0828228  29.8196990
  73.9579915  58.0620273  40.3301342  73.7755488  58.0367159  39.4773634
  74.6929583  58.5319211  40.3690250  74.0393978  58.1281635  40.2099260
  77.0225666  54.7805276  46.8383450  77.7465639  54.7658307  47.3248345
  77.1241803  55.4900631  46.3405418  77.1443875  54.8829979  46.8362237
  73.9250825  54.9413774  40.4800408  74.5024327  54.8050225  41.1192654
  73.2264887  54.4849558  40.7345993  73.9071846  54.8536040  40.6122698
  69.4009658  53.7925667  37.1948227  69.4869910  53.4157535  37.9761757
  70.0285456  53.4186112  36.7168185  69.5066209  53.6811149  37.2393704
  74.9885617  62.5617400  41.2479587  75.0289762  62.8332251  40.4199367
  75.5480141  63.0859308  41.6637375  75.0768963  62.6793155  41.1871476
  76.4400203  61.1459349  36.0733513  75.6138321  61.3921086  35.9467792
  76.5012194  61.0671430  36.9395571  76.3274370  61.1704298  36.1822458
  76.5843579  50.6886549  34.4745830  76.2968375  50.3187820  33.7377777
  77.2714047  51.1581404  34.2129535  76.6432476  50.7033518  34.3260906
  77.0704867  56.9597570  45.0267374  77.5825964  57.2381823  44.3776134
  76.7841210  57.6986864  45.3930187  77.1039730  57.1099923  44.9857252
  74.1571773  51.4667762  35.3231111  74.2587910  52.2693923  35.6512086
  74.9527660  51.2655097  35.0254191  74.2899679  51.5553660  35.3266466
  74.9735505  51.5814940  43.0652232  74.8320997  50.7298880  43.1896740
  75.2576069  51.6243600  42.2414438  74.9943352  51.4614690  42.9619857
  75.7425811  49.4945287  46.3829683  75.2068000  48.8825646  46.6990450
  75.8043575  50.0693423  47.0363349  75.6721443  49.4892215  46.5265110
  77.8614567  56.9026021  36.1949737  78.0179186  56.8372824  37.0505730
  78.2015160  57.6774574  35.9828417  77.9347801  57.0075220  36.2904332
  74.4348828  54.0860972  36.5110505  74.8147793  54.5045517  35.8470772
  73.8604193  54.6674428  36.8179348  74.4060153  54.2338831  36.4587246
  78.0779630  55.6521377  41.1425999  77.2367636  55.5525251  41.3504893
  78.2869638  56.4216857  41.4940320  77.9844322  55.7513420  41.2253314
  75.5555197  53.2740914  38.9710750  75.1611894  53.3483925  38.1960859
  74.9995313  53.6598860  39.5219111  75.4158009  53.3422688  38.9378410
  77.9688438  58.0465139  42.5617632  77.3776371  58.6874637  42.5320647
  78.7309461  58.4702756  42.5348931  77.9936698  58.2040977  42.5532779
  78.3649060  49.2067137  43.2285650  78.8250542  49.2806066  43.9660773
  78.4105167  50.0048391  42.8785471  78.4399616  49.3361284  43.2858406
  75.1536838  52.8356327  45.6037366  76.0162451  52.7352037  45.5174696
  74.8228621  52.2551037  45.0422938  75.2322034  52.7347954  45.5082772
  78.5138624  51.6598776  42.2647784  77.8891694  51.6717168  41.6573737
  78.1784219  52.1358952  42.9139024  78.3724116  51.7317293  42.2704353
  78.6980373  50.0023895  28.3220469  78.3493177  50.6543620  28.7852018
  78.2176819  49.9881008  27.5944340  78.5750617  50.0966948  28.2831560
  75.2264300  59.7199237  43.7051548  74.6964224  59.0291675  43.7546523
  75.4989393  59.7109422  42.8764257  75.1889022  59.6166368  43.5898964
  77.7829369  53.2691924  44.4822652  77.9422856  52.5135248  44.8874374
  77.6022263  53.8182864  45.1363390  77.7794728  53.2385738  44.6385358
  70.5060142  56.3927001  41.0619897  70.4003591  56.3473845  40.1971981
  69.7560362  56.7380781  41.3434181  70.3795745  56.4367909  40.9757226
  75.6057492  55.6917377  34.4328636  76.1149721  56.2881885  34.8139942
  76.0791764  55.4243351  33.7505056  75.7500867  55.7403193  34.3883159
  77.9648023  52.3273636  37.3001817  77.2460013  52.7437768  37.5674680
  78.3360386  52.8927874  36.7493455  77.9139955  52.4722917  37.2584624
  75.7437358  51.6223188  48.3204408  75.5739948  52.2824563  47.7752615
  75.3003307  51.8329750  49.0416898  75.6536691  51.7509171  48.3466038
  72.6439422  54.5270054  43.5792898  72.0966142  53.8570700  43.6973767
  73.4331800  54.1599902  43.6436366  72.6791606  54.3735040  43.6061599
  71.4026392  53.7390862  40.7338921  71.2248153  53.2867471  41.4593837
  71.1145414  54.5417023  40.9177399  71.3339345  53.7913420  40.8682424
  73.1398861  56.2718586  37.8460680  72.2744381  56.2604276  37.7343452
  73.2397677  56.0848808  38.6931820  73.0273028  56.2424647  37.9549625
  76.1068891  59.9889593  41.0669394  76.7113749  59.9485427  40.4383215
  75.8996204  60.8360745  41.0973450  76.1657789  60.1077595  40.9785511
  71.3420174  58.9724210  40.9368317  71.2444452  58.1620482  41.2458374
  72.1249043  58.9516003  40.5514586  71.4436310  58.8491300  40.9255180
  56.7520212   8.9180966  22.7004717  56.0003111   8.5396504  22.4720762
  57.2006223   8.9499399  21.9523527  56.7069879   8.8666573  22.5562219
  62.2045172   9.3406335  18.1290264  61.8696540  10.0183257  17.6934486
  62.7172042   8.9511646  17.5407136  62.2310753   9.3830913  17.9777055
  61.7449463  11.2920604  24.0701376  62.1288842  11.8607503  23.5306151
  61.6808604  10.5670114  23.5907192  61.7922890  11.2696067  23.9195238
  58.3304968   8.9299358  24.9667489  58.4315331   8.1199712  25.2764617
  57.7346713   8.8356304  24.3367168  58.2577507   8.7964386  24.9193728
  58.1705708  13.8476947  26.3682345  58.8143163  14.2890111  26.7578504
  58.4961963  13.0430373  26.2812604  58.3137536  13.7942142  26.4127823
  51.5270012   4.9519644  24.5919823  51.2920197   4.1187297  24.4852092
  51.6655653   5.2324310  23.7781024  51.5125675   4.8703148  24.4562178
  58.8726287   6.8588922  21.7402207  59.1942128   7.3994129  21.1363515
  59.5198384   6.2885693  21.8724497  59.0152342   6.8548097  21.6709243
  61.1173665   6.6874280  28.6642103  61.3996908   5.8925685  28.4428859
  61.8459825   7.1654867  28.6847164  61.2663229   6.6408876  28.6345119
  53.0887337   9.8305315  25.8676029  52.6054915  10.5555805  25.8435613
  53.9010655  10.1281445  25.9786187  53.1378085   9.9807669  25.8803308
  59.1601491   8.6237496  28.4725844  58.6428433   8.2644911  27.8687152
  59.8575882   8.0999670  28.4831910  59.1867072   8.4935184  28.3856102
  62.8165083   9.0732310  34.4342017  62.9048429   8.8858450  35.2820227
  63.2454795   8.4269740  34.0346863  62.8927185   8.9495318  34.5013768
  60.3835543   8.3563470  33.4159679  59.8206378   7.9436080  33.9399340
  61.1456566   8.2816376  33.8352822  60.4129991   8.2840870  33.5552679
  55.9431534  10.3461491  26.0196309  56.6452113   9.8313480  26.0769066
  55.8629017  10.6735642  26.8243184  56.0355295  10.3175717  26.1469101
  55.2682310   6.5367843  25.5281917  56.1071209   6.7690776  25.5755679
  55.2994079   5.6672155  25.4588953  55.3964027   6.4424790  25.5246562
  55.8935013   6.9568718  29.8295223  56.4333238   6.8139849  30.4998595
  55.2104959   7.3565469  30.1979249  55.8727166   6.9948389  29.9829644
  62.9285142   8.5041329  37.0985800  63.7125559   8.6172177  37.4641542
  62.7281737   7.6782466  37.2944486  63.0151168   8.3988048  37.1820186
  51.2972158   3.1769009  29.9829644  51.0310573   2.3608126  30.1420634
  51.3110722   3.2222165  29.1125160  51.2596880   3.0625914  29.8783126
  63.0855536  10.4151431  30.7452256  62.2870781  10.1750931  31.0026125
  63.5341547  10.4665824  31.4919304  63.0330147  10.3873822  30.8937180
  51.7065571   3.9627789  27.2641388  51.5241145   3.9374675  26.4113681
  52.4415240   4.4326726  27.3030297  51.7879635   4.0289151  27.1439307
  58.0458631   6.2236579  24.2985330  58.6832578   5.9848326  24.8437124
  58.4713703   6.4273738  23.5638491  58.2034797   6.2187589  24.2702488
  52.7371274   8.4624915  28.1819634  52.7775419   8.7339766  27.3539414
  53.2965798   8.9866823  28.5977422  52.8254619   8.5800670  28.1211522
  60.4280103   6.7009001  25.9779117  60.5019111   6.5384173  26.8320967
  61.2449609   6.8899191  25.7339598  60.5596462   6.7045744  26.0677142
  54.1885860   7.0466864  23.0073560  53.3623977   7.2928601  22.8807839
  54.2497851   6.9678945  23.8735618  54.0760027   7.0711813  23.1162505
  58.9684689   9.6643744  20.7092590  59.2582987   9.2732726  19.9851817
  59.6988170   9.8460449  21.1497865  59.1191573   9.6337558  20.6675397
  56.9090604  11.6411127  23.7752740  56.6890900  11.3508481  24.5679407
  56.6885126  10.9826082  23.2470652  56.8438199  11.5010835  23.8141649
  59.0758560  13.0140517  22.5583432  59.7282618  12.4816959  22.7874458
  58.3784169  12.6609169  22.9451306  59.0689278  12.8830040  22.6495600
  56.0239825   5.3679694  21.9650807  56.7785793   5.7492733  22.1786269
  55.4310438   5.8190838  22.4197503  56.0476539   5.4908522  22.0633685
  57.3438052   6.5388256  27.3390922  56.8218805   6.6788547  28.0242787
  57.7312072   5.7798920  27.5293039  57.3241752   6.4473780  27.4691998
  63.5405057   8.2783715  21.3251491  63.2991732   7.5451576  20.9178556
  63.7206389   8.8270572  20.6717824  63.5312681   8.2506106  21.1681714
  57.9084537  10.2449036  30.4220777  58.0574101   9.6851952  29.7694182
  58.6884539  10.3241037  30.8053296  58.0458631  10.1734601  30.3817727
  60.4337838  10.4163679  31.7005268  60.3581509   9.7472489  32.2556057
  60.3627697  11.1181467  32.2145934  60.4118444  10.4208586  31.8582116
  61.0908085   8.9364677  22.5328874  61.8557976   8.6674321  22.2111538
  60.9886174   8.4514688  23.2498937  61.1889580   8.8254242  22.5908702
  59.8229472  13.8231998  30.1583269  60.3125402  13.1242788  29.9758934
  59.2513704  13.5255868  30.7459326  59.8114002  13.6758222  30.2184310
  60.3165818   7.5708772  19.2823176  60.3858638   6.7123310  19.4216176
  61.0954273   7.7880653  18.9542200  60.4418668   7.4761636  19.2540333
  64.7073305   9.9946473  23.4959669  64.3153097   9.6913188  22.7782535
  64.8626378  10.8315563  23.3064623  64.6726895  10.0730310  23.3616166
  66.0871976   8.1420166  31.0238257  66.8764354   7.7909231  31.1440339
  66.2615574   8.9556555  30.7614891  66.2292258   8.2106023  31.0026125
  57.7000302   6.6960012  32.0335741  57.5920657   6.7062074  32.8997799
  57.9096084   7.5214792  31.8440695  57.7150413   6.8201087  32.1339833
  55.7174094   3.9472654  29.4957679  55.1262028   4.5882152  29.4660694
  56.4795118   4.3710272  29.4688978  55.7422355   4.1048493  29.4872826
  65.4763611   9.3981966  26.9289703  65.2783299   9.8872780  26.2345915
  64.8551322   9.6023207  27.5073837  65.3551175   9.4998504  26.9112926
  52.9749956   5.6206752  30.6391595  52.4449881   4.9299191  30.6886570
  53.2475050   5.6116937  29.8104304  52.9374679   5.5173884  30.5239011
  48.2545799   2.2934516  27.9959943  48.1489248   2.2481360  27.1312027
  47.5046019   2.6388297  28.2774228  48.1281402   2.3375424  27.9097273
  61.6566116   6.3489901  31.5923395  61.1491207   6.9025748  32.0364026
  61.3592762   6.4098191  30.7742170  61.5371001   6.4396213  31.5371852
  64.2673897  10.2653159  19.5227339  63.5503206  10.0914021  19.0574576
  64.9180634  10.0305731  18.9902825  64.2575747  10.2048952  19.3756557
  60.9008602  11.2814460  28.4980402  60.6774256  10.5233289  28.8664428
  60.4118445  11.3112481  27.7760842  60.7952051  11.1736684  28.4457143
  59.5487058  11.5014918  25.9517487  59.1347457  10.8389048  25.5621328
  60.2334433  11.6492777  25.4313181  59.5885430  11.4255576  25.8173984
  62.9152353  10.6605003  26.7041103  62.5168636  10.7707273  25.9361924
  62.3003572  10.8687069  27.2867663  62.7651242  10.7078571  26.6772403
  56.5141528  11.9423999  28.3530833  56.8288087  12.7560388  28.3608614
  56.9234941  11.5574218  29.0212992  56.6209626  12.0052702  28.4534924
  63.4666048   7.3594046  25.9234645  63.9377226   8.0734309  26.0924630
  63.8026226   6.7592796  26.4594514  63.5861163   7.3765510  26.0267021
  65.5543032   8.9695360  38.1026717  65.6639998   8.1803920  38.4583464
  65.8833929   8.8801296  37.3001055  65.6195438   8.8401213  38.0369108
  53.8554548   5.8897108  28.0009441  54.4599406   5.8492942  27.3723262
  53.6481861   6.7368260  28.0313497  53.9143446   6.0085110  27.9125558
  63.6698320   8.1563053  29.2171679  64.4896694   8.0126019  29.4787974
  63.3892398   8.7809252  29.7588116  63.7495064   8.2273405  29.3359618
  49.0905831   4.8731725  27.8708364  48.9930109   4.0627997  28.1798421
  49.8734700   4.8523519  27.4854632  49.1921967   4.7498816  27.8595227
  73.3411656  14.9003556  26.9367485  72.4849551  15.0612054  26.9876602
  73.3879309  14.0295620  26.9572546  73.2210767  14.7954358  26.9473551
  67.7252795  24.4366274  22.7004717  66.9735695  24.0581812  22.4720762
  68.1738807  24.4684707  21.9523527  67.6802462  24.3851881  22.5562219
  76.6505372  21.1690081  36.5427941  77.3572139  20.6742112  36.6714876
  76.8393308  21.6099163  35.8130599  76.7833278  21.1608432  36.4536987
  73.1777755  24.8591643  18.1290264  72.8429124  25.5368565  17.6934486
  73.6904626  24.4696954  17.5407136  73.2043336  24.9016221  17.9777055
  72.7182046  26.8105912  24.0701376  73.1021426  27.3792810  23.5306151
  72.6541188  26.0855422  23.5907192  72.7655474  26.7881375  23.9195238
  76.1863477  16.9595600  29.5799137  76.7319437  17.6380686  29.6393107
  76.1280353  16.8183061  28.7200718  76.2579391  17.0387601  29.4611198
  69.3037551  24.4484666  24.9667489  69.4047914  23.6385020  25.2764617
  68.7079297  24.3541612  24.3367168  69.2310090  24.3149694  24.9193728
  77.9628545  18.3880207  20.4532865  77.8468071  19.1387893  20.8825003
  78.7584432  18.1304160  20.7028952  78.0633135  18.4615054  20.5536956
  69.1438291  29.3662255  26.3682345  69.7875747  29.8075419  26.7578504
  69.4694547  28.5615681  26.2812604  69.2870120  29.3127450  26.4127823
  62.5002596  20.4704952  24.5919823  62.2652780  19.6372605  24.4852092
  62.6388237  20.7509618  23.7781024  62.4858258  20.3888456  24.4562178
  64.7992683  12.6390683  27.4904131  64.1797715  12.0483330  27.3214146
  64.6976547  13.2302118  26.8568454  64.6930359  12.6394765  27.3709120
  69.8458871  22.3774230  21.7402207  70.1674712  22.9179437  21.1363515
  70.4930967  21.8071001  21.8724497  69.9884926  22.3733405  21.6709243
  71.8960579  14.3790225  21.8236594  72.5940744  14.5578352  22.3158057
  72.2112911  13.8560564  21.2006983  72.0455916  14.3283997  21.8038604
  64.5261816  16.1842965  29.7347700  64.4020513  16.7705410  30.3697519
  65.1780101  15.6903160  30.0359975  64.6035466  16.1981769  29.8733629
  72.0848514  20.7660670  21.8116385  72.5242150  20.1577770  22.2571158
  71.9353177  20.3868043  21.0401850  72.1269980  20.6199141  21.7635553
  69.5520157  19.3604682  29.0135211  70.1969160  18.8677125  28.6946159
  69.7921934  19.5029468  29.8401289  69.6830742  19.3082124  29.0884744
  72.0906249  22.2059587  28.6642103  72.3729491  21.4110993  28.4428859
  72.8192409  22.6840175  28.6847164  72.2395812  22.1594184  28.6345119
  70.0687442   9.7482621  25.9057868  69.7390772  10.1993765  25.2361567
  69.3932444   9.6698785  26.4530875  69.9197879   9.8033757  25.8881092
  75.6857851  19.1187851  18.7647155  75.6009146  19.9748818  18.9096723
  76.1742234  18.8432175  19.4329314  75.7446748  19.2045172  18.8849236
  76.6176284  15.7372645  20.2644890  76.0887755  15.9532279  20.9242196
  77.1401304  16.4308784  20.1845859  76.6164737  15.8715782  20.3500489
  68.5075892  19.6335862  19.0652358  67.9233107  20.1385893  19.4718222
  68.1045987  19.4078249  18.3248950  68.3615196  19.6744110  19.0157383
  64.0619920  25.3490623  25.8676029  63.5787499  26.0741113  25.8435613
  64.8743239  25.6466753  25.9786187  64.1110668  25.4992977  25.8803308
  70.1334075  24.1422804  28.4725844  69.6161016  23.7830219  27.8687152
  70.8308466  23.6184978  28.4831910  70.1599656  24.0120492  28.3856102
  73.7897667  24.5917618  34.4342017  73.8781012  24.4043758  35.2820227
  74.2187379  23.9455047  34.0346863  73.8659769  24.4680626  34.5013768
  71.3568126  23.8748778  33.4159679  70.7938961  23.4621388  33.9399340
  72.1189150  23.8001684  33.8352822  71.3862575  23.8026178  33.5552679
  66.9164118  25.8646799  26.0196309  67.6184697  25.3498788  26.0769066
  66.8361601  26.1920950  26.8243184  67.0087878  25.8361025  26.1469101
  67.9643024  16.1022386  35.1476724  68.1363528  15.9928281  35.9962006
  68.5012382  16.7476791  34.9107916  68.0688028  16.1814388  35.2381821
  66.6300461  10.2165229  18.0858929  66.4476034  10.4337110  17.2599922
  67.4926074  10.3304242  18.1417544  66.7305051  10.2655127  17.9713416
  66.2414893  22.0553151  25.5281917  67.0803793  22.2876084  25.5755679
  66.2726662  21.1857462  25.4588953  66.3696611  21.9610098  25.5246562
  66.8667596  22.4754026  29.8295223  67.4065821  22.3325157  30.4998595
  66.1837542  22.8750777  30.1979249  66.8459750  22.5133697  29.9829644
  76.2908481  18.1545027  25.0240247  77.0465996  18.5876541  25.0629156
  76.3970805  17.5049797  25.5974883  76.4178652  18.1222511  25.1138273
  73.9017726  24.0226637  37.0985800  74.6858142  24.1357485  37.4641542
  73.7014320  23.1967774  37.2944486  73.9883751  23.9173356  37.1820186
  62.2704741  18.6954317  29.9829644  62.0043156  17.8793434  30.1420634
  62.2843305  18.7407473  29.1125160  62.2329464  18.5811222  29.8783126
  66.1762488  13.4939401  16.5981402  65.4620665  13.2077581  17.0103835
  66.6606457  13.8336027  17.2387790  66.1421852  13.5021051  16.7537037
  67.0203348  12.2332695  32.6296652  66.3275144  11.7629675  32.8757383
  67.6363675  12.0071000  33.2038359  67.0087878  12.1299827  32.7505804
  74.0588119  25.9336739  30.7452256  73.2603365  25.6936239  31.0026125
  74.5074131  25.9851132  31.4919304  74.0062730  25.9059130  30.8937180
  73.3509806  21.9969355  16.9743210  73.7660955  21.6654379  16.2827706
  72.5201736  21.7638258  16.8463347  73.2897815  21.9140611  16.8534058
  62.6798155  19.4813096  27.2641388  62.4973728  19.4559982  26.4113681
  63.4147824  19.9512034  27.3030297  62.7612219  19.5474459  27.1439307
  65.7443907  16.1998099  33.7723497  66.4683879  16.1851130  34.2588392
  65.8460043  16.9093455  33.2745465  65.8662116  16.3022803  33.7702284
  73.1188856  19.6797184  38.6372444  72.3261837  19.9940696  38.8225064
  73.2337783  19.8948652  37.7993229  73.0184267  19.7581021  38.5410779
  75.7920175  16.4031175  22.9267460  75.8867029  17.1420469  23.3807085
  75.1679018  15.9748651  23.3602024  75.7129205  16.4492496  23.0575607
  74.0472649  19.5817388  33.5757741  74.6211510  18.9444632  33.7306305
  73.9687452  19.5821470  32.7067398  74.1205884  19.4882499  33.4704152
  62.6469065  16.3606597  27.4140455  63.2242568  16.2243048  28.0532700
  61.9483127  15.9042381  27.6686039  62.6290087  16.2728863  27.5462745
  69.4036367  18.0140653  25.6278938  69.1455612  17.1812388  25.6010238
  69.4584850  18.2398266  24.7871439  69.3736145  17.9238424  25.4999075
  68.3771080  15.5678415  26.1143833  67.8020671  15.7270584  26.7507794
  68.0006756  14.9313824  25.6512284  68.2373892  15.4976228  26.1398391
  72.0444368  14.0401765  30.9736211  71.6558801  13.6155982  30.3188403
  71.3799067  14.2883914  31.4813238  71.8891296  14.0140486  30.9524079
  58.1227898  15.2118490  24.1288274  58.2088150  14.8350358  24.9101804
  58.7503696  14.8378936  23.6508232  58.2284449  15.1003972  24.1733751
  73.1483306  18.2700369  19.1713018  73.9623945  18.5615262  19.0595790
  73.0842448  17.6160231  18.5971311  73.2586045  18.2165564  19.0701856
  69.0191215  21.7421887  24.2985330  69.6565162  21.5033634  24.8437124
  69.4446286  21.9459046  23.5638491  69.1767381  21.7372897  24.2702488
  63.7103857  23.9810223  28.1819634  63.7508002  24.2525074  27.3539414
  64.2698381  24.5052131  28.5977422  63.7987203  24.0985978  28.1211522
  69.6594030  16.9624176  18.6360220  70.0439182  16.7431883  19.3876765
  69.4105650  17.7887122  18.7661296  69.6796102  17.0522323  18.7661296
  69.8262570  10.2430592  38.3522804  69.5116011  11.0130154  38.0892367
  69.5052503   9.6800848  37.7675031  69.7321489  10.2740860  38.2264154
  71.4012687  22.2194309  25.9779117  71.4751695  22.0569481  26.8320967
  72.2182193  22.4084499  25.7339598  71.5329045  22.2231052  26.0677142
  65.1618443  22.5652172  23.0073560  64.3356561  22.8113909  22.8807839
  65.2230435  22.4864253  23.8735618  65.0492610  22.5897121  23.1162505
  67.3794467   8.6321113  23.9669000  66.5116893   8.7043713  24.0326610
  67.6669671   9.4343192  24.1556975  67.2934215   8.7615260  24.0043767
  69.9417272  25.1829052  20.7092590  70.2315571  24.7918034  19.9851817
  70.6720753  25.3645757  21.1497865  70.0924157  25.1522866  20.6675397
  70.5312018  19.9846798  31.7945721  70.0323711  20.6962566  31.8730609
  71.3412242  20.3047465  31.7563883  70.5768124  20.1373647  31.8002289
  67.8823188  27.1596435  23.7752740  67.6623483  26.8693789  24.5679407
  67.6617710  26.5011390  23.2470652  67.8170782  27.0196143  23.8141649
  66.7940135  19.2469751  26.0408441  66.5053384  18.6207222  26.5754169
  67.6623483  19.1890039  26.1073122  66.8800387  19.1457295  26.1299396
  77.5818033  14.3904535  26.3590423  77.2382799  13.6694870  26.7097673
  77.6811075  14.1818386  25.5168782  77.5460076  14.2528738  26.2862103
  70.0491144  28.5325825  22.5583432  70.7015202  28.0002267  22.7874458
  69.3516752  28.1794477  22.9451306  70.0421862  28.4015348  22.6495600
  66.9972409  20.8865002  21.9650807  67.7518377  21.2678041  22.1786269
  66.4043021  21.3376146  22.4197503  67.0209122  21.0093830  22.0633685
  78.0431062  20.8530239  21.9014411  78.6089095  21.5123449  21.8172954
  77.3958965  21.1979937  22.3730814  78.0309818  21.0012180  21.9587168
  69.4579076  12.8427843  37.0908019  68.6478851  13.1485622  36.9797861
  69.9353762  13.5633425  37.2060603  69.4082554  12.9942444  37.0915090
  68.3170635  22.0573564  27.3390922  67.7951389  22.1973855  28.0242787
  68.7044655  21.2984228  27.5293039  68.2974336  21.9659087  27.4691998
  65.3061819  12.1079372  21.4085877  65.0186615  11.7380643  20.6717824
  65.9932287  12.5774228  21.1469582  65.3650716  12.1226342  21.2600952
  74.5137640  23.7969023  21.3251491  74.2724316  23.0636884  20.9178556
  74.6938973  24.3455880  20.6717824  74.5045264  23.7691414  21.1681714
  69.7436961  19.0877583  22.7372413  69.5479743  19.6952317  22.1432716
  69.9671306  18.3945527  22.2564087  69.7471602  19.0755108  22.5788494
  68.1415491  15.9732321  22.8553281  68.8638143  16.1373479  22.3957087
  67.6623484  16.6941985  22.7492621  68.1779221  16.1030550  22.7718895
  76.1008998  12.3096119  28.2349966  75.2620099  12.3357398  27.9988230
  76.1713366  12.9566855  28.8155313  75.9877392  12.4092245  28.2859083
  65.7923107  18.3790393  31.9607421  66.3044204  18.6574646  31.3116181
  65.5059450  19.1179687  32.3270234  65.8257971  18.5292747  31.9197299
  62.8790014  12.8860585  22.2571158  62.9806150  13.6886746  22.5852133
  63.6745901  12.6847921  21.9594238  63.0117919  12.9746484  22.2606513
  69.3106833  10.4716782  32.0208463  69.1190030  10.4871916  32.8707886
  70.1605429  10.6680456  31.9975118  69.4082555  10.5031133  32.1431758
  63.6953746  13.0007763  29.9992279  63.5539238  12.1491704  30.1236787
  63.9794309  13.0436424  29.1754485  63.7161592  12.8807513  29.8959903
  73.8492338  14.8374853  24.1436768  73.6027053  14.7570604  24.9773556
  74.1777461  14.0528321  23.9499295  73.8613582  14.7101119  24.2384291
  77.7440387  21.5458213  27.9323549  77.6054746  22.2439258  28.4372291
  76.9640385  21.3906869  27.5759731  77.6083614  21.6258379  27.9549823
  76.0818472  17.8454588  34.1845930  76.0766511  16.9734404  34.1888357
  76.7879466  18.0442757  33.7115386  76.1863476  17.7458462  34.1152966
  69.8089366  17.5731572  33.5559751  69.9532741  18.1532780  32.9202861
  70.1565014  17.9507869  34.2609605  69.8816827  17.7152276  33.5658746
  71.9809283  16.7721740  31.3384882  71.2332597  16.9652755  30.9333160
  72.1350808  15.9466960  31.1009003  71.8931710  16.6786852  31.2430288
  68.8817120  25.7634344  30.4220777  69.0306684  25.2037260  29.7694182
  69.6617123  25.8426345  30.8053296  69.0191214  25.6919909  30.3817727
  71.4070421  25.9348987  31.7005268  71.3314092  25.2657797  32.2556057
  71.3360280  26.6366775  32.2145934  71.3851028  25.9393894  31.8582116
  72.2211060  10.6672291  32.2280286  72.6783674  11.3996265  32.3553078
  72.2967389  10.2438756  32.9867542  72.3002030  10.7129529  32.3581362
  64.4644051  10.9138111  33.3169730  63.9286241  10.3018469  33.6330497
  64.5261816  11.4886247  33.9703396  64.3939684  10.9085038  33.4605156
  72.0640668  24.4549985  22.5328874  72.8290559  24.1859629  22.2111538
  71.9618758  23.9699996  23.2498937  72.1622164  24.3439550  22.5908702
  70.0993438  12.6574395  29.0722110  69.3089513  12.4765855  29.3939446
  70.4954061  11.8801347  29.0552404  70.0410314  12.5161856  29.1174658
  75.4837124  20.2916825  26.7981556  74.8082126  20.0602057  27.2994943
  75.4929500  19.6838008  26.1723661  75.3855629  20.1675750  26.7797708
  72.6131268  15.1334654  33.5545609  72.5490409  15.9944610  33.4265746
  72.7528456  14.8166647  32.7541160  72.6246738  15.2134821  33.4173822
  77.4853859  23.1481957  19.0291734  77.5673696  23.9548944  18.7053185
  77.9703601  23.1677917  19.7532507  77.5691017  23.2702620  19.0878632
  71.2950362  17.8266793  27.6961812  70.8712611  18.0271292  26.9600830
  71.1195217  16.9795641  27.8086112  71.2061243  17.7315575  27.6035502
  70.7962055  29.3417306  30.1583269  71.2857986  28.6428096  29.9758934
  70.2246288  29.0441176  30.7459326  70.7846585  29.1943530  30.2184310
  66.5832807  18.3218845  23.1289784  66.7397426  18.2565648  23.9845776
  66.9233400  19.0967397  22.9168464  66.6566042  18.4268043  23.2244378
  73.1211952  17.6976728  21.9983148  73.6627497  17.1947109  22.4621768
  73.4358511  17.6441923  21.1872633  73.2476349  17.6156149  21.9466960
  76.9929059  21.9079376  39.1110060  77.8063924  21.6364525  39.2715192
  76.8324025  21.6086916  38.3070256  77.0899007  21.8234302  39.0155466
  71.2898401  23.0894080  19.2823176  71.3591222  22.2308618  19.4216176
  72.0686856  23.3065961  18.9542200  71.4151251  22.9946944  19.2540333
  74.2701221  12.5913033  32.0505448  74.4843191  11.9523947  31.4968802
  73.6535120  13.0358857  31.6213310  74.2106550  12.5623177  31.9055879
  75.6805889  25.5131781  23.4959669  75.2885681  25.2098496  22.7782535
  75.8358961  26.3500871  23.3064623  75.6459479  25.5915618  23.3616166
  63.1567068  15.5053795  23.4450551  63.5366033  15.9238340  22.7810819
  62.5822433  16.0867251  23.7519395  63.1278393  15.6531654  23.3927292
  76.4340309  14.2002098  32.9888755  75.6216991  13.8927988  33.0701928
  76.8930244  13.7201098  33.5531467  76.3820694  14.0838590  33.0843349
  75.8445564  22.0781770  23.4365699  75.4860218  22.2496413  24.2129732
  75.3584274  22.5394976  22.8793698  75.7204261  22.1720741  23.4690969
  70.6333929  17.7580935  15.9765934  70.9226454  18.5345818  16.2509508
  70.7205728  17.2469667  16.6780433  70.6888185  17.7972854  16.1208432
  73.5293816  15.6062169  37.7717457  73.9993448  16.2304286  38.1585331
  73.5755697  14.9379145  38.3310672  73.6061692  15.5996850  37.9117529
  77.0050303  22.9685666  34.3832900  77.6430024  22.4745862  34.0495356
  76.3624395  22.8963066  33.7985127  77.0044530  22.8844674  34.2475255
  78.7307303  14.8174812  28.9498816  78.3034911  14.7301160  28.1946915
  78.0933356  14.9252587  29.5353660  78.5736910  14.8207472  28.9244257
  77.0604560  23.6605474  31.0238257  77.8496938  23.3094539  31.1440339
  77.2348157  24.4741863  30.7614891  77.2024841  23.7291331  31.0026125
  66.7997870  17.0714200  28.0766046  65.9585877  16.9718074  28.2844940
  67.0087878  17.8409680  28.4280367  66.7062563  17.1706243  28.1593361
  64.2773437  14.6933737  25.9050797  63.8830135  14.7676749  25.1300906
  63.7213554  15.0791683  26.4559158  64.1376249  14.7615512  25.8718456
  70.6114535  14.9995599  27.3263643  70.3077672  14.4451587  27.9274051
  69.9093956  15.1787809  26.8391678  70.4630745  14.9440381  27.3433349
  69.6680632  12.3096119  21.8908345  69.9440366  11.5915031  21.4785913
  70.2679301  12.9081039  21.6829451  69.7973897  12.2916490  21.7989106
  68.6732886  22.2145320  32.0335741  68.5653241  22.2247382  32.8997799
  68.8828667  23.0400100  31.8440695  68.6882997  22.3386395  32.1339833
  66.6906678  19.4657962  29.4957679  66.0994611  20.1067460  29.4660694
  67.4527701  19.8895580  29.4688978  66.7154938  19.6233801  29.4872826
  67.0867301  10.6259960  30.1625696  67.5468782  10.6998889  30.9000820
  67.1323407  11.4241214  29.8125518  67.1617856  10.7554107  30.2198453
  68.7350650  11.2926655  34.7297723  68.3436216  10.6460002  35.1653501
  68.9036513  11.8838090  35.3491979  68.7021561  11.2840923  34.8860429
  76.4496194  24.9167274  26.9289703  76.2515883  25.4058088  26.2345915
  75.8283905  25.1208515  27.5073837  76.3283759  25.0183812  26.9112926
  70.5104172  16.6852171  21.2699947  71.2546217  17.0726447  21.5082897
  70.6564869  15.8409596  21.4340435  70.6414758  16.6182643  21.3293917
  73.4982048  12.2577644  27.1693867  73.0242003  11.7319406  27.6799178
  73.8700184  11.7107117  26.6008728  73.4831937  12.0993641  27.1609014
  63.8755078  14.2549151  32.5377413  64.7380691  14.1544860  32.4514742
  63.5446861  13.6743860  31.9762985  63.9540275  14.1540777  32.4422818
  67.2356864  13.0791600  29.1987831  66.6109935  13.0909992  28.5913783
  66.9002459  13.5551775  29.8479071  67.0942356  13.1510117  29.2044399
  67.4198613  11.4216718  15.2560516  67.0711417  12.0736443  15.7192065
  66.9395059  11.4073831  14.5284387  67.2968857  11.5159772  15.2171607
  63.9482540  21.1392060  30.6391595  63.4182464  20.4484499  30.6886570
  64.2207633  21.1302245  29.8104304  63.9107262  21.0359192  30.5239011
  74.9802630  21.7217762  19.3629278  75.7036829  22.1875875  19.2193851
  74.5403221  21.7891372  18.6126875  75.0218323  21.8001599  19.2314059
  74.1488786  18.5815304  30.6129967  73.5345779  18.0373355  30.9078602
  74.6656070  18.0679541  30.1335783  74.1344448  18.4251713  30.5854195
  73.3885083  19.6519574  28.3474265  72.9612691  19.0269293  27.9139701
  73.3810027  19.3694496  29.1733273  73.3244224  19.5172355  28.4054093
  66.5047610  14.6884747  31.4162699  66.6641097  13.9328072  31.8214421
  66.3240503  15.2375687  32.0703437  66.5012969  14.6578561  31.5725405
  71.7170792  10.5288329  28.5616799  71.7413280   9.9948441  27.8729579
  71.9682266  10.0205638  29.2242390  71.7580711  10.3749233  28.5581444
  59.2278382  17.8119824  27.9959943  59.1221831  17.7666668  27.1312027
  58.4778602  18.1573604  28.2774228  59.1013985  17.8560732  27.9097273
  67.9972115   9.2559147  27.9422544  68.0370486   9.7568354  28.6557251
  67.1721779   9.3469541  27.6728467  67.8811641   9.3440964  28.0073082
  69.4186478  15.7719657  30.2396443  68.5878408  15.9393475  30.0331691
  69.3637995  15.3955608  31.0245328  69.2875893  15.7409388  30.3244971
  67.2270261   9.2628550  35.8752853  67.8522965   8.7190683  36.1482286
  66.7720741   8.7823468  35.3060644  67.2518522   9.1118031  35.8314447
  67.7922522  14.0475249  20.7686560  67.9325483  14.5447713  21.4715202
  68.2905055  13.3461543  20.9100774  67.8863603  14.0177227  20.8938139
  67.8222744  14.9142360  18.0979137  68.4567824  15.5102785  18.0328599
  67.9048355  14.6145817  18.9125007  67.9279295  14.9583268  18.2082224
  69.4001727  10.8456335  18.0724579  69.7217568  10.3659418  17.4183841
  69.6628671  11.6555981  17.8815391  69.4867752  10.8946233  17.9480071
  72.6298700  21.8675209  31.5923395  72.1223791  22.4211056  32.0364026
  72.3325346  21.9283499  30.7742170  72.5103585  21.9581521  31.5371852
  64.3275732  17.1110200  21.3668683  64.8367961  17.7074708  21.7479989
  64.8010004  16.8436174  20.6845103  64.4719108  17.1596016  21.3223206
  75.2406480  25.7838467  19.5227339  74.5235790  25.6099329  19.0574576
  75.8913218  25.5491039  18.9902825  75.2308331  25.7234260  19.3756557
  77.8254451  14.6603056  23.2668644  77.1545641  15.2032758  23.1381709
  78.5194202  15.1297911  23.0250339  77.8283319  14.8101327  23.2124172
  71.8741185  26.7999768  28.4980402  71.6506840  26.0418597  28.8664428
  71.3851028  26.8297789  27.7760842  71.7684634  26.6921992  28.4457143
  66.6866264  13.7466459  24.2341864  65.9678253  14.1630591  24.5014727
  67.0578626  14.3120698  23.6833502  66.6358196  13.8915740  24.1924671
  75.9865845  14.3794308  30.1243859  75.9663772  14.1977603  30.9778638
  76.0345045  15.2506326  30.1003443  75.9900486  14.4810846  30.2467154
  73.9312175  20.9681500  36.0492336  73.8908029  20.3231177  35.4637492
  74.7435493  20.9118117  36.3617748  74.0455328  20.8640467  36.0089285
  70.5219642  27.0200226  25.9517487  70.1080041  26.3574356  25.5621328
  71.2067016  27.1678084  25.4313181  70.5618014  26.9440884  25.8173984
  73.8884936  26.1790311  26.7041103  73.4901219  26.2892581  25.9361924
  73.2736156  26.3872377  27.2867663  73.7383825  26.2263879  26.6772403
  72.4612838  12.7864459  19.5715243  71.8677677  13.1081455  19.0199810
  72.4988116  11.9405554  19.3636349  72.3787227  12.7088787  19.4598014
  75.3370655  12.7443963  23.0016993  75.1084348  12.7676665  22.1595351
  75.5968731  11.9201430  23.1212004  75.3416843  12.6260043  22.8942191
  69.6189883  14.5978436  32.6042093  69.1068786  13.9899619  32.9627125
  69.4469379  15.3135029  33.0716069  69.5179520  14.6141736  32.7258317
  64.4655598  13.0416012  35.2544455  64.2958188  13.7017386  34.7092662
  64.0221548  13.2522573  35.9756944  64.3754932  13.1701994  35.2806085
  68.3915417  11.2820510  24.2971189  68.8672784  11.6437589  23.6621370
  67.8904017  11.9376977  24.5771332  68.3880776  11.4314698  24.2447930
  73.4958954  12.5202681  35.0444349  74.0530384  12.2916491  34.4122814
  73.1720019  13.2808347  34.7679561  73.5305364  12.5986518  34.9100846
  61.3657662  15.9462877  30.5132945  60.8184382  15.2763523  30.6313813
  62.1550041  15.5792725  30.5776412  61.4009846  15.7927864  30.5401646
  71.2142071  15.6070334  36.0096356  71.9653398  15.9222011  36.3235910
  71.4064647  15.4049505  35.1830278  71.3533485  15.6237716  35.9339752
  70.4342070  13.4261709  17.6644573  70.8141035  13.4441339  16.8795688
  69.6934667  13.8715698  17.5435420  70.3810908  13.4943484  17.5308141
  60.1244632  15.1583685  27.6678968  59.9466393  14.7060294  28.3933884
  59.8363654  15.9609846  27.8517446  60.0557585  15.2106243  27.8022471
  75.7868213  16.4141402  26.9056358  76.2821878  15.6964397  26.8660379
  74.9767989  16.1112200  26.7910845  75.7412106  16.2639049  26.8830084
  71.2326825  20.2639216  19.0553363  70.4238147  19.9405889  19.0086672
  71.7401733  19.5572438  18.9881612  71.1876491  20.1120532  19.0383657
  61.8617102  17.6911409  24.7800727  60.9962621  17.6797099  24.6683498
  61.9615918  17.5041632  25.6271866  61.7491269  17.6617470  24.8889672
  77.8520032  19.1645090  29.5933487  78.2775103  18.6419512  29.0403912
  77.4876952  19.7625927  29.0722110  77.8606634  19.1755317  29.4342497
  67.4874112  27.4609307  28.3530833  67.8020671  28.2745696  28.3608614
  67.8967525  27.0759526  29.0212992  67.5942210  27.5238010  28.4534924
  74.4398631  22.8779354  25.9234645  74.9109810  23.5919617  26.0924630
  74.7758810  22.2778104  26.4594514  74.5593746  22.8950818  26.0267021
  76.5275616  24.4880668  38.1026717  76.6372581  23.6989228  38.4583464
  76.8566513  24.3986604  37.3001055  76.5928022  24.3586520  38.0369108
  75.0772578  22.6697288  32.6862337  74.5293524  22.0455172  32.4182403
  75.5385606  22.8591560  31.9706417  75.0639787  22.6056338  32.5412768
  70.4261241   9.6523238  20.3472204  71.2476936   9.8221550  20.1053899
  69.9630892   9.8070499  19.6238502  70.4792403   9.7004971  20.2043849
  64.8287132  21.4082416  28.0009441  65.4331989  21.3678250  27.3723262
  64.6214444  22.2553568  28.0313497  64.8876029  21.5270418  27.9125558
  74.6430904  23.6748361  29.2171679  75.4629278  23.5311327  29.4787974
  74.3624982  24.2994560  29.7588116  74.7227647  23.7458713  29.3359618
  60.0638414  20.3917033  27.8708364  59.9662692  19.5813305  28.1798421
  60.8467284  20.3708827  27.4854632  60.1654551  20.2684124  27.8595227
  73.4735179  35.9890260  24.5919823  73.2385364  35.1557913  24.4852092
  73.6120820  36.2694926  23.7781024  73.4590842  35.9073764  24.4562178
  75.7725267  28.1575991  27.4904131  75.1530298  27.5668638  27.3214146
  75.6709130  28.7487426  26.8568454  75.6662942  28.1580073  27.3709120
  75.4994400  31.7028273  29.7347700  75.3753097  32.2890718  30.3697519
  76.1512684  31.2088468  30.0359975  75.5768049  31.7167077  29.8733629
  75.0352504  40.8675931  25.8676029  74.5520082  41.5926421  25.8435613
  75.8475822  41.1652061  25.9786187  75.0843252  41.0178285  25.8803308
  77.8896701  41.3832107  26.0196309  78.5917281  40.8684096  26.0769066
  77.8094184  41.7106258  26.8243184  77.9820462  41.3546333  26.1469101
  77.6033045  25.7350537  18.0858929  77.4208618  25.9522418  17.2599922
  78.4658658  25.8489549  18.1417544  77.7037634  25.7840435  17.9713416
  77.2147477  37.5738459  25.5281917  78.0536376  37.8061392  25.5755679
  77.2459246  36.7042770  25.4588953  77.3429194  37.4795405  25.5246562
  77.8400180  37.9939334  29.8295223  78.3798405  37.8510465  30.4998595
  77.1570126  38.3936085  30.1979249  77.8192334  38.0319005  29.9829644
  73.2437325  34.2139625  29.9829644  72.9775740  33.3978742  30.1420634
  73.2575889  34.2592781  29.1125160  73.2062047  34.0996530  29.8783126
  77.1495072  29.0124709  16.5981402  76.4353249  28.7262889  17.0103835
  77.6339040  29.3521335  17.2387790  77.1154435  29.0206359  16.7537037
  77.9935931  27.7518003  32.6296652  77.3007728  27.2814983  32.8757383
  78.6096259  27.5256308  33.2038359  77.9820461  27.6485135  32.7505804
  73.6530738  34.9998404  27.2641388  73.4706312  34.9745290  26.4113681
  74.3880407  35.4697342  27.3030297  73.7344802  35.0659767  27.1439307
  76.7176490  31.7183407  33.7723497  77.4416462  31.7036438  34.2588392
  76.8192627  32.4278762  33.2745465  76.8394699  31.8208110  33.7702284
  73.6201649  31.8791905  27.4140455  74.1975151  31.7428356  28.0532700
  72.9215711  31.4227689  27.6686039  73.6022670  31.7914171  27.5462745
  69.0960482  30.7303798  24.1288274  69.1820734  30.3535666  24.9101804
  69.7236279  30.3564244  23.6508232  69.2017033  30.6189280  24.1733751
  74.6836441  39.4995531  28.1819634  74.7240586  39.7710382  27.3539414
  75.2430965  40.0237439  28.5977422  74.7719787  39.6171286  28.1211522
  76.1351027  38.0837480  23.0073560  75.3089145  38.3299217  22.8807839
  76.1963018  38.0049561  23.8735618  76.0225194  38.1082429  23.1162505
  78.3527051  24.1506421  23.9669000  77.4849476  24.2229020  24.0326610
  78.6402255  24.9528500  24.1556975  78.2666799  24.2800568  24.0043767
  78.8555772  42.6781743  23.7752740  78.6356067  42.3879097  24.5679407
  78.6350294  42.0196698  23.2470652  78.7903366  42.5381451  23.8141649
  77.7672719  34.7655059  26.0408441  77.4785967  34.1392530  26.5754169
  78.6356067  34.7075347  26.1073122  77.8532971  34.6642603  26.1299396
  77.9704992  36.4050310  21.9650807  78.7250960  36.7863349  22.1786269
  77.3775605  36.8561454  22.4197503  77.9941706  36.5279138  22.0633685
  76.2794403  27.6264680  21.4085877  75.9919198  27.2565951  20.6717824
  76.9664871  28.0959536  21.1469582  76.3383300  27.6411650  21.2600952
  76.7655691  33.8975701  31.9607421  77.2776788  34.1759954  31.3116181
  76.4792034  34.6364995  32.3270234  76.7990554  34.0478055  31.9197299
  73.8522597  28.4045893  22.2571158  73.9538734  29.2072054  22.5852133
  74.6478484  28.2033229  21.9594238  73.9850503  28.4931792  22.2606513
  74.6686329  28.5193071  29.9992279  74.5271821  27.6677012  30.1236787
  74.9526893  28.5621732  29.1754485  74.6894176  28.3992821  29.8959903
  75.4376635  26.4323419  33.3169730  74.9018824  25.8203777  33.6330497
  75.4994399  27.0071555  33.9703396  75.3672267  26.4270346  33.4605156
  77.5565391  33.8404153  23.1289784  77.7130010  33.7750955  23.9845776
  77.8965984  34.6152705  22.9168464  77.6298625  33.9453351  23.2244378
  74.1299652  31.0239103  23.4450551  74.5098617  31.4423648  22.7810819
  73.5555017  31.6052559  23.7519395  74.1010977  31.1716962  23.3927292
  77.7730454  32.5899508  28.0766046  76.9318460  32.4903382  28.2844940
  77.9820462  33.3594988  28.4280367  77.6795146  32.6891551  28.1593361
  75.2506021  30.2119045  25.9050797  74.8562718  30.2862057  25.1300906
  74.6946137  30.5976991  26.4559158  75.1108833  30.2800819  25.8718456
  77.6639261  34.9843270  29.4957679  77.0727195  35.6252768  29.4660694
  78.4260285  35.4080887  29.4688978  77.6887522  35.1419109  29.4872826
  78.0599884  26.1445268  30.1625696  78.5201366  26.2184197  30.9000820
  78.1055991  26.9426522  29.8125518  78.1350440  26.2739415  30.2198453
  74.8487662  29.7734459  32.5377413  75.7113275  29.6730168  32.4514742
  74.5179445  29.1929168  31.9762985  74.9272858  29.6726085  32.4422818
  78.2089448  28.5976908  29.1987831  77.5842518  28.6095300  28.5913783
  77.8735043  29.0737083  29.8479071  78.0674940  28.6695425  29.2044399
  78.3931197  26.9402026  15.2560516  78.0444001  27.5921751  15.7192065
  77.9127643  26.9259139  14.5284387  78.2701441  27.0345080  15.2171607
  74.9215124  36.6577368  30.6391595  74.3915048  35.9669807  30.6886570
  75.1940217  36.6487553  29.8104304  74.8839846  36.5544500  30.5239011
  77.4780193  30.2070055  31.4162699  77.6373680  29.4513380  31.8214421
  77.2973087  30.7560995  32.0703437  77.4745552  30.1763869  31.5725405
  70.2010966  33.3305132  27.9959943  70.0954415  33.2851976  27.1312027
  69.4511186  33.6758912  28.2774228  70.0746569  33.3746040  27.9097273
  78.2002845  24.7813858  35.8752853  78.8255548  24.2375991  36.1482286
  77.7453325  24.3008775  35.3060644  78.2251105  24.6303339  35.8314447
  75.3008316  32.6295508  21.3668683  75.8100545  33.2260016  21.7479989
  75.7742588  32.3621482  20.6845103  75.4451691  32.6781324  21.3223206
  75.4388182  28.5601320  35.2544455  75.2690772  29.2202694  34.7092662
  74.9954131  28.7707881  35.9756944  75.3487515  28.6887302  35.2806085
  72.3390246  31.4648185  30.5132945  71.7916965  30.7948831  30.6313813
  73.1282624  31.0978033  30.5776412  72.3742430  31.3113172  30.5401646
  71.0977216  30.6768993  27.6678968  70.9198977  30.2245602  28.3933884
  70.8096238  31.4795154  27.8517446  71.0290169  30.7291551  27.8022471
  72.8349685  33.2096717  24.7800727  71.9695205  33.1982407  24.6683498
  72.9348501  33.0226940  25.6271866  72.7223852  33.1802778  24.8889672
  75.8019715  36.9267724  28.0009441  76.4064573  36.8863558  27.3723262
  75.5947028  37.7738876  28.0313497  75.8608613  37.0455726  27.9125558
  71.0370998  35.9102341  27.8708364  70.9395276  35.0998613  28.1798421
  71.8199867  35.8894135  27.4854632  71.1387134  35.7869431  27.8595227
   4.6296947  22.6518935  61.1059775   4.5990952  23.5063571  61.2778044
   5.2278296  22.3514227  61.6645919   4.7134105  22.7335431  61.2134577
   2.4513522  25.2271237  59.3778085   2.3353048  25.9778923  59.8070223
   3.2469408  24.9695190  59.6274172   2.5518111  25.3006084  59.4782176
   1.1061260  22.5763675  59.1890110   0.5772732  22.7923309  59.8487416
   1.6286280  23.2699814  59.1091079   1.1049713  22.7106812  59.2745709
   6.5609313  28.1509980  64.5623154   5.7307016  28.3620623  64.7256571
   6.5118566  27.3247034  64.2865438   6.4316049  28.0599586  64.5460520
   3.8173629  28.8209334  64.6987870   3.3808860  28.8246077  65.4546841
   3.4836544  29.5014833  64.2667447   3.7036249  28.9221790  64.7468703
   6.9517975  25.5390254  63.5907507   7.6134409  24.9780922  63.4903416
   6.3109387  25.0442285  63.9160198   6.9546842  25.3826663  63.6239847
   3.2382806  26.5555636  63.3319496   3.4738395  26.7000835  62.5046347
   3.3872369  27.3198044  63.7251010   3.2948609  26.6894691  63.2683100
   5.0673262  25.3957302  61.1689100   5.3981479  25.9284942  60.5629195
   5.6406350  25.4496190  61.8251051   5.2006941  25.4826871  61.1766882
   2.5316038  27.6921269  60.8259631   3.0974071  28.3514479  60.7418174
   1.8843942  28.0370967  61.2976034   2.5194795  27.8403210  60.8832388
   3.7278736  27.7427496  57.6185268   3.3485545  26.9564634  57.6114557
   3.0644982  28.2914353  57.4756912   3.5737211  27.7072320  57.5966065
   1.9738835  29.9872987  57.9536954   2.0558673  30.7939974  57.6298405
   2.4588577  30.0068947  58.6777727   2.0575993  30.1093650  58.0123852
   6.1111755  27.5933308  59.0129414   6.4945361  28.3424664  59.2427511
   5.3155869  27.8399127  58.7541403   6.0505538  27.7403001  59.0086988
  15.6029531  38.1704243  61.1059775  15.5723535  39.0248879  61.2778044
  16.2010880  37.8699535  61.6645919  15.6866689  38.2520739  61.2134577
   8.8029216  37.2579894  65.8612705   7.9467111  37.4188392  65.9121822
   8.8496869  36.3871958  65.8817766   8.6828327  37.1530696  65.8718771
   3.1870355  46.7942612  61.6249937   2.4353255  46.4158150  61.3965982
   3.6356367  46.8261045  60.8768747   3.1420022  46.7428219  61.4807439
  12.1122932  43.5266419  75.4673161  12.8189699  43.0318450  75.5960096
  12.3010868  43.9675501  74.7375819  12.2450838  43.5184770  75.3782207
   8.6395315  47.2167981  57.0535484   8.3046684  47.8944903  56.6179706
   9.1522186  46.8273292  56.4652356   8.6660896  47.2592559  56.9022275
   8.1799606  49.1682250  62.9946596   8.5638986  49.7369148  62.4551371
   8.1158748  48.4431760  62.5152412   8.2273034  49.1457713  62.8440458
  11.6481037  39.3171938  68.5044357  12.1936997  39.9957024  68.5638327
  11.5897913  39.1759398  67.6445938  11.7196951  39.3963939  68.3856418
   4.7655111  46.8061004  63.8912709   4.8665474  45.9961358  64.2009837
   4.1696857  46.7117950  63.2612388   4.6927650  46.6726032  63.8438948
  13.4246105  40.7456545  59.3778085  13.3085631  41.4964231  59.8070223
  14.2201992  40.4880498  59.6274172  13.5250695  40.8191392  59.4782176
   4.6055851  51.7238593  65.2927565   5.2493307  52.1651757  65.6823724
   4.9312107  50.9192019  65.2057824   4.7487680  51.6703788  65.3373043
   5.3076431  44.7350568  60.6647427   5.6292272  45.2755775  60.0608735
   5.9548527  44.1647339  60.7969717   5.4502486  44.7309743  60.5954463
   7.3578139  36.7366563  60.7481814   8.0558304  36.9154690  61.2403277
   7.6730471  36.2136902  60.1252203   7.5073476  36.6860335  60.7283824
   7.5466074  43.1237008  60.7361605   7.9859710  42.5154108  61.1816378
   7.3970737  42.7444381  59.9647070   7.5887540  42.9775479  60.6880773
   5.0137717  41.7181020  67.9380431   5.6586720  41.2253463  67.6191379
   5.2539494  41.8605806  68.7646509   5.1448302  41.6658462  68.0129964
   7.5523809  44.5635925  67.5887323   7.8347051  43.7687331  67.3674079
   8.2809969  45.0416513  67.6092384   7.7013372  44.5170522  67.5590339
   5.5305002  32.1058959  64.8303088   5.2008332  32.5570103  64.1606787
   4.8550004  32.0275123  65.3776095   5.3815439  32.1610095  64.8126312
  11.1475411  41.4764189  57.6892375  11.0626706  42.3325156  57.8341943
  11.6359794  41.2008513  58.3574534  11.2064308  41.5621510  57.8094456
  12.7381410  28.0944482  63.0752699  12.4234851  28.7847961  63.5073121
  12.2208352  28.0389264  62.3738200  12.6145881  28.1879371  63.0349648
  12.0793844  38.0948983  59.1890110  11.5505316  38.3108617  59.8487416
  12.6018864  38.7885122  59.1091079  12.0782297  38.2292120  59.2745709
  17.5341897  43.6695288  64.5623154  16.7039600  43.8805931  64.7256571
  17.4851149  42.8432342  64.2865438  17.4048632  43.5784894  64.5460520
   3.9693452  41.9912200  57.9897578   3.3850667  42.4962231  58.3963442
   3.5663547  41.7654587  57.2494170   3.8232756  42.0320448  57.9402603
   5.5951635  46.4999142  67.3971064   5.0778576  46.1406557  66.7932372
   6.2926026  45.9761316  67.4077130   5.6217216  46.3696830  67.3101322
   9.2515227  46.9493956  73.3587237   9.3398572  46.7620096  74.2065447
   9.6804939  46.3031385  72.9592084   9.3277329  46.8256964  73.4258988
   8.4270666  38.2377852  56.4666498   8.6666670  38.4455836  55.6541841
   8.7486507  37.4335361  56.5755443   8.5107824  38.1491953  56.3627051
   3.7360957  30.1671248  60.3126036   4.4906925  30.5349565  60.0743086
   3.5588491  30.5410802  61.0805216   3.8215435  30.2769436  60.3910925
   2.3781678  48.2223137  64.9441529   3.0802257  47.7075126  65.0014286
   2.2979161  48.5497288  65.7488404   2.4705438  48.1937363  65.0714321
  17.0295855  36.3165688  68.3573576  16.1924276  36.3867875  68.5921170
  16.9984086  36.3190183  67.4847878  16.9014138  36.3275915  68.2633124
   2.0918021  32.5741567  57.0104149   1.9093594  32.7913448  56.1845142
   2.9543634  32.6880579  57.0662764   2.1922611  32.6231465  56.8958636
   1.7032453  44.4129489  64.4527137   2.5421353  44.6452422  64.5000899
   1.7344222  43.5433800  64.3834173   1.8314171  44.3186435  64.4491782
   2.3285156  44.8330364  68.7540443   2.8683381  44.6901495  69.4243815
   1.6455102  45.2327115  69.1224469   2.3077310  44.8710035  68.9074864
   7.7717740  29.5767977  60.0453173   8.5003901  29.3983932  59.5991329
   7.8612633  30.4186057  60.2560351   7.8924402  29.6751856  60.0106691
  11.7526041  40.5121365  63.9485467  12.5083556  40.9452879  63.9874376
  11.8588365  39.8626134  64.5220103  11.8796212  40.4798849  64.0383493
  14.7906212  44.3394642  64.6987870  14.3541444  44.3431384  65.4546841
  14.4569128  45.0200141  64.2667447  14.6768832  44.4407098  64.7468703
  14.7103695  31.3808470  66.9417298  15.3529604  31.4506574  67.5279213
  14.9626716  30.7137693  66.4396840  14.8425827  31.2934818  66.9544577
   1.6380048  35.8515739  55.5226622   0.9238225  35.5653919  55.9349055
   2.1224017  36.1912365  56.1633010   1.6039412  35.8597389  55.6782257
   9.5205679  48.2913077  69.6697476   8.7220925  48.0512577  69.9271345
   9.9691691  48.3427470  70.4164524   9.4680290  48.2635468  69.8182400
  17.9250558  41.0575562  63.5907507  18.5866992  40.4966230  63.4903416
  17.2841970  40.5627593  63.9160198  17.9279426  40.9011971  63.6239847
   8.8127366  44.3545693  55.8988430   9.2278515  44.0230717  55.2072926
   7.9819296  44.1214596  55.7708567   8.7515375  44.2716949  55.7779278
  14.2115389  42.0740944  63.3319496  14.4470978  42.2186143  62.5046347
  14.3604953  42.8383352  63.7251010  14.2681192  42.2079999  63.2683100
  16.0405846  40.9142610  61.1689100  16.3714063  41.4470250  60.5629195
  16.6138934  40.9681498  61.8251051  16.1739525  41.0012179  61.1766882
  11.2537735  38.7607513  61.8512680  11.3484589  39.4996807  62.3052305
  10.6296578  38.3324988  62.2847244  11.1746765  38.8068834  61.9820827
   9.5090209  41.9393726  72.5002961  10.0829070  41.3020970  72.6551525
   9.4305013  41.9397808  71.6312618   9.5823444  41.8458837  72.3949372
  11.5060756  40.6056253  55.0849632  11.4240919  40.6758440  55.9504619
  12.1440477  41.1685997  54.8933373  11.5880594  40.6995224  55.1839581
   4.8653927  40.3716991  64.5524158   4.6073172  39.5388726  64.5255458
   4.9202410  40.5974604  63.7116659   4.8353705  40.2814762  64.4244295
   9.9454978  32.4745441  64.6528251   9.2411304  31.9854627  64.8112170
   9.9939952  32.4867916  63.7816695   9.8485029  32.4035089  64.5467591
   3.8388640  37.9254753  65.0389053   3.2638231  38.0846922  65.6753014
   3.4624316  37.2890162  64.5757504   3.6991452  37.8552566  65.0643611
   7.5061928  36.3978102  69.8981431   7.1176361  35.9732320  69.2433623
   6.8416627  36.6460252  70.4058458   7.3508856  36.3716824  69.8769299
  17.1485197  36.1553107  62.6729261  16.8921762  35.3433049  62.4827144
  17.9914511  36.1630674  62.4459449  17.2351223  36.0365105  62.6114079
  11.3288290  30.0952731  67.4105416  11.7098801  29.4130902  67.7973290
  10.5251574  29.8062333  67.2281080  11.2664751  29.9519780  67.4409472
   8.6100866  40.6276707  58.0958238   9.4241505  40.9191600  57.9841010
   8.5460008  39.9736569  57.5216531   8.7203605  40.5741902  57.9947076
  14.8310357  43.3102703  72.5087814  14.5948994  42.4790768  72.3899875
  15.4753586  43.2588310  73.0942658  14.8905027  43.1800391  72.5773708
   4.4808775  44.0998224  63.2230550   5.1182722  43.8609972  63.7682344
   4.9063846  44.3035383  62.4883711   4.6384941  44.0949235  63.1947708
   5.1211590  39.3200514  57.5605440   5.5056742  39.1008221  58.3121985
   4.8723210  40.1463460  57.6906516   5.1413662  39.4098660  57.6906516
  15.8546777  43.0947152  68.5716109  15.5492594  43.8275209  68.9329424
  15.1352993  42.6885081  68.2908895  15.7034120  43.1428885  68.5829246
   6.8630247  44.5770647  64.9024337   6.9369255  44.4145819  65.7566187
   7.6799753  44.7660837  64.6584818   6.9946605  44.5807389  64.9922362
  21.5548569  39.7340153  67.8984453  21.4873070  39.7536112  67.0287039
  21.5404232  40.5770480  68.1240123  21.5427326  39.8613887  67.8036930
   2.8412027  30.9897451  62.8914220   1.9734453  31.0620050  62.9571830
   3.1287231  31.7919530  63.0802195   2.7551775  31.1191598  62.9288987
  11.9644916  31.1375310  71.2225542  12.7098508  30.9485121  70.8088968
  11.5482220  31.6633548  70.6639399  12.0129890  31.1877456  71.0790115
   5.4034832  47.5405390  59.6337810   5.6933131  47.1494371  58.9097037
   6.1338313  47.7222095  60.0743085   5.5541717  47.5099204  59.5920617
  19.3407187  38.5084539  66.1731047  19.8915108  37.8752608  66.4128139
  19.3251302  39.0399932  66.8646551  19.4192383  38.4933487  66.3109905
   5.9929578  42.3423136  70.7190941   5.4941271  43.0538904  70.7975829
   6.8029802  42.6623803  70.6809103   6.0385684  42.4949985  70.7247509
   3.3440748  49.5172773  62.6997960   3.1241043  49.2270127  63.4924627
   3.1235270  48.8587728  62.1715872   3.2788342  49.3772481  62.7386869
   2.2557695  41.6046089  64.9653662   1.9670944  40.9783560  65.4999389
   3.1241043  41.5466377  65.0318342   2.3417947  41.5033633  65.0544616
  13.0435593  36.7480872  65.2835643  12.7000359  36.0271208  65.6342893
  13.1428635  36.5394724  64.4414002  13.0077636  36.6105076  65.2107323
   5.5108704  50.8902163  61.4828652   6.1632762  50.3578605  61.7119678
   4.8134312  50.5370815  61.8696526   5.5039422  50.7591686  61.5740820
   2.4589969  43.2441340  60.8896027   3.2135937  43.6254379  61.1031489
   1.8660581  43.6952484  61.3442723   2.4826682  43.3670168  60.9878905
  13.5048622  43.2106577  60.8259631  14.0706655  43.8699786  60.7418174
  12.8576525  43.5556275  61.2976034  13.4927378  43.3588518  60.8832388
   3.7788195  44.4149901  66.2636142   3.2568949  44.5550193  66.9488007
   4.1662215  43.6560566  66.4538259   3.7591896  44.3235425  66.3937218
   9.9755200  46.1545361  60.2496711   9.7341876  45.4213221  59.8423776
  10.1556533  46.7032218  59.5963044   9.9662824  46.1267752  60.0926934
   5.2054521  41.4453921  61.6617633   5.0097303  42.0528655  61.0677936
   5.4288866  40.7521865  61.1809307   5.2089162  41.4331446  61.5033714
   3.6033051  38.3308658  61.7798501   4.3255703  38.4949817  61.3202307
   3.1241044  39.0518323  61.6737841   3.6396781  38.4606888  61.6964115
  11.5626558  34.6672457  67.1595186  10.7237659  34.6933736  66.9233450
  11.6330926  35.3143193  67.7400533  11.4494952  34.7668583  67.2104303
  10.0095837  31.5657834  61.8922802  10.7122189  31.3665583  61.4142760
   9.7440025  30.7933777  62.1991646  10.0742469  31.4220800  61.8668244
  15.4384082  39.8740444  64.4456428  15.3518057  40.0295870  65.2991207
  14.9834562  40.5178520  64.0715833  15.3587339  39.9916199  64.5163535
   9.3109898  37.1951191  63.0681988   9.0644613  37.1146942  63.9018776
   9.6395021  36.4104659  62.8744515   9.3231142  37.0677456  63.1629511
  13.2057947  43.9034550  66.8568769  13.0672306  44.6015596  67.3617511
  12.4257945  43.7483207  66.5004951  13.0701174  43.9834717  66.8795043
  11.5436032  40.2030926  73.1091150  11.5384071  39.3310742  73.1133577
  12.2497026  40.4019095  72.6360606  11.6481036  40.1034800  73.0398186
   5.2706926  39.9307910  72.4804971   5.4150301  40.5109118  71.8448081
   5.6182574  40.3084206  73.1854825   5.3434387  40.0728614  72.4903966
   7.4426843  39.1298078  70.2630102   6.6950157  39.3229092  69.8578380
   7.5968368  38.3043298  70.0254223   7.3549270  39.0363189  70.1675508
   4.3434681  48.1210681  69.3465997   4.4924244  47.5613597  68.6939402
   5.1234683  48.2002683  69.7298516   4.4808774  48.0496247  69.3062947
  14.7011320  43.2612804  57.6185268  14.3218129  42.4749942  57.6114557
  14.0377565  43.8099661  57.4756912  14.5469795  43.2257628  57.5966065
   6.8687981  48.2925324  70.6250488   6.7931652  47.6234135  71.1801277
   6.7977840  48.9943113  71.1391155   6.8468588  48.2970232  70.7827336
  12.1555946  26.2038504  65.0219349  12.2739514  26.6614967  64.2886652
  11.9818122  25.3983765  64.7355566  12.1475117  26.1532276  64.8720283
   7.5258228  46.8126323  61.4574094   8.2908119  46.5435967  61.1356758
   7.4236318  46.3276334  62.1744157   7.6239724  46.7015888  61.5153922
   5.5610998  35.0150733  67.9967330   4.7707073  34.8342193  68.3184666
   5.9571621  34.2377685  67.9797624   5.5027874  34.8738194  68.0419878
  10.0476889  43.8438507  53.4374044  10.8149874  43.9038632  53.0279895
   9.6008198  43.2718948  52.9530362  10.0950316  43.7675083  53.3051754
  10.9454684  42.6493163  65.7226776  10.2699686  42.4178395  66.2240163
  10.9547060  42.0414346  65.0968881  10.8473189  42.5252088  65.7042928
   8.0748828  37.4910992  72.4790829   8.0107969  38.3520948  72.3510966
   8.2146016  37.1742985  71.6786380   8.0864298  37.5711158  72.3419042
  12.9471419  45.5058295  57.9536954  13.0291256  46.3125281  57.6298405
  13.4321161  45.5254254  58.6777727  13.0308577  45.6278958  58.0123852
   6.7567922  40.1843131  66.6207032   6.3330171  40.3847630  65.8846050
   6.5812777  39.3371979  66.7331332   6.6678803  40.0891913  66.5280722
   2.0450367  40.6795183  62.0535004   2.2014986  40.6141985  62.9090996
   2.3850960  41.4543735  61.8413684   2.1183602  40.7844381  62.1489598
   8.5829512  40.0553066  60.9228368   9.1245057  39.5523447  61.3866988
   8.8976071  40.0018261  60.1117853   8.7093909  39.9732487  60.8712180
  12.4546619  44.2655714  78.0355280  13.2681484  43.9940862  78.1960412
  12.2941585  43.9663254  77.2315476  12.5516567  44.1810640  77.9400686
   6.7515961  45.4470418  58.2068396   6.8208782  44.5884956  58.3461396
   7.5304416  45.6642299  57.8787420   6.8768811  45.3523282  58.1785553
   9.7318781  34.9489371  70.9750668   9.9460751  34.3100285  70.4214022
   9.1152680  35.3935195  70.5458530   9.6724110  34.9199514  70.8301099
  11.1423449  47.8708119  62.4204889  10.7503241  47.5674834  61.7027755
  11.2976521  48.7077209  62.2309843  11.1077039  47.9491956  62.2861386
  11.8957869  36.5578436  71.9133975  11.0834551  36.2504326  71.9947148
  12.3547804  36.0777436  72.4776687  11.8438254  36.4414928  72.0088569
  11.3063124  44.4358108  62.3610919  10.9477778  44.6072751  63.1374952
  10.8201834  44.8971313  61.8038918  11.1821821  44.5297079  62.3936189
   9.1233510  28.0589306  65.9638011   8.2527068  28.0328027  65.9171320
   9.3773851  27.8866499  65.1463856   9.0327070  28.0299450  65.8358148
   6.0951489  40.1157273  54.9011154   6.3844014  40.8922156  55.1754728
   6.1823288  39.6046005  55.6025653   6.1505745  40.1549192  55.0453652
   6.1482650  30.0695535  67.4211481   5.6321139  29.3775726  67.5463060
   5.5876579  30.7366312  67.3674080   5.9889163  30.0658792  67.4317547
  12.4667863  45.3262004  73.3078120  13.1047584  44.8322199  72.9740576
  11.8241955  45.2539404  72.7230347  12.4662090  45.2421012  73.1720475
  14.1924863  37.1751150  67.8744036  13.7652471  37.0877498  67.1192135
  13.5550916  37.2828925  68.4598880  14.0354470  37.1783810  67.8489477
  12.5222120  46.0181812  69.9483477  13.3114498  45.6670877  70.0685559
  12.6965717  46.8318201  69.6860111  12.6642401  46.0867669  69.9271345
   2.2615430  39.4290538  67.0011266   1.4203437  39.3294412  67.2090160
   2.4705438  40.1986018  67.3525587   2.1680123  39.5282581  67.0838581
  11.3755944  30.0291369  64.5099895  11.5805537  29.9613677  65.3556893
  11.0482368  30.8350190  64.4421073  11.3571192  30.1377309  64.6259551
   6.0732095  37.3571937  66.2508863   5.7695232  36.8027925  66.8519271
   5.3711516  37.5364147  65.7636898   5.9248305  37.3016719  66.2678569
   5.1298192  34.6672457  60.8153565   5.4057926  33.9491369  60.4031133
   5.7296861  35.2657377  60.6074671   5.2591457  34.6492828  60.7234326
  14.6289631  30.5823133  63.9902661  14.0163945  31.0693535  64.3756393
  14.7253806  29.9066624  64.5340312  14.5527529  30.5541442  64.1281519
   8.6308712  32.3385974  59.0900160   9.0852459  32.5096535  59.8148005
   9.1048758  31.7254085  58.6897936   8.7677033  32.2736859  59.1373922
   2.1524238  41.8234300  68.4202899   1.5612171  42.4643798  68.3905914
   2.9145261  42.2471917  68.3934198   2.1772498  41.9810139  68.4118046
  18.2714659  41.6540070  69.4180177  18.3297783  42.1026719  70.1640154
  17.6381127  42.0638883  68.9810257  18.1865955  41.7813804  69.4632725
  11.9113754  47.2743612  65.8534923  11.7133443  47.7634426  65.1591135
  11.2901465  47.4784853  66.4319057  11.7901319  47.3760150  65.8358146
   5.9721732  39.0428509  60.1945168   6.7163777  39.4302785  60.4328117
   6.1182429  38.1985934  60.3585655   6.1032318  38.9758981  60.2539137
   7.8901308  30.8378767  65.2277029   7.0437353  31.0101575  65.1018379
   7.8872440  30.0328111  65.5642857   7.7648458  30.7439796  65.2588156
   8.9599608  34.6153982  66.0939087   8.4859563  34.0895744  66.6044398
   9.3317744  34.0683455  65.5253948   8.9449497  34.4569978  66.0854234
  15.2236339  39.6756358  67.5045867  14.9834562  38.8362773  67.5088294
  15.7028346  39.7556524  68.2286641  15.2588523  39.5637757  67.6120670
  10.8883108  35.5090536  59.1564841  10.3606127  35.5919280  58.4670549
  11.3478816  36.2508408  59.1529485  10.8784958  35.6311199  59.0539536
  17.2241526  36.4557815  65.4575126  16.9851296  36.4153649  64.6195911
  17.3875427  37.3028967  65.5840848  17.2131829  36.5749900  65.3528608
  13.8287556  40.8407764  71.3880172  14.5521755  40.3880290  71.2091192
  13.5637518  41.1212430  70.6052499  13.8968829  40.8158733  71.2458887
   2.6974424  35.4367938  68.1233051   2.0727495  35.4486330  67.5159003
   2.3620019  35.9128113  68.7724291   2.5559916  35.5086455  68.1289619
   2.8816173  33.7793056  54.1805736   2.5328977  34.4312781  54.6437285
   2.4012619  33.7650169  53.4529607   2.7586417  33.8736110  54.1416827
  10.4420190  44.0794100  58.2874498  11.1654389  44.5452213  58.1439071
  10.0020782  44.1467710  57.5372095  10.4835883  44.1577937  58.1559279
   9.6106346  40.9391642  69.5375187   8.9963339  40.3949693  69.8323822
  10.1273630  40.4255879  69.0581003   9.5962008  40.7828051  69.5099415
   8.8502643  42.0095912  67.2719485   8.4230251  41.3845631  66.8384921
   8.8427587  41.7270834  68.0978493   8.7861784  41.8748693  67.3299313
   7.1788352  32.8864667  67.4862019   7.2030840  32.3524779  66.7974799
   7.4299826  32.3781976  68.1487610   7.2198271  32.7325571  67.4826664
   3.4589675  31.6135485  66.8667764   3.4988046  32.1144692  67.5802471
   2.6339339  31.7045879  66.5973687   3.3429201  31.7017301  66.9318302
   4.8804038  38.1295995  69.1641663   4.0495968  38.2969813  68.9576911
   4.8255555  37.7531946  69.9490548   4.7493453  38.0985726  69.2490191
   3.2540082  36.4051586  59.6931780   3.3943043  36.9024051  60.3960422
   3.7522615  35.7037881  59.8345994   3.3481163  36.3753565  59.8183359
   3.2840304  37.2718697  57.0224357   3.9185384  37.8679123  56.9573819
   3.3665915  36.9722155  57.8370227   3.3896855  37.3159606  57.1327444
  16.2622870  39.8034175  69.8910721  16.8540710  40.4431426  69.9228919
  16.6981865  39.1057212  70.1802788  16.4141301  39.7952525  69.9391554
   8.0916260  44.2251547  70.5168615   7.5841351  44.7787394  70.9609246
   7.7942906  44.2859837  69.6987390   7.9721145  44.3157858  70.4617072
  10.2578442  32.5904867  69.3593278  10.6833514  32.1377393  68.7476805
   9.6435435  32.0364938  69.6358066  10.2307087  32.4418843  69.3098304
  10.7024040  48.1414805  58.4472559   9.9853350  47.9675667  57.9819796
  11.3530778  47.9067377  57.9148045  10.6925891  48.0810597  58.3001777
   8.6972665  29.0619967  62.7683855   8.0540983  28.9117613  63.3368994
   8.3572072  28.8162312  62.0032960   8.5517742  29.0032089  62.7386870
  13.2872011  37.0179393  62.1913864  12.6163201  37.5609096  62.0626929
  13.9811762  37.4874249  61.9495559  13.2900879  37.1677665  62.1369392
   7.3358745  49.1576105  67.4225622   7.1124400  48.3994935  67.7909648
   6.8468588  49.1874127  66.7006062   7.2302194  49.0498330  67.3702363
  13.4500139  33.4735277  65.1004237  13.8027749  33.0465000  65.7750036
  12.5914940  33.3886121  65.2305313  13.3749584  33.3980018  65.2199248
   2.1483824  36.1042797  63.1587084   1.4295813  36.5206929  63.4259947
   2.5196186  36.6697036  62.6078722   2.0975756  36.2492078  63.1169891
  11.4483405  36.7370646  69.0489079  11.4281332  36.5553941  69.9023858
  11.4962605  37.6082664  69.0248663  11.4518046  36.8387184  69.1712374
   9.3929735  43.3257838  74.9737556   9.3525589  42.6807515  74.3882712
  10.2053053  43.2694455  75.2862968   9.5072888  43.2216805  74.9334505
   5.9837202  49.3776564  64.8762707   5.5697601  48.7150694  64.4866548
   6.6684576  49.5254422  64.3558401   6.0235574  49.3017222  64.7419204
   9.3502496  48.5366649  65.6286323   8.9518779  48.6468919  64.8607144
   8.7353716  48.7448715  66.2112883   9.2001385  48.5840217  65.6017623
   7.9230398  35.1440797  58.4960463   7.3295238  35.4657793  57.9445030
   7.9605676  34.2981892  58.2881569   7.8404787  35.0665125  58.3843234
  14.8824199  28.5953689  66.0288550  14.3755064  27.8882829  65.9609727
  15.6791633  28.2646878  66.1589626  14.9251438  28.4426840  66.0387545
  10.7988215  35.1020301  61.9262213  10.5701908  35.1253003  61.0840572
  11.0586291  34.2777768  62.0457224  10.8034403  34.9836381  61.8187411
   3.8532977  33.6396847  63.2216409   4.3290344  34.0013927  62.5866590
   3.3521577  34.2953315  63.5016552   3.8498336  33.7891036  63.1693150
  17.0844339  43.1118616  59.0129414  17.4677945  43.8609972  59.2427511
  16.2888452  43.3584435  58.7541403  17.0238121  43.2588309  59.0086988
   5.8959630  35.7838047  56.5889793   6.2758595  35.8017676  55.8040908
   5.1552227  36.2292036  56.4680640   5.8428468  35.8519822  56.4553361
  13.5244921  34.0920238  62.1765372  13.5239147  33.9368895  63.0349648
  13.3201101  34.9383226  62.1206757  13.4944699  34.1940859  62.2953311
  11.2485773  38.7717740  65.8301578  11.7439438  38.0540735  65.7905599
  10.4385549  38.4688538  65.7156065  11.2029666  38.6215387  65.8075304
   6.6944385  42.6215554  57.9798583   5.8855707  42.2982227  57.9331892
   7.2019293  41.9148776  57.9126832   6.6494051  42.4696870  57.9628877
  13.3137592  41.5221428  68.5178707  13.7392663  40.9995850  67.9649132
  12.9494512  42.1202265  67.9967330  13.3224194  41.5331655  68.3587717
   2.9491672  49.8185645  67.2776053   3.2638231  50.6322034  67.2853834
   3.3585085  49.4335864  67.9458212   3.0559770  49.8814348  67.3780144
   9.9016191  45.2355692  64.8479865  10.3727370  45.9495955  65.0169850
  10.2376370  44.6354442  65.3839734  10.0211306  45.2527156  64.9512241
  10.5390138  45.0273626  71.6107557   9.9911084  44.4031510  71.3427623
  11.0003166  45.2167898  70.8951637  10.5257347  44.9632676  71.4657988
  13.3484002  33.0958981  68.9958750  12.7646991  33.5968187  68.5836317
  13.6688296  32.5888537  68.3623073  13.3097177  33.0950816  68.8417257
   5.8878801  32.0099575  59.2717424   6.7094496  32.1797888  59.0299119
   5.4248452  32.1646836  58.5483722   5.9409963  32.0581308  59.1289069
  10.1048464  46.0324699  68.1416899  10.9246838  45.8887665  68.4033194
   9.8242542  46.6570898  68.6833336  10.1845207  46.1035051  68.2604838
  26.5762114  53.6889551  61.1059775  26.5456119  54.5434187  61.2778044
  27.1743463  53.3884843  61.6645919  26.6599272  53.7706047  61.2134577
  19.7761799  52.7765202  65.8612705  18.9199695  52.9373700  65.9121822
  19.8229453  51.9057266  65.8817766  19.6560911  52.6716003  65.8718771
  14.1602939  62.3127919  61.6249937  13.4085838  61.9343458  61.3965982
  14.6088951  62.3446353  60.8768747  14.1152606  62.2613527  61.4807439
  23.0855516  59.0451727  75.4673161  23.7922283  58.5503758  75.5960096
  23.2743451  59.4860809  74.7375819  23.2183421  59.0370078  75.3782207
  19.6127899  62.7353289  57.0535484  19.2779267  63.4130211  56.6179706
  20.1254769  62.3458600  56.4652356  19.6393480  62.7777867  56.9022275
  19.1532190  64.6867558  62.9946596  19.5371569  65.2554456  62.4551371
  19.0891331  63.9617068  62.5152412  19.2005617  64.6643021  62.8440458
  22.6213620  54.8357246  68.5044357  23.1669580  55.5142332  68.5638327
  22.5630497  54.6944706  67.6445938  22.6929535  54.9149247  68.3856418
  15.7387695  62.3246312  63.8912709  15.8398058  61.5146666  64.2009837
  15.1429440  62.2303258  63.2612388  15.6660234  62.1911340  63.8438948
  24.3978689  56.2641853  59.3778085  24.2818215  57.0149539  59.8070223
  25.1934576  56.0065806  59.6274172  24.4983278  56.3376700  59.4782176
  15.5788435  67.2423901  65.2927565  16.2225890  67.6837065  65.6823724
  15.9044690  66.4377327  65.2057824  15.7220263  67.1889096  65.3373043
   8.9352739  58.3466598  63.5165043   8.7002924  57.5134251  63.4097312
   9.0738380  58.6271264  62.7026244   8.9208402  58.2650102  63.3807398
  11.2342827  50.5152329  66.4149351  10.6147858  49.9244976  66.2459366
  11.1326690  51.1063764  65.7813674  11.1280502  50.5156411  66.2954340
  16.2809014  60.2535876  60.6647427  16.6024855  60.7941083  60.0608735
  16.9281111  59.6832647  60.7969717  16.4235070  60.2495051  60.5954463
  18.3310722  52.2551871  60.7481814  19.0290887  52.4339998  61.2403277
  18.6463055  51.7322210  60.1252203  18.4806060  52.2045643  60.7283824
  10.9611960  54.0604611  68.6592920  10.8370657  54.6467056  69.2942739
  11.6130244  53.5664806  68.9605195  11.0385609  54.0743415  68.7978849
  18.5198658  58.6422316  60.7361605  18.9592293  58.0339416  61.1816378
  18.3703321  58.2629689  59.9647070  18.5620124  58.4960787  60.6880773
  15.9870301  57.2366327  67.9380431  16.6319303  56.7438771  67.6191379
  16.2272078  57.3791114  68.7646509  16.1180886  57.1843770  68.0129964
  18.5256392  60.0821233  67.5887323  18.8079635  59.2872639  67.3674079
  19.2542553  60.5601821  67.6092384  18.6745956  60.0355830  67.5590339
  16.5037586  47.6244267  64.8303088  16.1740916  48.0755411  64.1606787
  15.8282588  47.5460431  65.3776095  16.3548022  47.6795402  64.8126312
  22.1207994  56.9949497  57.6892375  22.0359289  57.8510464  57.8341943
  22.6092378  56.7193821  58.3574534  22.1796892  57.0806818  57.8094456
  23.7113994  43.6129790  63.0752699  23.3967435  44.3033269  63.5073121
  23.1940935  43.5574572  62.3738200  23.5878464  43.7064679  63.0349648
  23.0526428  53.6134291  59.1890110  22.5237899  53.8293925  59.8487416
  23.5751448  54.3070430  59.1091079  23.0514881  53.7477428  59.2745709
  28.5074481  59.1880596  64.5623154  27.6772184  59.3991239  64.7256571
  28.4583733  58.3617650  64.2865438  28.3781216  59.0970202  64.5460520
  14.9426035  57.5097508  57.9897578  14.3583251  58.0147539  58.3963442
  14.5396131  57.2839895  57.2494170  14.7965339  57.5505756  57.9402603
  10.4970064  63.2252269  64.7921249  10.0137642  63.9502759  64.7680833
  11.3093382  63.5228399  64.9031407  10.5460812  63.3754623  64.8048528
  16.5684218  62.0184450  67.3971064  16.0511160  61.6591865  66.7932372
  17.2658609  61.4946624  67.4077130  16.5949799  61.8882138  67.3101322
  20.2247810  62.4679264  73.3587237  20.3131156  62.2805404  74.2065447
  20.6537523  61.8216693  72.9592084  20.3009912  62.3442271  73.4258988
  19.4003250  53.7563160  56.4666498  19.6399254  53.9641144  55.6541841
  19.7219091  52.9520669  56.5755443  19.4840408  53.6677261  56.3627051
  14.7093540  45.6856556  60.3126036  15.4639508  46.0534873  60.0743086
  14.5321075  46.0596110  61.0805216  14.7948018  45.7954744  60.3910925
  13.3514261  63.7408445  64.9441529  14.0534841  63.2260434  65.0014286
  13.2711744  64.0682596  65.7488404  13.4438022  63.7122671  65.0714321
  28.0028439  51.8350996  68.3573576  27.1656860  51.9053183  68.5921170
  27.9716670  51.8375491  67.4847878  27.8746721  51.8461223  68.2633124
  14.3993168  53.9784032  74.0721944  14.5713672  53.8689926  74.9207226
  14.9362525  54.6238437  73.8353136  14.5038172  54.0576033  74.1627041
  13.0650605  48.0926875  57.0104149  12.8826178  48.3098755  56.1845142
  13.9276218  48.2065887  57.0662764  13.1655194  48.1416773  56.8958636
  12.6765037  59.9314797  64.4527137  13.5153936  60.1637730  64.5000899
  12.7076806  59.0619108  64.3834173  12.8046754  59.8371743  64.4491782
  13.3017740  60.3515672  68.7540443  13.8415965  60.2086803  69.4243815
  12.6187686  60.7512423  69.1224469  13.2809894  60.3895343  68.9074864
  18.7450324  45.0953285  60.0453173  19.4736484  44.9169240  59.5991329
  18.8345217  45.9371365  60.2560351  18.8656986  45.1937164  60.0106691
  22.7258625  56.0306673  63.9485467  23.4816140  56.4638187  63.9874376
  22.8320949  55.3811442  64.5220103  22.8528795  55.9984157  64.0383493
  25.7638796  59.8579950  64.6987870  25.3274028  59.8616692  65.4546841
  25.4301711  60.5385449  64.2667447  25.6501416  59.9592406  64.7468703
  25.6836279  46.8993778  66.9417298  26.3262187  46.9691882  67.5279213
  25.9359299  46.2323001  66.4396840  25.8158411  46.8120126  66.9544577
  12.6112632  51.3701047  55.5226622  11.8970809  51.0839227  55.9349055
  13.0956600  51.7097673  56.1633010  12.5771995  51.3782697  55.6782257
  13.4553491  50.1094341  71.5541872  12.7625288  49.6391321  71.8002603
  14.0713819  49.8832646  72.1283579  13.4438021  50.0061473  71.6751024
  20.4938263  63.8098385  69.6697476  19.6953508  63.5697885  69.9271345
  20.9424274  63.8612778  70.4164524  20.4412874  63.7820776  69.8182400
  28.8983142  56.5760870  63.5907507  29.5599576  56.0151538  63.4903416
  28.2574554  56.0812901  63.9160198  28.9012009  56.4197279  63.6239847
  19.7859950  59.8731001  55.8988430  20.2011098  59.5416025  55.2072926
  18.9551879  59.6399903  55.7708567  19.7247958  59.7902257  55.7779278
   9.1148298  57.3574742  66.1886608   8.9323872  57.3321628  65.3358901
   9.8497967  57.8273680  66.2275517   9.1962362  57.4236104  66.0684527
  25.1847973  57.5926252  63.3319496  25.4203562  57.7371451  62.5046347
  25.3337536  58.3568660  63.7251010  25.2413776  57.7265307  63.2683100
  12.1794050  54.0759745  72.6968717  12.9034022  54.0612776  73.1833612
  12.2810187  54.7855100  72.1990685  12.3012259  54.1784448  72.6947504
  27.0138429  56.4327918  61.1689100  27.3446646  56.9655558  60.5629195
  27.5871518  56.4866806  61.8251051  27.1472109  56.5197487  61.1766882
  22.2270319  54.2792821  61.8512680  22.3217173  55.0182115  62.3052305
  21.6029162  53.8510296  62.2847244  22.1479349  54.3254141  61.9820827
  20.4822792  57.4579033  72.5002961  21.0561654  56.8206278  72.6551525
  20.4037596  57.4583116  71.6312618  20.5556027  57.3644145  72.3949372
   9.0819209  54.2368243  66.3385675   9.6592711  54.1004694  66.9777920
   8.3833271  53.7804027  66.5931259   9.0640230  54.1490509  66.4707965
  22.4793340  56.1241561  55.0849632  22.3973502  56.1943748  55.9504619
  23.1173060  56.6871305  54.8933373  22.5613177  56.2180532  55.1839581
  15.8386511  55.8902299  64.5524158  15.5805755  55.0574033  64.5255458
  15.8934994  56.1159912  63.7116659  15.8086289  55.8000070  64.4244295
  20.9187561  47.9930749  64.6528251  20.2143888  47.5039935  64.8112170
  20.9672535  48.0053224  63.7816695  20.8217613  47.9220397  64.5467591
  14.8121223  53.4440061  65.0389053  14.2370814  53.6032229  65.6753014
  14.4356899  52.8075470  64.5757504  14.6724035  53.3737874  65.0643611
  18.4794512  51.9163410  69.8981431  18.0908945  51.4917628  69.2433623
  17.8149210  52.1645560  70.4058458  18.3241440  51.8902131  69.8769299
  28.1217781  51.6738415  62.6729261  27.8654346  50.8618357  62.4827144
  28.9647095  51.6815982  62.4459449  28.2083806  51.5550413  62.6114079
   4.5578042  53.0880136  63.0533494   4.6438294  52.7112004  63.8347024
   5.1853839  52.7140581  62.5753452   4.6634593  52.9765618  63.0978971
  22.3020873  45.6138039  67.4105416  22.6831385  44.9316210  67.7973290
  21.4984158  45.3247641  67.2281080  22.2397335  45.4705088  67.4409472
  19.5833450  56.1462015  58.0958238  20.3974089  56.4376908  57.9841010
  19.5192591  55.4921877  57.5216531  19.6936189  56.0927210  57.9947076
  25.8042940  58.8288011  72.5087814  25.5681578  57.9976076  72.3899875
  26.4486169  58.7773618  73.0942658  25.8637611  58.6985699  72.5773708
  15.4541358  59.6183532  63.2230550  16.0915305  59.3795280  63.7682344
  15.8796430  59.8220691  62.4883711  15.6117525  59.6134543  63.1947708
  16.0944173  54.8385822  57.5605440  16.4789326  54.6193529  58.3121985
  15.8455794  55.6648768  57.6906516  16.1146246  54.9283968  57.6906516
  16.2612714  48.1192237  77.2768024  15.9466155  48.8891800  77.0137587
  15.9402646  47.5562493  76.6920251  16.1671633  48.1502506  77.1509374
  26.8279361  58.6132460  68.5716109  26.5225178  59.3460517  68.9329424
  26.1085576  58.2070389  68.2908895  26.6766703  58.6614193  68.5829246
  17.8362830  60.0955955  64.9024337  17.9101839  59.9331127  65.7566187
  18.6532337  60.2846145  64.6584818  17.9679189  60.0992697  64.9922362
  32.5281153  55.2525461  67.8984453  32.4605653  55.2721420  67.0287039
  32.5136815  56.0955788  68.1240123  32.5159909  55.3799195  67.8036930
  11.5968587  60.4413818  61.9318780  10.7706705  60.6875555  61.8053059
  11.6580578  60.3625899  62.7980838  11.4842754  60.4658767  62.0407725
  13.8144611  46.5082759  62.8914220  12.9467036  46.5805358  62.9571830
  14.1019815  47.3104838  63.0802195  13.7284359  46.6376906  62.9288987
  22.9377499  46.6560618  71.2225542  23.6831091  46.4670429  70.8088968
  22.5214804  47.1818856  70.6639399  22.9862474  46.7062764  71.0790115
  30.3139770  54.0269847  66.1731047  30.8647692  53.3937916  66.4128139
  30.2983886  54.5585240  66.8646551  30.3924967  54.0118795  66.3109905
  16.9662161  57.8608444  70.7190941  16.4673855  58.5724212  70.7975829
  17.7762385  58.1809111  70.6809103  17.0118268  58.0135293  70.7247509
  14.3173332  65.0358081  62.6997960  14.0973627  64.7455435  63.4924627
  14.0967854  64.3773036  62.1715872  14.2520926  64.8957789  62.7386869
  13.2290279  57.1231397  64.9653662  12.9403527  56.4968868  65.4999389
  14.0973627  57.0651684  65.0318342  13.3150531  57.0218941  65.0544616
  24.0168177  52.2666180  65.2835643  23.6732942  51.5456516  65.6342893
  24.1161219  52.0580032  64.4414002  23.9810219  52.1290384  65.2107323
  16.4841287  66.4087470  61.4828652  17.1365345  65.8763913  61.7119678
  15.7866896  66.0556123  61.8696526  16.4772005  66.2776993  61.5740820
  13.4322552  58.7626648  60.8896027  14.1868520  59.1439687  61.1031489
  12.8393165  59.2137792  61.3442723  13.4559266  58.8855475  60.9878905
  24.4781206  58.7291884  60.8259631  25.0439238  59.3885094  60.7418174
  23.8309109  59.0741583  61.2976034  24.4659962  58.8773826  60.8832388
  15.8929219  50.7189488  76.0153239  15.0828995  51.0247268  75.9043081
  16.3703906  51.4395071  76.1305823  15.8432698  50.8704090  76.0160310
  14.7520779  59.9335209  66.2636142  14.2301532  60.0735501  66.9488007
  15.1394799  59.1745874  66.4538259  14.7324480  59.8420733  66.3937218
  11.7411963  49.9841018  60.3331097  11.4536758  49.6142289  59.5963044
  12.4282431  50.4535873  60.0714802  11.8000860  49.9987988  60.1846172
  20.9487784  61.6730669  60.2496711  20.7074460  60.9398529  59.8423776
  21.1289117  62.2217526  59.5963044  20.9395408  61.6453060  60.0926934
  16.1787104  56.9639228  61.6617633  15.9829887  57.5713963  61.0677936
  16.4021450  56.2707172  61.1809307  16.1821745  56.9516754  61.5033714
  14.5765634  53.8493966  61.7798501  15.2988286  54.0135124  61.3202307
  14.0973627  54.5703631  61.6737841  14.6129365  53.9792196  61.6964115
  22.5359142  50.1857765  67.1595186  21.6970243  50.2119044  66.9233450
  22.6063509  50.8328501  67.7400533  22.4227535  50.2853891  67.2104303
  20.9828420  47.0843142  61.8922802  21.6854773  46.8850890  61.4142760
  20.7172609  46.3119085  62.1991646  21.0475053  46.9406108  61.8668244
  26.4116666  55.3925752  64.4456428  26.3250640  55.5481178  65.2991207
  25.9567146  56.0363827  64.0715833  26.3319922  55.5101507  64.5163535
   9.3140157  50.7622231  61.1816378   9.4156294  51.5648392  61.5097353
  10.1096044  50.5609567  60.8839458   9.4468063  50.8508129  61.1851733
  15.7456976  48.3478427  70.9453683  15.5540173  48.3633562  71.7953106
  16.5955572  48.5442102  70.9220338  15.8432698  48.3792779  71.0676978
  10.1303889  50.8769409  68.9237499   9.9889381  50.0253350  69.0482007
  10.4144453  50.9198069  68.0999705  10.1511736  50.7569159  68.8205123
  20.2842482  52.7136499  63.0681988  20.0377196  52.6332250  63.9018776
  20.6127605  51.9289967  62.8744515  20.2963725  52.5862764  63.1629511
  24.1790531  59.4219858  66.8568769  24.0404890  60.1200904  67.3617511
  23.3990529  59.2668515  66.5004951  24.0433757  59.5020025  66.8795043
  22.5168616  55.7216234  73.1091150  22.5116654  54.8496050  73.1133577
  23.2229610  55.9204403  72.6360606  22.6213620  55.6220108  73.0398186
  16.2439509  55.4493218  72.4804971  16.3882885  56.0294426  71.8448081
  16.5915158  55.8269514  73.1854825  16.3166970  55.5913922  72.4903966
  18.4159426  54.6483386  70.2630102  17.6682740  54.8414400  69.8578380
  18.5700952  53.8228606  70.0254223  18.3281854  54.5548497  70.1675508
  15.3167264  63.6395989  69.3465997  15.4656828  63.0798905  68.6939402
  16.0967266  63.7187991  69.7298516  15.4541358  63.5681555  69.3062947
  25.6743903  58.7798112  57.6185268  25.2950712  57.9935250  57.6114557
  25.0110149  59.3284969  57.4756912  25.5202378  58.7442936  57.5966065
  17.8420565  63.8110632  70.6250488  17.7664236  63.1419443  71.1801277
  17.7710424  64.5128420  71.1391155  17.8201172  63.8155540  70.7827336
  18.6561203  48.5433937  71.1525506  19.1133818  49.2757911  71.2798298
  18.7317532  48.1200402  71.9112762  18.7352173  48.5891175  71.2826582
  10.8994195  48.7899756  72.2414950  10.3636384  48.1780115  72.5575717
  10.9611959  49.3647892  72.8948616  10.8289827  48.7846684  72.3850376
  23.1288529  41.7223812  65.0219349  23.2472098  42.1800275  64.2886652
  22.9550705  40.9169073  64.7355566  23.1207700  41.6717584  64.8720283
  18.4990812  62.3311631  61.4574094  19.2640703  62.0621275  61.1356758
  18.3968902  61.8461642  62.1744157  18.5972307  62.2201196  61.5153922
  16.5343581  50.5336041  67.9967330  15.7439656  50.3527501  68.3184666
  16.9304204  49.7562993  67.9797624  16.4760458  50.3923502  68.0419878
  21.0209472  59.3623815  53.4374044  21.7882457  59.4223940  53.0279895
  20.5740781  58.7904256  52.9530362  21.0682899  59.2860391  53.3051754
  21.9187268  58.1678471  65.7226776  21.2432270  57.9363703  66.2240163
  21.9279644  57.5599654  65.0968881  21.8205772  58.0437396  65.7042928
  19.0481412  53.0096300  72.4790829  18.9840553  53.8706256  72.3510966
  19.1878599  52.6928293  71.6786380  19.0596882  53.0896466  72.3419042
  23.9204002  61.0243603  57.9536954  24.0023840  61.8310589  57.6298405
  24.4053744  61.0439562  58.6777727  24.0041160  61.1464266  58.0123852
  17.7300506  55.7028439  66.6207032  17.3062755  55.9032938  65.8846050
  17.5545361  54.8557287  66.7331332  17.6411386  55.6077221  66.5280722
  13.0182951  56.1980491  62.0535004  13.1747570  56.1327293  62.9090996
  13.3583544  56.9729043  61.8413684  13.0916185  56.3029689  62.1489598
  19.5562095  55.5738374  60.9228368  20.0977641  55.0708755  61.3866988
  19.8708654  55.5203569  60.1117853  19.6826492  55.4917795  60.8712180
  23.4279203  59.7841021  78.0355280  24.2414068  59.5126170  78.1960412
  23.2674169  59.4848561  77.2315476  23.5249151  59.6995947  77.9400686
  17.7248545  60.9655726  58.2068396  17.7941365  60.1070264  58.3461396
  18.5037000  61.1827607  57.8787420  17.8501395  60.8708590  58.1785553
  20.7051365  50.4674679  70.9750668  20.9193334  49.8285593  70.4214022
  20.0885264  50.9120502  70.5458530  20.6456694  50.4384822  70.8301099
  22.1156032  63.3893427  62.4204889  21.7235824  63.0860142  61.7027755
  22.2709105  64.2262517  62.2309843  22.0809622  63.4677264  62.2861386
   9.5917212  53.3815441  62.3695771   9.9716177  53.7999986  61.7056039
   9.0172577  53.9628897  62.6764615   9.5628537  53.5293300  62.3172512
  22.8690453  52.0763744  71.9133975  22.0567134  51.7689634  71.9947148
  23.3280387  51.5962744  72.4776687  22.8170837  51.9600236  72.0088569
  22.2795707  59.9543416  62.3610919  21.9210362  60.1258059  63.1374952
  21.7934418  60.4156621  61.8038918  22.1554404  60.0482387  62.3936189
  20.0966093  43.5774614  65.9638011  19.2259651  43.5513335  65.9171320
  20.3506434  43.4051806  65.1463856  20.0059653  43.5484758  65.8358148
  17.0684073  55.6342581  54.9011154  17.3576597  56.4107464  55.1754728
  17.1555871  55.1231313  55.6025653  17.1238329  55.6734500  55.0453652
  19.9643960  53.4823815  76.6962677  20.4343591  54.1065932  77.0830551
  20.0105840  52.8140791  77.2555892  20.0411836  53.4758496  76.8362749
  17.1215234  45.5880843  67.4211481  16.6053722  44.8961034  67.5463060
  16.5609163  46.2551620  67.3674080  16.9621747  45.5844100  67.4317547
  19.1907467  46.1273803  69.2504334  18.8039220  46.1522834  70.0317864
  18.7040404  45.5615481  68.7978850  19.0619976  46.0469554  69.2992237
  23.4400447  60.8447312  73.3078120  24.0780167  60.3507507  72.9740576
  22.7974538  60.7724712  72.7230347  23.4394673  60.7606320  73.1720475
  25.1657447  52.6936458  67.8744036  24.7385055  52.6062806  67.1192135
  24.5283500  52.8014233  68.4598880  25.0087054  52.6969118  67.8489477
  18.8564609  43.0140788  71.5414594  19.4857727  43.5501088  71.2635664
  19.0250472  42.9218147  72.3928159  18.9742403  43.0802150  71.6263122
  18.6578524  47.8011983  73.8141005  19.4851953  47.5297132  73.8699620
  18.6786370  48.5972825  74.1704823  18.7831374  47.8791737  73.8756188
  23.4954703  61.5367120  69.9483477  24.2847081  61.1856185  70.0685559
  23.6698301  62.3503508  69.6860111  23.6374985  61.6052977  69.9271345
  13.2348014  54.9475846  67.0011266  12.3936020  54.8479720  67.2090160
  13.4438022  55.7171326  67.3525587  13.1412706  55.0467889  67.0838581
  10.7123581  52.5695383  64.8296017  10.3180278  52.6438395  64.0546126
  10.1563697  52.9553329  65.3804378  10.5726393  52.6377157  64.7963676
  22.3488527  45.5476677  64.5099895  22.5538121  45.4798985  65.3556893
  22.0214951  46.3535498  64.4421073  22.3303775  45.6562617  64.6259551
  17.0464678  52.8757245  66.2508863  16.7427816  52.3213233  66.8519271
  16.3444099  53.0549455  65.7636898  16.8980888  52.8202027  66.2678569
  16.1030776  50.1857765  60.8153565  16.3790510  49.4676677  60.4031133
  16.7029445  50.7842685  60.6074671  16.2324040  50.1678135  60.7234326
  25.6022215  46.1008441  63.9902661  24.9896529  46.5878843  64.3756393
  25.6986390  45.4251932  64.5340312  25.5260113  46.0726750  64.1281519
  19.6041296  47.8571282  59.0900160  20.0585043  48.0281843  59.8148005
  20.0781342  47.2439393  58.6897936  19.7409616  47.7922167  59.1373922
  13.1256821  57.3419608  68.4202899  12.5344755  57.9829106  68.3905914
  13.8877845  57.7657225  68.3934198  13.1505082  57.4995446  68.4118046
  13.5217444  48.5021606  69.0870916  13.9818926  48.5760535  69.8246040
  13.5673551  49.3002860  68.7370738  13.5968000  48.6315753  69.1443673
  15.1700794  49.1688301  73.6542943  14.7786359  48.5221648  74.0898721
  15.3386657  49.7599736  74.2737199  15.1371704  49.1602569  73.8105649
  29.2447243  57.1725378  69.4180177  29.3030367  57.6212026  70.1640154
  28.6113711  57.5824191  68.9810257  29.1598538  57.2999112  69.4632725
  22.8846338  62.7928920  65.8534923  22.6866026  63.2819734  65.1591135
  22.2634049  62.9970161  66.4319057  22.7633902  62.8945458  65.8358146
  16.9454316  54.5613816  60.1945168  17.6896361  54.9488093  60.4328117
  17.0915012  53.7171242  60.3585655  17.0764901  54.4944289  60.2539137
  18.8633892  46.3564075  65.2277029  18.0169937  46.5286883  65.1018379
  18.8605024  45.5513419  65.5642857  18.7381041  46.2625104  65.2588156
  19.9332192  50.1339290  66.0939087  19.4592146  49.6081052  66.6044398
  20.3050328  49.5868763  65.5253948  19.9182081  49.9755286  66.0854234
  10.3105222  52.1310796  71.4622633  11.1730835  52.0306506  71.3759962
   9.9797005  51.5505506  70.9008205  10.3890418  52.0302423  71.3668038
  26.1968922  55.1941665  67.5045867  25.9567145  54.3548081  67.5088294
  26.6760930  55.2741832  68.2286641  26.2321106  55.0823065  67.6120670
  21.8615692  51.0275844  59.1564841  21.3338710  51.1104588  58.4670549
  22.3211400  51.7693716  59.1529485  21.8517542  51.1496507  59.0539536
  28.1974110  51.9743123  65.4575126  27.9583879  51.9338957  64.6195911
  28.3608011  52.8214275  65.5840848  28.1864413  52.0935208  65.3528608
  24.8020140  56.3593072  71.3880172  25.5254338  55.9065598  71.2091192
  24.5370102  56.6397738  70.6052499  24.8701413  56.3344040  71.2458887
  13.6707008  50.9553245  68.1233051  13.0460078  50.9671637  67.5159003
  13.3352603  51.4313421  68.7724291  13.5292500  51.0271762  68.1289619
  13.8548757  49.2978364  54.1805736  13.5061561  49.9498089  54.6437285
  13.3745203  49.2835477  53.4529607  13.7319001  49.3921418  54.1416827
  21.4152774  59.5979408  58.2874498  22.1386973  60.0637521  58.1439071
  20.9753365  59.6653018  57.5372095  21.4568466  59.6763245  58.1559279
  20.5838929  56.4576950  69.5375187  19.9695922  55.9135000  69.8323822
  21.1006214  55.9441187  69.0581003  20.5694592  56.3013359  69.5099415
  19.8235226  57.5281220  67.2719485  19.3962834  56.9030939  66.8384921
  19.8160171  57.2456142  68.0978493  19.7594367  57.3934001  67.3299313
  12.9397753  52.5646393  70.3407919  13.0991240  51.8089717  70.7459641
  12.7590647  53.1137333  70.9948657  12.9363112  52.5340207  70.4970625
  20.8818056  44.7307629  70.8958709  20.3858618  44.9271303  70.2050275
  21.6387118  45.1300297  70.7247510  20.9204881  44.8185363  70.7678846
  18.1520936  48.4049975  67.4862019  18.1763423  47.8710087  66.7974799
  18.4032410  47.8967284  68.1487610  18.1930855  48.2510879  67.4826664
  14.4322258  47.1320793  66.8667764  14.4720630  47.6330000  67.5802471
  13.6071923  47.2231187  66.5973687  14.3161784  47.2202609  66.9318302
  15.8536622  53.6481303  69.1641663  15.0228551  53.8155121  68.9576911
  15.7988139  53.2717254  69.9490548  15.7226036  53.6171034  69.2490191
  13.6620405  47.1390196  74.7998073  14.2873108  46.5952329  75.0727506
  13.2070885  46.6585113  74.2305864  13.6868665  46.9879677  74.7559667
  14.2272665  51.9236894  59.6931780  14.3675626  52.4209359  60.3960422
  14.7255198  51.2223189  59.8345994  14.3213746  51.8938873  59.8183359
  14.2572888  52.7904005  57.0224357  14.8917967  53.3864430  56.9573819
  14.3398499  52.4907463  57.8370227  14.3629439  52.8344914  57.1327444
  27.2355454  55.3219483  69.8910721  27.8273294  55.9616733  69.9228919
  27.6714448  54.6242519  70.1802788  27.3873885  55.3137833  69.9391554
  15.8351871  48.7217981  56.9969799  16.1567712  48.2421063  56.3429061
  16.0978814  49.5317627  56.8060611  15.9217896  48.7707879  56.8725291
  19.0648843  59.7436855  70.5168615  18.5573935  60.2972702  70.9609246
  18.7675490  59.8045145  69.6987390  18.9453728  59.8343166  70.4617072
  21.2311026  48.1090175  69.3593278  21.6566097  47.6562701  68.7476805
  20.6168019  47.5550245  69.6358066  21.2039671  47.9604151  69.3098304
  10.7625876  54.9871846  60.2913903  11.2718105  55.5836354  60.6725209
  11.2360148  54.7197820  59.6090323  10.9069251  55.0357662  60.2468426
  21.6756624  63.6600113  58.4472559  20.9585933  63.4860975  57.9819796
  22.3263361  63.4252685  57.9148045  21.6658474  63.5995905  58.3001777
  19.6705248  44.5805275  62.7683855  19.0273566  44.4302921  63.3368994
  19.3304655  44.3347620  62.0032960  19.5250326  44.5217397  62.7386870
  24.2604595  52.5364701  62.1913864  23.5895785  53.0794404  62.0626929
  24.9544345  53.0059557  61.9495559  24.2633462  52.6862973  62.1369392
  18.3091329  64.6761413  67.4225622  18.0856983  63.9180243  67.7909648
  17.8201172  64.7059435  66.7006062  18.2034778  64.5683638  67.3702363
  24.4232722  48.9920585  65.1004237  24.7760333  48.5650308  65.7750036
  23.5647524  48.9071429  65.2305313  24.3482167  48.9165326  65.2199248
  13.1216407  51.6228105  63.1587084  12.4028397  52.0392237  63.4259947
  13.4928770  52.1882343  62.6078722  13.0708339  51.7677386  63.1169891
  22.4215988  52.2555954  69.0489079  22.4013916  52.0739249  69.9023858
  22.4695189  53.1267972  69.0248663  22.4250629  52.3572492  69.1712374
  20.3662318  58.8443146  74.9737556  20.3258173  58.1992823  74.3882712
  21.1785636  58.7879763  75.2862968  20.4805472  58.7402112  74.9334505
  16.9569786  64.8961872  64.8762707  16.5430184  64.2336002  64.4866548
  17.6417160  65.0439730  64.3558401  16.9968157  64.8202530  64.7419204
  20.3235080  64.0551957  65.6286323  19.9251363  64.1654227  64.8607144
  19.7086299  64.2634023  66.2112883  20.1733969  64.1025525  65.6017623
  18.8962982  50.6626105  58.4960463  18.3027821  50.9843101  57.9445030
  18.9338259  49.8167200  58.2881569  18.8137371  50.5850433  58.3843234
  25.8556783  44.1138997  66.0288550  25.3487647  43.4068136  65.9609727
  26.6524216  43.7832186  66.1589626  25.8984022  43.9612148  66.0387545
  21.7720798  50.6205609  61.9262213  21.5434491  50.6438311  61.0840572
  22.0318875  49.7963076  62.0457224  21.7766986  50.5021689  61.8187411
  16.0540027  52.4740082  71.5287314  15.5418930  51.8661265  71.8872345
  15.8819523  53.1896675  71.9961289  15.9529664  52.4903381  71.6503537
  14.8265561  49.1582155  63.2216409  15.3022927  49.5199235  62.5866590
  14.3254161  49.8138623  63.5016552  14.8230920  49.3076344  63.1693150
  28.0576922  58.6303923  59.0129414  28.4410528  59.3795280  59.2427511
  27.2621036  58.8769743  58.7541403  27.9970705  58.7773617  59.0086988
  19.9309097  50.3964327  73.9689569  20.4880527  50.1678136  73.3368034
  19.6070162  51.1569992  73.6924781  19.9655507  50.4748163  73.8346066
  17.6492214  53.4831980  74.9341576  18.4003541  53.7983657  75.2481130
  17.8414791  53.2811151  74.1075498  17.7883629  53.4999362  74.8584972
  16.8692214  51.3023355  56.5889793  17.2491179  51.3202984  55.8040908
  16.1284810  51.7477344  56.4680640  16.8161052  51.3705130  56.4553361
  24.4977505  49.6105546  62.1765372  24.4971731  49.4554203  63.0349648
  24.2933685  50.4568533  62.1206757  24.4677282  49.7126167  62.2953311
   6.5594776  53.0345331  66.5924188   6.3816537  52.5821940  67.3179104
   6.2713798  53.8371492  66.7762666   6.4907729  53.0867889  66.7267691
  22.2218357  54.2903048  65.8301578  22.7172022  53.5726043  65.7905599
  21.4118132  53.9873846  65.7156065  22.1762250  54.1400694  65.8075304
  17.6676968  58.1400861  57.9798583  16.8588291  57.8167535  57.9331892
  18.1751877  57.4334084  57.9126832  17.6226635  57.9882178  57.9628877
   8.2967245  55.5673055  63.7045947   7.4312765  55.5558745  63.5928718
   8.3966061  55.3803277  64.5517086   8.1841412  55.5379116  63.8134892
  24.2870175  57.0406736  68.5178707  24.7125247  56.5181158  67.9649132
  23.9227095  57.6387573  67.9967330  24.2956778  57.0516963  68.3587717
  13.9224255  65.3370953  67.2776053  14.2370814  66.1507342  67.2853834
  14.3317669  64.9521172  67.9458212  14.0292353  65.3999656  67.3780144
  20.8748775  60.7541000  64.8479865  21.3459953  61.4681263  65.0169850
  21.2108953  60.1539750  65.3839734  20.9943890  60.7712464  64.9512241
  17.7918270  45.5268471  71.8037960  17.9246175  44.7299464  72.1318935
  18.1763423  46.0534874  72.3836235  17.8674599  45.4868387  71.9381462
  21.5122721  60.5458934  71.6107557  20.9643667  59.9216818  71.3427623
  21.9735750  60.7353206  70.8951637  21.4989931  60.4817984  71.4657988
  20.8650625  42.4498797  68.4019053  20.0596589  42.3396526  68.7186891
  20.7357361  42.5511252  67.5448919  20.7270758  42.4482467  68.3227093
  24.3216586  48.6144289  68.9958750  23.7379574  49.1153495  68.5836317
  24.6420880  48.1073845  68.3623073  24.2829761  48.6136124  68.8417257
  16.8611385  47.5284883  59.2717424  17.6827079  47.6983196  59.0299119
  16.3981036  47.6832144  58.5483722  16.9142547  47.5766616  59.1289069
  15.4506717  45.5227646  70.0515853  15.9951130  45.1818772  70.6420195
  15.5043652  46.3813107  70.1937138  15.5395836  45.5982905  70.1597727
  11.2637275  59.2844062  66.9254661  11.8682133  59.2439896  66.2968482
  11.0564588  60.1315214  66.9558717  11.3226173  59.4032064  66.8370778
  21.0781048  61.5510007  68.1416899  21.8979421  61.4072973  68.4033194
  20.7975125  62.1756206  68.6833336  21.1577791  61.6220359  68.2604838
  37.5494698  69.2074858  61.1059775  37.5188702  70.0619495  61.2778044
  38.1476047  68.9070151  61.6645919  37.6331856  69.2891355  61.2134577
  30.7494383  68.2950510  65.8612705  29.8932278  68.4559008  65.9121822
  30.7962036  67.4242573  65.8817766  30.6293494  68.1901311  65.8718771
  33.5946204  70.3542553  68.5044357  34.1402164  71.0327640  68.5638327
  33.5363080  70.2130014  67.6445938  33.6662118  70.4334555  68.3856418
  35.3711272  71.7827161  59.3778085  35.2550798  72.5334847  59.8070223
  36.1667159  71.5251114  59.6274172  35.4715862  71.8562007  59.4782176
  19.9085323  73.8651906  63.5165043  19.6735507  73.0319558  63.4097312
  20.0470964  74.1456572  62.7026244  19.8940985  73.7835410  63.3807398
  22.2075410  66.0337637  66.4149351  21.5880442  65.4430284  66.2459366
  22.1059274  66.6249072  65.7813674  22.1013086  66.0341719  66.2954340
  27.2541598  75.7721184  60.6647427  27.5757439  76.3126391  60.0608735
  27.9013694  75.2017955  60.7969717  27.3967653  75.7680359  60.5954463
  29.3043306  67.7737178  60.7481814  30.0023471  67.9525306  61.2403277
  29.6195639  67.2507518  60.1252203  29.4538643  67.7230951  60.7283824
  21.9344543  69.5789918  68.6592920  21.8103240  70.1652364  69.2942739
  22.5862828  69.0850114  68.9605195  22.0118193  69.5928723  68.7978849
  29.4931241  74.1607624  60.7361605  29.9324877  73.5524724  61.1816378
  29.3435904  73.7814997  59.9647070  29.5352707  74.0146095  60.6880773
  26.9602884  72.7551635  67.9380431  27.6051887  72.2624078  67.6191379
  27.2004661  72.8976422  68.7646509  27.0913470  72.7029078  68.0129964
  29.4988976  75.6006541  67.5887323  29.7812219  74.8057947  67.3674079
  30.2275136  76.0787129  67.6092384  29.6478539  75.5541138  67.5590339
  27.4770170  63.1429575  64.8303088  27.1473500  63.5940719  64.1606787
  26.8015171  63.0645739  65.3776095  27.3280606  63.1980710  64.8126312
  33.0940578  72.5134805  57.6892375  33.0091873  73.3695771  57.8341943
  33.5824961  72.2379129  58.3574534  33.1529475  72.5992126  57.8094456
  34.6846577  59.1315098  63.0752699  34.3700018  59.8218577  63.5073121
  34.1673519  59.0759880  62.3738200  34.5611048  59.2249987  63.0349648
  34.0259011  69.1319599  59.1890110  33.4970483  69.3479233  59.8487416
  34.5484031  69.8255737  59.1091079  34.0247464  69.2662736  59.2745709
  39.4807064  74.7065903  64.5623154  38.6504767  74.9176547  64.7256571
  39.4316316  73.8802958  64.2865438  39.3513800  74.6155510  64.5460520
  25.9158619  73.0282816  57.9897578  25.3315834  73.5332847  58.3963442
  25.5128714  72.8025203  57.2494170  25.7697923  73.0691064  57.9402603
  30.3735833  69.2748468  56.4666498  30.6131837  69.4826452  55.6541841
  30.6951674  68.4705977  56.5755443  30.4572991  69.1862569  56.3627051
  25.6826124  61.2041864  60.3126036  26.4372092  61.5720181  60.0743086
  25.5053658  61.5781418  61.0805216  25.7680602  61.3140051  60.3910925
  38.9761022  67.3536304  68.3573576  38.1389443  67.4238491  68.5921170
  38.9449253  67.3560799  67.4847878  38.8479305  67.3646531  68.2633124
  25.3725751  69.4969340  74.0721944  25.5446255  69.3875234  74.9207226
  25.9095109  70.1423745  73.8353136  25.4770755  69.5761341  74.1627041
  24.0383188  63.6112183  57.0104149  23.8558762  63.8284063  56.1845142
  24.9008801  63.7251195  57.0662764  24.1387778  63.6602080  56.8958636
  23.6497620  75.4500105  64.4527137  24.4886520  75.6823038  64.5000899
  23.6809389  74.5804416  64.3834173  23.7779338  75.3557051  64.4491782
  29.7182908  60.6138593  60.0453173  30.4469068  60.4354548  59.5991329
  29.8077800  61.4556673  60.2560351  29.8389570  60.7122472  60.0106691
  33.6991208  71.5491981  63.9485467  34.4548723  71.9823495  63.9874376
  33.8053533  70.8996750  64.5220103  33.8261379  71.5169464  64.0383493
  36.7371379  75.3765258  64.6987870  36.3006611  75.3802000  65.4546841
  36.4034295  76.0570757  64.2667447  36.6233999  75.4777714  64.7468703
  36.6568862  62.4179086  66.9417298  37.2994771  62.4877190  67.5279213
  36.9091883  61.7508309  66.4396840  36.7890994  62.3305434  66.9544577
  23.5845215  66.8886355  55.5226622  22.8703392  66.6024535  55.9349055
  24.0689184  67.2282981  56.1633010  23.5504579  66.8968005  55.6782257
  24.4286075  65.6279649  71.5541872  23.7357872  65.1576629  71.8002603
  25.0446402  65.4017954  72.1283579  24.4170605  65.5246781  71.6751024
  39.8715726  72.0946178  63.5907507  40.5332160  71.5336846  63.4903416
  39.2307138  71.5998208  63.9160198  39.8744593  71.9382587  63.6239847
  30.7592533  75.3916309  55.8988430  31.1743682  75.0601333  55.2072926
  29.9284463  75.1585211  55.7708567  30.6980542  75.3087565  55.7779278
  20.0880882  72.8760050  66.1886608  19.9056455  72.8506936  65.3358901
  20.8230551  73.3458988  66.2275517  20.1694946  72.9421412  66.0684527
  36.1580556  73.1111560  63.3319496  36.3936145  73.2556759  62.5046347
  36.3070120  73.8753968  63.7251010  36.2146360  73.2450615  63.2683100
  23.1526634  69.5945053  72.6968717  23.8766606  69.5798084  73.1833612
  23.2542770  70.3040408  72.1990685  23.2744843  69.6969756  72.6947504
  37.9871013  71.9513226  61.1689100  38.3179230  72.4840866  60.5629195
  38.5604101  72.0052114  61.8251051  38.1204692  72.0382795  61.1766882
  33.2002902  69.7978129  61.8512680  33.2949756  70.5367423  62.3052305
  32.5761746  69.3695604  62.2847244  33.1211932  69.8439449  61.9820827
  20.0551792  69.7553551  66.3385675  20.6325295  69.6190002  66.9777920
  19.3565854  69.2989335  66.5931259  20.0372814  69.6675817  66.4707965
  33.4525923  71.6426869  55.0849632  33.3706086  71.7129056  55.9504619
  34.0905644  72.2056613  54.8933373  33.5345761  71.7365840  55.1839581
  26.8119095  71.4087607  64.5524158  26.5538339  70.5759341  64.5255458
  26.8667577  71.6345220  63.7116659  26.7818872  71.3185378  64.4244295
  31.8920145  63.5116057  64.6528251  31.1876471  63.0225243  64.8112170
  31.9405119  63.5238532  63.7816695  31.7950196  63.4405705  64.5467591
  25.7853807  68.9625369  65.0389053  25.2103398  69.1217537  65.6753014
  25.4089483  68.3260778  64.5757504  25.6456619  68.8923182  65.0643611
  29.4527095  67.4348718  69.8981431  29.0641528  67.0102936  69.2433623
  28.7881794  67.6830868  70.4058458  29.2974023  67.4087439  69.8769299
  39.0950364  67.1923723  62.6729261  38.8386929  66.3803664  62.4827144
  39.9379678  67.2001290  62.4459449  39.1816390  67.0735720  62.6114079
  15.5310626  68.6065444  63.0533494  15.6170877  68.2297312  63.8347024
  16.1586423  68.2325889  62.5753452  15.6367177  68.4950926  63.0978971
  33.2753457  61.1323347  67.4105416  33.6563969  60.4501518  67.7973290
  32.4716741  60.8432949  67.2281080  33.2129919  60.9890396  67.4409472
  30.5566034  71.6647323  58.0958238  31.3706672  71.9562216  57.9841010
  30.4925175  71.0107185  57.5216531  30.6668773  71.6112518  57.9947076
  26.4273942  75.1368840  63.2230550  27.0647889  74.8980588  63.7682344
  26.8529013  75.3405999  62.4883711  26.5850108  75.1319851  63.1947708
  27.0676757  70.3571130  57.5605440  27.4521910  70.1378837  58.3121985
  26.8188377  71.1834076  57.6906516  27.0878829  70.4469276  57.6906516
  28.8095414  75.6141263  64.9024337  28.8834422  75.4516435  65.7566187
  29.6264920  75.8031453  64.6584818  28.9411772  75.6178005  64.9922362
  24.7877194  62.0268067  62.8914220  23.9199620  62.0990666  62.9571830
  25.0752399  62.8290146  63.0802195  24.7016942  62.1562214  62.9288987
  33.9110083  62.1745926  71.2225542  34.6563675  61.9855737  70.8088968
  33.4947388  62.7004164  70.6639399  33.9595057  62.2248072  71.0790115
  41.2872354  69.5455155  66.1731047  41.8380275  68.9123224  66.4128139
  41.2716469  70.0770547  66.8646551  41.3657550  69.5304103  66.3109905
  27.9394745  73.3793752  70.7190941  27.4406438  74.0909520  70.7975829
  28.7494969  73.6994419  70.6809103  27.9850851  73.5320601  70.7247509
  24.2022862  72.6416705  64.9653662  23.9136111  72.0154176  65.4999389
  25.0706210  72.5836992  65.0318342  24.2883114  72.5404249  65.0544616
  34.9900760  67.7851488  65.2835643  34.6465526  67.0641824  65.6342893
  35.0893803  67.5765340  64.4414002  34.9542803  67.6475692  65.2107323
  24.4055136  74.2811956  60.8896027  25.1601104  74.6624995  61.1031489
  23.8125748  74.7323100  61.3442723  24.4291849  74.4040783  60.9878905
  35.4513789  74.2477192  60.8259631  36.0171822  74.9070402  60.7418174
  34.8041693  74.5926890  61.2976034  35.4392546  74.3959134  60.8832388
  26.8661803  66.2374796  76.0153239  26.0561578  66.5432576  75.9043081
  27.3436489  66.9580379  76.1305823  26.8165281  66.3889398  76.0160310
  25.7253362  75.4520517  66.2636142  25.2034116  75.5920809  66.9488007
  26.1127383  74.6931182  66.4538259  25.7057063  75.3606041  66.3937218
  22.7144546  65.5026326  60.3331097  22.4269342  65.1327597  59.5963044
  23.4015015  65.9721181  60.0714802  22.7733444  65.5173295  60.1846172
  31.9220367  77.1915977  60.2496711  31.6807043  76.4583837  59.8423776
  32.1021700  77.7402834  59.5963044  31.9127991  77.1638368  60.0926934
  27.1519688  72.4824536  61.6617633  26.9562471  73.0899271  61.0677936
  27.3754033  71.7892480  61.1809307  27.1554329  72.4702062  61.5033714
  25.5498218  69.3679274  61.7798501  26.2720870  69.5320432  61.3202307
  25.0706211  70.0888939  61.6737841  25.5861949  69.4977504  61.6964115
  33.5091726  65.7043073  67.1595186  32.6702826  65.7304352  66.9233450
  33.5796093  66.3513809  67.7400533  33.3960119  65.8039199  67.2104303
  31.9561004  62.6028450  61.8922802  32.6587357  62.4036198  61.4142760
  31.6905193  61.8304392  62.1991646  32.0207636  62.4591416  61.8668244
  37.3849249  70.9111060  64.4456428  37.2983224  71.0666486  65.2991207
  36.9299729  71.5549135  64.0715833  37.3052506  71.0286815  64.5163535
  20.2872741  66.2807539  61.1816378  20.3888877  67.0833700  61.5097353
  21.0828628  66.0794874  60.8839458  20.4200647  66.3693437  61.1851733
  26.7189560  63.8663735  70.9453683  26.5272757  63.8818870  71.7953106
  27.5688156  64.0627410  70.9220338  26.8165282  63.8978086  71.0676978
  21.1036473  66.3954717  68.9237499  20.9621965  65.5438657  69.0482007
  21.3877036  66.4383377  68.0999705  21.1244319  66.2754467  68.8205123
  31.2575065  68.2321807  63.0681988  31.0109780  68.1517558  63.9018776
  31.5860188  67.4475275  62.8744515  31.2696309  68.1048072  63.1629511
  35.1523114  74.9405166  66.8568769  35.0137474  75.6386212  67.3617511
  34.3723112  74.7853823  66.5004951  35.0166341  75.0205333  66.8795043
  27.2172093  70.9678526  72.4804971  27.3615468  71.5479734  71.8448081
  27.5647741  71.3454822  73.1854825  27.2899554  71.1099230  72.4903966
  29.3892010  70.1668694  70.2630102  28.6415324  70.3599708  69.8578380
  29.5433535  69.3413913  70.0254223  29.3014438  70.0733805  70.1675508
  36.6476487  74.2983420  57.6185268  36.2683296  73.5120558  57.6114557
  35.9842732  74.8470277  57.4756912  36.4934962  74.2628244  57.5966065
  29.6293787  64.0619245  71.1525506  30.0866401  64.7943219  71.2798298
  29.7050116  63.6385710  71.9112762  29.7084757  64.1076483  71.2826582
  21.8726778  64.3085064  72.2414950  21.3368968  63.6965423  72.5575717
  21.9344543  64.8833200  72.8948616  21.8022411  64.3031992  72.3850376
  34.1021113  57.2409120  65.0219349  34.2204681  57.6985583  64.2886652
  33.9283289  56.4354381  64.7355566  34.0940284  57.1902892  64.8720283
  27.5076165  66.0521349  67.9967330  26.7172240  65.8712809  68.3184666
  27.9036788  65.2748301  67.9797624  27.4493041  65.9108809  68.0419878
  31.9942056  74.8809123  53.4374044  32.7615041  74.9409248  53.0279895
  31.5473365  74.3089564  52.9530362  32.0415483  74.8045699  53.3051754
  32.8919851  73.6863779  65.7226776  32.2164853  73.4549011  66.2240163
  32.9012227  73.0784962  65.0968881  32.7938356  73.5622704  65.7042928
  30.0213995  68.5281608  72.4790829  29.9573136  69.3891564  72.3510966
  30.1611183  68.2113601  71.6786380  30.0329465  68.6081774  72.3419042
  34.8936586  76.5428911  57.9536954  34.9756423  77.3495897  57.6298405
  35.3786328  76.5624870  58.6777727  34.9773744  76.6649573  58.0123852
  28.7033089  71.2213747  66.6207032  28.2795338  71.4218246  65.8846050
  28.5277944  70.3742595  66.7331332  28.6143970  71.1262528  66.5280722
  23.9915534  71.7165798  62.0535004  24.1480153  71.6512601  62.9090996
  24.3316127  72.4914351  61.8413684  24.0648769  71.8214997  62.1489598
  30.5294679  71.0923682  60.9228368  31.0710224  70.5894063  61.3866988
  30.8441238  71.0388877  60.1117853  30.6559076  71.0103103  60.8712180
  28.6981128  76.4841034  58.2068396  28.7673949  75.6255572  58.3461396
  29.4769584  76.7012914  57.8787420  28.8233979  76.3893898  58.1785553
  31.6783948  65.9859987  70.9750668  31.8925918  65.3470901  70.4214022
  31.0617847  66.4305810  70.5458530  31.6189277  65.9570130  70.8301099
  20.5649796  68.9000749  62.3695771  20.9448760  69.3185294  61.7056039
  19.9905160  69.4814205  62.6764615  20.5361120  69.0478608  62.3172512
  33.8423036  67.5949052  71.9133975  33.0299718  67.2874942  71.9947148
  34.3012971  67.1148052  72.4776687  33.7903421  67.4785544  72.0088569
  33.2528291  75.4728724  62.3610919  32.8942946  75.6443367  63.1374952
  32.7667002  75.9341929  61.8038918  33.1286988  75.5667695  62.3936189
  31.0698677  59.0959922  65.9638011  30.1992235  59.0698643  65.9171320
  31.3239018  58.9237114  65.1463856  30.9792237  59.0670066  65.8358148
  28.0416656  71.1527889  54.9011154  28.3309181  71.9292772  55.1754728
  28.1288455  70.6416621  55.6025653  28.0970912  71.1919807  55.0453652
  28.0947817  61.1066151  67.4211481  27.5786306  60.4146342  67.5463060
  27.5341746  61.7736928  67.3674080  27.9354331  61.1029408  67.4317547
  30.1640051  61.6459111  69.2504334  29.7771804  61.6708142  70.0317864
  29.6772988  61.0800789  68.7978850  30.0352560  61.5654862  69.2992237
  36.1390030  68.2121766  67.8744036  35.7117638  68.1248114  67.1192135
  35.5016083  68.3199541  68.4598880  35.9819637  68.2154425  67.8489477
  29.8297192  58.5326096  71.5414594  30.4590310  59.0686396  71.2635664
  29.9983055  58.4403455  72.3928159  29.9474987  58.5987458  71.6263122
  29.6311107  63.3197291  73.8141005  30.4584537  63.0482440  73.8699620
  29.6518953  64.1158133  74.1704823  29.7563957  63.3977045  73.8756188
  24.2080597  70.4661154  67.0011266  23.3668604  70.3665028  67.2090160
  24.4170605  71.2356634  67.3525587  24.1145290  70.5653197  67.0838581
  21.6856164  68.0880691  64.8296017  21.2912862  68.1623702  64.0546126
  21.1296281  68.4738637  65.3804378  21.5458976  68.1562465  64.7963676
  33.3221111  61.0661985  64.5099895  33.5270704  60.9984293  65.3556893
  32.9947535  61.8720806  64.4421073  33.3036359  61.1747925  64.6259551
  28.0197262  68.3942553  66.2508863  27.7160400  67.8398541  66.8519271
  27.3176683  68.5734763  65.7636898  27.8713472  68.3387335  66.2678569
  27.0763359  65.7043073  60.8153565  27.3523093  64.9861985  60.4031133
  27.6762028  66.3027993  60.6074671  27.2056624  65.6863443  60.7234326
  36.5754799  61.6193749  63.9902661  35.9629112  62.1064151  64.3756393
  36.6718974  60.9437240  64.5340312  36.4992696  61.5912058  64.1281519
  30.5773880  63.3756590  59.0900160  31.0317626  63.5467150  59.8148005
  31.0513925  62.7624701  58.6897936  30.7142200  63.3107475  59.1373922
  24.0989405  72.8604916  68.4202899  23.5077338  73.5014414  68.3905914
  24.8610429  73.2842533  68.3934198  24.1237666  73.0180754  68.4118046
  24.4950028  64.0206914  69.0870916  24.9551509  64.0945843  69.8246040
  24.5406135  64.8188168  68.7370738  24.5700583  64.1501061  69.1443673
  26.1433378  64.6873609  73.6542943  25.7518943  64.0406956  74.0898721
  26.3119240  65.2785044  74.2737199  26.1104288  64.6787876  73.8105649
  33.8578921  78.3114228  65.8534923  33.6598610  78.8005042  65.1591135
  33.2366632  78.5155469  66.4319057  33.7366486  78.4130766  65.8358146
  27.9186900  70.0799124  60.1945168  28.6628945  70.4673401  60.4328117
  28.0647596  69.2356550  60.3585655  28.0497485  70.0129597  60.2539137
  29.8366475  61.8749383  65.2277029  28.9902520  62.0472191  65.1018379
  29.8337608  61.0698727  65.5642857  29.7113625  61.7810412  65.2588156
  30.9064775  65.6524598  66.0939087  30.4324730  65.1266360  66.6044398
  31.2782911  65.1054071  65.5253948  30.8914664  65.4940594  66.0854234
  21.2837806  67.6496104  71.4622633  22.1463419  67.5491814  71.3759962
  20.9529589  67.0690814  70.9008205  21.3623002  67.5487731  71.3668038
  37.1701506  70.7126973  67.5045867  36.9299729  69.8733389  67.5088294
  37.6493513  70.7927140  68.2286641  37.2053690  70.6008373  67.6120670
  32.8348275  66.5461152  59.1564841  32.3071294  66.6289896  58.4670549
  33.2943983  67.2879024  59.1529485  32.8250126  66.6681815  59.0539536
  39.1706693  67.4928431  65.4575126  38.9316463  67.4524265  64.6195911
  39.3340594  68.3399583  65.5840848  39.1596997  67.6120516  65.3528608
  24.6439592  66.4738553  68.1233051  24.0192662  66.4856945  67.5159003
  24.3085186  66.9498729  68.7724291  24.5025083  66.5457070  68.1289619
  24.8281340  64.8163672  54.1805736  24.4794145  65.4683397  54.6437285
  24.3477786  64.8020785  53.4529607  24.7051584  64.9106725  54.1416827
  32.3885358  75.1164716  58.2874498  33.1119557  75.5822829  58.1439071
  31.9485949  75.1838325  57.5372095  32.4301050  75.1948553  58.1559279
  31.5571513  71.9762258  69.5375187  30.9428506  71.4320308  69.8323822
  32.0738798  71.4626495  69.0581003  31.5427175  71.8198667  69.5099415
  30.7967810  73.0466528  67.2719485  30.3695418  72.4216247  66.8384921
  30.7892754  72.7641450  68.0978493  30.7326951  72.9119309  67.3299313
  23.9130337  68.0831701  70.3407919  24.0723824  67.3275025  70.7459641
  23.7323231  68.6322641  70.9948657  23.9095696  68.0525515  70.4970625
  31.8550640  60.2492937  70.8958709  31.3591201  60.4456611  70.2050275
  32.6119702  60.6485605  70.7247510  31.8937465  60.3370671  70.7678846
  29.1253520  63.9235283  67.4862019  29.1496007  63.3895395  66.7974799
  29.3764993  63.4152592  68.1487610  29.1663438  63.7696187  67.4826664
  25.4054842  62.6506101  66.8667764  25.4453213  63.1515308  67.5802471
  24.5804506  62.7416495  66.5973687  25.2894368  62.7387917  66.9318302
  26.8269205  69.1666611  69.1641663  25.9961135  69.3340429  68.9576911
  26.7720722  68.7902562  69.9490548  26.6958620  69.1356342  69.2490191
  24.6352988  62.6575504  74.7998073  25.2605692  62.1137636  75.0727506
  24.1803468  62.1770421  74.2305864  24.6601249  62.5064985  74.7559667
  25.2005249  67.4422202  59.6931780  25.3408210  67.9394667  60.3960422
  25.6987782  66.7408497  59.8345994  25.2946330  67.4124181  59.8183359
  25.2305471  68.3089313  57.0224357  25.8650551  68.9049738  56.9573819
  25.3131082  68.0092771  57.8370227  25.3362022  68.3530221  57.1327444
  26.8084454  64.2403289  56.9969799  27.1300295  63.7606371  56.3429061
  27.0711398  65.0502935  56.8060611  26.8950480  64.2893187  56.8725291
  30.0381427  75.2622163  70.5168615  29.5306518  75.8158010  70.9609246
  29.7408073  75.3230453  69.6987390  29.9186312  75.3528474  70.4617072
  32.2043609  63.6275483  69.3593278  32.6298681  63.1748009  68.7476805
  31.5900602  63.0735553  69.6358066  32.1772255  63.4789459  69.3098304
  21.7358459  70.5057154  60.2913903  22.2450689  71.1021662  60.6725209
  22.2092732  70.2383128  59.6090323  21.8801835  70.5542970  60.2468426
  30.6437832  60.0990583  62.7683855  30.0006150  59.9488229  63.3368994
  30.3037239  59.8532928  62.0032960  30.4982909  60.0402705  62.7386870
  35.2337179  68.0550009  62.1913864  34.5628368  68.5979712  62.0626929
  35.9276929  68.5244865  61.9495559  35.2366046  68.2048281  62.1369392
  35.3965306  64.5105893  65.1004237  35.7492916  64.0835616  65.7750036
  34.5380107  64.4256736  65.2305313  35.3214751  64.4350634  65.2199248
  24.0948991  67.1413413  63.1587084  23.3760980  67.5577545  63.4259947
  24.4661353  67.7067651  62.6078722  24.0440923  67.2862694  63.1169891
  33.3948572  67.7741262  69.0489079  33.3746499  67.5924557  69.9023858
  33.4427773  68.6453280  69.0248663  33.3983213  67.8757800  69.1712374
  29.8695565  66.1811413  58.4960463  29.2760405  66.5028409  57.9445030
  29.9070843  65.3352508  58.2881569  29.7869954  66.1035741  58.3843234
  36.8289366  59.6324305  66.0288550  36.3220231  58.9253444  65.9609727
  37.6256800  59.3017494  66.1589626  36.8716605  59.4797456  66.0387545
  32.7453382  66.1390917  61.9262213  32.5167075  66.1623618  61.0840572
  33.0051458  65.3148384  62.0457224  32.7499570  66.0206997  61.8187411
  27.0272610  67.9925390  71.5287314  26.5151513  67.3846573  71.8872345
  26.8552107  68.7081983  71.9961289  26.9262247  68.0088689  71.6503537
  25.7998144  64.6767463  63.2216409  26.2755511  65.0384543  62.5866590
  25.2986744  65.3323931  63.5016552  25.7963503  64.8261652  63.1693150
  39.0309506  74.1489231  59.0129414  39.4143112  74.8980588  59.2427511
  38.2353619  74.3955051  58.7541403  38.9703288  74.2958925  59.0086988
  30.9041681  65.9149635  73.9689569  31.4613111  65.6863444  73.3368034
  30.5802746  66.6755300  73.6924781  30.9388091  65.9933471  73.8346066
  27.8424798  66.8208663  56.5889793  28.2223762  66.8388292  55.8040908
  27.1017394  67.2662652  56.4680640  27.7893635  66.8890438  56.4553361
  35.4710088  65.1290854  62.1765372  35.4704315  64.9739511  63.0349648
  35.2666268  65.9753841  62.1206757  35.4409866  65.2311475  62.2953311
  17.5327359  68.5530639  66.5924188  17.3549120  68.1007248  67.3179104
  17.2446381  69.3556800  66.7762666  17.4640312  68.6053197  66.7267691
  33.1950940  69.8088356  65.8301578  33.6904605  69.0911351  65.7905599
  32.3850716  69.5059154  65.7156065  33.1494833  69.6586002  65.8075304
  28.6409552  73.6586169  57.9798583  27.8320874  73.3352843  57.9331892
  29.1484461  72.9519391  57.9126832  28.5959218  73.5067486  57.9628877
  19.2699829  71.0858363  63.7045947  18.4045348  71.0744053  63.5928718
  19.3698645  70.8988585  64.5517086  19.1573996  71.0564424  63.8134892
  35.2602759  72.5592044  68.5178707  35.6857831  72.0366465  67.9649132
  34.8959679  73.1572881  67.9967330  35.2689362  72.5702271  68.3587717
  31.8481358  76.2726308  64.8479865  32.3192537  76.9866570  65.0169850
  32.1841537  75.6725058  65.3839734  31.9676474  76.2897772  64.9512241
  28.7650853  61.0453778  71.8037960  28.8978759  60.2484772  72.1318935
  29.1496006  61.5720181  72.3836235  28.8407182  61.0053695  71.9381462
  31.8383209  57.9684105  68.4019053  31.0329172  57.8581834  68.7186891
  31.7089944  58.0696560  67.5448919  31.7003341  57.9667775  68.3227093
  35.2949169  64.1329597  68.9958750  34.7112158  64.6338803  68.5836317
  35.6153463  63.6259153  68.3623073  35.2562345  64.1321432  68.8417257
  27.8343968  63.0470191  59.2717424  28.6559663  63.2168504  59.0299119
  27.3713619  63.2017452  58.5483722  27.8875131  63.0951924  59.1289069
  26.4239300  61.0412954  70.0515853  26.9683713  60.7004080  70.6420195
  26.4776236  61.8998415  70.1937138  26.5128420  61.1168213  70.1597727
  32.0513631  77.0695315  68.1416899  32.8712005  76.9258281  68.4033194
  31.7707709  77.6941514  68.6833336  32.1310374  77.1405667  68.2604838
  38.4502753  78.6614883  64.8303088  38.1206083  79.1126027  64.1606787
  37.7747755  78.5831046  65.3776095  38.3013189  78.7166018  64.8126312
  45.6579161  74.6500406  63.0752699  45.3432602  75.3403885  63.5073121
  45.1406103  74.5945188  62.3738200  45.5343631  74.7435295  63.0349648
  36.6558707  76.7227171  60.3126036  37.4104675  77.0905489  60.0743086
  36.4786242  77.0966726  61.0805216  36.7413186  76.8325359  60.3910925
  35.0115772  79.1297490  57.0104149  34.8291345  79.3469371  56.1845142
  35.8741385  79.2436503  57.0662764  35.1120361  79.1787388  56.8958636
  40.6915491  76.1323901  60.0453173  41.4201652  75.9539856  59.5991329
  40.7810384  76.9741981  60.2560351  40.8122153  76.2307780  60.0106691
  35.7609778  77.5453375  62.8914220  34.8932203  77.6175974  62.9571830
  36.0484982  78.3475454  63.0802195  35.6749526  77.6747522  62.9288987
  42.9293587  78.1213758  61.8922802  43.6319940  77.9221506  61.4142760
  42.6637776  77.3489700  62.1991646  42.9940220  77.9776724  61.8668244
  45.0753697  72.7594428  65.0219349  45.1937265  73.2170891  64.2886652
  44.9015872  71.9539689  64.7355566  45.0672868  72.7088200  64.8720283
  42.0431260  74.6145230  65.9638011  41.1724818  74.5883951  65.9171320
  42.2971602  74.4422422  65.1463856  41.9524820  74.5855374  65.8358148
  41.5506463  78.8941898  59.0900160  42.0050210  79.0652458  59.8148005
  42.0246509  78.2810009  58.6897936  41.6874783  78.8292783  59.1373922
  40.8099059  77.3934691  65.2277029  39.9635104  77.5657499  65.1018379
  40.8070191  76.5884035  65.5642857  40.6846209  77.2995720  65.2588156
  43.8080859  82.0646460  59.1564841  43.2803877  82.1475204  58.4670549
  44.2676567  82.8064332  59.1529485  43.7982709  82.1867123  59.0539536
  37.7817038  79.7588597  56.9969799  38.1032879  79.2791679  56.3429061
  38.0443982  80.5688243  56.8060611  37.8683063  79.8078495  56.8725291
  41.6170416  75.6175890  62.7683855  40.9738734  75.4673537  63.3368994
  41.2769823  75.3718236  62.0032960  41.4715493  75.5588013  62.7386870
  38.8076552  78.5655499  59.2717424  39.6292246  78.7353812  59.0299119
  38.3446203  78.7202760  58.5483722  38.8607714  78.6137232  59.1289069
  15.2980355  15.1082374  48.0399822  15.2674359  15.9627011  48.2118091
  15.8961703  14.8077666  48.5985965  15.3817513  15.1898870  48.1474624
   2.8821179  23.7320743  48.5589984   2.1304079  23.3536281  48.3306029
   3.3307191  23.7639176  47.8108794   2.8370846  23.6806350  48.4147486
  11.8073756  20.4644550  62.4013208  12.5140523  19.9696581  62.5300143
  11.9961692  20.9053632  61.6715866  11.9401662  20.4562901  62.3122254
   8.3346139  24.1546112  43.9875531   7.9997508  24.8323034  43.5519753
   8.8473010  23.7651423  43.3992402   8.3611720  24.1970690  43.8362322
   7.8750430  26.1060381  49.9286642   8.2589810  26.6747280  49.3891418
   7.8109572  25.3809891  49.4492458   7.9223858  26.0835844  49.7780505
  11.3431861  16.2550069  55.4384404  11.8887821  16.9335155  55.4978373
  11.2848737  16.1137530  54.5785985  11.4147775  16.3342070  55.3196464
   4.4605935  23.7439135  50.8252756   4.5616298  22.9339489  51.1349884
   3.8647681  23.6496081  50.1952435   4.3878474  23.6104163  50.7778995
  13.1196929  17.6834676  46.3118132  13.0036455  18.4342362  46.7410270
  13.9152816  17.4258629  46.5614219  13.2201519  17.7569523  46.4122223
   4.3006675  28.6616724  52.2267612   4.9444131  29.1029888  52.6163771
   4.6262931  27.8570150  52.1397871   4.4438504  28.6081919  52.2713090
   5.0027255  21.6728699  47.5987474   5.3243096  22.2133906  46.9948782
   5.6499351  21.1025470  47.7309764   5.1453310  21.6687874  47.5294509
   7.0528963  13.6744694  47.6821861   7.7509128  13.8532821  48.1743324
   7.3681295  13.1515033  47.0592250   7.2024300  13.6238466  47.6623871
   7.2416898  20.0615139  47.6701652   7.6810534  19.4532239  48.1156425
   7.0921561  19.6822512  46.8987117   7.2838364  19.9153610  47.6220820
   4.7088541  18.6559151  54.8720478   5.3537544  18.1631594  54.5531426
   4.9490318  18.7983937  55.6986556   4.8399126  18.6036593  54.9470011
   7.2474633  21.5014057  54.5227370   7.5297875  20.7065462  54.3014126
   7.9760793  21.9794644  54.5432431   7.3964196  21.4548653  54.4930385
  10.8426235  18.4142320  44.6232421  10.7577530  19.2703287  44.7681990
  11.3310618  18.1386644  45.2914581  10.9015132  18.4999642  44.7434503
  12.4332234   5.0322613  50.0092746  12.1185675   5.7226092  50.4413168
  11.9159176   4.9767396  49.3078247  12.3096705   5.1257502  49.9689695
  11.7744668  15.0327114  46.1230157  11.2456139  15.2486748  46.7827463
  12.2969688  15.7263253  46.0431126  11.7733121  15.1670251  46.2085756
  17.2292721  20.6073419  51.4963201  16.3990424  20.8184062  51.6596618
  17.1801973  19.7810473  51.2205485  17.0999456  20.5163025  51.4800566
   3.6644276  18.9290331  44.9237624   3.0801491  19.4340362  45.3303488
   3.2614371  18.7032718  44.1834216   3.5183580  18.9698579  44.8742650
   5.2902458  23.4377273  54.3311111   4.7729400  23.0784688  53.7272419
   5.9876850  22.9139447  54.3417177   5.3168040  23.3074961  54.2441369
   8.9466050  23.8872087  60.2927284   9.0349396  23.6998227  61.1405494
   9.3755763  23.2409517  59.8932130   9.0228153  23.7635095  60.3599035
   6.5136510  23.1703247  59.2744946   5.9507345  22.7575857  59.7984607
   7.2757534  23.0956153  59.6938089   6.5430959  23.0980647  59.4137946
   8.1221490  15.1755983  43.4006545   8.3617494  15.3833967  42.5881888
   8.4437331  14.3713492  43.5095490   8.2058648  15.0870084  43.2967098
   2.0732502  25.1601268  51.8781576   2.7753081  24.6453257  51.9354332
   1.9929985  25.4875419  52.6828451   2.1656262  25.1315494  52.0054368
  16.7246679  13.2543819  55.2913622  15.8875100  13.3246006  55.5261217
  16.6934910  13.2568314  54.4187925  16.5964962  13.2654046  55.1973170
   1.3983277  21.3507620  51.3867184   2.2372177  21.5830553  51.4340946
   1.4295046  20.4811932  51.3174219   1.5264995  21.2564567  51.3831829
   2.0235980  21.7708495  55.6880489   2.5634205  21.6279626  56.3583862
   1.3405926  22.1705246  56.0564516   2.0028134  21.8088166  55.8414911
  11.4476865  17.4499496  50.8825514  12.2034380  17.8831010  50.9214423
  11.5539189  16.8004266  51.4560150  11.5747036  17.4176980  50.9723539
  14.4857036  21.2772773  51.6327917  14.0492268  21.2809516  52.3886888
  14.1519952  21.9578272  51.2007494  14.3719656  21.3785229  51.6808749
   9.0586110  23.3181106  62.9571067   9.8426526  23.4311954  63.3226809
   8.8582704  22.4922243  63.1529753   9.1452135  23.2127825  63.0405453
  14.4054519   8.3186601  53.8757345  15.0480427   8.3884706  54.4619260
  14.6577540   7.6515824  53.3736887  14.5376651   8.2312950  53.8884624
   1.3330872  12.7893871  42.4566669   0.6189049  12.5032050  42.8689102
   1.8174841  13.1290496  43.0973057   1.2990235  12.7975520  42.6122304
   9.2156503  25.2291208  56.6037523   8.4171749  24.9890708  56.8611391
   9.6642515  25.2805601  57.3504570   9.1631114  25.2013599  56.7522447
  17.6201382  17.9953693  50.5247554  18.2817816  17.4344362  50.4243462
  16.9792794  17.5005724  50.8500245  17.6230250  17.8390102  50.5579894
   8.5078190  21.2923824  42.8328477   8.9229339  20.9608848  42.1412973
   7.6770120  21.0592727  42.7048614   8.4466199  21.2095080  42.7119325
  13.9066213  19.0119075  50.2659543  14.1421802  19.1564274  49.4386393
  14.0555777  19.7761484  50.6591056  13.9632016  19.1458130  50.2023147
  15.7356670  17.8520741  48.1029147  16.0664887  18.3848382  47.4969241
  16.3089758  17.9059629  48.7591098  15.8690349  17.9390310  48.1106928
  10.9488559  15.6985644  48.7852727  11.0435413  16.4374938  49.2392352
  10.3247402  15.2703120  49.2187291  10.8697589  15.7446965  48.9160874
   9.2041033  18.8771857  59.4343008   9.7779894  18.2399101  59.5891572
   9.1255836  18.8775939  58.5652665   9.2774268  18.7836968  59.3289418
  11.2011580  17.5434384  42.0189679  11.1191743  17.6136571  42.8844666
  11.8391301  18.1064128  41.8273419  11.2831418  17.6373355  42.1179628
   4.5604751  17.3095122  51.4864205   4.3023996  16.4766857  51.4595505
   4.6153234  17.5352735  50.6456705   4.5304529  17.2192893  51.3584342
   9.6405802   9.4123573  51.5868298   8.9362128   8.9232758  51.7452217
   9.6890776   9.4246047  50.7156742   9.5435853   9.3413221  51.4807638
   3.5339463  14.8632884  51.9729100   2.9589055  15.0225053  52.6093061
   3.1575140  14.2268293  51.5097550   3.3942276  14.7930697  51.9983658
   7.2012752  13.3356234  56.8321478   6.8127185  12.9110451  56.1773669
   6.5367450  13.5838383  57.3398505   7.0459680  13.3094955  56.8109346
  16.8436021  13.0931238  49.6069308  16.5872586  12.2811180  49.4167191
  17.6865335  13.1008805  49.3799496  16.9302047  12.9743236  49.5454125
  11.0239114   7.0330862  54.3445462  11.4049625   6.3509033  54.7313337
  10.2202398   6.7440464  54.1621127  10.9615575   6.8897911  54.3749518
   8.3051690  17.5654838  45.0298285   9.1192329  17.8569731  44.9181057
   8.2410832  16.9114701  44.4556578   8.4154429  17.5120033  44.9287123
  14.5261181  20.2480834  59.4427861  14.2899818  19.4168899  59.3239921
  15.1704409  20.1966442  60.0282705  14.5855851  20.1178522  59.5113754
   4.1759599  21.0376356  50.1570597   4.8133546  20.7988103  50.7022391
   4.6014670  21.2413515  49.4223758   4.3335765  21.0327366  50.1287755
   4.8162414  16.2578645  44.4945487   5.2007566  16.0386352  45.2462032
   4.5674034  17.0841591  44.6246563   4.8364486  16.3476792  44.6246563
  15.5497601  20.0325283  55.5056155  15.2443418  20.7653340  55.8669471
  14.8303817  19.6263213  55.2248941  15.3984943  20.0807016  55.5169292
   6.5581071  21.5148778  51.8364384   6.6320079  21.3523950  52.6906233
   7.3750577  21.7038968  51.5924865   6.6897429  21.5185521  51.9262409
  21.2499393  16.6718284  54.8324500  21.1823894  16.6914243  53.9627086
  21.2355056  17.5148611  55.0580170  21.2378150  16.7992018  54.7376976
   5.0985656  24.4783521  46.5677857   5.3883955  24.0872503  45.8437084
   5.8289137  24.6600226  47.0083132   5.2492541  24.4477335  46.5260664
  19.0358011  15.4462670  53.1071094  19.5865932  14.8130739  53.3468186
  19.0202126  15.9778063  53.7986598  19.1143207  15.4311618  53.2449952
   5.6880402  19.2801267  57.6530987   5.1892095  19.9917035  57.7315876
   6.4980626  19.6001934  57.6149150   5.7336508  19.4328116  57.6587556
   3.0391572  26.4550904  49.6338007   2.8191867  26.1648258  50.4264674
   2.8186094  25.7965859  49.1055919   2.9739166  26.3150612  49.6726915
   1.9508519  18.5424220  51.8993708   1.6621768  17.9161692  52.4339436
   2.8191867  18.4844508  51.9658389   2.0368771  18.4411765  51.9884663
  12.7386417  13.6859004  52.2175690  12.3951183  12.9649339  52.5682940
  12.8379459  13.4772855  51.3754048  12.7028460  13.5483207  52.1447370
   5.2059528  27.8280294  48.4168699   5.8583586  27.2956736  48.6459725
   4.5085136  27.4748946  48.8036573   5.1990246  27.6969817  48.5080867
   2.1540792  20.1819471  47.8236073   2.9086760  20.5632510  48.0371536
   1.5611405  20.6330615  48.2782770   2.1777506  20.3048299  47.9218952
  13.1999446  20.1484708  47.7599678  13.7657479  20.8077918  47.6758221
  12.5527349  20.4934406  48.2316080  13.1878202  20.2966649  47.8172435
   3.4739019  21.3528033  53.1976189   2.9519773  21.4928324  53.8828053
   3.8613039  20.5938697  53.3878306   3.4542720  21.2613556  53.3277265
   9.6706024  23.0923492  47.1836758   9.4292700  22.3591353  46.7763822
   9.8507357  23.6410349  46.5303091   9.6613648  23.0645883  47.0266980
   4.9005345  18.3832052  48.5957680   4.7048127  18.9906786  48.0017983
   5.1239690  17.6899996  48.1149354   4.9039986  18.3709577  48.4373761
   3.2983875  15.2686790  48.7138548   4.0206527  15.4327948  48.2542354
   2.8191867  15.9896454  48.6077888   3.3347605  15.3985019  48.6304162
  11.2577382  11.6050588  54.0935233  10.4188483  11.6311867  53.8573496
  11.3281750  12.2521324  54.6740580  11.1445776  11.7046714  54.1444350
   0.9491491  17.6744862  57.8192688   1.4612588  17.9529115  57.1701448
   0.6627834  18.4134156  58.1855501   0.9826355  17.8247216  57.7782566
   9.7046661   8.5035965  48.8262849  10.4073013   8.3043714  48.3482807
   9.4390849   7.7311908  49.1331692   9.7693293   8.3598931  48.8008291
  15.1334906  16.8118575  51.3796475  15.0468881  16.9674001  52.2331254
  14.6785386  17.4556651  51.0055880  15.0538163  16.9294330  51.4503582
   9.0060722  14.1329322  50.0022034   8.7595436  14.0525073  50.8358823
   9.3345845  13.3482790  49.8084562   9.0181966  14.0055588  50.0969557
  12.9008771  20.8412682  53.7908816  12.7623130  21.5393727  54.2957558
  12.1208769  20.6861338  53.4344997  12.7651998  20.9212848  53.8135090
  11.2386856  17.1409057  60.0431197  11.2334895  16.2688874  60.0473624
  11.9447850  17.3397226  59.5700653  11.3431860  17.0412931  59.9738233
   4.9657749  16.8686041  59.4145017   5.1101125  17.4487249  58.7788127
   5.3133398  17.2462338  60.1194872   5.0385211  17.0106745  59.4244012
   7.1377667  16.0676209  57.1970149   6.3900981  16.2607224  56.7918427
   7.2919192  15.2421429  56.9594270   7.0500094  15.9741321  57.1015555
   4.0385504  25.0588813  56.2806044   4.1875068  24.4991729  55.6279449
   4.8185507  25.1380814  56.6638563   4.1759598  24.9874378  56.2402993
  14.3962144  20.1990935  44.5525315  14.0168953  19.4128073  44.5454604
  13.7328389  20.7477792  44.4096959  14.2420619  20.1635759  44.5306112
   6.5638805  25.2303456  57.5590535   6.4882476  24.5612266  58.1141323
   6.4928664  25.9321244  58.0731201   6.5419412  25.2348363  57.7167383
   7.2209052  23.7504454  48.3914141   7.9858943  23.4814098  48.0696805
   7.1187142  23.2654465  49.1084204   7.3190547  23.6394019  48.4493969
   5.2561822  11.9528864  54.9307377   4.4657897  11.7720324  55.2524713
   5.6522445  11.1755816  54.9137671   5.1978698  11.8116325  54.9759925
   9.7427713  20.7816638  40.3714090  10.5100698  20.8416763  39.9619942
   9.2959022  20.2097080  39.8870409   9.7901140  20.7053214  40.2391801
  10.6405508  19.5871294  52.6566823   9.9650510  19.3556526  53.1580210
  10.6497884  18.9792477  52.0308928  10.5424013  19.4630219  52.6382975
   7.7699652  14.4289123  59.4130876   7.7058793  15.2899079  59.2851012
   7.9096840  14.1121116  58.6126427   7.7815122  14.5089290  59.2759089
  12.6422243  22.4436426  44.8877001  12.7242080  23.2503413  44.5638452
  13.1271985  22.4632386  45.6117774  12.7259401  22.5657089  44.9463899
   6.4518746  17.1221262  53.5547079   6.0280995  17.3225761  52.8186097
   6.2763601  16.2750110  53.6671378   6.3629627  17.0270044  53.4620769
   5.9530439  28.6371775  56.0168536   6.4426370  27.9382565  55.8344200
   5.3814672  28.3395645  56.6044593   5.9414969  28.4897999  56.0769577
   1.7401191  17.6173314  48.9875051   1.8965810  17.5520117  49.8431043
   2.0801784  18.3921866  48.7753731   1.8134426  17.7222512  49.0829645
   8.2780336  16.9931197  47.8568414   8.8195881  16.4901578  48.3207035
   8.5926895  16.9396392  47.0457900   8.4044733  16.9110618  47.8052226
  12.1497443  21.2033845  64.9695327  12.9632308  20.9318994  65.1300459
  11.9892409  20.9041385  64.1655522  12.2467391  21.1188771  64.8740732
   6.4466785  22.3848549  45.1408442   6.5159606  21.5263087  45.2801443
   7.2255240  22.6020430  44.8127467   6.5719635  22.2901413  45.1125600
   9.4269605  11.8867502  57.9090715   9.6411574  11.2478416  57.3554069
   8.8103504  12.3313326  57.4798577   9.3674934  11.8577646  57.7641146
  10.8374273  24.8086250  49.3544936  10.4454065  24.5052965  48.6367802
  10.9927345  25.6455340  49.1649889  10.8027863  24.8870087  49.2201433
  11.5908693  13.4956567  58.8474022  10.7785375  13.1882457  58.9287195
  12.0498627  13.0155567  59.4116734  11.5389078  13.3793059  58.9428616
  11.0013948  21.3736239  49.2950966  10.6428602  21.5450882  50.0714999
  10.5152658  21.8349445  48.7378965  10.8772644  21.4675210  49.3276235
   5.7902313  17.0535404  41.8351201   6.0794838  17.8300287  42.1094775
   5.8774112  16.5424136  42.5365700   5.8456569  17.0927323  41.9793698
  12.1618687  22.2640135  60.2418167  12.7998407  21.7700331  59.9080623
  11.5192779  22.1917535  59.6570394  12.1612913  22.1799143  60.1060522
  13.8875687  14.1129281  54.8084083  13.4603295  14.0255630  54.0532182
  13.2501740  14.2207056  55.3938927  13.7305294  14.1161941  54.7829524
  12.2172944  22.9559943  56.8823524  13.0065322  22.6049008  57.0025605
  12.3916541  23.7696332  56.6200158  12.3593225  23.0245800  56.8611392
   1.9566254  16.3668669  53.9351313   1.1154261  16.2672543  54.1430207
   2.1656262  17.1364149  54.2865633   1.8630947  16.4660712  54.0178628
  11.0706768   6.9669500  51.4439942  11.2756361   6.8991808  52.2896939
  10.7433192   7.7728321  51.3761120  11.0522016   7.0755440  51.5599597
   5.7682919  14.2950068  53.1848910   5.4646056  13.7406056  53.7859318
   5.0662340  14.4742278  52.6976944   5.6199129  14.2394851  53.2018616
   4.8249016  11.6050588  47.7493612   5.1008750  10.8869501  47.3371180
   5.4247685  12.2035508  47.5414718   4.9542281  11.5870959  47.6574373
   3.8301270  21.5099789  57.8921008   3.7221625  21.5201851  58.7583066
   4.0397051  22.3354569  57.7025962   3.8451381  21.6340864  57.9925100
  14.3240455   7.5201264  50.9242708  13.7114769   8.0071666  51.3096440
  14.4204630   6.8444755  51.4680359  14.2478353   7.4919573  51.0621566
   8.3259536   9.2764105  46.0240207   8.7803283   9.4474666  46.7488052
   8.7999582   8.6632216  45.6237983   8.4627857   9.2114991  46.0713969
   1.8475062  18.7612431  55.3542946   1.2562995  19.4021929  55.3245961
   2.6096085  19.1850049  55.3274245   1.8723322  18.9188270  55.3458093
  17.9665483  18.5918201  56.3520224  18.0248607  19.0404850  57.0980200
  17.3331951  19.0017014  55.9150304  17.8816778  18.7191936  56.3972772
  11.6064578  24.2121743  52.7874970  11.4084267  24.7012557  52.0931181
  10.9852289  24.4162984  53.3659103  11.4852142  24.3138281  52.7698193
   5.6672556  15.9806640  47.1285214   6.4114601  16.3680916  47.3668164
   5.8133253  15.1364065  47.2925702   5.7983142  15.9137113  47.1879184
   8.6550432  11.5532113  53.0279134   8.1810387  11.0273875  53.5384445
   9.0268568  11.0061586  52.4593995   8.6400321  11.3948110  53.0194281
  14.9187163  16.6134489  54.4385914  14.6785386  15.7740904  54.4428341
  15.3979170  16.6934655  55.1626688  14.9539346  16.5015888  54.5460717
  10.5833932  12.4468668  46.0904887  10.0556951  12.5297412  45.4010596
  11.0429640  13.1886539  46.0869532  10.5735782  12.5689330  45.9879583
  16.9192350  13.3935946  52.3915173  16.6802120  13.3531780  51.5535958
  17.0826251  14.2407098  52.5180894  16.9082653  13.5128031  52.2868655
  13.5238380  17.7785895  58.3220218  14.2472579  17.3258422  58.1431238
  13.2588342  18.0590561  57.5392546  13.5919653  17.7536864  58.1798934
   2.3925248  12.3746069  55.0573098   1.7678319  12.3864461  54.4499050
   2.0570843  12.8506244  55.7064338   2.2510740  12.4464586  55.0629666
  10.1371014  21.0172231  45.2214545  10.8605213  21.4830344  45.0779118
   9.6971605  21.0845841  44.4712142  10.1786707  21.0956068  45.0899326
   9.3057169  17.8769773  56.4715234   8.6914163  17.3327824  56.7663869
   9.8224454  17.3634010  55.9921050   9.2912832  17.7206182  56.4439462
   8.5453467  18.9474043  54.2059532   8.1181075  18.3223762  53.7724968
   8.5378411  18.6648965  55.0318539   8.4812608  18.8126824  54.2639360
   6.8739176   9.8242798  54.4202066   6.8981664   9.2902910  53.7314846
   7.1250650   9.3160107  55.0827657   6.9149095   9.6703702  54.4166711
   4.5754862  15.0674126  56.0981709   3.7446792  15.2347944  55.8916958
   4.5206379  14.6910077  56.8830595   4.4444277  15.0363857  56.1830238
   2.9490906  13.3429718  46.6271827   3.0893867  13.8402182  47.3300469
   3.4473439  12.6416012  46.7686041   3.0431987  13.3131696  46.7523406
   2.9791128  14.2096829  43.9564404   3.6136208  14.8057254  43.8913866
   3.0616739  13.9100286  44.7710274   3.0847679  14.2537737  44.0667491
  15.9573694  16.7412306  56.8250768  16.5491534  17.3809557  56.8568966
  16.3932688  16.0435343  57.1142835  16.1092125  16.7330656  56.8731601
   4.5570111  10.1410804  43.9309846   4.8785952   9.6613887  43.2769108
   4.8197055  10.9510450  43.7400658   4.6436136  10.1900702  43.8065338
   7.7867084  21.1629678  57.4508662   7.2792175  21.7165525  57.8949293
   7.4893730  21.2237968  56.6327437   7.6671969  21.2535990  57.3957119
   9.9529266   9.5282998  56.2933325  10.3784338   9.0755524  55.6816851
   9.3386259   8.9743069  56.5698113   9.9257911   9.3796974  56.2438350
  10.3974864  25.0792936  45.3812606   9.6804174  24.9053798  44.9159843
  11.0481602  24.8445508  44.8488092  10.3876715  25.0188729  45.2341823
  12.9822835  13.9557525  49.1253911  12.3114025  14.4987227  48.9966976
  13.6762586  14.4252380  48.8835605  12.9851703  14.1055796  49.0709438
   7.0309569  26.0954237  54.3565669   6.8075223  25.3373066  54.7249695
   6.5419412  26.1252258  53.6346109   6.9253018  25.9876461  54.3042410
  13.1450963  10.4113408  52.0344284  13.4978573   9.9843131  52.7090083
  12.2865764  10.3264252  52.1645360  13.0700407  10.3358149  52.1539294
   1.8434648  13.0420928  50.0927130   1.1246637  13.4585061  50.3599994
   2.2147010  13.6075167  49.5418769   1.7926580  13.1870209  50.0509937
  11.1434229  13.6748777  55.9829126  11.1232156  13.4932072  56.8363905
  11.1913429  14.5460795  55.9588710  11.1468870  13.7765315  56.1052421
   9.0880558  20.2635969  61.9077603   9.0476413  19.6185646  61.3222759
   9.9003877  20.2072586  62.2203015   9.2023712  20.1594936  61.8674552
   5.6788026  26.3154695  51.8102754   5.2648425  25.6528825  51.4206595
   6.3635400  26.4632554  51.2898448   5.7186398  26.2395353  51.6759251
   9.0453320  25.4744780  52.5626370   8.6469603  25.5847050  51.7947190
   8.4304540  25.6826846  53.1452930   8.8952209  25.5218348  52.5357670
   7.6181222  12.0818928  45.4300510   7.0246061  12.4035924  44.8785077
   7.6556500  11.2360023  45.2221616   7.5355611  12.0043256  45.3183281
  14.5775023   5.5331820  52.9628596  14.0705888   4.8260960  52.8949774
  15.3742457   5.2025009  53.0929673  14.6202262   5.3804971  52.9727591
  10.4939039  12.0398432  48.8602260  10.2652732  12.0631134  48.0180618
  10.7537115  11.2155899  48.9797271  10.4985227  11.9214512  48.7527458
   3.5483801  10.5774979  50.1556456   4.0241168  10.9392058  49.5206637
   3.0472401  11.2331446  50.4356599   3.5449160  10.7269167  50.1033197
  16.7795163  20.0496747  45.9469461  17.1628769  20.7988103  46.1767558
  15.9839276  20.2962566  45.6881450  16.7188945  20.1966441  45.9427034
   5.5910454  12.7216178  43.5229840   5.9709419  12.7395808  42.7380955
   4.8503050  13.1670167  43.4020687   5.5379292  12.7897953  43.3893408
  13.2195745  11.0298370  49.1105418  13.2189971  10.8747026  49.9689695
  13.0151925  11.8761357  49.0546804  13.1895523  11.1318990  49.2293358
  10.9436597  15.7095871  52.7641625  11.4390262  14.9918866  52.7245646
  10.1336373  15.4066669  52.6496112  10.8980490  15.5593518  52.7415351
   6.3895208  19.5593685  44.9138630   5.5806531  19.2360358  44.8671939
   6.8970117  18.8526907  44.8466878   6.3444875  19.4075001  44.8968924
  13.0088416  18.4599559  55.4518754  13.4343487  17.9373981  54.8989179
  12.6445336  19.0580396  54.9307377  13.0175018  18.4709786  55.2927764
   2.6442496  26.7563776  54.2116100   2.9589055  27.5700165  54.2193881
   3.0535909  26.3713995  54.8798259   2.7510594  26.8192479  54.3120191
   9.5967015  22.1733823  51.7819912  10.0678193  22.8874086  51.9509897
   9.9327194  21.5732573  52.3179781   9.7162130  22.1905287  51.8852287
  11.6844000  23.7835137  63.9611984  11.7940965  22.9943697  64.3168731
  12.0134896  23.6941073  63.1586322  11.7496406  23.6540990  63.8954374
  10.2340962  21.9651757  58.5447604   9.6861908  21.3409641  58.2767669
  10.6953990  22.1546029  57.8291684  10.2208171  21.9010808  58.3998035
  13.0434826  10.0337112  55.9298796  12.4597815  10.5346318  55.5176364
  13.3639120   9.5266668  55.2963120  13.0048001  10.0328947  55.7757304
   5.5829625   8.9477707  46.2057471   6.4045319   9.1176020  45.9639166
   5.1199276   9.1024968  45.4823769   5.6360787   8.9959440  46.0629116
   9.7999288  22.9702830  55.0756945  10.6197662  22.8265796  55.3373241
   9.5193366  23.5949029  55.6173383   9.8796031  23.0413182  55.1944885
  26.2712938  30.6267682  48.0399822  26.2406943  31.4812318  48.2118091
  26.8694287  30.3262974  48.5985965  26.3550096  30.7084178  48.1474624
  19.4712623  29.7143333  52.7952752  18.6150519  29.8751831  52.8461869
  19.5180277  28.8435397  52.8157813  19.3511735  29.6094135  52.8058818
  13.8553763  39.2506051  48.5589984  13.1036662  38.8721589  48.3306029
  14.3039775  39.2824484  47.8108794  13.8103430  39.1991658  48.4147486
  22.7806340  35.9829858  62.4013208  23.4873107  35.4881889  62.5300143
  22.9694275  36.4238940  61.6715866  22.9134245  35.9748209  62.3122254
  19.3078723  39.6731420  43.9875531  18.9730091  40.3508342  43.5519753
  19.8205593  39.2836731  43.3992402  19.3344304  39.7155998  43.8362322
  18.8483014  41.6245689  49.9286642  19.2322393  42.1932587  49.3891418
  18.7842155  40.8995199  49.4492458  18.8956441  41.6021152  49.7780505
  22.3164444  31.7735377  55.4384404  22.8620404  32.4520463  55.4978373
  22.2581320  31.6322838  54.5785985  22.3880359  31.8527378  55.3196464
  15.4338519  39.2624443  50.8252756  15.5348882  38.4524797  51.1349884
  14.8380264  39.1681389  50.1952435  15.3611058  39.1289471  50.7778995
  24.0929513  33.2019984  46.3118132  23.9769039  33.9527670  46.7410270
  24.8885399  32.9443937  46.5614219  24.1934102  33.2754831  46.4122223
  15.2739259  44.1802032  52.2267612  15.9176714  44.6215196  52.6163771
  15.5995514  43.3755458  52.1397871  15.4171087  44.1267227  52.2713090
   8.6303563  35.2844729  50.4505090   8.3953748  34.4512382  50.3437359
   8.7689204  35.5649395  49.6366291   8.6159226  35.2028233  50.3147445
  10.9293651  27.4530460  53.3489398  10.3098682  26.8623107  53.1799412
  10.8277514  28.0441895  52.7153721  10.8231326  27.4534542  53.2294387
  15.9759838  37.1914007  47.5987474  16.2975679  37.7319214  46.9948782
  16.6231935  36.6210778  47.7309764  16.1185894  37.1873182  47.5294509
  18.0261546  29.1930002  47.6821861  18.7241711  29.3718129  48.1743324
  18.3413879  28.6700341  47.0592250  18.1756884  29.1423774  47.6623871
  10.6562784  30.9982742  55.5932967  10.5321481  31.5845187  56.2282785
  11.3081068  30.5042937  55.8945242  10.7336433  31.0121546  55.7318896
  18.2149482  35.5800447  47.6701652  18.6543117  34.9717547  48.1156425
  18.0654145  35.2007820  46.8987117  18.2570947  35.4338918  47.6220820
  15.6821125  34.1744459  54.8720478  16.3270127  33.6816902  54.5531426
  15.9222902  34.3169245  55.6986556  15.8131710  34.1221901  54.9470011
  18.2207216  37.0199364  54.5227370  18.5030459  36.2250770  54.3014126
  18.9493377  37.4979952  54.5432431  18.3696780  36.9733961  54.4930385
  16.1988410  24.5622398  51.7643135  15.8691740  25.0133542  51.0946834
  15.5233412  24.4838562  52.3116142  16.0498846  24.6173534  51.7466359
  21.8158818  33.9327628  44.6232421  21.7310113  34.7888595  44.7681990
  22.3043202  33.6571952  45.2914581  21.8747716  34.0184949  44.7434503
  23.4064818  20.5507921  50.0092746  23.0918259  21.2411400  50.4413168
  22.8891759  20.4952704  49.3078247  23.2829288  20.6442810  49.9689695
  22.7477252  30.5512422  46.1230157  22.2188723  30.7672056  46.7827463
  23.2702271  31.2448561  46.0431126  22.7465705  30.6855559  46.2085756
  14.6376859  34.4475639  44.9237624  14.0534075  34.9525670  45.3303488
  14.2346955  34.2218026  44.1834216  14.4916163  34.4883887  44.8742650
  10.1920888  40.1630400  51.7261296   9.7088466  40.8880890  51.7020880
  11.0044206  40.4606530  51.8371454  10.2411636  40.3132754  51.7388575
  16.2635042  38.9562581  54.3311111  15.7461984  38.5969996  53.7272419
  16.9609433  38.4324755  54.3417177  16.2900623  38.8260269  54.2441369
  19.9198634  39.4057395  60.2927284  20.0081980  39.2183535  61.1405494
  20.3488347  38.7594824  59.8932130  19.9960736  39.2820403  60.3599035
  17.4869094  38.6888555  59.2744946  16.9239929  38.2761165  59.7984607
  18.2490117  38.6141461  59.6938089  17.5163542  38.6165955  59.4137946
  19.0954074  30.6941291  43.4006545  19.3350077  30.9019275  42.5881888
  19.4169915  29.8898800  43.5095490  19.1791232  30.6055392  43.2967098
  14.4044364  22.6234687  47.2466083  15.1590332  22.9913004  47.0083133
  14.2271899  22.9974241  48.0145263  14.4898842  22.7332875  47.3250972
  13.0465085  40.6786576  51.8781576  13.7485665  40.1638565  51.9354332
  12.9662568  41.0060727  52.6828451  13.1388846  40.6500802  52.0054368
  27.6979263  28.7729127  55.2913622  26.8607684  28.8431314  55.5261217
  27.6667494  28.7753622  54.4187925  27.5697545  28.7839354  55.1973170
  14.0943992  30.9162163  61.0061991  14.2664496  30.8068058  61.8547272
  14.6313349  31.5616568  60.7693183  14.1988996  30.9954165  61.0967088
  12.7601429  25.0305006  43.9444196  12.5777002  25.2476887  43.1185189
  13.6227042  25.1444019  44.0002810  12.8606018  25.0794904  43.8298683
  12.3715861  36.8692928  51.3867184  13.2104760  37.1015861  51.4340946
  12.4027630  35.9997239  51.3174219  12.4997578  36.7749874  51.3831829
  12.9968564  37.2893803  55.6880489  13.5366789  37.1464934  56.3583862
  12.3138510  37.6890554  56.0564516  12.9760718  37.3273474  55.8414911
  18.4401148  22.0331417  46.9793220  19.1687308  21.8547371  46.5331376
  18.5296041  22.8749496  47.1900398  18.5607810  22.1315295  46.9446737
  22.4209449  32.9684804  50.8825514  23.1766964  33.4016318  50.9214423
  22.5271773  32.3189574  51.4560150  22.5479619  32.9362288  50.9723539
  25.4589620  36.7958081  51.6327917  25.0224852  36.7994824  52.3886888
  25.1252535  37.4763580  51.2007494  25.3452240  36.8970537  51.6808749
  20.0318693  38.8366414  62.9571067  20.8159110  38.9497262  63.3226809
  19.8315288  38.0107551  63.1529753  20.1184719  38.7313133  63.0405453
   8.4005709  33.5094094  55.8414911   8.1344124  32.6933211  56.0005901
   8.4144273  33.5547250  54.9710426   8.3630431  33.3950999  55.7368393
  25.3787103  23.8371909  53.8757345  26.0213011  23.9070014  54.4619260
  25.6310123  23.1701132  53.3736887  25.5109235  23.7498258  53.8884624
  12.3063456  28.3079178  42.4566669  11.5921633  28.0217358  42.8689102
  12.7907424  28.6475804  43.0973057  12.2722819  28.3160828  42.6122304
  13.1504315  27.0472472  58.4881919  12.4576112  26.5769452  58.7342650
  13.7664642  26.8210777  59.0623626  13.1388845  26.9439604  58.6091071
  20.1889087  40.7476516  56.6037523  19.3904332  40.5076016  56.8611391
  20.6375098  40.7990909  57.3504570  20.1363698  40.7198907  56.7522447
  19.4810774  36.8109132  42.8328477  19.8961922  36.4794156  42.1412973
  18.6502703  36.5778035  42.7048614  19.4198782  36.7280388  42.7119325
   8.8099122  34.2952873  53.1226655   8.6274696  34.2699759  52.2698947
   9.5448791  34.7651811  53.1615564   8.8913186  34.3614236  53.0024574
  24.8798797  34.5304383  50.2659543  25.1154386  34.6749582  49.4386393
  25.0288360  35.2946791  50.6591056  24.9364600  34.6643438  50.2023147
  11.8744874  31.0137876  59.6308764  12.5984846  30.9990907  60.1173659
  11.9761011  31.7233232  59.1330732  11.9963083  31.1162580  59.6287551
  26.7089253  33.3706049  48.1029147  27.0397470  33.9033689  47.4969241
  27.2822341  33.4244937  48.7591098  26.8422932  33.4575618  48.1106928
  19.2489823  34.4936961  64.4957711  18.4562804  34.8080473  64.6810331
  19.3638751  34.7088429  63.6578496  19.1485234  34.5720798  64.3996046
  21.9221142  31.2170952  48.7852727  22.0167997  31.9560246  49.2392352
  21.2979986  30.7888428  49.2187291  21.8430173  31.2632273  48.9160874
  20.1773616  34.3957165  59.4343008  20.7512478  33.7584409  59.5891572
  20.0988420  34.3961247  58.5652665  20.2506851  34.3022276  59.3289418
   8.7770033  31.1746374  53.2725722   9.3543535  31.0382825  53.9117967
   8.0784094  30.7182158  53.5271306   8.7591054  31.0868640  53.4048011
  22.1744164  33.0619692  42.0189679  22.0924326  33.1321879  42.8844666
  22.8123884  33.6249436  41.8273419  22.2564001  33.1558663  42.1179628
  15.5337335  32.8280430  51.4864205  15.2756579  31.9952165  51.4595505
  15.5885818  33.0538043  50.6456705  15.5037113  32.7378201  51.3584342
  20.6138385  24.9308880  51.5868298  19.9094712  24.4418066  51.7452217
  20.6623359  24.9431355  50.7156742  20.5168437  24.8598528  51.4807638
  14.5072047  30.3818192  51.9729100  13.9321638  30.5410361  52.6093061
  14.1307723  29.7453601  51.5097550  14.3674859  30.3116005  51.9983658
  18.1745336  28.8541542  56.8321478  17.7859768  28.4295759  56.1773669
  17.5100034  29.1023691  57.3398505  18.0192263  28.8280263  56.8109346
  27.8168605  28.6116546  49.6069308  27.5605170  27.7996488  49.4167191
  28.6597919  28.6194113  49.3799496  27.9034630  28.4928544  49.5454125
   4.2528866  30.0258267  49.9873540   4.3389118  29.6490135  50.7687070
   4.8804663  29.6518713  49.5093499   4.3585417  29.9143749  50.0319018
  21.9971697  22.5516170  54.3445462  22.3782209  21.8694341  54.7313337
  21.1934982  22.2625772  54.1621127  21.9348159  22.4083219  54.3749518
  19.2784274  33.0840146  45.0298285  20.0924913  33.3755039  44.9181057
  19.2143415  32.4300008  44.4556578  19.3887013  33.0305341  44.9287123
  25.4993764  35.7666142  59.4427861  25.2632402  34.9354207  59.3239921
  26.1436993  35.7151749  60.0282705  25.5588435  35.6363830  59.5113754
  15.1492182  36.5561664  50.1570597  15.7866129  36.3173411  50.7022391
  15.5747254  36.7598823  49.4223758  15.3068348  36.5512674  50.1287755
   9.8404825  38.7950000  54.0404901   9.8808970  39.0664851  53.2124681
  10.3999349  39.3191908  54.4562689   9.9288171  38.9125755  53.9796789
  15.7894997  31.7763953  44.4945487  16.1740150  31.5571660  45.2462032
  15.5406618  32.6026899  44.6246563  15.8097070  31.8662100  44.6246563
  15.9563538  25.0570369  64.2108071  15.6416979  25.8269931  63.9477634
  15.6353470  24.4940625  63.6260298  15.8622457  25.0880637  64.0849421
  17.5313654  37.0334086  51.8364384  17.6052662  36.8709258  52.6906233
  18.3483161  37.2224276  51.5924865  17.6630013  37.0370829  51.9262409
  11.2919411  37.3791949  48.8658827  10.4657529  37.6253686  48.7393106
  11.3531402  37.3004030  49.7320885  11.1793578  37.4036898  48.9747771
  13.5095435  23.4460890  49.8254267  12.6417860  23.5183490  49.8911876
  13.7970639  24.2482969  50.0142242  13.4235183  23.5755037  49.8629034
  22.6328323  23.5938749  58.1565589  23.3781915  23.4048560  57.7429014
  22.2165628  24.1196987  57.5979445  22.6813298  23.6440895  58.0130162
  16.0718240  39.9968829  46.5677857  16.3616538  39.6057811  45.8437084
  16.8021721  40.1785534  47.0083132  16.2225124  39.9662643  46.5260664
  16.6612985  34.7986575  57.6530987  16.1624679  35.5102343  57.7315876
  17.4713209  35.1187242  57.6149150  16.7069092  34.9513424  57.6587556
  14.0124155  41.9736212  49.6338007  13.7924451  41.6833566  50.4264674
  13.7918678  41.3151167  49.1055919  13.9471750  41.8335920  49.6726915
  23.7119000  29.2044312  52.2175690  23.3683766  28.4834647  52.5682940
  23.8112043  28.9958163  51.3754048  23.6761043  29.0668515  52.1447370
  16.1792111  43.3465602  48.4168699  16.8316169  42.8142044  48.6459725
  15.4817720  42.9934254  48.8036573  16.1722829  43.2155125  48.5080867
  13.1273376  35.7004779  47.8236073  13.8819344  36.0817818  48.0371536
  12.5343989  36.1515923  48.2782770  13.1510090  35.8233607  47.9218952
  24.1732030  35.6670016  47.7599678  24.7390062  36.3263226  47.6758221
  23.5259933  36.0119714  48.2316080  24.1610786  35.8151957  47.8172435
  15.5880043  27.6567620  62.9493286  14.7779819  27.9625399  62.8383128
  16.0654730  28.3773202  63.0645870  15.5383522  27.8082221  62.9500357
  14.4471603  36.8713341  53.1976189  13.9252356  37.0113632  53.8828053
  14.8345623  36.1124005  53.3878306  14.4275304  36.7798864  53.3277265
  11.4362787  26.9219149  47.2671143  11.1487582  26.5520420  46.5303091
  12.1233255  27.3914005  47.0054848  11.4951684  26.9366119  47.1186219
  20.6438608  38.6108800  47.1836758  20.4025284  37.8776661  46.7763822
  20.8239941  39.1595657  46.5303091  20.6346232  38.5831191  47.0266980
  15.8737928  33.9017360  48.5957680  15.6780711  34.5092094  48.0017983
  16.0972274  33.2085304  48.1149354  15.8772569  33.8894885  48.4373761
  14.2716458  30.7872098  48.7138548  14.9939110  30.9513256  48.2542354
  13.7924451  31.5081762  48.6077888  14.3080189  30.9170327  48.6304162
  22.2309966  27.1235896  54.0935233  21.3921066  27.1497175  53.8573496
  22.3014333  27.7706632  54.6740580  22.1178359  27.2232022  54.1444350
  11.9224075  33.1930170  57.8192688  12.4345172  33.4714423  57.1701448
  11.6360418  33.9319464  58.1855501  11.9558938  33.3432524  57.7782566
  20.6779244  24.0221273  48.8262849  21.3805597  23.8229022  48.3482807
  20.4123433  23.2497216  49.1331692  20.7425876  23.8784239  48.8008291
   9.0090981  27.7000362  48.1156425   9.1107118  28.5026523  48.4437400
   9.8046868  27.4987698  47.8179505   9.1418887  27.7886261  48.1191780
  15.4407800  25.2856559  57.8793730  15.2490997  25.3011693  58.7293153
  16.2906396  25.4820233  57.8560384  15.5383522  25.3170910  58.0017024
   9.8254713  27.8147540  55.8577546   9.6840205  26.9631481  55.9822054
  10.1095277  27.8576201  55.0339752   9.8462559  27.6947290  55.7545170
  23.8741355  36.3597990  53.7908816  23.7355714  37.0579035  54.2957558
  23.0941352  36.2046646  53.4344997  23.7384581  36.4398156  53.8135090
  22.2119440  32.6594365  60.0431197  22.2067478  31.7874181  60.0473624
  22.9180434  32.8582534  59.5700653  22.3164444  32.5598239  59.9738233
  15.9390333  32.3871349  59.4145017  16.0833709  32.9672557  58.7788127
  16.2865982  32.7647646  60.1194872  16.0117794  32.5292053  59.4244012
  18.1110250  31.5861517  57.1970149  17.3633564  31.7792532  56.7918427
  18.2651776  30.7606737  56.9594270  18.0232678  31.4926629  57.1015555
  15.0118088  40.5774121  56.2806044  15.1607652  40.0177036  55.6279449
  15.7918090  40.6566122  56.6638563  15.1492182  40.5059686  56.2402993
  25.3694727  35.7176243  44.5525315  24.9901536  34.9313381  44.5454604
  24.7060973  36.2663100  44.4096959  25.2153202  35.6821067  44.5306112
  17.5371389  40.7488764  57.5590535  17.4615060  40.0797574  58.1141323
  17.4661248  41.4506552  58.0731201  17.5151996  40.7533671  57.7167383
  18.3512027  25.4812068  58.0865553  18.8084642  26.2136042  58.2138345
  18.4268356  25.0578533  58.8452809  18.4302997  25.5269306  58.2166629
  10.5945019  25.7277888  59.1754996  10.0587208  25.1158246  59.4915764
  10.6562783  26.3026024  59.8288663  10.5240651  25.7224815  59.3190423
  22.8239353  18.6601943  51.9559396  22.9422921  19.1178406  51.2226698
  22.6501529  17.8547204  51.6695613  22.8158524  18.6095715  51.8060329
  18.1941636  39.2689762  48.3914141  18.9591527  38.9999406  48.0696805
  18.0919726  38.7839773  49.1084204  18.2923131  39.1579327  48.4493969
  16.2294405  27.4714172  54.9307377  15.4390480  27.2905632  55.2524713
  16.6255028  26.6941124  54.9137671  16.1711282  27.3301633  54.9759925
  21.6138092  35.1056602  52.6566823  20.9383093  34.8741834  53.1580210
  21.6230468  34.4977785  52.0308928  21.5156596  34.9815527  52.6382975
  18.7432236  29.9474431  59.4130876  18.6791377  30.8084387  59.2851012
  18.8829423  29.6306424  58.6126427  18.7547706  30.0274598  59.2759089
  17.4251330  32.6406570  53.5547079  17.0013579  32.8411069  52.8186097
  17.2496185  31.7935418  53.6671378  17.3362210  32.5455352  53.4620769
  16.9263023  44.1557083  56.0168536  17.4158953  43.4567872  55.8344200
  16.3547255  43.8580953  56.6044593  16.9147553  44.0083307  56.0769577
  12.7133774  33.1358622  48.9875051  12.8698394  33.0705425  49.8431043
  13.0534368  33.9107174  48.7753731  12.7867009  33.2407820  49.0829645
  19.2512919  32.5116505  47.8568414  19.7928465  32.0086886  48.3207035
  19.5659478  32.4581700  47.0457900  19.3777316  32.4295926  47.8052226
  23.1230027  36.7219153  64.9695327  23.9364892  36.4504302  65.1300459
  22.9624993  36.4226693  64.1655522  23.2199975  36.6374079  64.8740732
  17.4199369  37.9033857  45.1408442  17.4892189  37.0448395  45.2801443
  18.1987824  38.1205738  44.8127467  17.5452219  37.8086721  45.1125600
  20.4002188  27.4052810  57.9090715  20.6144158  26.7663724  57.3554069
  19.7836088  27.8498634  57.4798577  20.3407518  27.3762953  57.7641146
  21.8106856  40.3271558  49.3544936  21.4186648  40.0238273  48.6367802
  21.9659929  41.1640648  49.1649889  21.7760446  40.4055395  49.2201433
   9.2868036  30.3193572  49.3035818   9.6667001  30.7378117  48.6396086
   8.7123401  30.9007028  49.6104662   9.2579361  30.4671431  49.2512559
  22.5641276  29.0141875  58.8474022  21.7517958  28.7067765  58.9287195
  23.0231211  28.5340875  59.4116734  22.5121661  28.8978367  58.9428616
  21.9746531  36.8921547  49.2950966  21.6161186  37.0636190  50.0714999
  21.4885242  37.3534753  48.7378965  21.8505228  36.9860518  49.3276235
  19.7916917  20.5152745  52.8978058  18.9210475  20.4891467  52.8511367
  20.0457258  20.3429938  52.0803903  19.7010477  20.4862889  52.7698194
  16.7634897  32.5720712  41.8351201  17.0527421  33.3485595  42.1094775
  16.8506695  32.0609444  42.5365700  16.8189153  32.6112631  41.9793698
  19.6594784  30.4201946  63.6302724  20.1294415  31.0444063  64.0170598
  19.7056664  29.7518922  64.1895939  19.7362660  30.4136627  63.7702796
  16.8166058  22.5258974  54.3551528  16.3004546  21.8339165  54.4803107
  16.2559987  23.1929751  54.3014127  16.6572571  22.5222232  54.3657594
  18.8858291  23.0651934  56.1844381  18.4990044  23.0900965  56.9657910
  18.3991228  22.4993613  55.7318897  18.7570800  22.9847685  56.2332284
  23.1351271  37.7825443  60.2418167  23.7730991  37.2885639  59.9080623
  22.4925362  37.7102843  59.6570394  23.1345497  37.6984451  60.1060522
  24.8608271  29.6314589  54.8084083  24.4335879  29.5440937  54.0532182
  24.2234324  29.7392364  55.3938927  24.7037878  29.6347249  54.7829524
  18.5515433  19.9518919  58.4754640  19.1808551  20.4879219  58.1975711
  18.7201296  19.8596278  59.3268206  18.6693227  20.0180282  58.5603169
  18.3529348  24.7390114  60.7481052  19.1802777  24.4675263  60.8039667
  18.3737194  25.5350956  61.1044870  18.4782198  24.8169868  60.8096235
  23.1905527  38.4745251  56.8823524  23.9797905  38.1234316  57.0025605
  23.3649125  39.2881640  56.6200158  23.3325809  38.5431108  56.8611392
  12.9298838  31.8853977  53.9351313  12.0886844  31.7857851  54.1430207
  13.1388845  32.6549457  54.2865633  12.8363530  31.9846020  54.0178628
  10.4074404  29.5073514  51.7636063  10.0131102  29.5816526  50.9886173
   9.8514521  29.8931460  52.3144425  10.2677217  29.5755288  51.7303723
  22.0439351  22.4854808  51.4439942  22.2488945  22.4177116  52.2896939
  21.7165775  23.2913629  51.3761120  22.0254599  22.5940748  51.5599597
  16.7415502  29.8135376  53.1848910  16.4378640  29.2591364  53.7859318
  16.0394923  29.9927586  52.6976944  16.5931712  29.7580158  53.2018616
  15.7981599  27.1235896  47.7493612  16.0741334  26.4054808  47.3371180
  16.3980269  27.7220816  47.5414718  15.9274864  27.1056267  47.6574373
  14.8033853  37.0285097  57.8921008  14.6954208  37.0387159  58.7583066
  15.0129635  37.8539877  57.7025962  14.8183964  37.1526172  57.9925100
  25.2973039  23.0386572  50.9242708  24.6847353  23.5256974  51.3096440
  25.3937214  22.3630063  51.4680359  25.2210937  23.0104881  51.0621566
  19.2992120  24.7949413  46.0240207  19.7535867  24.9659974  46.7488052
  19.7732166  24.1817524  45.6237983  19.4360440  24.7300299  46.0713969
  12.8207645  34.2797739  55.3542946  12.2295579  34.9207237  55.3245961
  13.5828669  34.7035357  55.3274245  12.8455906  34.4373578  55.3458093
  13.2168268  25.4399737  56.0210963  13.6769750  25.5138666  56.7586087
  13.2624375  26.2380991  55.6710785  13.2918824  25.5693884  56.0783720
  14.8651618  26.1066432  60.5882990  14.4737183  25.4599779  61.0238768
  15.0337481  26.6977867  61.2077246  14.8322528  26.0980700  60.7445696
  22.5797162  39.7307051  52.7874970  22.3816850  40.2197865  52.0931181
  21.9584873  39.9348292  53.3659103  22.4584726  39.8323589  52.7698193
  16.6405140  31.4991948  47.1285214  17.3847185  31.8866224  47.3668164
  16.7865836  30.6549373  47.2925702  16.7715725  31.4322420  47.1879184
  18.5584715  23.2942207  52.1617076  17.7120761  23.4665014  52.0358426
  18.5555848  22.4891550  52.4982904  18.4331865  23.2003235  52.1928203
  19.6283016  27.0717421  53.0279134  19.1542970  26.5459183  53.5384445
  20.0001152  26.5246894  52.4593995  19.6132905  26.9133418  53.0194281
  10.0056046  29.0688928  58.3962679  10.8681659  28.9684637  58.3100009
   9.6747829  28.4883637  57.8348252  10.0841242  28.9680554  58.3008085
  21.5566515  27.9653976  46.0904887  21.0289534  28.0482720  45.4010596
  22.0162224  28.7071847  46.0869532  21.5468366  28.0874638  45.9879583
  24.4970964  33.2971203  58.3220218  25.2205162  32.8443730  58.1431238
  24.2320926  33.5775869  57.5392546  24.5652237  33.2722172  58.1798934
  13.3657832  27.8931377  55.0573098  12.7410902  27.9049769  54.4499050
  13.0303427  28.3691552  55.7064338  13.2243324  27.9649894  55.0629666
  13.5499581  26.2356495  41.1145783  13.2012385  26.8876220  41.5777332
  13.0696026  26.2213608  40.3869654  13.4269825  26.3299549  41.0756874
  10.0783507  35.9531837  56.4976862   9.5483432  35.2624276  56.5471837
  10.3508601  35.9442022  55.6689570  10.0408230  35.8498969  56.3824278
  21.1103598  36.5357539  45.2214545  21.8337797  37.0015652  45.0779118
  20.6704189  36.6031149  44.4712142  21.1519290  36.6141376  45.0899326
  20.2789753  33.3955081  56.4715234  19.6646746  32.8513132  56.7663869
  20.7957038  32.8819318  55.9921050  20.2645415  33.2391490  56.4439462
  19.5186050  34.4659351  54.2059532  19.0913658  33.8409070  53.7724968
  19.5110995  34.1834273  55.0318539  19.4545191  34.3312132  54.2639360
  12.6348577  29.5024524  57.2747966  12.7942064  28.7467849  57.6799688
  12.4541471  30.0515464  57.9288704  12.6313936  29.4718338  57.4310672
  20.5768880  21.6685760  57.8298756  20.0809442  21.8649434  57.1390322
  21.3337942  22.0678428  57.6587557  20.6155705  21.7563494  57.7018892
  17.8471760  25.3428106  54.4202066  17.8714247  24.8088218  53.7314846
  18.0983234  24.8345415  55.0827657  17.8881679  25.1889010  54.4166711
   5.3579350  32.6259601  53.8545210   5.2522799  32.5806445  52.9897294
   4.6079570  32.9713381  54.1359495   5.2314953  32.6700509  53.7682540
  14.1273082  24.0698924  53.8007810  14.1671454  24.5708131  54.5142518
  13.3022747  24.1609318  53.5313734  14.0112608  24.1580740  53.8658349
  16.3102695  33.6359664  61.9028105  15.4598326  33.7731378  62.0385750
  16.4730823  32.9023442  62.3475807  16.2086559  33.5473765  61.9883704
  15.5487446  30.5859434  56.0981709  14.7179375  30.7533252  55.8916958
  15.4938963  30.2095385  56.8830595  15.4176860  30.5549165  56.1830238
  13.3571229  24.0768327  61.7338120  13.9823932  23.5330460  62.0067552
  12.9021709  23.5963245  61.1645911  13.3819489  23.9257808  61.6899714
  13.9223489  28.8615026  46.6271827  14.0626450  29.3587490  47.3300469
  14.4206022  28.1601320  46.7686041  14.0164570  28.8317004  46.7523406
  13.9523712  29.7282137  43.9564404  14.5868791  30.3242562  43.8913866
  14.0349323  29.4285594  44.7710274  14.0580263  29.7723045  44.0667491
  26.9306278  32.2597614  56.8250768  27.5224118  32.8994865  56.8568966
  27.3665272  31.5620651  57.1142835  27.0824709  32.2515964  56.8731601
  15.5302695  25.6596112  43.9309846  15.8518536  25.1799194  43.2769108
  15.7929638  26.4695758  43.7400658  15.6168720  25.7086010  43.8065338
  18.7599667  36.6814986  57.4508662  18.2524758  37.2350833  57.8949293
  18.4626314  36.7423276  56.6327437  18.6404552  36.7721298  57.3957119
  20.9261850  25.0468306  56.2933325  21.3516921  24.5940832  55.6816851
  20.3118843  24.4928377  56.5698113  20.8990495  24.8982282  56.2438350
  10.4576700  31.9249977  47.2253950  10.9668929  32.5214485  47.6065256
  10.9310972  31.6575951  46.5430370  10.6020075  31.9735793  47.1808473
  21.3707448  40.5978244  45.3812606  20.6536757  40.4239106  44.9159843
  22.0214185  40.3630816  44.8488092  21.3609298  40.5374037  45.2341823
  19.3656072  21.5183406  49.7023902  18.7224390  21.3681052  50.2709041
  19.0255479  21.2725751  48.9373007  19.2201150  21.4595528  49.6726917
  23.9555419  29.4742833  49.1253911  23.2846609  30.0172535  48.9966976
  24.6495169  29.9437688  48.8835605  23.9584286  29.6241104  49.0709438
  18.0042153  41.6139545  54.3565669  17.7807807  40.8558374  54.7249695
  17.5151996  41.6437566  53.6346109  17.8985602  41.5061769  54.3042410
  24.1183546  25.9298716  52.0344284  24.4711156  25.5028439  52.7090083
  23.2598348  25.8449560  52.1645360  24.0432991  25.8543457  52.1539294
  12.8167231  28.5606236  50.0927130  12.0979220  28.9770368  50.3599994
  13.1879594  29.1260475  49.5418769  12.7659163  28.7055517  50.0509937
  22.1166812  29.1934085  55.9829126  22.0964739  29.0117380  56.8363905
  22.1646013  30.0646103  55.9588710  22.1201453  29.2950623  56.1052421
  20.0613142  35.7821277  61.9077603  20.0208997  35.1370954  61.3222759
  20.8736460  35.7257894  62.2203015  20.1756296  35.6780244  61.8674552
  16.6520610  41.8340003  51.8102754  16.2381008  41.1714133  51.4206595
  17.3367984  41.9817861  51.2898448  16.6918981  41.7580661  51.6759251
  20.0185904  40.9930088  52.5626370  19.6202187  41.1032358  51.7947190
  19.4037123  41.2012154  53.1452930  19.8684793  41.0403656  52.5357670
  18.5913806  27.6004236  45.4300510  17.9978645  27.9221232  44.8785077
  18.6289083  26.7545331  45.2221616  18.5088195  27.5228564  45.3183281
  25.5507606  21.0517128  52.9628596  25.0438471  20.3446268  52.8949774
  26.3475040  20.7210317  53.0929673  25.5934846  20.8990279  52.9727591
  21.4671622  27.5583740  48.8602260  21.2385315  27.5816442  48.0180618
  21.7269699  26.7341207  48.9797271  21.4717810  27.4399820  48.7527458
  15.7490851  29.4118213  58.4627360  15.2369754  28.8039396  58.8212392
  15.5770347  30.1274806  58.9301336  15.6480488  29.4281513  58.5843584
  10.5956565  27.8555789  61.1129722  10.4259156  28.5157163  60.5677929
  10.1522515  28.0662350  61.8342211  10.5055899  27.9841771  61.1391352
  14.5216385  26.0960287  50.1556456  14.9973751  26.4577366  49.5206637
  14.0204984  26.7516754  50.4356599  14.5181744  26.2454475  50.1033197
  27.7527746  35.5682055  45.9469461  28.1361352  36.3173411  46.1767558
  26.9571860  35.8147874  45.6881450  27.6921529  35.7151749  45.9427034
  19.6259921  27.3342458  60.9029616  20.1831351  27.1056267  60.2708081
  19.3020986  28.0948124  60.6264828  19.6606331  27.4126295  60.7686113
   7.4958630  30.7602654  56.3718212   6.9485349  30.0903300  56.4899080
   8.2851008  30.3932502  56.4361679   7.5310814  30.6067641  56.3986913
  17.3443038  30.4210111  61.8681623  18.0954365  30.7361788  62.1821177
  17.5365615  30.2189282  61.0415545  17.4834453  30.4377493  61.7925019
  16.5643038  28.2401486  43.5229840  16.9442003  28.2581116  42.7380955
  15.8235634  28.6855475  43.4020687  16.5111876  28.3083261  43.3893408
  24.1928329  26.5483678  49.1105418  24.1922555  26.3932334  49.9689695
  23.9884509  27.3946665  49.0546804  24.1628106  26.6504298  49.2293358
   6.2545599  29.9723462  53.5264235   6.0767361  29.5200071  54.2519151
   5.9664622  30.7749623  53.7102713   6.1858553  30.0246020  53.6607738
  21.9169181  31.2281179  52.7641625  22.4122846  30.5104174  52.7245646
  21.1068956  30.9251977  52.6496112  21.8713074  31.0778826  52.7415351
  17.3627792  35.0778993  44.9138630  16.5539115  34.7545666  44.8671939
  17.8702701  34.3712215  44.8466878  17.3177459  34.9260309  44.8968924
   7.9918069  32.5051186  50.6385994   7.1263589  32.4936876  50.5268765
   8.0916885  32.3181409  51.4857133   7.8792236  32.4757247  50.7474938
  23.9820999  33.9784867  55.4518754  24.4076071  33.4559289  54.8989179
  23.6177919  34.5765704  54.9307377  23.9907602  33.9895094  55.2927764
  13.6175079  42.2749084  54.2116100  13.9321638  43.0885473  54.2193881
  14.0268493  41.8899303  54.8798259  13.7243177  42.3377787  54.3120191
  20.5699599  37.6919131  51.7819912  21.0410777  38.4059394  51.9509897
  20.9059777  37.0917881  52.3179781  20.6894714  37.7090595  51.8852287
  22.6576583  39.3020445  63.9611984  22.7673549  38.5129005  64.3168731
  22.9867480  39.2126381  63.1586322  22.7228989  39.1726297  63.8954374
  17.4869094  22.4646602  58.7378006  17.6196999  21.6677595  59.0658982
  17.8714247  22.9913005  59.3176282  17.5625423  22.4246518  58.8721509
  21.2073545  37.4837065  58.5447604  20.6594491  36.8594949  58.2767669
  21.6686574  37.6731337  57.8291684  21.1940755  37.4196115  58.3998035
  20.5601449  19.3876928  55.3359100  19.7547413  19.2774657  55.6526938
  20.4308184  19.4889384  54.4788965  20.4221582  19.3860598  55.2567140
  24.0167410  25.5522420  55.9298796  23.4330398  26.0531626  55.5176364
  24.3371704  25.0451976  55.2963120  23.9780585  25.5514255  55.7757304
  16.5562209  24.4663015  46.2057471  17.3777903  24.6361327  45.9639166
  16.0931860  24.6210276  45.4823769  16.6093371  24.5144748  46.0629116
  15.1457541  22.4605777  56.9855900  15.6901954  22.1196904  57.5760242
  15.1994476  23.3191238  57.1277185  15.2346660  22.5361036  57.0937773
  10.9588099  36.2222193  53.8594708  11.5632957  36.1818027  53.2308529
  10.7515412  37.0693345  53.8898764  11.0176997  36.3410195  53.7710824
  20.7731871  38.4888138  55.0756945  21.5930245  38.3451104  55.3373241
  20.4925949  39.1134337  55.6173383  20.8528615  38.5598490  55.1944885
   6.1939382  35.2056810  53.7293631   6.0963660  34.3953082  54.0383688
   6.9768251  35.1848604  53.3439899   6.2955518  35.0823901  53.7180494
  30.4445207  45.2328641  52.7952752  29.5883102  45.3937139  52.8461869
  30.4912860  44.3620705  52.8157813  30.3244318  45.1279443  52.8058818
  24.8286346  54.7691359  48.5589984  24.0769246  54.3906897  48.3306029
  25.2772358  54.8009792  47.8108794  24.7836013  54.7176966  48.4147486
  33.7538923  51.5015166  62.4013208  34.4605691  51.0067197  62.5300143
  33.9426859  51.9424248  61.6715866  33.8866829  51.4933517  62.3122254
  30.2811306  55.1916728  43.9875531  29.9462675  55.8693650  43.5519753
  30.7938177  54.8022039  43.3992402  30.3076887  55.2341306  43.8362322
  29.8215598  57.1430997  49.9286642  30.2054977  57.7117895  49.3891418
  29.7574739  56.4180507  49.4492458  29.8689025  57.1206460  49.7780505
  33.2897028  47.2920685  55.4384404  33.8352988  47.9705771  55.4978373
  33.2313904  47.1508145  54.5785985  33.3612942  47.3712686  55.3196464
  26.4071103  54.7809751  50.8252756  26.5081466  53.9710105  51.1349884
  25.8112848  54.6866697  50.1952435  26.3343641  54.6474779  50.7778995
  26.2471842  59.6987340  52.2267612  26.8909298  60.1400504  52.6163771
  26.5728098  58.8940766  52.1397871  26.3903671  59.6452535  52.2713090
  19.6036147  50.8030037  50.4505090  19.3686331  49.9697690  50.3437359
  19.7421788  51.0834703  49.6366291  19.5891809  50.7213541  50.3147445
  21.9026234  42.9715768  53.3489398  21.2831266  42.3808415  53.1799412
  21.8010098  43.5627203  52.7153721  21.7963910  42.9719850  53.2294387
  26.9492422  52.7099315  47.5987474  27.2708263  53.2504522  46.9948782
  27.5964518  52.1396086  47.7309764  27.0918477  52.7058490  47.5294509
  21.6295367  46.5168050  55.5932967  21.5054064  47.1030495  56.2282785
  22.2813652  46.0228245  55.8945242  21.7069017  46.5306854  55.7318896
  29.1882065  51.0985755  47.6701652  29.6275701  50.4902855  48.1156425
  29.0386728  50.7193128  46.8987117  29.2303531  50.9524226  47.6220820
  26.6553708  49.6929767  54.8720478  27.3002711  49.2002210  54.5531426
  26.8955485  49.8354553  55.6986556  26.7864293  49.6407209  54.9470011
  29.1939800  52.5384672  54.5227370  29.4763043  51.7436078  54.3014126
  29.9225960  53.0165260  54.5432431  29.3429363  52.4919269  54.4930385
  32.7891402  49.4512936  44.6232421  32.7042697  50.3073903  44.7681990
  33.2775785  49.1757260  45.2914581  32.8480299  49.5370257  44.7434503
  25.6109443  49.9660947  44.9237624  25.0266658  50.4710978  45.3303488
  25.2079538  49.7403334  44.1834216  25.4648747  50.0069195  44.8742650
  21.1653472  55.6815708  51.7261296  20.6821050  56.4066198  51.7020880
  21.9776790  55.9791838  51.8371454  21.2144219  55.8318062  51.7388575
  27.2367626  54.4747889  54.3311111  26.7194567  54.1155304  53.7272419
  27.9342017  53.9510063  54.3417177  27.2633207  54.3445577  54.2441369
  30.8931218  54.9242703  60.2927284  30.9814563  54.7368843  61.1405494
  31.3220930  54.2780132  59.8932130  30.9693320  54.8005711  60.3599035
  28.4601677  54.2073863  59.2744946  27.8972512  53.7946473  59.7984607
  29.2222701  54.1326768  59.6938089  28.4896126  54.1351263  59.4137946
  24.0197669  56.1971884  51.8781576  24.7218248  55.6823873  51.9354332
  23.9395152  56.5246035  52.6828451  24.1121429  56.1686110  52.0054368
  25.0676575  46.4347471  61.0061991  25.2397079  46.3253366  61.8547272
  25.6045933  47.0801876  60.7693183  25.1721579  46.5139473  61.0967088
  23.3448444  52.3878236  51.3867184  24.1837344  52.6201169  51.4340946
  23.3760213  51.5182547  51.3174219  23.4730162  52.2935182  51.3831829
  23.9701147  52.8079111  55.6880489  24.5099372  52.6650242  56.3583862
  23.2871094  53.2075862  56.0564516  23.9493301  52.8458782  55.8414911
  33.3942032  48.4870112  50.8825514  34.1499547  48.9201626  50.9214423
  33.5004357  47.8374882  51.4560150  33.5212203  48.4547596  50.9723539
  36.4322203  52.3143389  51.6327917  35.9957435  52.3180131  52.3886888
  36.0985119  52.9948888  51.2007494  36.3184823  52.4155845  51.6808749
  31.0051277  54.3551722  62.9571067  31.7891693  54.4682570  63.3226809
  30.8047871  53.5292859  63.1529753  31.0917302  54.2498441  63.0405453
  19.3738292  49.0279402  55.8414911  19.1076708  48.2118519  56.0005901
  19.3876856  49.0732558  54.9710426  19.3363015  48.9136307  55.7368393
  24.1236899  42.5657780  58.4881919  23.4308695  42.0954760  58.7342650
  24.7397226  42.3396085  59.0623626  24.1121429  42.4624912  58.6091071
  31.1621670  56.2661824  56.6037523  30.3636916  56.0261324  56.8611391
  31.6107682  56.3176217  57.3504570  31.1096281  56.2384215  56.7522447
  30.4543357  52.3294440  42.8328477  30.8694506  51.9979464  42.1412973
  29.6235287  52.0963343  42.7048614  30.3931366  52.2465696  42.7119325
  19.7831706  49.8138181  53.1226655  19.6007279  49.7885067  52.2698947
  20.5181375  50.2837119  53.1615564  19.8645770  49.8799544  53.0024574
  22.8477458  46.5323184  59.6308764  23.5717430  46.5176215  60.1173659
  22.9493594  47.2418539  59.1330732  22.9695667  46.6347887  59.6287551
  30.2222407  50.0122269  64.4957711  29.4295388  50.3265781  64.6810331
  30.3371334  50.2273737  63.6578496  30.1217818  50.0906106  64.3996046
  31.1506200  49.9142473  59.4343008  31.7245062  49.2769717  59.5891572
  31.0721004  49.9146555  58.5652665  31.2239435  49.8207584  59.3289418
  19.7502616  46.6931682  53.2725722  20.3276119  46.5568133  53.9117967
  19.0516678  46.2367466  53.5271306  19.7323638  46.6053948  53.4048011
  26.5069918  48.3465738  51.4864205  26.2489163  47.5137473  51.4595505
  26.5618401  48.5723351  50.6456705  26.4769696  48.2563509  51.3584342
  25.4804631  45.9003500  51.9729100  24.9054222  46.0595669  52.6093061
  25.1040307  45.2638909  51.5097550  25.3407443  45.8301313  51.9983658
  29.1477919  44.3726849  56.8321478  28.7592352  43.9481067  56.1773669
  28.4832618  44.6208999  57.3398505  28.9924847  44.3465571  56.8109346
  15.2261450  45.5443575  49.9873540  15.3121701  45.1675443  50.7687070
  15.8537247  45.1704021  49.5093499  15.3318001  45.4329057  50.0319018
  30.2516858  48.6025454  45.0298285  31.0657496  48.8940347  44.9181057
  30.1875999  47.9485316  44.4556578  30.3619597  48.5490649  44.9287123
  36.4726348  51.2851450  59.4427861  36.2364985  50.4539515  59.3239921
  37.1169577  51.2337057  60.0282705  36.5321018  51.1549138  59.5113754
  26.1224766  52.0746972  50.1570597  26.7598713  51.8358719  50.7022391
  26.5479837  52.2784130  49.4223758  26.2800932  52.0697982  50.1287755
  20.8137408  54.3135308  54.0404901  20.8541553  54.5850159  53.2124681
  21.3731932  54.8377216  54.4562689  20.9020754  54.4311063  53.9796789
  26.9296121  40.5755676  64.2108071  26.6149562  41.3455239  63.9477634
  26.6086054  40.0125933  63.6260298  26.8355040  40.6065945  64.0849421
  37.4962768  51.0695899  55.5056155  37.1908585  51.8023956  55.8669471
  36.7768984  50.6633828  55.2248941  37.3450111  51.1177632  55.5169292
  28.5046238  52.5519394  51.8364384  28.5785246  52.3894566  52.6906233
  29.3215744  52.7409584  51.5924865  28.6362596  52.5556136  51.9262409
  22.2651994  52.8977257  48.8658827  21.4390112  53.1438994  48.7393106
  22.3263986  52.8189338  49.7320885  22.1526161  52.9222206  48.9747771
  24.4828018  38.9646198  49.8254267  23.6150444  39.0368797  49.8911876
  24.7703223  39.7668277  50.0142242  24.3967766  39.0940345  49.8629034
  33.6060907  39.1124057  58.1565589  34.3514499  38.9233868  57.7429014
  33.1898212  39.6382295  57.5979445  33.6545881  39.1626203  58.0130162
  27.0450823  55.5154137  46.5677857  27.3349122  55.1243119  45.8437084
  27.7754304  55.6970842  47.0083132  27.1957708  55.4847951  46.5260664
  27.6345569  50.3171883  57.6530987  27.1357262  51.0287651  57.7315876
  28.4445793  50.6372550  57.6149150  27.6801675  50.4698732  57.6587556
  24.9856739  57.4921520  49.6338007  24.7657034  57.2018874  50.4264674
  24.7651261  56.8336475  49.1055919  24.9204333  57.3521228  49.6726915
  23.8973686  49.5794836  51.8993708  23.6086935  48.9532307  52.4339436
  24.7657034  49.5215124  51.9658389  23.9833938  49.4782380  51.9884663
  27.1524695  58.8650910  48.4168699  27.8048753  58.3327352  48.6459725
  26.4550303  58.5119562  48.8036573  27.1455413  58.7340433  48.5080867
  24.1005960  51.2190087  47.8236073  24.8551928  51.6003126  48.0371536
  23.5076572  51.6701231  48.2782770  24.1242673  51.3418915  47.9218952
  35.1464613  51.1855324  47.7599678  35.7122646  51.8448533  47.6758221
  34.4992517  51.5305022  48.2316080  35.1343370  51.3337265  47.8172435
  26.5612627  43.1752928  62.9493286  25.7512402  43.4810707  62.8383128
  27.0387313  43.8958510  63.0645870  26.5116105  43.3267529  62.9500357
  25.4204186  52.3898649  53.1976189  24.8984940  52.5298940  53.8828053
  25.8078207  51.6309313  53.3878306  25.4007887  52.2984172  53.3277265
  22.4095370  42.4404457  47.2671143  22.1220166  42.0705728  46.5303091
  23.0965839  42.9099313  47.0054848  22.4684268  42.4551427  47.1186219
  31.6171191  54.1294108  47.1836758  31.3757867  53.3961968  46.7763822
  31.7972524  54.6780965  46.5303091  31.6078815  54.1016499  47.0266980
  26.8470512  49.4202668  48.5957680  26.6513294  50.0277402  48.0017983
  27.0704857  48.7270612  48.1149354  26.8505153  49.4080193  48.4373761
  25.2449042  46.3057405  48.7138548  25.9671694  46.4698564  48.2542354
  24.7657035  47.0267070  48.6077888  25.2812773  46.4355635  48.6304162
  33.2042549  42.6421204  54.0935233  32.3653650  42.6682483  53.8573496
  33.2746917  43.2891940  54.6740580  33.0910943  42.7417330  54.1444350
  22.8956659  48.7115478  57.8192688  23.4077755  48.9899731  57.1701448
  22.6093001  49.4504772  58.1855501  22.9291522  48.8617832  57.7782566
  19.9823565  43.2185670  48.1156425  20.0839701  44.0211831  48.4437400
  20.7779452  43.0173006  47.8179505  20.1151470  43.3071569  48.1191780
  26.4140384  40.8041866  57.8793730  26.2223581  40.8197001  58.7293153
  27.2638980  41.0005541  57.8560384  26.5116106  40.8356218  58.0017024
  20.7987297  43.3332848  55.8577546  20.6572789  42.4816789  55.9822054
  21.0827860  43.3761509  55.0339752  20.8195143  43.2132598  55.7545170
  34.8473938  51.8783297  53.7908816  34.7088297  52.5764343  54.2957558
  34.0673936  51.7231954  53.4344997  34.7117165  51.9583464  53.8135090
  33.1852023  48.1779673  60.0431197  33.1800062  47.3059489  60.0473624
  33.8913017  48.3767842  59.5700653  33.2897027  48.0783547  59.9738233
  26.9122917  47.9056657  59.4145017  27.0566292  48.4857865  58.7788127
  27.2598565  48.2832953  60.1194872  26.9850378  48.0477361  59.4244012
  29.0842834  47.1046825  57.1970149  28.3366148  47.2977839  56.7918427
  29.2384359  46.2792045  56.9594270  28.9965262  47.0111937  57.1015555
  25.9850672  56.0959429  56.2806044  26.1340235  55.5362344  55.6279449
  26.7650674  56.1751430  56.6638563  26.1224765  56.0244994  56.2402993
  28.5103972  56.2674071  57.5590535  28.4347643  55.5982882  58.1141323
  28.4393831  56.9691860  58.0731201  28.4884579  56.2718979  57.7167383
  29.3244611  40.9997376  58.0865553  29.7817225  41.7321350  58.2138345
  29.4000940  40.5763841  58.8452809  29.4035581  41.0454614  58.2166629
  21.5677602  41.2463196  59.1754996  21.0319792  40.6343554  59.4915764
  21.6295367  41.8211332  59.8288663  21.4973235  41.2410123  59.3190423
  29.1674219  54.7875070  48.3914141  29.9324110  54.5184714  48.0696805
  29.0652309  54.3025081  49.1084204  29.2655715  54.6764635  48.4493969
  27.2026989  42.9899480  54.9307377  26.4123064  42.8090940  55.2524713
  27.5987612  42.2126432  54.9137671  27.1443865  42.8486941  54.9759925
  32.5870675  50.6241910  52.6566823  31.9115677  50.3927142  53.1580210
  32.5963051  50.0163093  52.0308928  32.4889180  50.5000835  52.6382975
  29.7164819  45.4659739  59.4130876  29.6523960  46.3269695  59.2851012
  29.8562007  45.1491732  58.6126427  29.7280289  45.5459906  59.2759089
  34.5887410  53.4807042  44.8877001  34.6707247  54.2874028  44.5638452
  35.0737152  53.5003002  45.6117774  34.6724568  53.6027705  44.9463899
  28.3983913  48.1591878  53.5547079  27.9746162  48.3596377  52.8186097
  28.2228768  47.3120726  53.6671378  28.3094794  48.0640660  53.4620769
  27.8995607  59.6742391  56.0168536  28.3891537  58.9753180  55.8344200
  27.3279839  59.3766261  56.6044593  27.8880136  59.5268615  56.0769577
  23.6866358  48.6543930  48.9875051  23.8430977  48.5890732  49.8431043
  24.0266951  49.4292482  48.7753731  23.7599593  48.7593128  49.0829645
  30.2245503  48.0301813  47.8568414  30.7661048  47.5272194  48.3207035
  30.5392062  47.9767008  47.0457900  30.3509900  47.9481234  47.8052226
  34.0962610  52.2404461  64.9695327  34.9097475  51.9689609  65.1300459
  33.9357576  51.9412001  64.1655522  34.1932559  52.1559387  64.8740732
  28.3931952  53.4219165  45.1408442  28.4624773  52.5633703  45.2801443
  29.1720408  53.6391046  44.8127467  28.5184802  53.3272029  45.1125600
  31.3734772  42.9238118  57.9090715  31.5876742  42.2849032  57.3554069
  30.7568671  43.3683942  57.4798577  31.3140101  42.8948261  57.7641146
  32.7839440  55.8456866  49.3544936  32.3919232  55.5423581  48.6367802
  32.9392512  56.6825956  49.1649889  32.7493030  55.9240703  49.2201433
  20.2600620  45.8378880  49.3035818  20.6399584  46.2563425  48.6396086
  19.6855984  46.4192336  49.6104662  20.2311944  45.9856739  49.2512559
  33.5373860  44.5327183  58.8474022  32.7250542  44.2253073  58.9287195
  33.9963795  44.0526183  59.4116734  33.4854245  44.4163675  58.9428616
  32.9479115  52.4106855  49.2950966  32.5893769  52.5821498  50.0714999
  32.4617826  52.8720061  48.7378965  32.8237812  52.5045826  49.3276235
  30.6327368  45.9387254  63.6302724  31.1026999  46.5629371  64.0170598
  30.6789248  45.2704230  64.1895939  30.7095243  45.9321935  63.7702796
  29.8590875  38.5837242  56.1844381  29.4722628  38.6086273  56.9657910
  29.3723812  38.0178921  55.7318897  29.7303384  38.5032993  56.2332284
  34.1083854  53.3010751  60.2418167  34.7463575  52.8070946  59.9080623
  33.4657946  53.2288151  59.6570394  34.1078081  53.2169759  60.1060522
  29.5248016  35.4704227  58.4754640  30.1541134  36.0064527  58.1975711
  29.6933879  35.3781586  59.3268206  29.6425811  35.5365590  58.5603169
  29.3261931  40.2575422  60.7481052  30.1535361  39.9860571  60.8039667
  29.3469777  41.0536264  61.1044870  29.4514781  40.3355176  60.8096235
  34.1638111  53.9930559  56.8823524  34.9530489  53.6419624  57.0025605
  34.3381709  54.8066948  56.6200158  34.3058392  54.0616416  56.8611392
  23.9031421  47.4039285  53.9351313  23.0619428  47.3043159  54.1430207
  24.1121429  48.1734765  54.2865633  23.8096114  47.5031328  54.0178628
  21.3806988  45.0258822  51.7636063  20.9863686  45.1001834  50.9886173
  20.8247105  45.4116768  52.3144425  21.2409800  45.0940596  51.7303723
  27.7148086  45.3320684  53.1848910  27.4111223  44.7776672  53.7859318
  27.0127507  45.5112894  52.6976944  27.5664296  45.2765466  53.2018616
  25.7766437  52.5470405  57.8921008  25.6686792  52.5572467  58.7583066
  25.9862218  53.3725185  57.7025962  25.7916548  52.6711480  57.9925100
  23.7940229  49.7983047  55.3542946  23.2028162  50.4392545  55.3245961
  24.5561253  50.2220664  55.3274245  23.8188490  49.9558886  55.3458093
  24.1900852  40.9585045  56.0210963  24.6502333  41.0323974  56.7586087
  24.2356958  41.7566299  55.6710785  24.2651407  41.0879192  56.0783720
  25.8384202  41.6251740  60.5882990  25.4469767  40.9785087  61.0238768
  26.0070064  42.2163175  61.2077246  25.8055112  41.6166008  60.7445696
  33.5529745  55.2492359  52.7874970  33.3549434  55.7383173  52.0931181
  32.9317456  55.4533600  53.3659103  33.4317310  55.3508897  52.7698193
  27.6137724  47.0177256  47.1285214  28.3579769  47.4051532  47.3668164
  27.7598420  46.1734681  47.2925702  27.7448309  46.9507728  47.1879184
  20.9788630  44.5874236  58.3962679  21.8414243  44.4869945  58.3100009
  20.6480413  44.0068945  57.8348252  21.0573826  44.4865862  58.3008085
  24.3390416  43.4116685  55.0573098  23.7143486  43.4235077  54.4499050
  24.0036010  43.8876860  55.7064338  24.1975907  43.4835202  55.0629666
  21.0516091  51.4717145  56.4976862  20.5216016  50.7809584  56.5471837
  21.3241184  51.4627330  55.6689570  21.0140813  51.3684277  56.3824278
  32.0836182  52.0542847  45.2214545  32.8070380  52.5200960  45.0779118
  31.6436773  52.1216457  44.4712142  32.1251874  52.1326684  45.0899326
  31.2522337  48.9140389  56.4715234  30.6379330  48.3698440  56.7663869
  31.7689622  48.4004626  55.9921050  31.2377999  48.7576798  56.4439462
  30.4918634  49.9844659  54.2059532  30.0646242  49.3594378  53.7724968
  30.4843578  49.7019581  55.0318539  30.4277775  49.8497440  54.2639360
  23.6081161  45.0209832  57.2747966  23.7674648  44.2653157  57.6799688
  23.4274055  45.5700772  57.9288704  23.6046520  44.9903646  57.4310672
  31.5501464  37.1871068  57.8298756  31.0542025  37.3834742  57.1390322
  32.3070526  37.5863736  57.6587557  31.5888289  37.2748802  57.7018892
  28.8204343  40.8613414  54.4202066  28.8446831  40.3273526  53.7314846
  29.0715817  40.3530723  55.0827657  28.8614262  40.7074318  54.4166711
  16.3311933  48.1444909  53.8545210  16.2255382  48.0991753  52.9897294
  15.5812153  48.4898689  54.1359495  16.2047536  48.1885817  53.7682540
  25.1005666  39.5884232  53.8007810  25.1404037  40.0893439  54.5142518
  24.2755330  39.6794626  53.5313734  24.9845192  39.6766048  53.8658349
  27.2835279  49.1544972  61.9028105  26.4330909  49.2916686  62.0385750
  27.4463406  48.4208750  62.3475807  27.1819142  49.0659073  61.9883704
  26.5220029  46.1044742  56.0981709  25.6911959  46.2718560  55.8916958
  26.4671546  45.7280693  56.8830595  26.3909444  46.0734473  56.1830238
  24.3303812  39.5953635  61.7338120  24.9556516  39.0515768  62.0067552
  23.8754292  39.1148552  61.1645911  24.3552073  39.4443116  61.6899714
  29.7332251  52.2000294  57.4508662  29.2257342  52.7536141  57.8949293
  29.4358897  52.2608584  56.6327437  29.6137136  52.2906605  57.3957119
  31.8994433  40.5653614  56.2933325  32.3249505  40.1126140  55.6816851
  31.2851426  40.0113685  56.5698113  31.8723079  40.4167590  56.2438350
  21.4309283  47.4435285  47.2253950  21.9401513  48.0399793  47.6065256
  21.9043555  47.1761259  46.5430370  21.5752659  47.4921101  47.1808473
  32.3440031  56.1163552  45.3812606  31.6269341  55.9424414  44.9159843
  32.9946769  55.8816124  44.8488092  32.3341882  56.0559344  45.2341823
  28.9774736  57.1324852  54.3565669  28.7540391  56.3743682  54.7249695
  28.4884580  57.1622874  53.6346109  28.8718185  57.0247077  54.3042410
  23.7899815  44.0791544  50.0927130  23.0711804  44.4955676  50.3599994
  24.1612177  44.6445783  49.5418769  23.7391747  44.2240825  50.0509937
  33.0899396  44.7119393  55.9829126  33.0697323  44.5302688  56.8363905
  33.1378596  45.5831411  55.9588710  33.0934037  44.8135931  56.1052421
  31.0345726  51.3006585  61.9077603  30.9941580  50.6556262  61.3222759
  31.8469044  51.2443202  62.2203015  31.1488879  51.1965552  61.8674552
  27.6253193  57.3525311  51.8102754  27.2113592  56.6899441  51.4206595
  28.3100567  57.5003169  51.2898448  27.6651565  57.2765969  51.6759251
  30.9918487  56.5115396  52.5626370  30.5934771  56.6217666  51.7947190
  30.3769707  56.7197462  53.1452930  30.8417377  56.5588964  52.5357670
  26.7223434  44.9303521  58.4627360  26.2102337  44.3224704  58.8212392
  26.5502930  45.6460114  58.9301336  26.6213071  44.9466821  58.5843584
  21.5689149  43.3741097  61.1129722  21.3991739  44.0342471  60.5677929
  21.1255099  43.5847658  61.8342211  21.4788483  43.5027079  61.1391352
  30.5992505  42.8527766  60.9029616  31.1563935  42.6241575  60.2708081
  30.2753570  43.6133432  60.6264828  30.6338915  42.9311603  60.7686113
  18.4691214  46.2787962  56.3718212  17.9217933  45.6088608  56.4899080
  19.2583592  45.9117810  56.4361679  18.5043397  46.1252949  56.3986913
  28.3175622  45.9395419  61.8681623  29.0686949  46.2547096  62.1821177
  28.5098198  45.7374590  61.0415545  28.4567036  45.9562801  61.7925019
  17.2278183  45.4908770  53.5264235  17.0499944  45.0385379  54.2519151
  16.9397205  46.2934931  53.7102713  17.1591136  45.5431328  53.6607738
  32.8901764  46.7466487  52.7641625  33.3855429  46.0289482  52.7245646
  32.0801540  46.4437285  52.6496112  32.8445657  46.5964134  52.7415351
  28.3360376  50.5964301  44.9138630  27.5271698  50.2730974  44.8671939
  28.8435285  49.8897523  44.8466878  28.2910042  50.4445617  44.8968924
  18.9650653  48.0236494  50.6385994  18.0996172  48.0122184  50.5268765
  19.0649469  47.8366717  51.4857133  18.8524820  47.9942555  50.7474938
  34.9553583  49.4970175  55.4518754  35.3808655  48.9744597  54.8989179
  34.5910503  50.0951012  54.9307377  34.9640186  49.5080402  55.2927764
  24.5907663  57.7934392  54.2116100  24.9054222  58.6070781  54.2193881
  25.0001076  57.4084611  54.8798259  24.6975761  57.8563095  54.3120191
  31.5432182  53.2104439  51.7819912  32.0143361  53.9244702  51.9509897
  31.8792361  52.6103189  52.3179781  31.6627297  53.2275903  51.8852287
  33.6309167  54.8205752  63.9611984  33.7406132  54.0314313  64.3168731
  33.9600064  54.7311689  63.1586322  33.6961573  54.6911605  63.8954374
  28.4601677  37.9831910  58.7378006  28.5929583  37.1862903  59.0658982
  28.8446830  38.5098313  59.3176282  28.5358006  37.9431826  58.8721509
  32.1806129  53.0022373  58.5447604  31.6327075  52.3780257  58.2767669
  32.6419157  53.1916645  57.8291684  32.1673338  52.9381423  58.3998035
  34.9899993  41.0707728  55.9298796  34.4062982  41.5716934  55.5176364
  35.3104287  40.5637284  55.2963120  34.9513168  41.0699563  55.7757304
  26.1190124  37.9791085  56.9855900  26.6634537  37.6382212  57.5760242
  26.1727060  38.8376546  57.1277185  26.2079244  38.0546344  57.0937773
  21.9320683  51.7407501  53.8594708  22.5365540  51.7003335  53.2308529
  21.7247995  52.5878653  53.8898764  21.9909580  51.8595503  53.7710824
  31.7464455  54.0073446  55.0756945  32.5662829  53.8636412  55.3373241
  31.4658533  54.6319645  55.6173383  31.8261198  54.0783798  55.1944885
  17.1671965  50.7242118  53.7293631  17.0696243  49.9138390  54.0383688
  17.9500835  50.7033912  53.3439899  17.2688102  50.6009208  53.7180494
  48.2178105  61.6638298  48.0399822  48.1872110  62.5182934  48.2118091
  48.8159454  61.3633590  48.5985965  48.3015263  61.7454794  48.1474624
  41.4177790  60.7513949  52.7952752  40.5615686  60.9122447  52.8461869
  41.4645444  59.8806013  52.8157813  41.2976902  60.6464751  52.8058818
  35.8018930  70.2876666  48.5589984  35.0501830  69.9092205  48.3306029
  36.2504942  70.3195100  47.8108794  35.7568597  70.2362274  48.4147486
  44.7271507  67.0200474  62.4013208  45.4338274  66.5252505  62.5300143
  44.9159442  67.4609556  61.6715866  44.8599412  67.0118825  62.3122254
  41.2543890  70.7102036  43.9875531  40.9195258  71.3878958  43.5519753
  41.7670760  70.3207347  43.3992402  41.2809471  70.7526614  43.8362322
  40.7948181  72.6616305  49.9286642  41.1787561  73.2303203  49.3891418
  40.7307322  71.9365815  49.4492458  40.8421608  72.6391768  49.7780505
  44.2629611  62.8105993  55.4384404  44.8085571  63.4891079  55.4978373
  44.2046488  62.6693453  54.5785985  44.3345526  62.8897994  55.3196464
  37.3803686  70.2995059  50.8252756  37.4814049  69.4895413  51.1349884
  36.7845431  70.2052005  50.1952435  37.3076225  70.1660087  50.7778995
  46.0394680  64.2390600  46.3118132  45.9234206  64.9898286  46.7410270
  46.8350567  63.9814553  46.5614219  46.1399269  64.3125447  46.4122223
  37.2204426  75.2172648  52.2267612  37.8641881  75.6585812  52.6163771
  37.5460681  74.4126074  52.1397871  37.3636254  75.1637843  52.2713090
  30.5768730  66.3215345  50.4505090  30.3418915  65.4882998  50.3437359
  30.7154371  66.6020011  49.6366291  30.5624393  66.2398849  50.3147445
  32.8758818  58.4901076  53.3489398  32.2563850  57.8993723  53.1799412
  32.7742681  59.0812511  52.7153721  32.7696493  58.4905158  53.2294387
  37.9225005  68.2284623  47.5987474  38.2440847  68.7689830  46.9948782
  38.5697102  67.6581394  47.7309764  38.0651061  68.2243798  47.5294509
  39.9726714  60.2300618  47.6821861  40.6706878  60.4088745  48.1743324
  40.2879046  59.7070957  47.0592250  40.1222051  60.1794390  47.6623871
  32.6027951  62.0353358  55.5932967  32.4786648  62.6215803  56.2282785
  33.2546235  61.5413553  55.8945242  32.6801600  62.0492162  55.7318896
  40.1614649  66.6171063  47.6701652  40.6008284  66.0088163  48.1156425
  40.0119312  66.2378436  46.8987117  40.2036115  66.4709534  47.6220820
  37.6286292  65.2115074  54.8720478  38.2735294  64.7187518  54.5531426
  37.8688069  65.3539861  55.6986556  37.7596877  65.1592517  54.9470011
  40.1672383  68.0569980  54.5227370  40.4495626  67.2621386  54.3014126
  40.8958544  68.5350568  54.5432431  40.3161947  68.0104577  54.4930385
  38.1453577  55.5993014  51.7643135  37.8156907  56.0504158  51.0946834
  37.4698579  55.5209178  52.3116142  37.9964013  55.6544149  51.7466359
  43.7623985  64.9698244  44.6232421  43.6775281  65.8259211  44.7681990
  44.2508369  64.6942568  45.2914581  43.8212883  65.0555565  44.7434503
  44.6942419  61.5883038  46.1230157  44.1653890  61.8042672  46.7827463
  45.2167439  62.2819177  46.0431126  44.6930872  61.7226175  46.2085756
  50.1490472  67.1629343  51.4963201  49.3188175  67.3739986  51.6596618
  50.0999724  66.3366397  51.2205485  50.0197207  67.0718949  51.4800566
  36.5842027  65.4846255  44.9237624  35.9999242  65.9896286  45.3303488
  36.1812122  65.2588642  44.1834216  36.4381330  65.5254503  44.8742650
  32.1386055  71.2001016  51.7261296  31.6553633  71.9251506  51.7020880
  32.9509373  71.4977146  51.8371454  32.1876803  71.3503370  51.7388575
  38.2100209  69.9933197  54.3311111  37.6927151  69.6340612  53.7272419
  38.9074600  69.4695371  54.3417177  38.2365790  69.8630885  54.2441369
  41.8663801  70.4428011  60.2927284  41.9547147  70.2554151  61.1405494
  42.2953514  69.7965440  59.8932130  41.9425904  70.3191018  60.3599035
  39.4334261  69.7259171  59.2744946  38.8705096  69.3131781  59.7984607
  40.1955284  69.6512076  59.6938089  39.4628710  69.6536571  59.4137946
  41.0419241  61.7311907  43.4006545  41.2815245  61.9389891  42.5881888
  41.3635082  60.9269416  43.5095490  41.1256399  61.6426008  43.2967098
  36.3509531  53.6605303  47.2466083  37.1055499  54.0283620  47.0083133
  36.1737066  54.0344857  48.0145263  36.4364010  53.7703491  47.3250972
  34.9930252  71.7157192  51.8781576  35.6950832  71.2009181  51.9354332
  34.9127735  72.0431343  52.6828451  35.0854013  71.6871418  52.0054368
  49.6444430  59.8099743  55.2913622  48.8072851  59.8801930  55.5261217
  49.6132661  59.8124238  54.4187925  49.5162712  59.8209970  55.1973170
  36.0409159  61.9532779  61.0061991  36.2129663  61.8438673  61.8547272
  36.5778516  62.5987184  60.7693183  36.1454163  62.0324781  61.0967088
  34.7066596  56.0675622  43.9444196  34.5242169  56.2847503  43.1185189
  35.5692209  56.1814634  44.0002810  34.8071185  56.1165520  43.8298683
  34.3181028  67.9063544  51.3867184  35.1569927  68.1386477  51.4340946
  34.3492797  67.0367855  51.3174219  34.4462745  67.8120490  51.3831829
  34.9433731  68.3264419  55.6880489  35.4831956  68.1835550  56.3583862
  34.2603677  68.7261170  56.0564516  34.9225885  68.3644090  55.8414911
  44.3674616  64.0055420  50.8825514  45.1232131  64.4386934  50.9214423
  44.4736940  63.3560189  51.4560150  44.4944786  63.9732904  50.9723539
  47.4054787  67.8328697  51.6327917  46.9690019  67.8365439  52.3886888
  47.0717702  68.5134196  51.2007494  47.2917407  67.9341153  51.6808749
  41.9783860  69.8737030  62.9571067  42.7624277  69.9867878  63.3226809
  41.7780455  69.0478167  63.1529753  42.0649886  69.7683749  63.0405453
  30.3470876  64.5464710  55.8414911  30.0809291  63.7303827  56.0005901
  30.3609440  64.5917865  54.9710426  30.3095598  64.4321615  55.7368393
  47.3252270  54.8742525  53.8757345  47.9678178  54.9440629  54.4619260
  47.5775290  54.2071748  53.3736887  47.4574402  54.7868873  53.8884624
  34.2528623  59.3449794  42.4566669  33.5386800  59.0587974  42.8689102
  34.7372592  59.6846420  43.0973057  34.2187986  59.3531444  42.6122304
  35.0969482  58.0843088  58.4881919  34.4041279  57.6140068  58.7342650
  35.7129810  57.8581393  59.0623626  35.0854012  57.9810220  58.6091071
  42.1354254  71.7847132  56.6037523  41.3369500  71.5446632  56.8611391
  42.5840265  71.8361525  57.3504570  42.0828865  71.7569523  56.7522447
  50.5399133  64.5509617  50.5247554  51.2015567  63.9900285  50.4243462
  49.8990545  64.0561648  50.8500245  50.5428001  64.3946026  50.5579894
  41.4275941  67.8479748  42.8328477  41.8427089  67.5164772  42.1412973
  40.5967870  67.6148651  42.7048614  41.3663950  67.7651004  42.7119325
  30.7564290  65.3323489  53.1226655  30.5739863  65.3070375  52.2698947
  31.4913958  65.8022427  53.1615564  30.8378353  65.3984852  53.0024574
  46.8263964  65.5674999  50.2659543  47.0619553  65.7120198  49.4386393
  46.9753527  66.3317407  50.6591056  46.8829767  65.7014054  50.2023147
  33.8210041  62.0508492  59.6308764  34.5450014  62.0361523  60.1173659
  33.9226178  62.7603847  59.1330732  33.9428250  62.1533195  59.6287551
  48.6554420  64.4076665  48.1029147  48.9862638  64.9404305  47.4969241
  49.2287509  64.4615553  48.7591098  48.7888100  64.4946234  48.1106928
  41.1954991  65.5307577  64.4957711  40.4027971  65.8451089  64.6810331
  41.3103918  65.7459045  63.6578496  41.0950401  65.6091413  64.3996046
  43.8686310  62.2541568  48.7852727  43.9633164  62.9930862  49.2392352
  43.2445153  61.8259043  49.2187291  43.7895340  62.3002888  48.9160874
  42.1238783  65.4327781  59.4343008  42.6977645  64.7955025  59.5891572
  42.0453587  65.4331863  58.5652665  42.1972018  65.3392892  59.3289418
  30.7235200  62.2116990  53.2725722  31.3008703  62.0753441  53.9117967
  30.0249262  61.7552774  53.5271306  30.7056221  62.1239256  53.4048011
  44.1209331  64.0990308  42.0189679  44.0389493  64.1692495  42.8844666
  44.7589051  64.6620052  41.8273419  44.2029168  64.1929279  42.1179628
  37.4802502  63.8651046  51.4864205  37.2221746  63.0322781  51.4595505
  37.5350985  64.0908659  50.6456705  37.4502280  63.7748817  51.3584342
  42.5603552  55.9679496  51.5868298  41.8559879  55.4788682  51.7452217
  42.6088527  55.9801971  50.7156742  42.4633604  55.8969144  51.4807638
  36.4537214  61.4188808  51.9729100  35.8786805  61.5780976  52.6093061
  36.0772891  60.7824217  51.5097550  36.3140027  61.3486621  51.9983658
  40.1210503  59.8912157  56.8321478  39.7324936  59.4666375  56.1773669
  39.4565201  60.1394307  57.3398505  39.9657431  59.8650878  56.8109346
  49.7633772  59.6487162  49.6069308  49.5070337  58.8367104  49.4167191
  50.6063086  59.6564729  49.3799496  49.8499797  59.5299160  49.5454125
  26.1994033  61.0628883  49.9873540  26.2854285  60.6860751  50.7687070
  26.8269831  60.6889329  49.5093499  26.3050584  60.9514365  50.0319018
  43.9436864  53.5886786  54.3445462  44.3247376  52.9064957  54.7313337
  43.1400149  53.2996388  54.1621127  43.8813326  53.4453835  54.3749518
  41.2249441  64.1210762  45.0298285  42.0390080  64.4125655  44.9181057
  41.1608582  63.4670624  44.4556578  41.3352180  64.0675957  44.9287123
  47.4458931  66.8036758  59.4427861  47.2097569  65.9724823  59.3239921
  48.0902160  66.7522365  60.0282705  47.5053602  66.6734446  59.5113754
  37.0957349  67.5932279  50.1570597  37.7331296  67.3544027  50.7022391
  37.5212421  67.7969438  49.4223758  37.2533516  67.5883290  50.1287755
  31.7869992  69.8320616  54.0404901  31.8274137  70.1035467  53.2124681
  32.3464516  70.3562524  54.4562689  31.8753338  69.9496371  53.9796789
  37.7360164  62.8134569  44.4945487  38.1205317  62.5942276  45.2462032
  37.4871785  63.6397515  44.6246563  37.7562237  62.9032715  44.6246563
  37.9028705  56.0940984  64.2108071  37.5882146  56.8640547  63.9477634
  37.5818637  55.5311240  63.6260298  37.8087624  56.1251253  64.0849421
  48.4695352  66.5881207  55.5056155  48.1641169  67.3209264  55.8669471
  47.7501568  66.1819136  55.2248941  48.3182694  66.6362940  55.5169292
  39.4778821  68.0704702  51.8364384  39.5517830  67.9079874  52.6906233
  40.2948328  68.2594892  51.5924865  39.6095180  68.0741444  51.9262409
  54.1697144  63.2274208  54.8324500  54.1021644  63.2470167  53.9627086
  54.1552806  64.0704535  55.0580170  54.1575901  63.3547942  54.7376976
  33.2384578  68.4162565  48.8658827  32.4122696  68.6624302  48.7393106
  33.2996569  68.3374646  49.7320885  33.1258745  68.4407514  48.9747771
  35.4560602  54.4831506  49.8254267  34.5883027  54.5554105  49.8911876
  35.7435806  55.2853585  50.0142242  35.3700350  54.6125653  49.8629034
  44.5793491  54.6309365  58.1565589  45.3247083  54.4419176  57.7429014
  44.1630795  55.1567603  57.5979445  44.6278465  54.6811511  58.0130162
  38.0183407  71.0339445  46.5677857  38.3081705  70.6428426  45.8437084
  38.7486888  71.2156150  47.0083132  38.1690291  71.0033259  46.5260664
  51.9555761  62.0018594  53.1071094  52.5063683  61.3686663  53.3468186
  51.9399877  62.5333987  53.7986598  52.0340958  61.9867542  53.2449952
  38.6078152  65.8357191  57.6530987  38.1089846  66.5472959  57.7315876
  39.4178377  66.1557858  57.6149150  38.6534259  65.9884040  57.6587556
  35.9589323  73.0106828  49.6338007  35.7389618  72.7204182  50.4264674
  35.7383845  72.3521783  49.1055919  35.8936917  72.8706536  49.6726915
  34.8706270  65.0980144  51.8993708  34.5819518  64.4717615  52.4339436
  35.7389618  65.0400431  51.9658389  34.9566522  64.9967688  51.9884663
  45.6584168  60.2414927  52.2175690  45.3148933  59.5205263  52.5682940
  45.7577210  60.0328779  51.3754048  45.6226210  60.1039131  52.1447370
  38.1257278  74.3836217  48.4168699  38.7781336  73.8512660  48.6459725
  37.4282887  74.0304870  48.8036573  38.1187996  74.2525740  48.5080867
  35.0738543  66.7375395  47.8236073  35.8284511  67.1188434  48.0371536
  34.4809156  67.1886539  48.2782770  35.0975257  66.8604222  47.9218952
  46.1197197  66.7040632  47.7599678  46.6855229  67.3633841  47.6758221
  45.4725100  67.0490330  48.2316080  46.1075953  66.8522573  47.8172435
  37.5345210  58.6938235  62.9493286  36.7244986  58.9996015  62.8383128
  38.0119897  59.4143818  63.0645870  37.4848689  58.8452837  62.9500357
  36.3936770  67.9083956  53.1976189  35.8717523  68.0484248  53.8828053
  36.7810790  67.1494621  53.3878306  36.3740471  67.8169480  53.3277265
  33.3827954  57.9589765  47.2671143  33.0952750  57.5891036  46.5303091
  34.0698422  58.4284620  47.0054848  33.4416851  57.9736735  47.1186219
  42.5903775  69.6479416  47.1836758  42.3490451  68.9147276  46.7763822
  42.7705108  70.1966273  46.5303091  42.5811399  69.6201807  47.0266980
  37.8203095  64.9387975  48.5957680  37.6245878  65.5462710  48.0017983
  38.0437441  64.2455919  48.1149354  37.8237736  64.9265501  48.4373761
  36.2181625  61.8242713  48.7138548  36.9404277  61.9883872  48.2542354
  35.7389618  62.5452378  48.6077888  36.2545356  61.9540943  48.6304162
  44.1775133  58.1606512  54.0935233  43.3386234  58.1867791  53.8573496
  44.2479500  58.8077248  54.6740580  44.0643527  58.2602638  54.1444350
  33.8689242  64.2300786  57.8192688  34.3810339  64.5085039  57.1701448
  33.5825585  64.9690080  58.1855501  33.9024105  64.3803139  57.7782566
  48.0532657  63.3674499  51.3796475  47.9666631  63.5229925  52.2331254
  47.5983137  64.0112574  51.0055880  47.9735913  63.4850254  51.4503582
  30.9556148  58.7370978  48.1156425  31.0572285  59.5397139  48.4437400
  31.7512035  58.5358314  47.8179505  31.0884054  58.8256876  48.1191780
  37.3872968  56.3227174  57.8793730  37.1956165  56.3382309  58.7293153
  38.2371563  56.5190849  57.8560384  37.4848689  56.3541526  58.0017024
  31.7719881  58.8518156  55.8577546  31.6305372  58.0002097  55.9822054
  32.0560444  58.8946817  55.0339752  31.7927727  58.7317906  55.7545170
  41.9258473  60.6885246  50.0022034  41.6793187  60.6080997  50.8358823
  42.2543596  59.9038714  49.8084562  41.9379716  60.5611511  50.0969557
  45.8206522  67.3968605  53.7908816  45.6820881  68.0949651  54.2957558
  45.0406520  67.2417262  53.4344997  45.6849749  67.4768772  53.8135090
  44.1584607  63.6964981  60.0431197  44.1532645  62.8244797  60.0473624
  44.8645601  63.8953150  59.5700653  44.2629611  63.5968855  59.9738233
  37.8855500  63.4241965  59.4145017  38.0298876  64.0043173  58.7788127
  38.2331149  63.8018261  60.1194872  37.9582962  63.5662669  59.4244012
  40.0575418  62.6232133  57.1970149  39.3098732  62.8163147  56.7918427
  40.2116943  61.7977353  56.9594270  39.9697845  62.5297244  57.1015555
  36.9583255  71.6144736  56.2806044  37.1072819  71.0547652  55.6279449
  37.7383257  71.6936738  56.6638563  37.0957349  71.5430302  56.2402993
  47.3159895  66.7546859  44.5525315  46.9366703  65.9683997  44.5454604
  46.6526140  67.3033716  44.4096959  47.1618369  66.7191683  44.5306112
  39.4836556  71.7859379  57.5590535  39.4080227  71.1168190  58.1141323
  39.4126415  72.4877168  58.0731201  39.4617163  71.7904287  57.7167383
  40.2977195  56.5182684  58.0865553  40.7549809  57.2506658  58.2138345
  40.3733523  56.0949149  58.8452809  40.3768164  56.5639922  58.2166629
  32.5410186  56.7648503  59.1754996  32.0052375  56.1528862  59.4915764
  32.6027951  57.3396639  59.8288663  32.4705818  56.7595431  59.3190423
  40.1406803  70.3060378  48.3914141  40.9056694  70.0370022  48.0696805
  40.0384893  69.8210389  49.1084204  40.2388298  70.1949943  48.4493969
  38.1759572  58.5084788  54.9307377  37.3855647  58.3276248  55.2524713
  38.5720195  57.7311740  54.9137671  38.1176449  58.3672249  54.9759925
  42.6625463  67.3372562  40.3714090  43.4298448  67.3972687  39.9619942
  42.2156772  66.7653003  39.8870409  42.7098891  67.2609138  40.2391801
  43.5603259  66.1427218  52.6566823  42.8848261  65.9112450  53.1580210
  43.5695635  65.5348401  52.0308928  43.4621763  66.0186143  52.6382975
  40.6897403  60.9845047  59.4130876  40.6256544  61.8455003  59.2851012
  40.8294590  60.6677040  58.6126427  40.7012873  61.0645213  59.2759089
  45.5619993  68.9992350  44.8877001  45.6439831  69.8059336  44.5638452
  46.0469736  69.0188309  45.6117774  45.6457151  69.1213013  44.9463899
  39.3716497  63.6777186  53.5547079  38.9478746  63.8781685  52.8186097
  39.1961352  62.8306034  53.6671378  39.2827377  63.5825968  53.4620769
  38.8728190  75.1927699  56.0168536  39.3624120  74.4938488  55.8344200
  38.3012422  74.8951569  56.6044593  38.8612720  75.0453923  56.0769577
  34.6598942  64.1729238  48.9875051  34.8163561  64.1076040  49.8431043
  34.9999535  64.9477790  48.7753731  34.7332176  64.2778436  49.0829645
  41.1978086  63.5487121  47.8568414  41.7393632  63.0457502  48.3207035
  41.5124645  63.4952316  47.0457900  41.3242483  63.4666542  47.8052226
  45.0695194  67.7589768  64.9695327  45.8830059  67.4874917  65.1300459
  44.9090160  67.4597308  64.1655522  45.1665142  67.6744695  64.8740732
  39.3664536  68.9404473  45.1408442  39.4357356  68.0819011  45.2801443
  40.1452991  69.1576354  44.8127467  39.4917386  68.8457337  45.1125600
  42.3467356  58.4423426  57.9090715  42.5609325  57.8034340  57.3554069
  41.7301255  58.8869250  57.4798577  42.2872685  58.4133569  57.7641146
  43.7572024  71.3642174  49.3544936  43.3651815  71.0608889  48.6367802
  43.9125096  72.2011264  49.1649889  43.7225613  71.4426011  49.2201433
  31.2333203  61.3564188  49.3035818  31.6132168  61.7748733  48.6396086
  30.6588568  61.9377644  49.6104662  31.2044528  61.5042047  49.2512559
  44.5106444  60.0512491  58.8474022  43.6983125  59.7438381  58.9287195
  44.9696378  59.5711491  59.4116734  44.4586828  59.9348983  58.9428616
  43.9211698  67.9292163  49.2950966  43.5626353  68.1006806  50.0714999
  43.4350409  68.3905368  48.7378965  43.7970395  68.0231134  49.3276235
  38.7100064  63.6091328  41.8351201  38.9992589  64.3856211  42.1094775
  38.7971863  63.0980060  42.5365700  38.7654320  63.6483247  41.9793698
  41.6059951  61.4572562  63.6302724  42.0759582  62.0814679  64.0170598
  41.6521831  60.7889538  64.1895939  41.6827827  61.4507243  63.7702796
  40.8323458  54.1022550  56.1844381  40.4455211  54.1271581  56.9657910
  40.3456396  53.5364228  55.7318897  40.7035967  54.0218301  56.2332284
  45.0816438  68.8196059  60.2418167  45.7196158  68.3256254  59.9080623
  44.4390529  68.7473459  59.6570394  45.0810664  68.7355067  60.1060522
  46.8073438  60.6685205  54.8084083  46.3801046  60.5811553  54.0532182
  46.1699491  60.7762980  55.3938927  46.6503045  60.6717865  54.7829524
  40.4980600  50.9889535  58.4754640  41.1273718  51.5249835  58.1975711
  40.6666463  50.8966894  59.3268206  40.6158395  51.0550898  58.5603169
  40.2994515  55.7760730  60.7481052  41.1267944  55.5045879  60.8039667
  40.3202361  56.5721572  61.1044870  40.4247365  55.8540484  60.8096235
  45.1370694  69.5115867  56.8823524  45.9263072  69.1604932  57.0025605
  45.3114292  70.3252255  56.6200158  45.2790976  69.5801724  56.8611392
  34.8764005  62.9224593  53.9351313  34.0352011  62.8228467  54.1430207
  35.0854013  63.6920073  54.2865633  34.7828697  63.0216636  54.0178628
  32.3539572  60.5444130  51.7636063  31.9596269  60.6187142  50.9886173
  31.7979688  60.9302076  52.3144425  32.2142384  60.6125904  51.7303723
  38.6880670  60.8505992  53.1848910  38.3843807  60.2961980  53.7859318
  37.9860090  61.0298202  52.6976944  38.5396879  60.7950774  53.2018616
  37.7446767  58.1606512  47.7493612  38.0206501  57.4425424  47.3371180
  38.3445436  58.7591432  47.5414718  37.8740031  58.1426883  47.6574373
  36.7499021  68.0655713  57.8921008  36.6419375  68.0757775  58.7583066
  36.9594802  68.8910493  57.7025962  36.7649132  68.1896787  57.9925100
  41.2457287  55.8320029  46.0240207  41.7001034  56.0030590  46.7488052
  41.7197333  55.2188140  45.6237983  41.3825607  55.7670914  46.0713969
  34.7672813  65.3168355  55.3542946  34.1760746  65.9577853  55.3245961
  35.5293836  65.7405972  55.3274245  34.7921073  65.4744194  55.3458093
  35.1633435  56.4770353  56.0210963  35.6234917  56.5509282  56.7586087
  35.2089542  57.2751607  55.6710785  35.2383991  56.6064500  56.0783720
  36.8116785  57.1437048  60.5882990  36.4202350  56.4970395  61.0238768
  36.9802648  57.7348483  61.2077246  36.7787695  57.1351316  60.7445696
  50.8863234  65.1474125  56.3520224  50.9446358  65.5960774  57.0980200
  50.2529702  65.5572938  55.9150304  50.8014529  65.2747859  56.3972772
  44.5262329  70.7677667  52.7874970  44.3282017  71.2568481  52.0931181
  43.9050040  70.9718908  53.3659103  44.4049893  70.8694205  52.7698193
  38.5870307  62.5362563  47.1285214  39.3312352  62.9236840  47.3668164
  38.7331003  61.6919989  47.2925702  38.7180892  62.4693036  47.1879184
  41.5748183  58.1088037  53.0279134  41.1008137  57.5829799  53.5384445
  41.9466319  57.5617510  52.4593995  41.5598072  57.9504033  53.0194281
  31.9521213  60.1059544  58.3962679  32.8146826  60.0055253  58.3100009
  31.6212996  59.5254253  57.8348252  32.0306410  60.0051170  58.3008085
  47.8384914  63.1690412  54.4385914  47.5983136  62.3296828  54.4428341
  48.3176921  63.2490579  55.1626688  47.8737097  63.0571812  54.5460717
  43.5031683  59.0024591  46.0904887  42.9754701  59.0853335  45.4010596
  43.9627391  59.7442463  46.0869532  43.4933533  59.1245254  45.9879583
  49.8390101  59.9491870  52.3915173  49.5999871  59.9087704  51.5535958
  50.0024002  60.7963022  52.5180894  49.8280404  60.0683955  52.2868655
  46.4436131  64.3341819  58.3220218  47.1670330  63.8814345  58.1431238
  46.1786093  64.6146485  57.5392546  46.5117404  64.3092787  58.1798934
  35.3122999  58.9301993  55.0573098  34.6876069  58.9420384  54.4499050
  34.9768594  59.4062168  55.7064338  35.1708491  59.0020510  55.0629666
  35.4964748  57.2727111  41.1145783  35.1477552  57.9246836  41.5777332
  35.0161194  57.2584224  40.3869654  35.3734992  57.3670165  41.0756874
  32.0248675  66.9902453  56.4976862  31.4948599  66.2994892  56.5471837
  32.2973768  66.9812638  55.6689570  31.9873397  66.8869584  56.3824278
  43.0568765  67.5728155  45.2214545  43.7802964  68.0386268  45.0779118
  42.6169356  67.6401765  44.4712142  43.0984457  67.6511992  45.0899326
  42.2254920  64.4325697  56.4715234  41.6111913  63.8883748  56.7663869
  42.7422205  63.9189934  55.9921050  42.2110583  64.2762106  56.4439462
  41.4651217  65.5029967  54.2059532  41.0378825  64.8779686  53.7724968
  41.4576162  65.2204889  55.0318539  41.4010359  65.3682748  54.2639360
  34.5813744  60.5395140  57.2747966  34.7407231  59.7838464  57.6799688
  34.4006638  61.0886080  57.9288704  34.5779103  60.5088954  57.4310672
  42.5234047  52.7056376  57.8298756  42.0274609  52.9020050  57.1390322
  43.2803110  53.1049044  57.6587557  42.5620872  52.7934110  57.7018892
  39.7936927  56.3798722  54.4202066  39.8179414  55.8458834  53.7314846
  40.0448401  55.8716031  55.0827657  39.8346846  56.2259626  54.4166711
  27.3044517  63.6630217  53.8545210  27.1987966  63.6177061  52.9897294
  26.5544737  64.0083997  54.1359495  27.1780120  63.7071125  53.7682540
  36.0738249  55.1069540  53.8007810  36.1136621  55.6078747  54.5142518
  35.2487914  55.1979934  53.5313734  35.9577775  55.1951356  53.8658349
  38.2567862  64.6730280  61.9028105  37.4063493  64.8101994  62.0385750
  38.4195990  63.9394058  62.3475807  38.1551726  64.5844381  61.9883704
  37.4952613  61.6230050  56.0981709  36.6644542  61.7903868  55.8916958
  37.4404130  61.2466001  56.8830595  37.3642028  61.5919781  56.1830238
  35.3036396  55.1138943  61.7338120  35.9289099  54.5701076  62.0067552
  34.8486876  54.6333860  61.1645911  35.3284657  54.9628424  61.6899714
  35.8688657  59.8985641  46.6271827  36.0091618  60.3958106  47.3300469
  36.3671189  59.1971936  46.7686041  35.9629737  59.8687620  46.7523406
  35.8988879  60.7652752  43.9564404  36.5333958  61.3613177  43.8913866
  35.9814490  60.4656210  44.7710274  36.0045430  60.8093661  44.0667491
  48.8771445  63.2968230  56.8250768  49.4689285  63.9365481  56.8568966
  49.3130439  62.5991267  57.1142835  49.0289876  63.2886580  56.8731601
  37.4767862  56.6966728  43.9309846  37.7983703  56.2169810  43.2769108
  37.7394806  57.5066374  43.7400658  37.5633887  56.7456626  43.8065338
  40.7064835  67.7185602  57.4508662  40.1989926  68.2721449  57.8949293
  40.4091481  67.7793892  56.6327437  40.5869719  67.8091913  57.3957119
  42.8727017  56.0838922  56.2933325  43.2982088  55.6311448  55.6816851
  42.2584010  55.5298993  56.5698113  42.8455662  55.9352898  56.2438350
  32.4041867  62.9620593  47.2253950  32.9134096  63.5585101  47.6065256
  32.8776139  62.6946567  46.5430370  32.5485242  63.0106409  47.1808473
  43.3172615  71.6348860  45.3812606  42.6001925  71.4609722  44.9159843
  43.9679352  71.4001432  44.8488092  43.3074465  71.5744652  45.2341823
  45.9020586  60.5113448  49.1253911  45.2311776  61.0543151  48.9966976
  46.5960336  60.9808304  48.8835605  45.9049454  60.6611720  49.0709438
  39.9507320  72.6510160  54.3565669  39.7272974  71.8928990  54.7249695
  39.4617163  72.6808182  53.6346109  39.8450769  72.5432385  54.3042410
  46.0648714  56.9669332  52.0344284  46.4176324  56.5399055  52.7090083
  45.2063515  56.8820176  52.1645360  45.9898158  56.8914073  52.1539294
  34.7632399  59.5976852  50.0927130  34.0444388  60.0140984  50.3599994
  35.1344761  60.1631091  49.5418769  34.7124330  59.7426133  50.0509937
  44.0631979  60.2304701  55.9829126  44.0429907  60.0487996  56.8363905
  44.1111180  61.1016719  55.9588710  44.0666620  60.3321239  56.1052421
  42.0078309  66.8191893  61.9077603  41.9674164  66.1741570  61.3222759
  42.8201627  66.7628510  62.2203015  42.1221463  66.7150859  61.8674552
  38.5985777  72.8710619  51.8102754  38.1846175  72.2084749  51.4206595
  39.2833151  73.0188477  51.2898448  38.6384148  72.7951277  51.6759251
  41.9651071  72.0300704  52.5626370  41.5667354  72.1402974  51.7947190
  41.3502290  72.2382770  53.1452930  41.8149960  72.0774272  52.5357670
  40.5378973  58.6374852  45.4300510  39.9443812  58.9591848  44.8785077
  40.5754251  57.7915947  45.2221616  40.4553362  58.5599180  45.3183281
  43.4136789  58.5954356  48.8602260  43.1850482  58.6187058  48.0180618
  43.6734866  57.7711823  48.9797271  43.4182978  58.4770436  48.7527458
  37.6956018  60.4488829  58.4627360  37.1834921  59.8410012  58.8212392
  37.5235514  61.1645422  58.9301336  37.5945655  60.4652128  58.5843584
  32.5421733  58.8926405  61.1129722  32.3724323  59.5527779  60.5677929
  32.0987682  59.1032966  61.8342211  32.4521066  59.0212387  61.1391352
  36.4681552  57.1330902  50.1556456  36.9438918  57.4947982  49.5206637
  35.9670152  57.7887370  50.4356599  36.4646911  57.2825091  50.1033197
  49.6992914  66.6052671  45.9469461  50.0826519  67.3544027  46.1767558
  48.9037027  66.8518490  45.6881450  49.6386696  66.7522364  45.9427034
  41.5725088  58.3713074  60.9029616  42.1296518  58.1426883  60.2708081
  41.2486153  59.1318739  60.6264828  41.6071498  58.4496911  60.7686113
  29.4423797  61.7973270  56.3718212  28.8950517  61.1273916  56.4899080
  30.2316175  61.4303118  56.4361679  29.4775981  61.6438256  56.3986913
  39.2908206  61.4580727  61.8681623  40.0419532  61.7732404  62.1821177
  39.4830782  61.2559898  61.0415545  39.4299620  61.4748109  61.7925019
  38.5108205  59.2772102  43.5229840  38.8907170  59.2951731  42.7380955
  37.7700801  59.7226091  43.4020687  38.4577043  59.3453877  43.3893408
  46.1393496  57.5854293  49.1105418  46.1387722  57.4302950  49.9689695
  45.9349676  58.4317280  49.0546804  46.1093274  57.6874914  49.2293358
  28.2010767  61.0094078  53.5264235  28.0232528  60.5570687  54.2519151
  27.9129789  61.8120239  53.7102713  28.1323720  61.0616636  53.6607738
  43.8634348  62.2651795  52.7641625  44.3588013  61.5474790  52.7245646
  43.0534123  61.9622593  52.6496112  43.8178241  62.1149442  52.7415351
  39.3092959  66.1149608  44.9138630  38.5004282  65.7916282  44.8671939
  39.8167868  65.4082831  44.8466878  39.2642626  65.9630925  44.8968924
  29.9383236  63.5421802  50.6385994  29.0728756  63.5307492  50.5268765
  30.0382052  63.3552024  51.4857133  29.8257403  63.5127863  50.7474938
  45.9286167  65.0155483  55.4518754  46.3541238  64.4929905  54.8989179
  45.5643086  65.6136320  54.9307377  45.9372769  65.0265710  55.2927764
  35.5640246  73.3119700  54.2116100  35.8786805  74.1256089  54.2193881
  35.9733660  72.9269919  54.8798259  35.6708344  73.3748403  54.3120191
  42.5164766  68.7289747  51.7819912  42.9875944  69.4430010  51.9509897
  42.8524945  68.1288497  52.3179781  42.6359881  68.7461211  51.8852287
  44.6041751  70.3391060  63.9611984  44.7138716  69.5499621  64.3168731
  44.9332647  70.2496997  63.1586322  44.6694156  70.2096913  63.8954374
  39.4334261  53.5017218  58.7378006  39.5662167  52.7048211  59.0658982
  39.8179414  54.0283621  59.3176282  39.5090590  53.4617134  58.8721509
  43.1538712  68.5207681  58.5447604  42.6059658  67.8965565  58.2767669
  43.6151741  68.7101953  57.8291684  43.1405922  68.4566731  58.3998035
  45.9632577  56.5893036  55.9298796  45.3795566  57.0902242  55.5176364
  46.2836871  56.0822592  55.2963120  45.9245752  56.5884871  55.7757304
  38.5027376  55.5033630  46.2057471  39.3243070  55.6731943  45.9639166
  38.0397027  55.6580891  45.4823769  38.5558538  55.5515363  46.0629116
  37.0922708  53.4976393  56.9855900  37.6367121  53.1567519  57.5760242
  37.1459643  54.3561854  57.1277185  37.1811827  53.5731652  57.0937773
  32.9053267  67.2592809  53.8594708  33.5098124  67.2188643  53.2308529
  32.6980579  68.1063961  53.8898764  32.9642164  67.3780811  53.7710824
  42.7197039  69.5258754  55.0756945  43.5395412  69.3821720  55.3373241
  42.4391116  70.1504953  55.6173383  42.7993782  69.5969106  55.1944885
  28.1404549  66.2427426  53.7293631  28.0428827  65.4323698  54.0383688
  28.9233418  66.2219220  53.3439899  28.2420685  66.1194516  53.7180494
  59.1910689  77.1823606  48.0399822  59.1604693  78.0368242  48.2118091
  59.7892038  76.8818898  48.5985965  59.2747847  77.2640102  48.1474624
  52.3910374  76.2699257  52.7952752  51.5348269  76.4307755  52.8461869
  52.4378028  75.3991321  52.8157813  52.2709485  76.1650058  52.8058818
  55.2362195  78.3291300  55.4384404  55.7818155  79.0076387  55.4978373
  55.1779071  78.1878761  54.5785985  55.3078109  78.4083302  55.3196464
  57.0127264  79.7575908  46.3118132  56.8966789  80.5083594  46.7410270
  57.8083150  79.4999861  46.5614219  57.1131853  79.8310754  46.4122223
  43.8491401  74.0086384  53.3489398  43.2296433  73.4179031  53.1799412
  43.7475265  74.5997819  52.7153721  43.7429077  74.0090466  53.2294387
  48.8957589  83.7469931  47.5987474  49.2173430  84.2875138  46.9948782
  49.5429686  83.1766702  47.7309764  49.0383644  83.7429106  47.5294509
  50.9459297  75.7485926  47.6821861  51.6439462  75.9274053  48.1743324
  51.2611630  75.2256265  47.0592250  51.0954634  75.6979698  47.6623871
  43.5760535  77.5538665  55.5932967  43.4519231  78.1401111  56.2282785
  44.2278819  77.0598861  55.8945242  43.6534184  77.5677470  55.7318896
  51.1347232  82.1356371  47.6701652  51.5740868  81.5273471  48.1156425
  50.9851895  81.7563744  46.8987117  51.1768698  81.9894842  47.6220820
  48.6018876  80.7300382  54.8720478  49.2467878  80.2372826  54.5531426
  48.8420653  80.8725169  55.6986556  48.7329461  80.6777825  54.9470011
  51.1404967  83.5755288  54.5227370  51.4228210  82.7806694  54.3014126
  51.8691127  84.0535876  54.5432431  51.2894531  83.5289885  54.4930385
  49.1186161  71.1178322  51.7643135  48.7889491  71.5689466  51.0946834
  48.4431163  71.0394486  52.3116142  48.9696597  71.1729457  51.7466359
  54.7356569  80.4883552  44.6232421  54.6507864  81.3444519  44.7681990
  55.2240952  80.2127876  45.2914581  54.7945466  80.5740873  44.7434503
  56.3262568  67.1063845  50.0092746  56.0116009  67.7967324  50.4413168
  55.8089510  67.0508627  49.3078247  56.2027039  67.1998734  49.9689695
  55.6675002  77.1068346  46.1230157  55.1386474  77.3227980  46.7827463
  56.1900022  77.8004484  46.0431126  55.6663455  77.2411483  46.2085756
  47.5574610  81.0031563  44.9237624  46.9731825  81.5081594  45.3303488
  47.1544705  80.7773950  44.1834216  47.4113914  81.0439811  44.8742650
  52.0151825  77.2497215  43.4006545  52.2547828  77.4575199  42.5881888
  52.3367665  76.4454724  43.5095490  52.0988982  77.1611316  43.2967098
  47.3242115  69.1790611  47.2466083  48.0788083  69.5468928  47.0083133
  47.1469649  69.5530165  48.0145263  47.4096593  69.2888799  47.3250972
  60.6177013  75.3285051  55.2913622  59.7805435  75.3987238  55.5261217
  60.5865244  75.3309546  54.4187925  60.4895296  75.3395278  55.1973170
  47.0141743  77.4718087  61.0061991  47.1862246  77.3623981  61.8547272
  47.5511100  78.1172492  60.7693183  47.1186746  77.5510088  61.0967088
  45.6799179  71.5860930  43.9444196  45.4974753  71.8032810  43.1185189
  46.5424792  71.6999942  44.0002810  45.7803769  71.6350828  43.8298683
  51.3598899  68.5887340  46.9793220  52.0885059  68.4103295  46.5331376
  51.4493792  69.4305420  47.1900398  51.4805561  68.6871219  46.9446737
  55.3407199  79.5240728  50.8825514  56.0964714  79.9572242  50.9214423
  55.4469524  78.8745497  51.4560150  55.4677370  79.4918212  50.9723539
  41.3203459  80.0650018  55.8414911  41.0541875  79.2489135  56.0005901
  41.3342024  80.1103173  54.9710426  41.2828182  79.9506923  55.7368393
  58.2984853  70.3927833  53.8757345  58.9410762  70.4625937  54.4619260
  58.5507874  69.7257056  53.3736887  58.4306985  70.3054181  53.8884624
  45.2261206  74.8635102  42.4566669  44.5119384  74.5773282  42.8689102
  45.7105175  75.2031728  43.0973057  45.1920570  74.8716752  42.6122304
  46.0702066  73.6028396  58.4881919  45.3773863  73.1325376  58.7342650
  46.6862393  73.3766701  59.0623626  46.0586596  73.4995528  58.6091071
  52.4008524  83.3665056  42.8328477  52.8159673  83.0350080  42.1412973
  51.5700454  83.1333958  42.7048614  52.3396533  83.2836312  42.7119325
  41.7296873  80.8508797  53.1226655  41.5472446  80.8255683  52.2698947
  42.4646542  81.3207735  53.1615564  41.8110937  80.9170159  53.0024574
  57.7996547  81.0860307  50.2659543  58.0352137  81.2305506  49.4386393
  57.9486111  81.8502715  50.6591056  57.8562351  81.2199362  50.2023147
  44.7942625  77.5693800  59.6308764  45.5182597  77.5546831  60.1173659
  44.8958761  78.2789155  59.1330732  44.9160834  77.6718503  59.6287551
  59.6287004  79.9261973  48.1029147  59.9595221  80.4589613  47.4969241
  60.2020092  79.9800861  48.7591098  59.7620683  80.0131542  48.1106928
  54.8418893  77.7726876  48.7852727  54.9365748  78.5116170  49.2392352
  54.2177737  77.3444351  49.2187291  54.7627923  77.8188196  48.9160874
  41.6967783  77.7302298  53.2725722  42.2741286  77.5938749  53.9117967
  40.9981845  77.2738082  53.5271306  41.6788805  77.6424564  53.4048011
  55.0941914  79.6175616  42.0189679  55.0122077  79.6877803  42.8844666
  55.7321635  80.1805360  41.8273419  55.1761752  79.7114587  42.1179628
  48.4535086  79.3836354  51.4864205  48.1954330  78.5508088  51.4595505
  48.5083568  79.6093967  50.6456705  48.4234864  79.2934125  51.3584342
  53.5336136  71.4864804  51.5868298  52.8292463  70.9973990  51.7452217
  53.5821110  71.4987279  50.7156742  53.4366187  71.4154452  51.4807638
  47.4269798  76.9374116  51.9729100  46.8519389  77.0966284  52.6093061
  47.0505474  76.3009525  51.5097550  47.2872610  76.8671929  51.9983658
  51.0943086  75.4097465  56.8321478  50.7057519  74.9851683  56.1773669
  50.4297785  75.6579615  57.3398505  50.9390014  75.3836186  56.8109346
  60.7366356  75.1672470  49.6069308  60.4802920  74.3552411  49.4167191
  61.5795670  75.1750037  49.3799496  60.8232381  75.0484467  49.5454125
  37.1726617  76.5814191  49.9873540  37.2586869  76.2046059  50.7687070
  37.8002414  76.2074636  49.5093499  37.2783168  76.4699673  50.0319018
  54.9169448  69.1072094  54.3445462  55.2979960  68.4250265  54.7313337
  54.1132732  68.8181696  54.1621127  54.8545910  68.9639143  54.3749518
  52.1982025  79.6396070  45.0298285  53.0122664  79.9310963  44.9181057
  52.1341166  78.9855932  44.4556578  52.3084764  79.5861265  44.9287123
  48.0689933  83.1117587  50.1570597  48.7063880  82.8729335  50.7022391
  48.4945005  83.3154746  49.4223758  48.2266099  83.1068598  50.1287755
  48.7092748  78.3319877  44.4945487  49.0937901  78.1127584  45.2462032
  48.4604368  79.1582823  44.6246563  48.7294821  78.4218023  44.6246563
  48.8761288  71.6126292  64.2108071  48.5614729  72.3825855  63.9477634
  48.5551221  71.0496548  63.6260298  48.7820207  71.6436561  64.0849421
  50.4511405  83.5890010  51.8364384  50.5250413  83.4265182  52.6906233
  51.2680911  83.7780200  51.5924865  50.5827764  83.5926752  51.9262409
  46.4293185  70.0016814  49.8254267  45.5615611  70.0739413  49.8911876
  46.7168390  70.8038893  50.0142242  46.3432933  70.1310961  49.8629034
  55.5526074  70.1494673  58.1565589  56.2979666  69.9604484  57.7429014
  55.1363379  70.6752911  57.5979445  55.6011048  70.1996819  58.0130162
  62.9288345  77.5203902  53.1071094  63.4796267  76.8871971  53.3468186
  62.9132460  78.0519294  53.7986598  63.0073541  77.5052850  53.2449952
  49.5810736  81.3542499  57.6530987  49.0822429  82.0658267  57.7315876
  50.3910960  81.6743166  57.6149150  49.6266843  81.5069348  57.6587556
  45.8438853  80.6165452  51.8993708  45.5552102  79.9902923  52.4339436
  46.7122201  80.5585739  51.9658389  45.9299105  80.5152996  51.9884663
  56.6316751  75.7600235  52.2175690  56.2881517  75.0390571  52.5682940
  56.7309794  75.5514087  51.3754048  56.5958794  75.6224439  52.1447370
  46.0471127  82.2560703  47.8236073  46.8017095  82.6373742  48.0371536
  45.4541739  82.7071847  48.2782770  46.0707840  82.3789530  47.9218952
  48.5077794  74.2123543  62.9493286  47.6977570  74.5181323  62.8383128
  48.9852481  74.9329126  63.0645870  48.4581273  74.3638145  62.9500357
  47.3669353  83.4269264  53.1976189  46.8450107  83.5669556  53.8828053
  47.7543374  82.6679929  53.3878306  47.3473054  83.3354788  53.3277265
  44.3560537  73.4775073  47.2671143  44.0685333  73.1076344  46.5303091
  45.0431006  73.9469928  47.0054848  44.4149435  73.4922042  47.1186219
  48.7935679  80.4573283  48.5957680  48.5978462  81.0648018  48.0017983
  49.0170025  79.7641227  48.1149354  48.7970320  80.4450809  48.4373761
  47.1914209  77.3428021  48.7138548  47.9136861  77.5069179  48.2542354
  46.7122202  78.0637686  48.6077888  47.2277940  77.4726251  48.6304162
  55.1507717  73.6791820  54.0935233  54.3118817  73.7053099  53.8573496
  55.2212084  74.3262556  54.6740580  55.0376110  73.7787946  54.1444350
  44.8421826  79.7486094  57.8192688  45.3542923  80.0270347  57.1701448
  44.5558168  80.4875388  58.1855501  44.8756689  79.8988447  57.7782566
  53.5976995  70.5777197  48.8262849  54.3003348  70.3784945  48.3482807
  53.3321184  69.8053140  49.1331692  53.6623627  70.4340163  48.8008291
  59.0265240  78.8859807  51.3796475  58.9399215  79.0415233  52.2331254
  58.5715720  79.5297882  51.0055880  58.9468497  79.0035562  51.4503582
  41.9288732  74.2556286  48.1156425  42.0304868  75.0582447  48.4437400
  42.7244619  74.0543621  47.8179505  42.0616638  74.3442184  48.1191780
  48.3605551  71.8412482  57.8793730  48.1688748  71.8567617  58.7293153
  49.2104147  72.0376157  57.8560384  48.4581273  71.8726834  58.0017024
  42.7452464  74.3703464  55.8577546  42.6037956  73.5187404  55.9822054
  43.0293028  74.4132124  55.0339752  42.7660310  74.2503214  55.7545170
  52.8991057  76.2070554  50.0022034  52.6525771  76.1266305  50.8358823
  53.2276180  75.4224022  49.8084562  52.9112300  76.0796819  50.0969557
  48.8588084  78.9427273  59.4145017  49.0031460  79.5228481  58.7788127
  49.2063732  79.3203569  60.1194872  48.9315545  79.0847977  59.4244012
  51.0308001  78.1417441  57.1970149  50.2831315  78.3348455  56.7918427
  51.1849526  77.3162661  56.9594270  50.9430429  78.0482552  57.1015555
  51.2709778  72.0367992  58.0865553  51.7282392  72.7691966  58.2138345
  51.3466107  71.6134457  58.8452809  51.3500748  72.0825230  58.2166629
  43.5142769  72.2833811  59.1754996  42.9784959  71.6714170  59.4915764
  43.5760534  72.8581947  59.8288663  43.4438402  72.2780739  59.3190423
  55.7437104  65.2157867  51.9559396  55.8620672  65.6734330  51.2226698
  55.5699280  64.4103128  51.6695613  55.7356275  65.1651639  51.8060329
  49.1492156  74.0270096  54.9307377  48.3588231  73.8461556  55.2524713
  49.5452779  73.2497048  54.9137671  49.0909032  73.8857557  54.9759925
  53.6358047  82.8557870  40.3714090  54.4031032  82.9157995  39.9619942
  53.1889356  82.2838311  39.8870409  53.6831474  82.7794446  40.2391801
  54.5335842  81.6612526  52.6566823  53.8580844  81.4297758  53.1580210
  54.5428218  81.0533709  52.0308928  54.4354347  81.5371451  52.6382975
  51.6629986  76.5030355  59.4130876  51.5989128  77.3640311  59.2851012
  51.8027174  76.1862348  58.6126427  51.6745456  76.5830521  59.2759089
  50.3449080  79.1962494  53.5547079  49.9211329  79.3966993  52.8186097
  50.1693935  78.3491342  53.6671378  50.2559961  79.1011276  53.4620769
  45.6331525  79.6914546  48.9875051  45.7896144  79.6261348  49.8431043
  45.9732118  80.4663098  48.7753731  45.7064760  79.7963744  49.0829645
  52.1710670  79.0672429  47.8568414  52.7126215  78.5642810  48.3207035
  52.4857229  79.0137624  47.0457900  52.2975067  78.9851850  47.8052226
  50.3397120  84.4589781  45.1408442  50.4089940  83.6004319  45.2801443
  51.1185575  84.6761661  44.8127467  50.4649970  84.3642645  45.1125600
  53.3199939  73.9608734  57.9090715  53.5341909  73.3219648  57.3554069
  52.7033838  74.4054557  57.4798577  53.2605268  73.9318877  57.7641146
  42.2065787  76.8749496  49.3035818  42.5864752  77.2934041  48.6396086
  41.6321152  77.4562952  49.6104662  42.1777112  77.0227355  49.2512559
  55.4839027  75.5697799  58.8474022  54.6715709  75.2623689  58.9287195
  55.9428962  75.0896799  59.4116734  55.4319412  75.4534291  58.9428616
  54.8944282  83.4477471  49.2950966  54.5358937  83.6192114  50.0714999
  54.4082993  83.9090676  48.7378965  54.7702979  83.5416442  49.3276235
  52.7114668  67.0708669  52.8978058  51.8408226  67.0447390  52.8511367
  52.9655009  66.8985861  52.0803903  52.6208228  67.0418813  52.7698194
  49.6832647  79.1276636  41.8351201  49.9725172  79.9041519  42.1094775
  49.7704446  78.6165368  42.5365700  49.7386904  79.1668555  41.9793698
  49.7363808  69.0814898  54.3551528  49.2202297  68.3895089  54.4803107
  49.1757737  69.7485675  54.3014127  49.5770322  69.0778155  54.3657594
  51.8056042  69.6207858  56.1844381  51.4187795  69.6456889  56.9657910
  51.3188979  69.0549536  55.7318897  51.6768551  69.5403609  56.2332284
  57.7806021  76.1870513  54.8084083  57.3533629  76.0996861  54.0532182
  57.1432074  76.2948288  55.3938927  57.6235629  76.1903173  54.7829524
  51.4713184  66.5074843  58.4754640  52.1006302  67.0435143  58.1975711
  51.6399046  66.4152202  59.3268206  51.5890978  66.5736205  58.5603169
  51.2727098  71.2946038  60.7481052  52.1000528  71.0231187  60.8039667
  51.2934944  72.0906880  61.1044870  51.3979948  71.3725792  60.8096235
  45.8496588  78.4409901  53.9351313  45.0084595  78.3413775  54.1430207
  46.0586596  79.2105381  54.2865633  45.7561281  78.5401944  54.0178628
  43.3272155  76.0629438  51.7636063  42.9328853  76.1372449  50.9886173
  42.7712272  76.4487384  52.3144425  43.1874968  76.1311212  51.7303723
  54.9637102  69.0410732  51.4439942  55.1686695  68.9733040  52.2896939
  54.6363526  69.8469553  51.3761120  54.9452350  69.1496672  51.5599597
  49.6613253  76.3691300  53.1848910  49.3576391  75.8147288  53.7859318
  48.9592674  76.5483510  52.6976944  49.5129463  76.3136082  53.2018616
  48.7179350  73.6791820  47.7493612  48.9939085  72.9610732  47.3371180
  49.3178020  74.2776740  47.5414718  48.8472615  73.6612190  47.6574373
  58.2170790  69.5942496  50.9242708  57.6045103  70.0812898  51.3096440
  58.3134965  68.9185987  51.4680359  58.1408687  69.5660805  51.0621566
  52.2189871  71.3505337  46.0240207  52.6733617  71.5215897  46.7488052
  52.6929916  70.7373448  45.6237983  52.3558191  71.2856222  46.0713969
  45.7405396  80.8353663  55.3542946  45.1493329  81.4763161  55.3245961
  46.5026420  81.2591280  55.3274245  45.7653657  80.9929501  55.3458093
  46.1366019  71.9955661  56.0210963  46.5967500  72.0694590  56.7586087
  46.1822126  72.7936915  55.6710785  46.2116574  72.1249808  56.0783720
  47.7849369  72.6622356  60.5882990  47.3934934  72.0155703  61.0238768
  47.9535231  73.2533791  61.2077246  47.7520279  72.6536624  60.7445696
  49.5602891  78.0547871  47.1285214  50.3044936  78.4422148  47.3668164
  49.7063587  77.2105297  47.2925702  49.6913476  77.9878344  47.1879184
  51.4782466  69.8498130  52.1617076  50.6318511  70.0220938  52.0358426
  51.4753599  69.0447474  52.4982904  51.3529616  69.7559159  52.1928203
  52.5480767  73.6273345  53.0279134  52.0740721  73.1015107  53.5384445
  52.9198902  73.0802818  52.4593995  52.5330656  73.4689341  53.0194281
  42.9253797  75.6244851  58.3962679  43.7879410  75.5240561  58.3100009
  42.5945580  75.0439561  57.8348252  43.0038993  75.5236478  58.3008085
  58.8117497  78.6875720  54.4385914  58.5715720  77.8482136  54.4428341
  59.2909504  78.7675887  55.1626688  58.8469681  78.5757120  54.5460717
  54.4764266  74.5209899  46.0904887  53.9487285  74.6038643  45.4010596
  54.9359974  75.2627771  46.0869532  54.4666117  74.6430562  45.9879583
  60.8122684  75.4677178  52.3915173  60.5732454  75.4273012  51.5535958
  60.9756585  76.3148330  52.5180894  60.8012988  75.5869263  52.2868655
  46.2855583  74.4487300  55.0573098  45.6608653  74.4605692  54.4499050
  45.9501178  74.9247476  55.7064338  46.1441075  74.5205817  55.0629666
  46.4697331  72.7912419  41.1145783  46.1210136  73.4432144  41.5777332
  45.9893777  72.7769532  40.3869654  46.3467575  72.8855472  41.0756874
  54.0301349  83.0913463  45.2214545  54.7535548  83.5571576  45.0779118
  53.5901940  83.1587073  44.4712142  54.0717041  83.1697300  45.0899326
  53.1987504  79.9511005  56.4715234  52.5844497  79.4069055  56.7663869
  53.7154789  79.4375242  55.9921050  53.1843166  79.7947414  56.4439462
  52.4383801  81.0215275  54.2059532  52.0111409  80.3964994  53.7724968
  52.4308745  80.7390197  55.0318539  52.3742942  80.8868056  54.2639360
  45.5546328  76.0580448  57.2747966  45.7139815  75.3023772  57.6799688
  45.3739222  76.6071388  57.9288704  45.5511687  76.0274262  57.4310672
  53.4966631  68.2241684  57.8298756  53.0007192  68.4205358  57.1390322
  54.2535693  68.6234352  57.6587557  53.5353456  68.3119418  57.7018892
  50.7669511  71.8984030  54.4202066  50.7911998  71.3644142  53.7314846
  51.0180984  71.3901339  55.0827657  50.8079429  71.7444934  54.4166711
  38.2777100  79.1815525  53.8545210  38.1720550  79.1362369  52.9897294
  37.5277320  79.5269305  54.1359495  38.1512703  79.2256433  53.7682540
  47.0470833  70.6254848  53.8007810  47.0869204  71.1264055  54.5142518
  46.2220498  70.7165242  53.5313734  46.9310359  70.7136664  53.8658349
  48.4685196  77.1415358  56.0981709  47.6377126  77.3089176  55.8916958
  48.4136713  76.7651309  56.8830595  48.3374611  77.1105089  56.1830238
  46.2768980  70.6324251  61.7338120  46.9021683  70.0886383  62.0067552
  45.8219459  70.1519168  61.1645911  46.3017240  70.4813732  61.6899714
  46.8421240  75.4170949  46.6271827  46.9824201  75.9143414  47.3300469
  47.3403773  74.7157244  46.7686041  46.9362321  75.3872928  46.7523406
  46.8721462  76.2838060  43.9564404  47.5066542  76.8798485  43.8913866
  46.9547073  75.9841518  44.7710274  46.9778013  76.3278969  44.0667491
  48.4500445  72.2152036  43.9309846  48.7716286  71.7355118  43.2769108
  48.7127389  73.0251682  43.7400658  48.5366471  72.2641934  43.8065338
  53.8459600  71.6024230  56.2933325  54.2714672  71.1496756  55.6816851
  53.2316593  71.0484300  56.5698113  53.8188246  71.4538206  56.2438350
  43.3774450  78.4805901  47.2253950  43.8866680  79.0770409  47.6065256
  43.8508723  78.2131875  46.5430370  43.5217826  78.5291717  47.1808473
  52.2853823  68.0739330  49.7023902  51.6422141  67.9236976  50.2709041
  51.9453230  67.8281675  48.9373007  52.1398900  68.0151452  49.6726917
  56.8753170  76.0298756  49.1253911  56.2044360  76.5728459  48.9966976
  57.5692920  76.4993612  48.8835605  56.8782037  76.1797028  49.0709438
  57.0381297  72.4854640  52.0344284  57.3908907  72.0584363  52.7090083
  56.1796099  72.4005484  52.1645360  56.9630742  72.4099381  52.1539294
  45.7364982  75.1162160  50.0927130  45.0176971  75.5326292  50.3599994
  46.1077344  75.6816398  49.5418769  45.6856914  75.2611441  50.0509937
  55.0364563  75.7490009  55.9829126  55.0162490  75.5673304  56.8363905
  55.0843764  76.6202027  55.9588710  55.0399204  75.8506547  56.1052421
  51.5111556  74.1560160  45.4300510  50.9176396  74.4777156  44.8785077
  51.5486834  73.3101255  45.2221616  51.4285946  74.0784488  45.3183281
  58.4705357  67.6073052  52.9628596  57.9636222  66.9002191  52.8949774
  59.2672791  67.2766241  53.0929673  58.5132596  67.4546203  52.9727591
  54.3869373  74.1139664  48.8602260  54.1583066  74.1372366  48.0180618
  54.6467449  73.2897131  48.9797271  54.3915561  73.9955744  48.7527458
  48.6688601  75.9674137  58.4627360  48.1567505  75.3595320  58.8212392
  48.4968098  76.6830730  58.9301336  48.5678238  75.9837436  58.5843584
  43.5154316  74.4111712  61.1129722  43.3456906  75.0713087  60.5677929
  43.0720266  74.6218274  61.8342211  43.4253650  74.5397695  61.1391352
  47.4414136  72.6516210  50.1556456  47.9171502  73.0133290  49.5206637
  46.9402735  73.3072678  50.4356599  47.4379495  72.8010399  50.1033197
  52.5457672  73.8898382  60.9029616  53.1029102  73.6612191  60.2708081
  52.2218737  74.6504047  60.6264828  52.5804082  73.9682218  60.7686113
  40.4156381  77.3158578  56.3718212  39.8683100  76.6459224  56.4899080
  41.2048759  76.9488426  56.4361679  40.4508564  77.1623564  56.3986913
  49.4840789  74.7957410  43.5229840  49.8639754  74.8137039  42.7380955
  48.7433385  75.2411399  43.4020687  49.4309626  74.8639185  43.3893408
  57.1126079  73.1039601  49.1105418  57.1120306  72.9488258  49.9689695
  56.9082259  73.9502588  49.0546804  57.0825857  73.2060222  49.2293358
  39.1743350  76.5279386  53.5264235  38.9965111  76.0755995  54.2519151
  38.8862372  77.3305547  53.7102713  39.1056303  76.5801944  53.6607738
  54.8366931  77.7837103  52.7641625  55.3320597  77.0660098  52.7245646
  54.0266707  77.4807901  52.6496112  54.7910825  77.6334749  52.7415351
  50.2825543  81.6334916  44.9138630  49.4736866  81.3101590  44.8671939
  50.7900452  80.9268139  44.8466878  50.2375210  81.4816233  44.8968924
  40.9115820  79.0607110  50.6385994  40.0461340  79.0492800  50.5268765
  41.0114636  78.8737332  51.4857133  40.7989987  79.0313171  50.7474938
  56.9018750  80.5340791  55.4518754  57.3273822  80.0115213  54.8989179
  56.5375670  81.1321628  54.9307377  56.9105353  80.5451018  55.2927764
  53.4897350  84.2475055  51.7819912  53.9608528  84.9615318  51.9509897
  53.8257528  83.6473805  52.3179781  53.6092465  84.2646519  51.8852287
  50.4066845  69.0202526  58.7378006  50.5394750  68.2233519  59.0658982
  50.7911997  69.5468929  59.3176282  50.4823173  68.9802442  58.8721509
  53.4799200  65.9432852  55.3359100  52.6745163  65.8330581  55.6526938
  53.3505935  66.0445307  54.4788965  53.3419333  65.9416522  55.2567140
  56.9365160  72.1078344  55.9298796  56.3528149  72.6087550  55.5176364
  57.2569454  71.6007900  55.2963120  56.8978336  72.1070179  55.7757304
  49.4759959  71.0218938  46.2057471  50.2975654  71.1917251  45.9639166
  49.0129610  71.1766199  45.4823769  49.5291122  71.0700671  46.0629116
  48.0655291  69.0161701  56.9855900  48.6099704  68.6752827  57.5760242
  48.1192227  69.8747162  57.1277185  48.1544411  69.0916960  57.0937773
  25.9663762   7.5645813  34.9739869  25.9357767   8.4190450  35.1458138
  26.5645111   7.2641106  35.5326012  26.0500920   7.6462309  35.0814671
  19.1663447   6.6521464  39.7292799  18.3101343   6.8129962  39.7801916
  19.2131101   5.7813528  39.7497860  19.0462559   6.5472266  39.7398865
  13.5504587  16.1884182  35.4930031  12.7987486  15.8099720  35.2646076
  13.9990598  16.2202615  34.7448841  13.5054254  16.1369789  35.3487533
  22.4757164  12.9207990  49.3353255  23.1823931  12.4260020  49.4640190
  22.6645099  13.3617071  48.6055913  22.6085069  12.9126340  49.2462301
  19.0029547  16.6109551  30.9215578  18.6680915  17.2886473  30.4859800
  19.5156417  16.2214863  30.3332449  19.0295128  16.6534130  30.7702369
  18.5433838  18.5623820  36.8626689  18.9273217  19.1310719  36.3231464
  18.4792979  17.8373330  36.3832505  18.5907265  18.5399283  36.7120552
  22.0115268   8.7113508  42.3724451  22.5571228   9.3898594  42.4318420
  21.9532144   8.5700969  41.5126032  22.0831182   8.7905510  42.2536511
  15.1289343  16.2002574  37.7592803  15.2299706  15.3902928  38.0689931
  14.5331088  16.1059520  37.1292482  15.0561882  16.0667602  37.7119041
  23.7880337  10.1398115  33.2458178  23.6719863  10.8905801  33.6750316
  24.5836223   9.8822068  33.4954265  23.8884926  10.2132962  33.3462270
   8.3254387  12.2222861  37.3845137   8.0904572  11.3890513  37.2777405
   8.4640028  12.5027526  36.5706338   8.3110050  12.1406364  37.2487492
  15.6710662  14.1292138  34.5327521  15.9926503  14.6697345  33.9288829
  16.3182759  13.5588909  34.6649811  15.8136717  14.1251313  34.4634556
  17.7212370   6.1308133  34.6161908  18.4192535   6.3096260  35.1083371
  18.0364703   5.6078472  33.9932297  17.8707708   6.0801905  34.5963918
  10.3513608   7.9360873  42.5273013  10.2272305   8.5223318  43.1622832
  11.0031892   7.4421069  42.8285288  10.4287257   7.9499677  42.6658943
  17.9100306  12.5178578  34.6041699  18.3493941  11.9095678  35.0496472
  17.7604969  12.1385951  33.8327164  17.9521771  12.3717049  34.5560866
  15.3771949  11.1122590  41.8060524  16.0220951  10.6195033  41.4871473
  15.6173726  11.2547376  42.6326603  15.5082534  11.0600032  41.8810058
  17.9158040  13.9577496  41.4567417  18.1981283  13.1628901  41.2354173
  18.6444200  14.4358083  41.4772478  18.0647604  13.9112093  41.4270432
  21.5109642  10.8705759  31.5572468  21.4260937  11.7266726  31.7022037
  21.9994026  10.5950083  32.2254627  21.5698540  10.9563081  31.6774550
  23.1015642  -2.5113948  36.9432793  22.7869083  -1.8210469  37.3753215
  22.5842583  -2.5669165  36.2418293  22.9780112  -2.4179059  36.9029742
  22.4428075   7.4890553  33.0570203  21.9139547   7.7050187  33.7167510
  22.9653095   8.1826692  32.9771173  22.4416528   7.6233690  33.1425803
  14.3327683  11.3853770  31.8577671  13.7484899  11.8903802  32.2643535
  13.9297778  11.1596157  31.1174263  14.1866987  11.4262018  31.8082697
   9.8871712  17.1008531  38.6601343   9.4039290  17.8259021  38.6360926
  10.6995030  17.3984661  38.7711501   9.9362460  17.2510885  38.6728622
  15.9585866  15.8940712  41.2651157  15.4412808  15.5348127  40.6612465
  16.6560257  15.3702886  41.2757223  15.9851447  15.7638400  41.1781416
  19.6149458  16.3435526  47.2267330  19.7032804  16.1561667  48.0745541
  20.0439170  15.6972956  46.8272177  19.6911560  16.2198534  47.2939082
  17.1819918  15.6266686  46.2084993  16.6190753  15.2139296  46.7324654
  17.9440941  15.5519592  46.6278136  17.2114366  15.5544087  46.3477993
  18.7904898   7.6319422  30.3346592  19.0300901   7.8397406  29.5221935
  19.1120739   6.8276931  30.4435536  18.8742056   7.5433523  30.2307145
  12.7415909  17.6164707  38.8121623  13.4436488  17.1016696  38.8694379
  12.6613392  17.9438859  39.6168498  12.8339670  17.5878933  38.9394415
  27.3930087   5.7107259  42.2253669  26.5558508   5.7809446  42.4601264
  27.3618318   5.7131753  41.3527971  27.2648369   5.7217486  42.1313217
  13.7894816   7.8540294  47.9402038  13.9615319   7.7446189  48.7887319
  14.3264173   8.4994700  47.7033230  13.8939820   7.9332296  48.0307134
  12.0666685  13.8071059  38.3207231  12.9055584  14.0393992  38.3680992
  12.0978454  12.9375371  38.2514266  12.1948402  13.7128006  38.3171875
  12.6919388  14.2271934  42.6220536  13.2317613  14.0843065  43.2923909
  12.0089334  14.6268685  42.9904562  12.6711542  14.2651605  42.7754958
  22.1160273   9.9062935  37.8165561  22.8717788  10.3394449  37.8554469
  22.2222597   9.2567705  38.3900197  22.2430443   9.8740419  37.9063586
  19.7269517  15.7744545  49.8911114  20.5109934  15.8875393  50.2566856
  19.5266112  14.9485682  50.0869800  19.8135543  15.6691265  49.9745500
   8.0956533  10.4472225  42.7754958   7.8294948   9.6311342  42.9345948
   8.1095097  10.4925381  41.9050473   8.0581255  10.3329130  42.6708440
  25.0737927   0.7750040  40.8097392  25.7163835   0.8448145  41.3959307
  25.3260947   0.1079263  40.3076933  25.2060059   0.6876389  40.8224671
  12.0014280   5.2457310  29.3906716  11.2872457   4.9595489  29.8029148
  12.4858248   5.5853935  30.0313103  11.9673643   5.2538959  29.5462351
  19.8839911  17.6854647  43.5377570  19.0855156  17.4454147  43.7951438
  20.3325922  17.7369040  44.2844617  19.8314522  17.6577038  43.6862494
  28.2884790  10.4517132  37.4587601  28.9501224   9.8907801  37.3583509
  27.6476202   9.9569163  37.7840292  28.2913657  10.2953541  37.4919941
  19.1761598  13.7487264  29.7668524  19.5912746  13.4172287  29.0753020
  18.3453527  13.5156166  29.6388661  19.1149606  13.6658520  29.6459371
   8.5049946  11.2331005  40.0566702   8.3225520  11.2077891  39.2038994
   9.2399615  11.7029942  40.0955611   8.5864010  11.2992367  39.9364621
  24.5749621  11.4682515  37.1999590  24.8105210  11.6127713  36.3726440
  24.7239184  12.2324923  37.5931103  24.6315424  11.6021569  37.1363193
  11.5695698   7.9516007  46.5648811  12.2935670   7.9369038  47.0513705
  11.6711835   8.6611363  46.0670779  11.6913907   8.0540711  46.5627597
  26.4040077  10.3084181  35.0369193  26.7348294  10.8411821  34.4309288
  26.9773165  10.3623068  35.6931144  26.5373756  10.3953749  35.0446975
  18.9440647  11.4315092  51.4297758  18.1513628  11.7458604  51.6150377
  19.0589575  11.6466561  50.5918542  18.8436058  11.5098929  51.3336092
  21.6171966   8.1549083  35.7192774  21.7118821   8.8938377  36.1732399
  20.9930810   7.7266559  36.1527338  21.5380997   8.2010404  35.8500921
  19.8724440  11.3335296  46.3683054  20.4463302  10.6962540  46.5231618
  19.7939244  11.3339378  45.4992712  19.9457675  11.2400407  46.2629465
   8.4720857   8.1124505  40.2065769   9.0494359   7.9760956  40.8458014
   7.7734918   7.6560289  40.4611353   8.4541878   8.0246772  40.3388058
  21.8694988   9.9997823  28.9529726  21.7875150  10.0700010  29.8184713
  22.5074708  10.5627567  28.7613466  21.9514825  10.0936794  29.0519675
  15.2288159   9.7658561  38.4204252  14.9707403   8.9330296  38.3935551
  15.2836642   9.9916174  37.5796752  15.1987937   9.6756332  38.2924389
  20.3089209   1.8687012  38.5208344  19.6045536   1.3796197  38.6792264
  20.3574183   1.8809486  37.6496789  20.2119261   1.7976660  38.4147684
  14.2022871   7.3196323  38.9069147  13.6272462   7.4788492  39.5433108
  13.8258547   6.6831733  38.4437597  14.0625683   7.2494136  38.9323705
  17.8696160   5.7919673  43.7661525  17.4810592   5.3673890  43.1113716
  17.2050858   6.0401822  44.2738552  17.7143087   5.7658394  43.7449393
  27.5119429   5.5494677  36.5409355  27.2555994   4.7374619  36.3507238
  28.3548743   5.5572245  36.3139542  27.5985454   5.4306675  36.4794172
  21.6922521  -0.5105699  41.2785509  22.0733033  -1.1927527  41.6653383
  20.8885805  -0.7996096  41.0961174  21.6298983  -0.6538650  41.3089565
  18.9735098  10.0218277  31.9638332  19.7875737  10.3133170  31.8521103
  18.9094239   9.3678140  31.3896625  19.0837837   9.9683472  31.8627169
  25.1944588  12.7044273  46.3767908  24.9583225  11.8732338  46.2579968
  25.8387817  12.6529881  46.9622752  25.2539259  12.5741961  46.4453801
  14.8443006  13.4939795  37.0910644  15.4816953  13.2551542  37.6362437
  15.2698078  13.6976954  36.3563805  15.0019172  13.4890805  37.0627801
   9.5355649  15.7328131  40.9744948   9.5759794  16.0042982  40.1464727
  10.0950173  16.2570039  41.3902736   9.6238994  15.8503886  40.9136836
  15.4845821   8.7142085  31.4285533  15.8690974   8.4949791  32.1802079
  15.2357442   9.5405030  31.5586610  15.5047894   8.8040231  31.5586610
  26.2181009  12.4888722  42.4396202  25.9126826  13.2216779  42.8009518
  25.4987224  12.0826652  42.1588988  26.0668351  12.5370455  42.4509339
  17.2264478  13.9712217  38.7704430  17.3003486  13.8087389  39.6246280
  18.0433984  14.1602407  38.5264912  17.3580837  13.9748960  38.8602456
  31.9182801   9.1281723  41.7664546  31.8507301   9.1477682  40.8967133
  31.9038463   9.9712050  41.9920217  31.9061557   9.2555458  41.6717023
  10.9870235  14.3170080  35.7998874  10.1608352  14.5631817  35.6733153
  11.0482226  14.2382161  36.6660932  10.8744402  14.3415029  35.9087818
  22.3279147   0.5316881  45.0905636  23.0732739   0.3426691  44.6769061
  21.9116452   1.0575119  44.5319492  22.3764122   0.5819026  44.9470209
  15.7669064  16.9346960  33.5017904  16.0567362  16.5435942  32.7777130
  16.4972545  17.1163665  33.9423179  15.9175948  16.9040774  33.4600711
  16.3563809  11.7364706  44.5871034  15.8575503  12.4480474  44.6655923
  17.1664033  12.0565373  44.5489197  16.4019916  11.8891555  44.5927603
  13.7074979  18.9114343  36.5678053  13.4875275  18.6211698  37.3604720
  13.4869501  18.2529298  36.0395966  13.6422574  18.7714051  36.6066962
  12.6191927  10.9987659  38.8333755  12.3305175  10.3725131  39.3679482
  13.4875275  10.9407947  38.8998436  12.7052179  10.8975204  38.9224710
  23.4069824   6.1422443  39.1515737  23.0634590   5.4212778  39.5022987
  23.5062867   5.9336294  38.3094095  23.3711867   6.0046646  39.0787417
  15.8742935  20.2843733  35.3508746  16.5266993  19.7520175  35.5799772
  15.1768544  19.9312385  35.7376620  15.8673653  20.1533256  35.4420914
  12.8224200  12.6382910  34.7576120  13.5770168  13.0195949  34.9711583
  12.2294813  13.0894054  35.2122817  12.8460914  12.7611738  34.8558999
  23.8682853  12.6048147  34.6939725  24.4340886  13.2641357  34.6098268
  23.2210757  12.9497845  35.1656127  23.8561610  12.7530088  34.7512482
  15.2830867   4.5945751  49.8833333  14.4730643   4.9003530  49.7723175
  15.7605554   5.3151333  49.9985917  15.2334346   4.7460352  49.8840404
  14.1422427  13.8091472  40.1316236  13.6203180  13.9491763  40.8168100
  14.5296447  13.0502136  40.3218353  14.1226128  13.7176996  40.2617312
  20.3389432  15.5486931  34.1176804  20.0976107  14.8154792  33.7103869
  20.5190764  16.0973788  33.4643138  20.3297056  15.5209322  33.9607027
  15.5688752  10.8395491  35.5297727  15.3731535  11.4470225  34.9358030
  15.7923098  10.1463435  35.0489401  15.5723393  10.8273016  35.3713807
  13.9667282   7.7250229  35.6478595  14.6889934   7.8891387  35.1882401
  13.4875275   8.4459894  35.5417935  14.0031013   7.8548458  35.5644209
  21.9260790   4.0614028  41.0275280  21.0871890   4.0875306  40.7913543
  21.9965157   4.7084763  41.6080627  21.8129183   4.1610153  41.0784397
  11.6174899  10.1308301  44.7532735  12.1295996  10.4092554  44.1041495
  11.3311242  10.8697595  45.1195548  11.6509762  10.2810655  44.7122613
  20.3730068   0.9599405  35.7602896  21.0756421   0.7607153  35.2822854
  20.1074257   0.1875347  36.0671739  20.4376700   0.8162371  35.7348337
  25.8018314   9.2682014  38.3136522  25.7152288   9.4237440  39.1671300
  25.3468794   9.9120090  37.9395927  25.7221570   9.3857769  38.3843628
  15.1358624   2.2234690  44.8133776  14.9441821   2.2389824  45.6633200
  15.9857220   2.4198364  44.7900431  15.2334346   2.2549041  44.9357071
  19.6744130   6.5892761  36.9362081  19.4278844   6.5088512  37.7698870
  20.0029253   5.8046229  36.7424609  19.6865373   6.4619027  37.0309604
  23.5692179  13.2976121  40.7248862  23.4306538  13.9957167  41.2297605
  22.7892176  13.1424777  40.3685044  23.4335405  13.3776287  40.7475137
  21.9070264   9.5972496  46.9771244  21.9018302   8.7252313  46.9813671
  22.6131258   9.7960665  46.5040700  22.0115268   9.4976370  46.9078279
  15.6341157   9.3249480  46.3485064  15.7784533   9.9050688  45.7128174
  15.9816806   9.7025777  47.0534919  15.7068618   9.4670184  46.3584059
  17.8061074   8.5239648  44.1310196  17.0584388   8.7170663  43.7258474
  17.9602600   7.6984868  43.8934317  17.7183502   8.4304760  44.0355602
  14.7068912  17.5152252  43.2146091  14.8558476  16.9555168  42.5619496
  15.4868914  17.5944253  43.5978610  14.8443006  17.4437817  43.1743040
  17.2322213  17.6866895  44.4930582  17.1565884  17.0175705  45.0481370
  17.1612072  18.3884683  45.0071248  17.2102819  17.6911802  44.6507430
  18.0462851   2.4190199  45.0205600  18.5035465   3.1514173  45.1478392
  18.1219180   1.9956664  45.7792855  18.1253821   2.4647437  45.1506676
  17.8892460  16.2067894  35.3254188  18.6542351  15.9377537  35.0036852
  17.7870549  15.7217904  36.0424251  17.9873955  16.0957458  35.3834015
  15.9245229   4.4092303  41.8647424  15.1341304   4.2283763  42.1864759
  16.3205852   3.6319256  41.8477718  15.8662105   4.2679764  41.9099972
  20.4111120  13.2380077  27.3054137  21.1784105  13.2980202  26.8959989
  19.9642429  12.6660519  26.8210456  20.4584547  13.1616653  27.1731848
  21.3088916  12.0434733  39.5906870  20.6333917  11.8119965  40.0920257
  21.3181292  11.4355916  38.9648975  21.2107420  11.9193658  39.5723022
  18.4383060   6.8852562  46.3470923  18.3742201   7.7462519  46.2191059
  18.5780247   6.5684555  45.5466474  18.4498530   6.9652729  46.2099135
  23.3105650  14.8999866  31.8217047  23.3925488  15.7066852  31.4978498
  23.7955392  14.9195825  32.5457821  23.3942808  15.0220528  31.8803946
  17.1202153   9.5784701  40.4887125  16.6964403   9.7789201  39.7526144
  16.9447009   8.7313549  40.6011425  17.0313034   9.4833483  40.3960816
  16.6213847  21.0935214  42.9508583  17.1109777  20.3946004  42.7684247
  16.0498079  20.7959084  43.5384640  16.6098377  20.9461438  43.0109623
  12.4084598  10.0736753  35.9215098  12.5649218  10.0083556  36.7771090
  12.7485192  10.8485305  35.7093778  12.4817833  10.1785951  36.0169692
  22.8180850  13.6597284  51.9035373  23.6315716  13.3882433  52.0640506
  22.6575817  13.3604824  51.0995569  22.9150799  13.5752210  51.8080779
  17.1150193  14.8411988  32.0748489  17.1843013  13.9826526  32.2141490
  17.8938648  15.0583869  31.7467514  17.2403043  14.7464852  32.0465646
  20.0953012   4.3430941  44.8430762  20.3094982   3.7041855  44.2894116
  19.4786912   4.7876765  44.4138623  20.0358342   4.3141085  44.6981193
  21.5057680  17.2649689  36.2884982  21.1137472  16.9616404  35.5707849
  21.6610753  18.1018779  36.0989936  21.4711270  17.3433526  36.1541480
   8.9818860   7.2571703  36.2375865   9.3617825   7.6756248  35.5736132
   8.4074225   7.8385159  36.5444708   8.9530185   7.4049562  36.1852606
  22.2592100   5.9520006  45.7814069  21.4468782   5.6445897  45.8627241
  22.7182035   5.4719006  46.3456781  22.2072485   5.8356499  45.8768663
  21.6697355  13.8299678  36.2291013  21.3112010  14.0014321  37.0055045
  21.1836066  14.2912884  35.6719012  21.5456052  13.9238649  36.2616282
  16.4585720   9.5098844  28.7691247  16.7478245  10.2863726  29.0434822
  16.5457519   8.9987575  29.4705747  16.5139977   9.5490762  28.9133745
  19.3545608   7.3580078  50.5642771  19.8245239   7.9822194  50.9510645
  19.4007488   6.6897053  51.1235986  19.4313484   7.3514758  50.7042842
  22.8302094  14.7203574  47.1758214  23.4681815  14.2263770  46.8420670
  22.1876186  14.6480975  46.5910441  22.8296321  14.6362583  47.0400569
  24.5559095   6.5692720  41.7424130  24.1286703   6.4819069  40.9872229
  23.9185147   6.6770496  42.3278974  24.3988702   6.5725380  41.7169571
  18.0480172   1.6768245  47.6821099  18.8753601   1.4053394  47.7379713
  18.0688018   2.4729087  48.0384917  18.1733022   1.7548000  47.7436282
  22.8856351  15.4123382  43.8163571  23.6748729  15.0612447  43.9365652
  23.0599949  16.2259771  43.5540204  23.0276633  15.4809240  43.7951439
  12.6249661   8.8232108  40.8691360  11.7837668   8.7235982  41.0770253
  12.8339669   9.5927588  41.2205680  12.5314354   8.9224151  40.9518674
  10.1025228   6.4451645  38.6976110   9.7081926   6.5194657  37.9226220
   9.5465345   6.8309591  39.2484472   9.9628041   6.5133420  38.6643770
  21.7390175  -0.5767061  38.3779989  21.9439769  -0.6444753  39.2236986
  21.4116599   0.2291760  38.3101167  21.7205423  -0.4681120  38.4939644
  16.4366326   6.7513507  40.1188957  16.1329464   6.1969496  40.7199365
  15.7345747   6.9305717  39.6316991  16.2882536   6.6958290  40.1358663
  15.4932423   4.0614027  34.6833659  15.7692158   3.3432940  34.2711226
  16.0931093   4.6598947  34.4754765  15.6225688   4.0434398  34.5914420
  14.4984677  13.9663228  44.8261055  14.3905032  13.9765290  45.6923113
  14.7080459  14.7918008  44.6366009  14.5134788  14.0904303  44.9265146
  24.9923863  -0.0235297  37.8582755  24.3798177   0.4635105  38.2436486
  25.0888038  -0.6991806  38.4020406  24.9161761  -0.0516988  37.9961613
  18.9942944   1.7327544  32.9580254  19.4486690   1.9038105  33.6828098
  19.4682990   1.1195655  32.5578030  19.1311264   1.6678430  33.0054015
  12.5158469  11.2175870  42.2882992  11.9246403  11.8585369  42.2586007
  13.2779493  11.6413488  42.2614292  12.5406730  11.3751709  42.2798140
  14.5602442   3.0444563  47.5223037  14.1688007   2.3977910  47.9578815
  14.7288305   3.6355998  48.1417292  14.5273352   3.0358831  47.6785743
  22.2747986  16.6685182  39.7215017  22.0767674  17.1575996  39.0271228
  21.6535697  16.8726423  40.2999150  22.1535550  16.7701720  39.7038240
  16.3355964   8.4370079  34.0625261  17.0798009   8.8244355  34.3008211
  16.4816660   7.5927504  34.2265749  16.4666549   8.3700552  34.1219231
  19.3233840   4.0095552  39.9619180  18.8493794   3.4837314  40.4724491
  19.6951976   3.4625025  39.3934042  19.3083729   3.8511549  39.9534328
  25.5870570   9.0697928  41.3725961  25.3468793   8.2304343  41.3768387
  26.0662578   9.1498095  42.0966734  25.6222754   8.9579327  41.4800763
  21.2517339   4.9032107  33.0244934  20.7240358   4.9860851  32.3350643
  21.7113048   5.6449978  33.0209579  21.2419190   5.0252769  32.9219629
  27.5875757   5.8499385  39.3255220  27.3485527   5.8095219  38.4876005
  27.7509659   6.6970537  39.4520941  27.5766061   5.9691470  39.2208702
  24.1921787  10.2349334  45.2560265  24.9155986   9.7821861  45.0771285
  23.9271750  10.5154000  44.4732593  24.2603061  10.2100303  45.1138981
  13.0608656   4.8309508  41.9913144  12.4361726   4.8427900  41.3839097
  12.7254251   5.3069683  42.6404385  12.9194148   4.9028025  41.9969713
   9.7734331  12.8909968  43.4316909   9.2434256  12.2002407  43.4811883
  10.0459425  12.8820153  42.6029617   9.7359054  12.7877100  43.3164325
  20.8054422  13.4735670  32.1554591  21.5288621  13.9393783  32.0119165
  20.3655013  13.5409280  31.4052188  20.8470114  13.5519507  32.0239373
  19.9740577  10.3333213  43.4055280  19.3597570   9.7891263  43.7003916
  20.4907862   9.8197449  42.9261096  19.9596239  10.1769622  43.3779509
  19.2136874  11.4037483  41.1399579  18.7864482  10.7787201  40.7065014
  19.2061819  11.1212404  41.9658586  19.1496015  11.2690263  41.1979406
  12.3299401   6.4402656  44.2088013  12.4892888   5.6845980  44.6139735
  12.1492295   6.9893595  44.8628751  12.3264760   6.4096469  44.3650719
  20.2719704  -1.3936109  44.7638802  19.7760266  -1.1972435  44.0730369
  21.0288766  -0.9943441  44.5927604  20.3106529  -1.3058375  44.6358939
  17.5422584   2.2806237  41.3542113  17.5665071   1.7466349  40.6654893
  17.7934057   1.7723546  42.0167704  17.5832503   2.1267141  41.3506758
   5.0530174   9.5637732  40.7885257   4.9473623   9.5184576  39.9237341
   4.3030394   9.9091513  41.0699542   4.9265777   9.6078640  40.7022587
  16.0053519  10.5737795  48.8368152  15.1549150  10.7109510  48.9725797
  16.1681647   9.8401574  49.2815854  15.9037382  10.4851897  48.9223751
  15.2438269   7.5237565  43.0321756  14.4130199   7.6911383  42.8257004
  15.1889787   7.1473516  43.8170642  15.1127684   7.4927296  43.1170284
  13.6174313   5.7993157  33.5611874  13.7577274   6.2965621  34.2640515
  14.1156846   5.0979451  33.7026088  13.7115394   5.7695135  33.6863453
  13.6474536   6.6660268  30.8904451  14.2819615   7.2620693  30.8253913
  13.7300146   6.3663725  31.7050321  13.7531087   6.7101176  31.0007537
  26.6257101   9.1975745  43.7590815  27.2174942   9.8372996  43.7909013
  27.0616096   8.4998782  44.0482882  26.7775533   9.1894095  43.8071648
  15.2253519   2.5974243  30.8649893  15.5469360   2.1177326  30.2109155
  15.4880462   3.4073889  30.6740704  15.3119544   2.6464141  30.7405385
  18.4550491  13.6193117  44.3848709  17.9475582  14.1728964  44.8289339
  18.1577138  13.6801407  43.5667483  18.3355376  13.7099429  44.3297166
  20.6212674   1.9846437  43.2273372  21.0467745   1.5318964  42.6156898
  20.0069667   1.4306508  43.5038159  20.5941319   1.8360413  43.1778397
  10.1527524   8.8628108  34.1593997  10.6619753   9.4592616  34.5405302
  10.6261796   8.5954082  33.4770416  10.2970899   8.9113924  34.1148520
  21.0658272  17.5356375  32.3152652  20.3487581  17.3617237  31.8499890
  21.7165009  17.3008947  31.7828138  21.0560122  17.4752168  32.1681870
  23.6506243   6.4120964  36.0593957  22.9797433   6.9550666  35.9307023
  24.3445993   6.8815819  35.8175652  23.6535110   6.5619235  36.0049485
  17.6992977  18.5517676  41.2905716  17.4758631  17.7936505  41.6589742
  17.2102820  18.5815697  40.5686155  17.5936426  18.4439900  41.2382457
  23.8134370   2.8676847  38.9684331  24.1661980   2.4406570  39.6430129
  22.9549172   2.7827691  39.0985407  23.7383815   2.7921588  39.0879341
  12.5118055   5.4984367  37.0267177  11.7930044   5.9148500  37.2940041
  12.8830418   6.0638606  36.4758815  12.4609987   5.6433648  36.9849984
  21.8117636   6.1312216  42.9169173  21.7915563   5.9495511  43.7703952
  21.8596837   7.0024234  42.8928757  21.8152277   6.2328754  43.0392468
  19.7563966  12.7199408  48.8417650  19.7159821  12.0749085  48.2562805
  20.5687284  12.6636025  49.1543062  19.8707120  12.6158375  48.8014599
  16.3471434  18.7718134  38.7442800  15.9331832  18.1092264  38.3546642
  17.0318808  18.9195993  38.2238495  16.3869805  18.6958792  38.6099298
  19.7136728  17.9308219  39.4966417  19.3153011  18.0410489  38.7287237
  19.0987947  18.1390285  40.0792977  19.5635617  17.9781787  39.4697716
  18.2864630   4.5382367  32.3640557  17.6929469   4.8599363  31.8125124
  18.3239907   3.6923462  32.1561663  18.2039019   4.4606695  32.2523328
  25.2458430  -2.0104741  39.8968643  24.7389295  -2.7175601  39.8289821
  26.0425864  -2.3411552  40.0269720  25.2885670  -2.1631589  39.9067638
  21.1622446   4.4961871  35.7942307  20.9336139   4.5194573  34.9520665
  21.4220522   3.6719338  35.9137317  21.1668634   4.3777951  35.6867505
  15.4441675   6.3496344  45.3967407  14.9320578   5.7417527  45.7552439
  15.2721171   7.0652937  45.8641383  15.3431312   6.3659644  45.5183631
  14.2167209   3.0338418  37.0896503  14.6924575   3.3955498  36.4546684
  13.7155808   3.6894885  37.3696645  14.2132568   3.1832607  37.0373244
  19.3210745   4.2720589  47.8369663  19.8782175   4.0434399  47.2048128
  18.9971810   5.0326255  47.5604875  19.3557155   4.3504426  47.7026160
  17.0393862   7.3588242  48.8021670  17.7905189   7.6739919  49.1161224
  17.2316439   7.1567413  47.9755592  17.1785276   7.3755624  48.7265066
  16.2593862   5.1779618  30.4569887  16.6392827   5.1959247  29.6721001
  15.5186458   5.6233606  30.3360734  16.2062700   5.2461392  30.3233455
  23.8879152   3.4861809  36.0445465  23.8873379   3.3310465  36.9029742
  23.6835332   4.3324796  35.9886851  23.8578930   3.5882429  36.1633405
  21.6120004   8.1659311  39.6981672  22.1073670   7.4482306  39.6585692
  20.8019780   7.8630108  39.5836159  21.5663898   8.0156957  39.6755398
  17.0578616  12.0157124  31.8478677  16.2489939  11.6923797  31.8011986
  17.5653525  11.3090346  31.7806925  17.0128283  11.8638440  31.8308971
   7.6868893   9.4429317  37.5726041   6.8214413   9.4315007  37.4608812
   7.7867709   9.2559540  38.4197180   7.5743060   9.4135378  37.6814985
  23.6771823  10.9162998  42.3858801  24.1026895  10.3937420  41.8329226
  23.3128743  11.5143835  41.8647424  23.6858426  10.9273225  42.2267811
  13.3125903  19.2127216  41.1456146  13.6272462  20.0263604  41.1533928
  13.7219316  18.8277434  41.8138306  13.4194001  19.2755918  41.2460238
  20.2650423  14.6297262  38.7159958  20.7361601  15.3437525  38.8849944
  20.6010601  14.0296012  39.2519828  20.3845538  14.6468727  38.8192334
  22.3527407  16.2398576  50.8952030  22.4624373  15.4507136  51.2508778
  22.6818304  16.1504512  50.0926369  22.4179813  16.1104429  50.8294421
  20.9024369  14.4215196  45.4787651  20.3545315  13.7973080  45.2107716
  21.3637398  14.6109468  44.7631730  20.8891579  14.3574247  45.3338082
  23.7118233   2.4900551  42.8638843  23.1281222   2.9909757  42.4516411
  24.0322528   1.9830107  42.2303167  23.6731409   2.4892386  42.7097350
  16.2513033   1.4041146  33.1397518  17.0728727   1.5739459  32.8979213
  15.7882684   1.5588407  32.4163816  16.3044195   1.4522879  32.9969162
  10.6538923  13.1600324  40.7934755  11.2583781  13.1196158  40.1648576
  10.4466236  14.0071476  40.8238811  10.7127821  13.2788327  40.7050871
  20.4682695  15.4266269  42.0096992  21.2881069  15.2829235  42.2713287
  20.1876773  16.0512468  42.5513430  20.5479439  15.4976621  42.1284932
   5.8890206  12.1434942  40.6633678   5.7914484  11.3331213  40.9723735
   6.6719075  12.1226735  40.2779946   5.9906342  12.0202032  40.6520541
  19.2986971  27.7408168  37.3845137  19.0637155  26.9075821  37.2777405
  19.4372612  28.0212834  36.5706338  19.2842633  27.6591672  37.2487492
  21.5977058  19.9093899  40.2829444  20.9782090  19.3186546  40.1139459
  21.4960922  20.5005334  39.6493768  21.4914734  19.9097982  40.1634434
  21.3246191  23.4546181  42.5273013  21.2004888  24.0408626  43.1622832
  21.9764476  22.9606376  42.8285288  21.4019841  23.4684985  42.6658943
  34.0748225  13.0071360  36.9432793  33.7601666  13.6974839  37.3753215
  33.5575167  12.9516143  36.2418293  33.9512696  13.1006249  36.9029742
  28.1552501  31.1451994  46.2084993  27.5923336  30.7324604  46.7324654
  28.9173525  31.0704900  46.6278136  28.1846950  31.0729395  46.3477993
  29.7637481  23.1504730  30.3346592  30.0033485  23.3582714  29.5221935
  30.0853322  22.3462239  30.4435536  29.8474639  23.0618831  30.2307145
  24.7627399  23.3725602  47.9402038  24.9347903  23.2631497  48.7887319
  25.2996757  24.0180008  47.7033230  24.8672403  23.4517604  48.0307134
  23.4284836  17.4868445  30.8784243  23.2460409  17.7040326  30.0525236
  24.2910449  17.6007458  30.9342857  23.5289426  17.5358343  30.7638730
  23.6651971  29.7457242  42.6220536  24.2050196  29.6028373  43.2923909
  22.9821917  30.1453993  42.9904562  23.6444125  29.7836913  42.7754958
  19.0689116  25.9657533  42.7754958  18.8027531  25.1496650  42.9345948
  19.0827680  26.0110689  41.9050473  19.0313839  25.8514438  42.6708440
  36.0470510  16.2935348  40.8097392  36.6896419  16.3633453  41.3959307
  36.2993531  15.6264571  40.3076933  36.1792642  16.2061697  40.8224671
  23.8187723  19.5035911  45.4221965  23.1259519  19.0332891  45.6682697
  24.4348050  19.2774216  45.9963673  23.8072253  19.4003043  45.5431118
  19.4782530  26.7516313  40.0566702  19.2958103  26.7263199  39.2038994
  20.2132199  27.2215250  40.0955611  19.5596594  26.8177675  39.9364621
  22.5428282  23.4701315  46.5648811  23.2668254  23.4554346  47.0513705
  22.6444418  24.1796671  46.0670779  22.6646491  23.5726019  46.5627597
  29.9173231  26.9500400  51.4297758  29.1246212  27.2643912  51.6150377
  30.0322158  27.1651868  50.5918542  29.8168642  27.0284237  51.3336092
  19.4453440  23.6309813  40.2065769  20.0226943  23.4946264  40.8458014
  18.7467502  23.1745597  40.4611353  19.4274462  23.5432079  40.3388058
  14.9212273  22.4821706  36.9213587  15.0072525  22.1053574  37.7027117
  15.5488071  22.1082152  36.4433545  15.0268824  22.3707188  36.9659065
  20.5088232  31.2513439  40.9744948  20.5492377  31.5228290  40.1464727
  21.0682756  31.7755347  41.3902736  20.5971578  31.3689194  40.9136836
  26.6246945  17.5133808  51.1448118  26.3100386  18.2833370  50.8817680
  26.3036878  16.9504064  50.5600345  26.5305864  17.5444076  51.0189468
  33.3011731  16.0502189  45.0905636  34.0465323  15.8611999  44.6769061
  32.8849036  16.5760426  44.5319492  33.3496705  16.1004334  44.9470209
  23.5924510  26.5172967  38.8333755  23.3037759  25.8910439  39.3679482
  24.4607858  26.4593255  38.8998436  23.6784762  26.4160512  38.9224710
  26.2563451  20.1131059  49.8833333  25.4463226  20.4188838  49.7723175
  26.7338137  20.8336641  49.9985917  26.2066929  20.2645660  49.8840404
  22.5907482  25.6493609  44.7532735  23.1028579  25.9277862  44.1041495
  22.3043825  26.3882903  45.1195548  22.6242346  25.7995963  44.7122613
  19.6774389  20.1563801  35.0496471  19.7790525  20.9589962  35.3777447
  20.4730276  19.9551137  34.7519552  19.8102294  20.2449700  35.0531827
  20.4938121  20.2710979  42.7917593  20.3523613  19.4194920  42.9162101
  20.7778684  20.3139640  41.9679799  20.5145967  20.1510729  42.6885217
  25.6801496  33.0337560  43.2146091  25.8291059  32.4740476  42.5619496
  26.4601498  33.1129561  43.5978610  25.8175589  32.9623125  43.1743040
  28.2054796  33.2052203  44.4930582  28.1298467  32.5361013  45.0481370
  28.1344655  33.9069991  45.0071248  28.1835403  33.2097110  44.6507430
  21.2628426  18.1841327  46.1095043  20.7270616  17.5721685  46.4255811
  21.3246191  18.7589463  46.7628710  21.1924059  18.1788254  46.2530470
  33.4922761  11.1165382  38.8899443  33.6106329  11.5741845  38.1566745
  33.3184937  10.3110643  38.6035660  33.4841932  11.0659154  38.7400376
  23.3817182  25.5922061  35.9215098  23.5381801  25.5268864  36.7771090
  23.7217775  26.3670613  35.7093778  23.4550417  25.6971259  36.0169692
  33.7913434  29.1782592  51.9035373  34.6048299  28.9067741  52.0640506
  33.6308400  28.8790132  51.0995569  33.8883382  29.0937518  51.8080779
  19.9551444  22.7757011  36.2375865  20.3350408  23.1941556  35.5736132
  19.3806808  23.3570467  36.5444708  19.9262768  22.9234870  36.1852606
  30.3278192  22.8765386  50.5642771  30.7977823  23.5007502  50.9510645
  30.3740072  22.2082361  51.1235986  30.4046067  22.8700066  50.7042842
  29.2198840  12.4082359  45.4094687  29.8491958  12.9442659  45.1315758
  29.3884703  12.3159717  46.2608253  29.3376635  12.4743721  45.4943215
  29.0212755  17.1953553  47.6821099  29.8486185  16.9238702  47.7379713
  29.0420601  17.9914395  48.0384917  29.1465605  17.2733307  47.7436282
  23.5982245  24.3417416  40.8691360  22.7570252  24.2421290  41.0770253
  23.8072253  25.1112896  41.2205680  23.5046938  24.4409459  40.9518674
  21.0757812  21.9636953  38.6976110  20.6814510  22.0379965  37.9226220
  20.5197929  22.3494899  39.2484472  20.9360624  22.0318728  38.6643770
  25.4717261  29.4848536  44.8261055  25.3637616  29.4950598  45.6923113
  25.6813042  30.3103316  44.6366009  25.4867372  29.6089611  44.9265146
  35.9656446  15.4950011  37.8582755  35.3530760  15.9820413  38.2436486
  36.0620621  14.8193502  38.4020406  35.8894344  15.4668320  37.9961613
  23.4891053  26.7361178  42.2882992  22.8978986  27.3770677  42.2586007
  24.2512076  27.1598796  42.2614292  23.5139314  26.8937017  42.2798140
  23.8851676  17.8963176  42.9551010  24.3453157  17.9702106  43.6926134
  23.9307782  18.6944430  42.6050831  23.9602231  18.0257323  43.0123767
  25.5335025  18.5629871  47.5223037  25.1420591  17.9163218  47.9578815
  25.7020888  19.1541306  48.1417292  25.5005936  18.5544139  47.6785743
  20.6739453  21.5252367  45.3302726  21.5365067  21.4248076  45.2440056
  20.3431237  20.9447076  44.7688298  20.7524650  21.4243993  45.2348132
  24.2182988  18.6919934  28.0485829  23.8695792  19.3439659  28.5117379
  23.7379434  18.6777047  27.3209701  24.0953232  18.7862988  28.0096921
  20.7466915  28.4095276  43.4316909  20.2166840  27.7187715  43.4811883
  21.0192008  28.4005461  42.6029617  20.7091637  28.3062408  43.3164325
  23.3031985  21.9587964  44.2088013  23.4625472  21.2031288  44.6139735
  23.1224878  22.5078903  44.8628751  23.2997344  21.9281777  44.3650719
  31.2452288  14.1249199  44.7638802  30.7492849  14.3212873  44.0730369
  32.0021350  14.5241867  44.5927604  31.2839113  14.2126933  44.6358939
  16.0262757  25.0823040  40.7885257  15.9206206  25.0369884  39.9237341
  15.2762977  25.4276821  41.0699542  15.8998360  25.1263948  40.7022587
  26.9786103  26.0923103  48.8368152  26.1281733  26.2294818  48.9725797
  27.1414230  25.3586882  49.2815854  26.8769966  26.0037204  48.9223751
  24.0254636  16.5331766  48.6678167  24.6507340  15.9893899  48.9407599
  23.5705116  16.0526684  48.0985957  24.0502897  16.3821247  48.6239761
  21.1260107  24.3813416  34.1593997  21.6352336  24.9777924  34.5405302
  21.5994379  24.1139390  33.4770416  21.2703483  24.4299232  34.1148520
  36.2191014  13.5080567  39.8968643  35.7121879  12.8009707  39.8289821
  37.0158448  13.1773756  40.0269720  36.2618253  13.3553719  39.9067638
  21.2639973  20.3119228  48.0469769  21.0942563  20.9720603  47.5017976
  20.8205923  20.5225789  48.7682258  21.1739307  20.4405210  48.0731398
  30.2943329  19.7905897  47.8369663  30.8514759  19.5619707  47.2048128
  29.9704394  20.5511563  47.5604875  30.3289739  19.8689734  47.7026160
  18.1642037  23.2166093  43.3058259  17.6168757  22.5466739  43.4239127
  18.9534416  22.8495941  43.3701726  18.1994221  23.0631080  43.3326959
  28.0126446  22.8773550  48.8021670  28.7637773  23.1925227  49.1161224
  28.2049022  22.6752721  47.9755592  28.1517860  22.8940932  48.7265066
  16.9229007  22.4286901  40.4604282  16.7450768  21.9763510  41.1859197
  16.6348029  23.2313063  40.6442759  16.8541960  22.4809459  40.5947785
  18.6601477  24.9614625  37.5726041  17.7946996  24.9500315  37.4608812
  18.7600293  24.7744848  38.4197180  18.5475644  24.9320686  37.6814985
  24.2858487  34.7312523  41.1456146  24.6005046  35.5448912  41.1533928
  24.6951900  34.3462742  41.8138306  24.3926585  34.7941226  41.2460238
  28.1552501  14.9210041  45.6718053  28.2880407  14.1241034  45.9999029
  28.5397654  15.4476444  46.2516329  28.2308830  14.8809958  45.8061556
  25.8140948  14.9169216  43.9195947  26.3585361  14.5760343  44.5100289
  25.8677884  15.7754677  44.0617231  25.9030067  14.9924475  44.0277820
  21.6271507  28.6785632  40.7934755  22.2316364  28.6381466  40.1648576
  21.4198819  29.5256784  40.8238811  21.6860404  28.7973634  40.7050871
  16.8622789  27.6620249  40.6633678  16.7647067  26.8516521  40.9723735
  17.6451659  27.6412043  40.2779946  16.9638926  27.5387340  40.6520541
  55.3954914  59.4763913  49.3353255  56.1021682  58.9815944  49.4640190
  55.5842850  59.9172995  48.6055913  55.5282820  59.4682264  49.2462301
  51.4631589  65.1179744  36.8626689  51.8470968  65.6866642  36.3231464
  51.3990730  64.3929254  36.3832505  51.5105016  65.0955207  36.7120552
  47.8887833  67.6736087  39.1607659  48.5325289  68.1149251  39.5503817
  48.2144089  66.8689513  39.0737918  48.0319662  67.6201282  39.2053136
  50.8355791  60.5133419  41.4567417  51.1179034  59.7184825  41.2354173
  51.5641951  60.9914007  41.4772478  50.9845355  60.4668016  41.4270432
  60.8173879  59.6192782  38.4303248  59.9871582  59.8303425  38.5936664
  60.7683131  58.7929836  38.1545531  60.6880615  59.5282388  38.4140613
  42.8069463  63.6564455  38.6601343  42.3237041  64.3814945  38.6360926
  43.6192781  63.9540585  38.7711501  42.8560210  63.8066809  38.6728622
  48.8783617  62.4496636  41.2651157  48.3610558  62.0904051  40.6612465
  49.5758008  61.9258810  41.2757223  48.9049198  62.3194324  41.1781416
  52.5347209  62.8991450  47.2267330  52.6230555  62.7117590  48.0745541
  52.9636921  62.2528879  46.8272177  52.6109311  62.7754458  47.2939082
  50.1017668  62.1822610  46.2084993  49.5388503  61.7695220  46.7324654
  50.8638692  62.1075516  46.6278136  50.1312117  62.1100010  46.3477993
  45.6613660  64.1720631  38.8121623  46.3634239  63.6572620  38.8694379
  45.5811143  64.4994782  39.6168498  45.7537420  64.1434857  38.9394415
  45.6117138  60.7827858  42.6220536  46.1515363  60.6398989  43.2923909
  44.9287085  61.1824609  42.9904562  45.5909292  60.8207529  42.7754958
  58.0738194  60.2892136  38.5667964  57.6373426  60.2928879  39.3226935
  57.7401110  60.9697635  38.1347541  57.9600814  60.3904592  38.6148796
  52.6467268  62.3300469  49.8911114  53.4307685  62.4431317  50.2566856
  52.4463863  61.5041606  50.0869800  52.7333293  62.2247188  49.9745500
  52.8037661  64.2410571  43.5377570  52.0052907  64.0010071  43.7951438
  53.2523673  64.2924964  44.2844617  52.7512273  64.2132962  43.6862494
  59.3237828  56.8640104  35.0369193  59.6546045  57.3967744  34.4309288
  59.8970916  56.9178992  35.6931144  59.4571507  56.9509673  35.0446975
  51.8638398  57.9871016  51.4297758  51.0711379  58.3014528  51.6150377
  51.9787325  58.2022484  50.5918542  51.7633809  58.0654853  51.3336092
  52.7922191  57.8891220  46.3683054  53.3661053  57.2518464  46.5231618
  52.7136995  57.8895302  45.4992712  52.8655426  57.7956331  46.2629465
  58.1142339  59.2600197  46.3767908  57.8780976  58.4288262  46.2579968
  58.7585568  59.2085804  46.9622752  58.1737010  59.1297885  46.4453801
  59.1378759  59.0444646  42.4396202  58.8324576  59.7772703  42.8009518
  58.4184975  58.6382575  42.1588988  58.9866102  59.0926379  42.4509339
  64.8380552  55.6837647  41.7664546  64.7705052  55.7033606  40.8967133
  64.8236214  56.5267974  41.9920217  64.8259308  55.8111381  41.6717023
  48.6866815  63.4902884  33.5017904  48.9765113  63.0991866  32.7777130
  49.4170295  63.6719589  33.9423179  48.8373699  63.4596698  33.4600711
  46.6272730  65.4670267  36.5678053  46.4073026  65.1767621  37.3604720
  46.4067252  64.8085222  36.0395966  46.5620324  65.3269975  36.6066962
  48.7940686  66.8399657  35.3508746  49.4464744  66.3076099  35.5799772
  48.0966295  66.4868309  35.7376620  48.7871404  66.7089180  35.4420914
  56.7880604  59.1604071  34.6939725  57.3538637  59.8197280  34.6098268
  56.1408508  59.5053769  35.1656127  56.7759361  59.3086012  34.7512482
  53.2587182  62.1042855  34.1176804  53.0173858  61.3710715  33.7103869
  53.4388515  62.6529712  33.4643138  53.2494806  62.0765246  33.9607027
  56.4889929  59.8532045  40.7248862  56.3504289  60.5513090  41.2297605
  55.7089927  59.6980701  40.3685044  56.3533156  59.9332211  40.7475137
  54.8268014  56.1528420  46.9771244  54.8216053  55.2808236  46.9813671
  55.5329008  56.3516589  46.5040700  54.9313018  56.0532294  46.9078279
  47.6266663  64.0708176  43.2146091  47.7756226  63.5111091  42.5619496
  48.4066665  64.1500177  43.5978610  47.7640756  63.9993741  43.1743040
  57.9843302  59.2110298  31.4865362  57.6050111  58.4247436  31.4794651
  57.3209548  59.7597155  31.3437006  57.8301777  59.1755122  31.4646159
  50.1519963  64.2422818  44.4930582  50.0763634  63.5731629  45.0481370
  50.0809822  64.9440607  45.0071248  50.1300570  64.2467726  44.6507430
  50.8090210  62.7623817  35.3254188  51.5740101  62.4933461  35.0036852
  50.7068300  62.2773828  36.0424251  50.9071706  62.6513382  35.3834015
  56.2303401  61.4555789  31.8217047  56.3123238  62.2622776  31.4978498
  56.7153143  61.4751749  32.5457821  56.3140559  61.5776452  31.8803946
  49.5411598  67.6491138  42.9508583  50.0307528  66.9501927  42.7684247
  48.9695830  67.3515008  43.5384640  49.5296128  67.5017362  43.0109623
  55.7378601  60.2153208  51.9035373  56.5513466  59.9438356  52.0640506
  55.5773568  59.9160748  51.0995569  55.8348550  60.1308134  51.8080779
  54.4255431  63.8205613  36.2884982  54.0335223  63.5172328  35.5707849
  54.5808503  64.6574703  36.0989936  54.3909021  63.8989450  36.1541480
  54.5895106  60.3855602  36.2291013  54.2309761  60.5570245  37.0055045
  54.1033817  60.8468808  35.6719012  54.4653803  60.4794573  36.2616282
  55.7499845  61.2759498  47.1758214  56.3879566  60.7819694  46.8420670
  55.1073937  61.2036898  46.5910441  55.7494072  61.1918506  47.0400569
  55.8054102  61.9679306  43.8163571  56.5946480  61.6168371  43.9365652
  55.9797700  62.7815695  43.5540204  55.9474383  62.0365163  43.7951439
  47.4182428  60.5219152  44.8261055  47.3102783  60.5321214  45.6923113
  47.6278210  61.3473932  44.6366009  47.4332539  60.6460227  44.9265146
  55.1945736  63.2241106  39.7215017  54.9965425  63.7131920  39.0271228
  54.5733447  63.4282347  40.2999150  55.0733301  63.3257644  39.7038240
  57.1119538  56.7905258  45.2560265  57.8353737  56.3377785  45.0771285
  56.8469501  57.0709924  44.4732593  57.1800812  56.7656227  45.1138981
  53.7252173  60.0291594  32.1554591  54.4486372  60.4949707  32.0119165
  53.2852764  60.0965204  31.4052188  53.7667865  60.1075431  32.0239373
  37.9727924  56.1193656  40.7885257  37.8671373  56.0740500  39.9237341
  37.2228144  56.4647436  41.0699542  37.8463527  56.1634564  40.7022587
  51.3748242  60.1749041  44.3848709  50.8673333  60.7284888  44.8289339
  51.0774888  60.2357331  43.5667483  51.2553127  60.2655352  44.3297166
  53.9856022  64.0912299  32.3152652  53.2685332  63.9173161  31.8499890
  54.6362760  63.8564871  31.7828138  53.9757873  64.0308091  32.1681870
  52.6761717  59.2755332  48.8417650  52.6357572  58.6305009  48.2562805
  53.4885035  59.2191949  49.1543062  52.7904870  59.1714299  48.8014599
  49.2669184  65.3274058  38.7442800  48.8529583  64.6648188  38.3546642
  49.9516559  65.4751916  38.2238495  49.3067556  65.2514716  38.6099298
  52.6334478  64.4864143  39.4966417  52.2350762  64.5966413  38.7287237
  52.0185698  64.6946209  40.0792977  52.4833368  64.5337711  39.4697716
  60.3676321  59.0616110  32.8809508  60.7509927  59.8107466  33.1107605
  59.5720434  59.3081929  32.6221497  60.3070103  59.2085803  32.8767081
  46.2323654  65.7683139  41.1456146  46.5470213  66.5819528  41.1533928
  46.6417067  65.3833358  41.8138306  46.3391752  65.8311842  41.2460238
  53.1848174  61.1853186  38.7159958  53.6559352  61.8993449  38.8849944
  53.5208352  60.5851936  39.2519828  53.3043289  61.2024650  38.8192334
  55.2725158  62.7954499  50.8952030  55.3822124  62.0063060  51.2508778
  55.6016055  62.7060436  50.0926369  55.3377564  62.6660352  50.8294421
  53.8222120  60.9771120  45.4787651  53.2743066  60.3529004  45.2107716
  54.2835149  61.1665392  44.7631730  53.8089329  60.9130170  45.3338082
  53.3880446  61.9822193  42.0096992  54.2078820  61.8385159  42.2713287
  53.1074524  62.6068392  42.5513430  53.4677190  62.0532545  42.1284932
  38.8087956  58.6990865  40.6633678  38.7112234  57.8887137  40.9723735
  39.5916826  58.6782659  40.2779946  38.9104093  58.5757955  40.6520541
  69.8594097  69.6387045  34.9739869  69.8288101  70.4931681  35.1458138
  70.4575445  69.3382337  35.5326012  69.9431254  69.7203541  35.0814671
  63.0593781  68.7262696  39.7292799  62.2031677  68.8871194  39.7801916
  63.1061435  67.8554760  39.7497860  62.9392893  68.6213498  39.7398865
  57.4434921  78.2625414  35.4930031  56.6917821  77.8840952  35.2646076
  57.8920933  78.2943847  34.7448841  57.3984588  78.2111021  35.3487533
  66.3687498  74.9949221  49.3353255  67.0754265  74.5001252  49.4640190
  66.5575433  75.4358303  48.6055913  66.5015404  74.9867572  49.2462301
  65.9045602  70.7854740  42.3724451  66.4501562  71.4639826  42.4318420
  65.8462479  70.6442200  41.5126032  65.9761517  70.8646741  42.2536511
  67.6810671  72.2139347  33.2458178  67.5650197  72.9647033  33.6750316
  68.4766558  71.9563300  33.4954265  67.7815261  72.2874194  33.3462270
  52.2184722  74.2964092  37.3845137  51.9834906  73.4631745  37.2777405
  52.3570362  74.5768758  36.5706338  52.2040384  74.2147596  37.2487492
  54.5174809  66.4649823  40.2829444  53.8979841  65.8742470  40.1139459
  54.4158673  67.0561258  39.6493768  54.4112485  66.4653905  40.1634434
  59.5640997  76.2033370  34.5327521  59.8856838  76.7438577  33.9288829
  60.2113093  75.6330141  34.6649811  59.7067052  76.1992545  34.4634556
  61.6142705  68.2049365  34.6161908  62.3122869  68.3837492  35.1083371
  61.9295037  67.6819704  33.9932297  61.7638042  68.1543137  34.5963918
  54.2443942  70.0102105  42.5273013  54.1202639  70.5964550  43.1622832
  54.8962227  69.5162300  42.8285288  54.3217591  70.0240909  42.6658943
  61.8030640  74.5919810  34.6041699  62.2424276  73.9836910  35.0496472
  61.6535303  74.2127183  33.8327164  61.8452106  74.4458281  34.5560866
  59.2702283  73.1863822  41.8060524  59.9151286  72.6936265  41.4871473
  59.5104060  73.3288608  42.6326603  59.4012868  73.1341264  41.8810058
  61.8088374  76.0318727  41.4567417  62.0911617  75.2370133  41.2354173
  62.5374535  76.5099315  41.4772478  61.9577938  75.9853324  41.4270432
  59.7869568  63.5741761  38.6983182  59.4572898  64.0252905  38.0286881
  59.1114570  63.4957925  39.2456189  59.6380005  63.6292897  38.6806405
  65.4039977  72.9446991  31.5572468  65.3191272  73.8007958  31.7022037
  65.8924360  72.6691315  32.2254627  65.4628874  73.0304312  31.6774550
  66.9945976  59.5627284  36.9432793  66.6799417  60.2530763  37.3753215
  66.4772918  59.5072066  36.2418293  66.8710446  59.6562173  36.9029742
  66.3358410  69.5631785  33.0570203  65.8069881  69.7791419  33.7167510
  66.8583430  70.2567924  32.9771173  66.3346863  69.6974922  33.1425803
  58.2258018  73.4595002  31.8577671  57.6415233  73.9645033  32.2643535
  57.8228113  73.2337389  31.1174263  58.0797321  73.5003250  31.8082697
  53.7802046  79.1749763  38.6601343  53.2969624  79.9000253  38.6360926
  54.5925364  79.4725893  38.7711501  53.8292794  79.3252117  38.6728622
  59.8516200  77.9681944  41.2651157  59.3343142  77.6089359  40.6612465
  60.5490592  77.4444118  41.2757223  59.8781781  77.8379632  41.1781416
  61.0750252  77.7007918  46.2084993  60.5121087  77.2880528  46.7324654
  61.8371276  77.6260823  46.6278136  61.1044701  77.6285318  46.3477993
  62.6835232  69.7060654  30.3346592  62.9231236  69.9138638  29.5221935
  63.0051073  68.9018163  30.4435536  62.7672390  69.6174755  30.2307145
  57.9925522  61.6354050  34.1806130  58.7471490  62.0032367  33.9423180
  57.8153057  62.0093604  34.9485309  58.0780001  61.7452238  34.2591018
  56.6346244  79.6905939  38.8121623  57.3366823  79.1757928  38.8694379
  56.5543727  80.0180090  39.6168498  56.7270004  79.6620165  38.9394415
  71.2860421  67.7848490  42.2253669  70.4488842  67.8550677  42.4601264
  71.2548652  67.7872985  41.3527971  71.1578703  67.7958717  42.1313217
  57.6825150  69.9281526  47.9402038  57.8545654  69.8187421  48.7887319
  58.2194508  70.5735931  47.7033230  57.7870154  70.0073528  48.0307134
  56.3482587  64.0424369  30.8784243  56.1658160  64.2596250  30.0525236
  57.2108200  64.1563381  30.9342857  56.4487176  64.0914267  30.7638730
  55.9597019  75.8812291  38.3207231  56.7985918  76.1135224  38.3680992
  55.9908788  75.0116602  38.2514266  56.0878737  75.7869237  38.3171875
  56.5849722  76.3013166  42.6220536  57.1247947  76.1584297  43.2923909
  55.9019668  76.7009917  42.9904562  56.5641876  76.3392837  42.7754958
  62.0282306  61.0450779  33.9133267  62.7568467  60.8666734  33.4671423
  62.1177199  61.8868859  34.1240445  62.1488968  61.1434658  33.8786784
  66.0090607  71.9804167  37.8165561  66.7648122  72.4135681  37.8554469
  66.1152931  71.3308936  38.3900197  66.1360777  71.9481651  37.9063586
  51.9886867  72.5213457  42.7754958  51.7225282  71.7052574  42.9345948
  52.0025431  72.5666612  41.9050473  51.9511589  72.4070362  42.6708440
  68.9668261  62.8491272  40.8097392  69.6094169  62.9189376  41.3959307
  69.2191282  62.1820495  40.3076933  69.0990393  62.7617620  40.8224671
  55.8944614  67.3198541  29.3906716  55.1802791  67.0336721  29.8029148
  56.3788583  67.6595167  30.0313103  55.8603977  67.3280191  29.5462351
  56.7385473  66.0591835  45.4221965  56.0457270  65.5888815  45.6682697
  57.3545801  65.8330140  45.9963673  56.7270003  65.9558967  45.5431118
  63.0691932  75.8228495  29.7668524  63.4843080  75.4913519  29.0753020
  62.2383862  75.5897398  29.6388661  63.0079941  75.7399751  29.6459371
  52.3980281  73.3072236  40.0566702  52.2155854  73.2819122  39.2038994
  53.1329950  73.7771174  40.0955611  52.4794345  73.3733599  39.9364621
  68.4679955  73.5423746  37.1999590  68.7035544  73.6868945  36.3726440
  68.6169519  74.3066154  37.5931103  68.5245758  73.6762801  37.1363193
  55.4626032  70.0257239  46.5648811  56.1866005  70.0110270  47.0513705
  55.5642169  70.7352594  46.0670779  55.5844241  70.1281942  46.5627597
  70.2970412  72.3825412  35.0369193  70.6278629  72.9153052  34.4309288
  70.8703500  72.4364300  35.6931144  70.4304091  72.4694981  35.0446975
  62.8370982  73.5056324  51.4297758  62.0443963  73.8199836  51.6150377
  62.9519909  73.7207792  50.5918542  62.7366392  73.5840161  51.3336092
  65.5102301  70.2290315  35.7192774  65.6049155  70.9679609  36.1732399
  64.8861144  69.8007790  36.1527338  65.4311331  70.2751636  35.8500921
  63.7654775  73.4076528  46.3683054  64.3393636  72.7703772  46.5231618
  63.6869578  73.4080610  45.4992712  63.8388009  73.3141639  46.2629465
  52.3651191  70.1865737  40.2065769  52.9424694  70.0502188  40.8458014
  51.6665253  69.7301521  40.4611353  52.3472212  70.0988003  40.3388058
  65.7625322  72.0739055  28.9529726  65.6805485  72.1441242  29.8184713
  66.4005043  72.6368799  28.7613466  65.8445159  72.1678026  29.0519675
  59.1218493  71.8399793  38.4204252  58.8637737  71.0071528  38.3935551
  59.1766976  72.0657406  37.5796752  59.0918271  71.7497564  38.2924389
  64.2019543  63.9428243  38.5208344  63.4975870  63.4537429  38.6792264
  64.2504518  63.9550718  37.6496789  64.1049595  63.8717891  38.4147684
  58.0953205  69.3937555  38.9069147  57.5202797  69.5529724  39.5433108
  57.7188882  68.7572964  38.4437597  57.9556018  69.3235368  38.9323705
  61.7626494  67.8660904  43.7661525  61.3740927  67.4415122  43.1113716
  61.0981192  68.1143054  44.2738552  61.6073422  67.8399626  43.7449393
  71.4049763  67.6235909  36.5409355  71.1486328  66.8115851  36.3507238
  72.2479077  67.6313476  36.3139542  71.4915789  67.5047907  36.4794172
  47.8410024  69.0377630  36.9213587  47.9270276  68.6609498  37.7027117
  48.4685822  68.6638076  36.4433545  47.9466575  68.9263112  36.9659065
  65.5852856  61.5635533  41.2785509  65.9663367  60.8813704  41.6653383
  64.7816140  61.2745135  41.0961174  65.5229317  61.4202582  41.3089565
  62.8665432  72.0959509  31.9638332  63.6806071  72.3874402  31.8521103
  62.8024573  71.4419371  31.3896625  62.9768171  72.0424704  31.8627169
  58.7373340  75.5681026  37.0910644  59.3747287  75.3292774  37.6362437
  59.1628412  75.7718185  36.3563805  58.8949507  75.5632037  37.0627801
  53.4285983  77.8069363  40.9744948  53.4690128  78.0784214  40.1464727
  53.9880507  78.3311271  41.3902736  53.5169329  77.9245118  40.9136836
  59.3776156  70.7883316  31.4285533  59.7621308  70.5691023  32.1802079
  59.1287776  71.6146262  31.5586610  59.3978228  70.8781462  31.5586610
  59.5444696  64.0689731  51.1448118  59.2298137  64.8389294  50.8817680
  59.2234628  63.5059987  50.5600345  59.4503615  64.1000000  51.0189468
  61.1194812  76.0453449  38.7704430  61.1933821  75.8828621  39.6246280
  61.9364319  76.2343639  38.5264912  61.2511171  76.0490191  38.8602456
  54.8800569  76.3911312  35.7998874  54.0538687  76.6373049  35.6733153
  54.9412560  76.3123393  36.6660932  54.7674736  76.4156261  35.9087818
  57.0976593  62.4580253  36.7594314  56.2299018  62.5302852  36.8251923
  57.3851797  63.2602332  36.9482289  57.0116341  62.5874400  36.7969081
  66.2209482  62.6058112  45.0905636  66.9663074  62.4167923  44.6769061
  65.8046786  63.1316350  44.5319492  66.2694456  62.6560258  44.9470209
  59.6599398  79.0088192  33.5017904  59.9497697  78.6177173  32.7777130
  60.3902879  79.1904897  33.9423179  59.8106282  78.9782006  33.4600711
  73.5971752  69.9767341  40.0411141  74.1479674  69.3435410  40.2808233
  73.5815868  70.5082734  40.7326645  73.6756949  69.9616289  40.1789999
  60.2494143  73.8105938  44.5871034  59.7505837  74.5221706  44.6655923
  61.0594368  74.1306605  44.5489197  60.2950250  73.9632787  44.5927603
  57.6005314  80.9855575  36.5678053  57.3805609  80.6952929  37.3604720
  57.3799836  80.3270530  36.0395966  57.5352908  80.8455283  36.6066962
  56.5122261  73.0728891  38.8333755  56.2235510  72.4466362  39.3679482
  57.3805609  73.0149179  38.8998436  56.5982513  72.9716435  38.9224710
  67.3000159  68.2163674  39.1515737  66.9564925  67.4954010  39.5022987
  67.3993201  68.0077526  38.3094095  67.2642202  68.0787878  39.0787417
  56.7154534  74.7124142  34.7576120  57.4700502  75.0937181  34.9711583
  56.1225147  75.1635286  35.2122817  56.7391248  74.8352970  34.8558999
  59.1761201  66.6686982  49.8833333  58.3660977  66.9744762  49.7723175
  59.6535888  67.3892565  49.9985917  59.1264680  66.8201584  49.8840404
  58.0352761  75.8832703  40.1316236  57.5133514  76.0232995  40.8168100
  58.4226781  75.1243368  40.3218353  58.0156462  75.7918227  40.2617312
  55.0243945  65.9338512  34.2011190  54.7368741  65.5639783  33.4643138
  55.7114413  66.4033368  33.9394895  55.0832842  65.9485482  34.0526266
  59.4619087  72.9136723  35.5297727  59.2661869  73.5211457  34.9358030
  59.6853432  72.2204667  35.0489401  59.4653728  72.9014248  35.3713807
  57.8597617  69.7991460  35.6478595  58.5820268  69.9632619  35.1882401
  57.3805609  70.5201125  35.5417935  57.8961347  69.9289690  35.5644209
  65.8191124  66.1355259  41.0275280  64.9802225  66.1616538  40.7913543
  65.8895491  66.7825995  41.6080627  65.7059518  66.2351385  41.0784397
  55.5105233  72.2049533  44.7532735  56.0226330  72.4833786  44.1041495
  55.2241576  72.9438827  45.1195548  55.5440096  72.3551887  44.7122613
  64.2660402  63.0340636  35.7602896  64.9686755  62.8348385  35.2822854
  64.0004591  62.2616579  36.0671739  64.3307035  62.8903602  35.7348337
  69.6948648  71.3423246  38.3136522  69.6082622  71.4978672  39.1671300
  69.2399128  71.9861322  37.9395927  69.6151905  71.4599001  38.3843628
  52.5972140  66.7119725  35.0496471  52.6988276  67.5145886  35.3777447
  53.3928026  66.5107061  34.7519552  52.7300045  66.8005623  35.0531827
  59.0288959  64.2975921  44.8133776  58.8372156  64.3131056  45.6633200
  59.8787555  64.4939596  44.7900431  59.1264681  64.3290273  44.9357071
  53.4135872  66.8266903  42.7917593  53.2721363  65.9750844  42.9162101
  53.6976435  66.8695564  41.9679799  53.4343718  66.7066653  42.6885217
  63.5674464  68.6633993  36.9362081  63.3209178  68.5829744  37.7698870
  63.8959587  67.8787461  36.7424609  63.5795708  68.5360258  37.0309604
  65.8000598  71.6713728  46.9771244  65.7948636  70.7993544  46.9813671
  66.5061592  71.8701897  46.5040700  65.9045602  71.5717602  46.9078279
  59.5271491  71.3990712  46.3485064  59.6714867  71.9791920  45.7128174
  59.8747140  71.7767008  47.0534919  59.5998953  71.5411416  46.3584059
  61.6991409  70.5980880  44.1310196  60.9514723  70.7911894  43.7258474
  61.8532934  69.7726100  43.8934317  61.6113836  70.5045991  44.0355602
  58.5999246  79.5893483  43.2146091  58.7488810  79.0296399  42.5619496
  59.3799248  79.6685485  43.5978610  58.7373340  79.5179049  43.1743040
  61.9393186  64.4931431  45.0205600  62.3965800  65.2255405  45.1478392
  62.0149514  64.0697896  45.7792855  62.0184156  64.5388669  45.1506676
  54.1826177  64.7397251  46.1095043  53.6468366  64.1277609  46.4255811
  54.2443942  65.3145386  46.7628710  54.1121810  64.7344178  46.2530470
  66.4120512  57.6721306  38.8899443  66.5304080  58.1297769  38.1566745
  66.2382687  56.8666567  38.6035660  66.4039683  57.6215078  38.7400376
  61.7822794  78.2809125  35.3254188  62.5472685  78.0118769  35.0036852
  61.6800884  77.7959136  36.0424251  61.8804289  78.1698690  35.3834015
  59.8175564  66.4833535  41.8647424  59.0271638  66.3024995  42.1864759
  60.2136186  65.7060487  41.8477718  59.7592440  66.3420996  41.9099972
  64.3041454  75.3121309  27.3054137  65.0714439  75.3721434  26.8959989
  63.8572763  74.7401750  26.8210456  64.3514882  75.2357885  27.1731848
  65.2019250  74.1175965  39.5906870  64.5264252  73.8861197  40.0920257
  65.2111626  73.5097148  38.9648975  65.1037754  73.9934890  39.5723022
  62.3313394  68.9593794  46.3470923  62.2672535  69.8203750  46.2191059
  62.4710582  68.6425787  45.5466474  62.3428864  69.0393960  46.2099135
  61.0132488  71.6525933  40.4887125  60.5894737  71.8530432  39.7526144
  60.8377343  70.8054781  40.6011425  60.9243368  71.5574715  40.3960816
  56.3014933  72.1477985  35.9215098  56.4579552  72.0824787  36.7771090
  56.6415526  72.9226537  35.7093778  56.3748168  72.2527183  36.0169692
  62.8394077  71.5235868  34.7908461  63.3809623  71.0206249  35.2547082
  63.1540636  71.4701063  33.9797946  62.9658474  71.4415289  34.7392273
  61.0080527  76.9153220  32.0748489  61.0773347  76.0567758  32.2141490
  61.7868982  77.1325101  31.7467514  61.1333377  76.8206084  32.0465646
  63.9883347  66.4172173  44.8430762  64.2025316  65.7783087  44.2894116
  63.3717246  66.8617997  44.4138623  63.9288676  66.3882316  44.6981193
  52.8749194  69.3312935  36.2375865  53.2548159  69.7497480  35.5736132
  52.3004559  69.9126391  36.5444708  52.8460519  69.4790794  36.1852606
  66.1522435  68.0261238  45.7814069  65.3399116  67.7187128  45.8627241
  66.6112369  67.5460238  46.3456781  66.1002819  67.9097730  45.8768663
  65.5627689  75.9040910  36.2291013  65.2042344  76.0755553  37.0055045
  65.0766400  76.3654115  35.6719012  65.4386386  75.9979881  36.2616282
  63.3798075  59.5272108  39.8318104  62.5091633  59.5010829  39.7851414
  63.6338417  59.3549301  39.0143950  63.2891635  59.4982252  39.7038241
  60.3516055  71.5840075  28.7691247  60.6408580  72.3604958  29.0434822
  60.4387854  71.0728807  29.4705747  60.4070311  71.6231994  28.9133745
  63.2475942  69.4321309  50.5642771  63.7175573  70.0563426  50.9510645
  63.2937822  68.7638285  51.1235986  63.3243818  69.4255990  50.7042842
  62.4739449  62.0771297  43.1184427  62.0871202  62.1020328  43.8997957
  61.9872387  61.5112975  42.6658944  62.3451958  61.9967048  43.1672331
  68.4489429  68.6433952  41.7424130  68.0217037  68.5560300  40.9872229
  67.8115482  68.7511727  42.3278974  68.2919036  68.6466612  41.7169571
  62.1396591  58.9638282  45.4094687  62.7689709  59.4998582  45.1315758
  62.3082454  58.8715641  46.2608253  62.2574386  59.0299645  45.4943215
  61.9410506  63.7509477  47.6821099  62.7683935  63.4794626  47.7379713
  61.9618352  64.5470319  48.0384917  62.0663356  63.8289231  47.7436282
  56.5179996  70.8973340  40.8691360  55.6768002  70.7977214  41.0770253
  56.7270004  71.6668820  41.2205680  56.4244688  70.9965383  40.9518674
  53.9955563  68.5192877  38.6976110  53.6012260  68.5935889  37.9226220
  53.4395680  68.9050823  39.2484472  53.8558375  68.5874651  38.6643770
  65.6320510  61.4974171  38.3779989  65.8370103  61.4296479  39.2236986
  65.3046933  62.3032992  38.3101167  65.6135757  61.6060111  38.4939644
  60.3296661  68.8254739  40.1188957  60.0259798  68.2710727  40.7199365
  59.6276081  69.0046949  39.6316991  60.1812870  68.7699521  40.1358663
  59.3862758  66.1355259  34.6833659  59.6622492  65.4174171  34.2711226
  59.9861427  66.7340179  34.4754765  59.5156022  66.1175630  34.5914420
  58.3915012  76.0404460  44.8261055  58.2835367  76.0506522  45.6923113
  58.6010793  76.8659240  44.6366009  58.4065123  76.1645535  44.9265146
  68.8854197  62.0505935  37.8582755  68.2728511  62.5376337  38.2436486
  68.9818372  61.3749426  38.4020406  68.8092095  62.0224244  37.9961613
  62.8873278  63.8068776  32.9580254  63.3417025  63.9779337  33.6828098
  63.3613324  63.1936887  32.5578030  63.0241598  63.7419661  33.0054015
  56.4088804  73.2917102  42.2882992  55.8176737  73.9326600  42.2586007
  57.1709827  73.7154719  42.2614292  56.4337064  73.4492941  42.2798140
  56.8049426  64.4519100  42.9551010  57.2650908  64.5258029  43.6926134
  56.8505533  65.2500354  42.6050831  56.8799982  64.5813247  43.0123767
  58.4532776  65.1185795  47.5223037  58.0618341  64.4719142  47.9578815
  58.6218639  65.7097230  48.1417292  58.4203687  65.1100063  47.6785743
  60.2286298  70.5111311  34.0625261  60.9728343  70.8985587  34.3008211
  60.3746994  69.6668736  34.2265749  60.3596883  70.4441783  34.1219231
  62.1465874  62.3061569  39.0957123  61.3001919  62.4784377  38.9698472
  62.1437006  61.5010913  39.4322951  62.0213024  62.2122598  39.1268250
  63.2164174  66.0836784  39.9619180  62.7424128  65.5578546  40.4724491
  63.5882310  65.5366257  39.3934042  63.2014063  65.9252780  39.9534328
  53.5937204  68.0808291  45.3302726  54.4562817  67.9804000  45.2440056
  53.2628987  67.5003000  44.7688298  53.6722401  67.9799917  45.2348132
  69.4800905  71.1439160  41.3725961  69.2399128  70.3045575  41.3768387
  69.9592912  71.2239326  42.0966734  69.5153088  71.0320559  41.4800763
  65.1447674  66.9773338  33.0244934  64.6170692  67.0602082  32.3350643
  65.6043382  67.7191210  33.0209579  65.1349524  67.0994001  32.9219629
  71.4806092  67.9240617  39.3255220  71.2415862  67.8836451  38.4876005
  71.6439993  68.7711769  39.4520941  71.4696395  68.0432702  39.2208702
  68.0852122  72.3090566  45.2560265  68.8086321  71.8563092  45.0771285
  67.8202084  72.5895232  44.4732593  68.1533395  72.2841535  45.1138981
  56.9538990  66.9050740  41.9913144  56.3292060  66.9169132  41.3839097
  56.6184585  67.3810915  42.6404385  56.8124482  66.9769257  41.9969713
  57.1380739  65.2475858  28.0485829  56.7893543  65.8995583  28.5117379
  56.6577185  65.2332971  27.3209701  57.0150983  65.3418912  28.0096921
  53.6664666  74.9651200  43.4316909  53.1364590  74.2743639  43.4811883
  53.9389759  74.9561385  42.6029617  53.6289388  74.8618331  43.3164325
  64.6984756  75.5476902  32.1554591  65.4218955  76.0135015  32.0119165
  64.2585347  75.6150512  31.4052188  64.7400448  75.6260739  32.0239373
  63.8670911  72.4074444  43.4055280  63.2527904  71.8632495  43.7003916
  64.3838196  71.8938681  42.9261096  63.8526574  72.2510853  43.3779509
  63.1067208  73.4778714  41.1399579  62.6794817  72.8528433  40.7065014
  63.0992153  73.1953636  41.9658586  63.0426350  73.3431495  41.1979406
  56.2229736  68.5143887  44.2088013  56.3823222  67.7587211  44.6139735
  56.0422629  69.0634827  44.8628751  56.2195095  68.4837701  44.3650719
  64.1650039  60.6805123  44.7638802  63.6690600  60.8768797  44.0730369
  64.9219101  61.0797791  44.5927604  64.2036863  60.7682857  44.6358939
  61.4352918  64.3547469  41.3542113  61.4595405  63.8207581  40.6654893
  61.6864392  63.8464778  42.0167704  61.4762837  64.2008373  41.3506758
  48.9460508  71.6378964  40.7885257  48.8403957  71.5925808  39.9237341
  48.1960728  71.9832744  41.0699542  48.8196111  71.6819872  40.7022587
  57.7154240  63.0818287  40.7347857  57.7552612  63.5827494  41.4482565
  56.8903905  63.1728681  40.4653780  57.5993766  63.1700103  40.7998395
  59.8983853  72.6479027  48.8368152  59.0479484  72.7850741  48.9725797
  60.0611981  71.9142805  49.2815854  59.7967717  72.5593128  48.9223751
  59.1368604  69.5978797  43.0321756  58.3060533  69.7652615  42.8257004
  59.0820121  69.2214748  43.8170642  59.0058019  69.5668528  43.1170284
  56.9452387  63.0887690  48.6678167  57.5705090  62.5449823  48.9407599
  56.4902867  62.6082607  48.0985957  56.9700648  62.9377171  48.6239761
  57.5104648  67.8734388  33.5611874  57.6507609  68.3706853  34.2640515
  58.0087180  67.1720683  33.7026088  57.6045729  67.8436367  33.6863453
  57.5404870  68.7401499  30.8904451  58.1749949  69.3361925  30.8253913
  57.6230481  68.4404957  31.7050321  57.6461421  68.7842408  31.0007537
  70.5187436  71.2716977  43.7590815  71.1105276  71.9114228  43.7909013
  70.9546430  70.5740014  44.0482882  70.6705867  71.2635327  43.8071648
  59.1183853  64.6715475  30.8649893  59.4399694  64.1918557  30.2109155
  59.3810797  65.4815121  30.6740704  59.2049878  64.7205373  30.7405385
  62.3480826  75.6934349  44.3848709  61.8405917  76.2470196  44.8289339
  62.0507472  75.7542639  43.5667483  62.2285711  75.7840660  44.3297166
  64.5143008  64.0587669  43.2273372  64.9398079  63.6060195  42.6156898
  63.9000001  63.5047740  43.5038159  64.4871653  63.9101645  43.1778397
  54.0457858  70.9369340  34.1593997  54.5550087  71.5333848  34.5405302
  54.5192130  70.6695314  33.4770416  54.1901234  70.9855156  34.1148520
  62.9537231  60.5302769  36.6363949  62.3105549  60.3800415  37.2049087
  62.6136638  60.2845114  35.8713054  62.8082308  60.4714891  36.6066964
  67.5436577  68.4862195  36.0593957  66.8727767  69.0291898  35.9307023
  68.2376327  68.9557051  35.8175652  67.5465445  68.6360467  36.0049485
  67.7064705  64.9418079  38.9684331  68.0592315  64.5147802  39.6430129
  66.8479506  64.8568923  39.0985407  67.6314149  64.8662820  39.0879341
  56.4048390  67.5725599  37.0267177  55.6860379  67.9889731  37.2940041
  56.7760752  68.1379838  36.4758815  56.3540321  67.7174880  36.9849984
  65.7047970  68.2053448  42.9169173  65.6845898  68.0236743  43.7703952
  65.7527171  69.0765466  42.8928757  65.7082611  68.3069986  43.0392468
  63.6494300  74.7940640  48.8417650  63.6090155  74.1490317  48.2562805
  64.4617619  74.7377257  49.1543062  63.7637454  74.6899607  48.8014599
  62.1794964  66.6123599  32.3640557  61.5859803  66.9340595  31.8125124
  62.2170242  65.7664694  32.1561663  62.0969353  66.5347927  32.2523328
  69.1388765  60.0636491  39.8968643  68.6319629  59.3565631  39.8289821
  69.9356198  59.7329680  40.0269720  69.1816004  59.9109642  39.9067638
  65.0552781  66.5703103  35.7942307  64.8266474  66.5935805  34.9520665
  65.3150857  65.7460570  35.9137317  65.0598969  66.4519183  35.6867505
  59.3372009  68.4237576  45.3967407  58.8250912  67.8158759  45.7552439
  59.1651505  69.1394169  45.8641383  59.2361646  68.4400876  45.5183631
  54.1837724  66.8675152  48.0469769  54.0140314  67.5276526  47.5017976
  53.7403674  67.0781713  48.7682258  54.0937057  66.9961134  48.0731398
  58.1097543  65.1079649  37.0896503  58.5854909  65.4696729  36.4546684
  57.6086143  65.7636117  37.3696645  58.1062902  65.2573838  37.0373244
  63.2141079  66.3461821  47.8369663  63.7712509  66.1175630  47.2048128
  62.8902144  67.1067486  47.5604875  63.2487490  66.4245658  47.7026160
  51.0839788  69.7722017  43.3058259  50.5366508  69.1022663  43.4239127
  51.8732166  69.4051865  43.3701726  51.1191972  69.6187004  43.3326959
  60.9324197  69.4329474  48.8021670  61.6835524  69.7481151  49.1161224
  61.1246773  69.2308645  47.9755592  61.0715611  69.4496856  48.7265066
  60.1524196  67.2520849  30.4569887  60.5323161  67.2700478  29.6721001
  59.4116792  67.6974838  30.3360734  60.0993034  67.3202624  30.3233455
  67.7809487  65.5603040  36.0445465  67.7803713  65.4051697  36.9029742
  67.5765667  66.4066028  35.9886851  67.7509265  65.6623661  36.1633405
  49.8426758  68.9842825  40.4604282  49.6648519  68.5319434  41.1859197
  49.5545780  69.7868986  40.6442759  49.7739711  69.0365383  40.5947785
  65.5050339  70.2400542  39.6981672  66.0004004  69.5223537  39.6585692
  64.6950115  69.9371340  39.5836159  65.4594232  70.0898189  39.6755398
  60.9508950  74.0898356  31.8478677  60.1420273  73.7665029  31.8011986
  61.4583859  73.3831578  31.7806925  60.9058617  73.9379672  31.8308971
  51.5799228  71.5170549  37.5726041  50.7144747  71.5056239  37.4608812
  51.6798043  71.3300772  38.4197180  51.4673395  71.4876610  37.6814985
  67.5702158  72.9904230  42.3858801  67.9957229  72.4678652  41.8329226
  67.2059078  73.5885067  41.8647424  67.5788760  73.0014457  42.2267811
  57.2056237  81.2868447  41.1456146  57.5202796  82.1004836  41.1533928
  57.6149651  80.9018666  41.8138306  57.3124335  81.3497150  41.2460238
  64.1580757  76.7038494  38.7159958  64.6291935  77.4178757  38.8849944
  64.4940936  76.1037244  39.2519828  64.2775872  76.7209958  38.8192334
  61.0750252  61.4765965  45.6718053  61.2078158  60.6796958  45.9999029
  61.4595405  62.0032368  46.2516329  61.1506581  61.4365881  45.8061556
  64.7954703  76.4956428  45.4787651  64.2475649  75.8714312  45.2107716
  65.2567732  76.6850700  44.7631730  64.7821913  76.4315478  45.3338082
  64.1482607  58.3996291  42.2699146  63.3428571  58.2894020  42.5866985
  64.0189343  58.5008746  41.4129012  64.0102740  58.3979961  42.1907187
  67.6048568  64.5641783  42.8638843  67.0211557  65.0650989  42.4516411
  67.9252862  64.0571339  42.2303167  67.5661743  64.5633618  42.7097350
  60.1443367  63.4782377  33.1397518  60.9659061  63.6480690  32.8979213
  59.6813018  63.6329638  32.4163816  60.1974529  63.5264110  32.9969162
  58.7338699  61.4725140  43.9195947  59.2783112  61.1316266  44.5100289
  58.7875635  62.3310601  44.0617231  58.8227818  61.5480399  44.0277820
  54.5469258  75.2341556  40.7934755  55.1514115  75.1937390  40.1648576
  54.3396570  76.0812708  40.8238811  54.6058155  75.3529558  40.7050871
  49.7820540  74.2176173  40.6633678  49.6844818  73.4072445  40.9723735
  50.5649410  74.1967967  40.2779946  49.8836676  74.0943263  40.6520541
  36.6347170   0.0209252  21.9079915  36.6041174   0.8753889  22.0798185
  37.2328518  -0.2795455  22.4666059  36.7184328   0.1025749  22.0154718
  24.2187994   8.6447621  22.4270077  23.4670894   8.2663159  22.1986122
  24.6674006   8.6766055  21.6788888  24.1737661   8.5933228  22.2827580
  33.1440571   5.3771429  36.2693302  33.8507338   4.8823459  36.3980236
  33.3328507   5.8180510  35.5395960  33.2768477   5.3689779  36.1802347
  29.6712954   9.0672990  17.8555624  29.3364323   9.7449912  17.4199847
  30.1839825   8.6778302  17.2672496  29.6978535   9.1097569  17.7042416
  29.2117245  11.0187259  23.7966736  29.5956625  11.5874158  23.2571511
  29.1476387  10.2936769  23.3172552  29.2590673  10.9962723  23.6460599
  32.6798676   1.1676947  29.3064497  33.2254636   1.8462034  29.3658467
  32.6215552   1.0264408  28.4466079  32.7514590   1.2468949  29.1876558
  25.7972750   8.6566013  24.6932850  25.8983113   7.8466367  25.0029978
  25.2014496   8.5622959  24.0632528  25.7245289   8.5231041  24.6459088
  34.4563744   2.5961554  20.1798225  34.3403270   3.3469240  20.6090363
  35.2519631   2.3385507  20.4294312  34.5568334   2.6696401  20.2802317
  25.6373490  13.5743602  26.0947706  26.2810946  14.0156766  26.4843864
  25.9629746  12.7697028  26.0077965  25.7805319  13.5208797  26.1393183
  18.9937795   4.6786300  24.3185184  18.7587979   3.8453952  24.2117452
  19.1323435   4.9590965  23.5046384  18.9793457   4.5969803  24.1827538
  26.3394070   6.5855577  21.4667568  26.6609911   7.1260784  20.8628876
  26.9866166   6.0152348  21.5989857  26.4820125   6.5814752  21.3974603
  28.3895778  -1.4128428  21.5501954  29.0875943  -1.2340300  22.0423418
  28.7048110  -1.9358089  20.9272344  28.5391115  -1.4634656  21.5303964
  21.0197015   0.3924312  29.4613060  20.8955712   0.9786757  30.0962879
  21.6715300  -0.1015492  29.7625335  21.0970665   0.4063116  29.5998989
  28.5783713   4.9742017  21.5381746  29.0177349   4.3659118  21.9836519
  28.4288376   4.5949390  20.7667211  28.6205179   4.8280488  21.4900913
  26.0455356   3.5686029  28.7400571  26.6904359   3.0758472  28.4211520
  26.2857133   3.7110816  29.5666650  26.1765941   3.5163471  28.8150104
  28.5841448   6.4140935  28.3907464  28.8664690   5.6192341  28.1694220
  29.3127608   6.8921522  28.4112525  28.7331011   6.3675532  28.3610479
  32.1793050   3.3269198  18.4912515  32.0944345   4.1830165  18.6362084
  32.6677433   3.0513522  19.1594674  32.2381947   3.4126520  18.6114597
  33.1111483  -0.0546007  19.9910250  32.5822954   0.1613626  20.6507556
  33.6336503   0.6390131  19.9111219  33.1099936   0.0797129  20.0765849
  38.5659536   5.5200297  25.3643295  37.7357239   5.7310941  25.5276711
  38.5168788   4.6937352  25.0885578  38.4366271   5.4289903  25.3480660
  20.5555119   9.5571970  25.5941390  20.0722698  10.2822460  25.5700973
  21.3678438   9.8548100  25.7051547  20.6045867   9.7074324  25.6068669
  26.6269273   8.3504151  28.1991204  26.1096215   7.9911566  27.5952512
  27.3243665   7.8266326  28.2097270  26.6534855   8.2201839  28.1121463
  30.2832865   8.7998965  34.1607377  30.3716211   8.6125106  35.0085588
  30.7122578   8.1536395  33.7612224  30.3594968   8.6761973  34.2279129
  27.8503325   8.0830125  33.1425039  27.2874160   7.6702735  33.6664701
  28.6124349   8.0083031  33.5618183  27.8797774   8.0107526  33.2818040
  23.4099317  10.0728146  25.7461669  24.1119896   9.5580135  25.8034426
  23.3296800  10.4002298  26.5508545  23.5023077  10.0442373  25.8734462
  38.0613494  -1.8329302  29.1593716  37.2241915  -1.7627115  29.3941310
  38.0301725  -1.8304808  28.2868018  37.9331777  -1.8219075  29.0653264
  24.4578223   0.3103733  34.8742085  24.6298727   0.2009628  35.7227366
  24.9947581   0.9558139  34.6373277  24.5623227   0.3895735  34.9647181
  22.7350092   6.2634498  25.2547278  23.5738992   6.4957431  25.3021039
  22.7661861   5.3938810  25.1854313  22.8631810   6.1691445  25.2511922
  23.3602795   6.6835374  29.5560583  23.9001020   6.5406505  30.2263955
  22.6772741   7.0832124  29.9244609  23.3394949   6.7215044  29.7095005
  32.7843680   2.3626374  24.7505607  33.5401195   2.7957889  24.7894516
  32.8906004   1.7131144  25.3240243  32.9113851   2.3303858  24.8403633
  35.8223851   6.1899651  25.5008010  35.3859083   6.1936394  26.2566982
  35.4886767   6.8705150  25.0687588  35.7086471   6.2912107  25.5488843
  30.3952925   8.2307984  36.8251161  31.1793341   8.3438832  37.1906903
  30.1949519   7.4049121  37.0209847  30.4818950   8.1254704  36.9085547
  18.7639940   2.9035664  29.7095005  18.4978355   2.0874781  29.8685995
  18.7778504   2.9488820  28.8390520  18.7264663   2.7892569  29.6048487
  30.5523318  10.1418086  30.4717616  29.7538564   9.9017586  30.7291485
  31.0009330  10.1932479  31.2184664  30.4997929  10.1140477  30.6202541
  38.9568197   2.9080571  24.3927648  39.6184631   2.3471240  24.2923556
  38.3159609   2.4132602  24.7180339  38.9597065   2.7516980  24.4259988
  29.8445005   6.2050703  16.7008571  30.2596154   5.8735727  16.0093067
  29.0136935   5.9719605  16.5728708  29.7833014   6.1221959  16.5799418
  19.1733354   3.6894444  26.9906749  18.9908927   3.6641330  26.1379041
  19.9083023   4.1593382  27.0295658  19.2547418   3.7555806  26.8704667
  35.2433028   3.9245954  24.1339636  35.4788617   4.0691153  23.3066487
  35.3922592   4.6888362  24.5271150  35.2998831   4.0585008  24.0703240
  22.2379106   0.4079447  33.4988858  22.9619078   0.3932477  33.9853752
  22.3395242   1.1174802  33.0010826  22.3597315   0.5104150  33.4967644
  37.0723485   2.7647620  21.9709240  37.4031702   3.2975260  21.3649335
  37.6456573   2.8186507  22.6271191  37.2057164   2.8517188  21.9787022
  29.6124055   3.8878531  38.3637805  28.8197036   4.2022043  38.5490424
  29.7272982   4.1030000  37.5258589  29.5119465   3.9662368  38.2676139
  32.2855374   0.6112522  22.6532820  32.3802228   1.3501816  23.1072446
  31.6614217   0.1829998  23.0867385  32.2064404   0.6573843  22.7840968
  30.5407848   3.7898735  33.3023101  31.1146709   3.1525979  33.4571665
  30.4622651   3.7902817  32.4332759  30.6141083   3.6963846  33.1969512
  19.1404264   0.5687944  27.1405815  19.7177767   0.4324395  27.7798061
  18.4418326   0.1123729  27.3951400  19.1225286   0.4810211  27.2728105
  25.8971566   2.2222000  25.3544299  25.6390811   1.3893735  25.3275598
  25.9520049   2.4479613  24.5136799  25.8671344   2.1319771  25.2264435
  24.8706279  -0.2240237  25.8409193  24.2955870  -0.0648069  26.4773154
  24.4941955  -0.8604828  25.3777644  24.7309091  -0.2942425  25.8663752
  28.5379567  -1.7516888  30.7001572  28.1494000  -2.1762670  30.0453763
  27.8734266  -1.5034739  31.2078598  28.3826495  -1.7778167  30.6789440
  29.6418505   2.4781716  18.8978379  30.4559144   2.7696609  18.7861150
  29.5777647   1.8241579  18.3236672  29.7521244   2.4246911  18.7967216
  35.8627996   5.1607713  33.3107954  35.6266633   4.3295777  33.1920015
  36.5071225   5.1093320  33.8962799  35.9222666   5.0305401  33.3793848
  25.5126414   5.9503234  24.0250691  26.1500361   5.7114981  24.5702484
  25.9381485   6.1540393  23.2903851  25.6702580   5.9454244  23.9967848
  20.2039056   8.1891570  27.9084995  20.2443201   8.4606421  27.0804774
  20.7633580   8.7133478  28.3242783  20.2922402   8.3067325  27.8476883
  36.8864416   4.9452161  29.3736249  36.5810233   5.6780218  29.7349565
  36.1670632   4.5390091  29.0929035  36.7351759   4.9933894  29.3849386
  27.8947886   6.4275656  25.7044477  27.9686894   6.2650828  26.5586327
  28.7117392   6.6165846  25.4604959  28.0264244   6.4312399  25.7942503
  42.5866208   1.5845162  28.7004593  42.5190709   1.6041121  27.8307180
  42.5721871   2.4275489  28.9260264  42.5744965   1.7118897  28.6057070
  21.6553642   6.7733519  22.7338921  20.8291760   7.0195256  22.6073199
  21.7165634   6.6945600  23.6000979  21.5427809   6.7978468  22.8427865
  26.4352471   9.3910400  20.4357951  26.7250770   8.9999381  19.7117177
  27.1655952   9.5727104  20.8763226  26.5859356   9.3604213  20.3940758
  40.3724826   0.3589548  26.9751188  40.9232747  -0.2742383  27.2148280
  40.3568941   0.8904941  27.6666692  40.4510022   0.3438496  27.1130046
  27.0247217   4.1928145  31.5211081  26.5258910   4.9043913  31.5995969
  27.8347441   4.5128812  31.4829243  27.0703323   4.3454994  31.5267650
  24.3758387  11.3677782  23.5018100  24.1558682  11.0775137  24.2944767
  24.1552909  10.7092737  22.9736013  24.3105981  11.2277490  23.5407009
  23.2875334   3.4551098  25.7673802  22.9988583   2.8288570  26.3019529
  24.1558682   3.3971386  25.8338482  23.3735586   3.3538643  25.8564757
  34.0753232  -1.4014118  26.0855784  33.7317998  -2.1223783  26.4363033
  34.1746274  -1.6100267  25.2434142  34.0395275  -1.5389915  26.0127464
  26.5426343  12.7407172  22.2848793  27.1950401  12.2083614  22.5139819
  25.8451951  12.3875824  22.6716667  26.5357061  12.6096695  22.3760960
  23.4907607   5.0946350  21.6916167  24.2453575   5.4759389  21.9051630
  22.8978220   5.5457493  22.1462864  23.5144321   5.2175177  21.7899045
  34.5366261   5.0611586  21.6279772  35.1024294   5.7204796  21.5438315
  33.8894164   5.4061284  22.0996174  34.5245017   5.2093527  21.6852528
  25.9514275  -2.9490810  36.8173379  25.1414050  -2.6433030  36.7063222
  26.4288961  -2.2285228  36.9325963  25.9017753  -2.7976209  36.8180450
  24.8105834   6.2654911  27.0656282  24.2886588   6.4055203  27.7508147
  25.1979854   5.5065575  27.2558400  24.7909535   6.1740435  27.1957359
  31.0072839   8.0050370  21.0516851  30.7659515   7.2718231  20.6443916
  31.1874172   8.5537227  20.3983184  30.9980463   7.9772761  20.8947074
  26.2372160   3.2958930  22.4637773  26.0414942   3.9033664  21.8698076
  26.4606505   2.6026874  21.9829447  26.2406801   3.2836455  22.3053854
  24.6350690   0.1813668  22.5818642  25.3573342   0.3454826  22.1222448
  24.1558683   0.9023333  22.4757982  24.6714420   0.3111897  22.4984256
  32.5944197  -3.4822533  27.9615327  31.7555298  -3.4561254  27.7253590
  32.6648565  -2.8351798  28.5420673  32.4812591  -3.3826408  28.0124444
  22.2858306   2.5871740  31.6872782  22.7979403   2.8655994  31.0381541
  21.9994649   3.3261034  32.0535595  22.3193170   2.7374094  31.6462660
  36.4701721   1.7245453  25.2476568  36.3835696   1.8800879  26.1011347
  36.0152201   2.3683529  24.8735974  36.3904978   1.8421208  25.3183675
  25.8042032  -5.3201871  31.7473823  25.6125229  -5.3046737  32.5973247
  26.6540628  -5.1238197  31.7240478  25.9017754  -5.2887520  31.8697118
  30.3427537  -0.9543800  23.8702128  30.0962252  -1.0348049  24.7038917
  30.6712660  -1.7390332  23.6764655  30.3548781  -1.0817534  23.9649651
  34.2375586   5.7539560  27.6588909  34.0989945   6.4520606  28.1637652
  33.4575584   5.5988216  27.3025091  34.1018813   5.8339726  27.6815183
  32.5753671   2.0535935  33.9111291  32.5701710   1.1815752  33.9153717
  33.2814665   2.2524104  33.4380747  32.6798675   1.9539809  33.8418326
  26.3024565   1.7812919  33.2825111  26.4467940   2.3614127  32.6468221
  26.6500213   2.1589216  33.9874966  26.3752026   1.9233623  33.2924106
  28.4744482   0.9803087  31.0650243  27.7267796   1.1734102  30.6598521
  28.6286007   0.1548307  30.8274364  28.3866909   0.8868199  30.9695648
  25.3752319   9.9715691  30.1486138  25.5241883   9.4118607  29.4959542
  26.1552322  10.0507693  30.5318657  25.5126413   9.9001256  30.1083087
  35.7328959   5.1117814  18.4205408  35.3535768   4.3254952  18.4134698
  35.0695204   5.6604671  18.2777053  35.5787434   5.0762638  18.3986205
  27.9005620  10.1430334  31.4270629  27.8249291   9.4739144  31.9821417
  27.8295479  10.8448122  31.9411295  27.8786227  10.1475241  31.5847477
  28.7146259  -5.1246362  31.9545646  29.1718873  -4.3922388  32.0818439
  28.7902588  -5.5479897  32.7132902  28.7937229  -5.0789124  32.0846723
  28.5575867   8.6631333  22.2594235  29.3225758   8.3940976  21.9376899
  28.4553957   8.1781343  22.9764297  28.6557363   8.5520897  22.3174062
  26.5928637  -3.1344258  28.7987470  25.8024712  -3.3152798  29.1204806
  26.9889260  -3.9117305  28.7817765  26.5345513  -3.2756797  28.8440019
  31.9772323   4.4998172  26.5246916  31.3017325   4.2683404  27.0260303
  31.9864699   3.8919355  25.8989021  31.8790828   4.3757097  26.5063069
  29.1066467  -0.6583999  33.2810969  29.0425608   0.2025958  33.1531106
  29.2463655  -0.9752006  32.4806521  29.1181937  -0.5783832  33.1439182
  33.9789058   7.3563305  18.7557094  34.0608895   8.1630291  18.4318545
  34.4638800   7.3759264  19.4797868  34.0626216   7.4783967  18.8143993
  27.7885561   2.0348141  27.4227172  27.3647810   2.2352640  26.6866191
  27.6130416   1.1876989  27.5351472  27.6996442   1.9396922  27.3300862
  23.0768006   2.5300192  22.8555145  23.2332625   2.4646995  23.7111137
  23.4168599   3.3048745  22.6433824  23.1501241   2.6349390  22.9509739
  29.6147151   1.9058076  21.7248508  30.1562696   1.4028457  22.1887129
  29.9293710   1.8523270  20.9137993  29.7411548   1.8237497  21.6732320
  33.4864258   6.1160723  38.8375420  34.2999123   5.8445872  38.9980553
  33.3259224   5.8168263  38.0335616  33.5834206   6.0315649  38.7420826
  27.7833600   7.2975427  19.0088536  27.8526421   6.4389966  19.1481536
  28.5622055   7.5147308  18.6807561  27.9086450   7.2028291  18.9805693
  30.7636420  -3.2005620  31.7770808  30.9778389  -3.8394706  31.2234162
  30.1470319  -2.7559796  31.3478670  30.7041749  -3.2295476  31.6321240
  32.1741088   9.7213128  23.2225029  31.7820880   9.4179844  22.5047895
  32.3294160  10.5582218  23.0329983  32.1394678   9.7996965  23.0881526
  32.9275508  -1.5916555  32.7154116  32.1152190  -1.8990664  32.7967288
  33.3865443  -2.0717555  33.2796828  32.8755893  -1.7080062  32.8108710
  32.3380763   6.2863117  23.1631060  31.9795417   6.4577760  23.9395092
  31.8519473   6.7476323  22.6059058  32.2139460   6.3802088  23.1956329
  30.0229015  -0.1856483  37.4982818  30.4928647   0.4385633  37.8850692
  30.0690896  -0.8539508  38.0576033  30.0996891  -0.1921803  37.6382889
  33.4985502   7.1767013  34.1098261  34.1365222   6.6827209  33.7760717
  32.8559594   7.1044414  33.5250488  33.4979728   7.0926022  33.9740616
  35.2242502  -0.9743841  28.6764176  34.7970110  -1.0617492  27.9212276
  34.5868555  -0.8666065  29.2619020  35.0672109  -0.9711181  28.6509618
  33.5539759   7.8686821  30.7503617  34.3432137   7.5175886  30.8705699
  33.7283356   8.6823210  30.4880251  33.6960040   7.9372679  30.7291485
  23.2933069   1.2795547  27.8031406  22.4521076   1.1799421  28.0110300
  23.5023077   2.0491028  28.1545727  23.1997762   1.3787591  27.8858721
  20.7708636  -1.0984916  25.6316157  20.3765334  -1.0241904  24.8566267
  20.2148753  -0.7126969  26.1824519  20.6311448  -1.0303141  25.5983817
  27.1049734  -0.7923054  27.0529004  26.8012871  -1.3467065  27.6539412
  26.4029155  -0.6130844  26.5657038  26.9565944  -0.8478271  27.0698709
  25.1668085   6.4226667  31.7601102  25.0588440   6.4328729  32.6263160
  25.3763866   7.2481448  31.5706055  25.1818196   6.5467742  31.8605193
  23.1841877   3.6739310  29.2223039  22.5929810   4.3148808  29.1926054
  23.9462900   4.0976927  29.1954339  23.2090137   3.8315148  29.2138186
  25.2285849  -4.4991998  34.4563084  24.8371415  -5.1458651  34.8918862
  25.3971712  -3.9080563  35.0757339  25.1956760  -4.5077730  34.6125790
  39.3032298   3.5045079  30.2200317  39.3615422   3.9531728  30.9660294
  38.6698766   3.9143892  29.7830397  39.2183594   3.6318814  30.2652866
  32.9431393   9.1248621  26.6555064  32.7451082   9.6139436  25.9611275
  32.3219104   9.3289863  27.2339197  32.8218958   9.2265159  26.6378287
  27.0039371   0.8933518  20.9965308  27.7481416   1.2807794  21.2348258
  27.1500068   0.0490943  21.1605796  27.1349957   0.8263991  21.0559278
  29.9917247  -3.5341009  26.8959227  29.5177202  -4.0599247  27.4064538
  30.3635383  -4.0811536  26.3274089  29.9767136  -3.6925012  26.8874374
  36.2553978   1.5261367  28.3066008  36.0152201   0.6867782  28.3108434
  36.7345985   1.6061534  29.0306781  36.2906162   1.4142767  28.4140810
  38.2559165  -1.6937176  26.2595267  38.0168935  -1.7341342  25.4216052
  38.4193066  -0.8466024  26.3860988  38.2449468  -1.5745091  26.1548749
  34.8605195   2.6912773  32.1900312  35.5839394   2.2385300  32.0111332
  34.5955157   2.9717439  31.4072640  34.9286468   2.6663742  32.0479027
  23.7292063  -2.7127053  28.9253191  23.1045134  -2.7008661  28.3179144
  23.3937658  -2.2366878  29.5744431  23.5877555  -2.6408536  28.9309760
  20.4417739   5.3473407  30.3656956  19.9117663   4.6565846  30.4151930
  20.7142832   5.3383592  29.5369664  20.4042461   5.2440539  30.2504371
  31.4737829   5.9299109  19.0894638  32.1972028   6.3957222  18.9459211
  31.0338420   5.9972719  18.3392235  31.5153522   6.0082946  18.9579420
  30.6423985   2.7896652  30.3395327  30.0280978   2.2454702  30.6343962
  31.1591269   2.2760888  29.8601143  30.6279647   2.6333061  30.3119556
  29.8820282   3.8600922  28.0739626  29.4547890   3.2350640  27.6405061
  29.8745226   3.5775844  28.8998633  29.8179423   3.7253702  28.1319453
  22.9982809  -1.1033905  31.1428060  23.1576296  -1.8590581  31.5479782
  22.8175702  -0.5542966  31.7968797  22.9948168  -1.1340091  31.2990766
  28.2105991  -5.2630324  28.2882160  28.2348479  -5.7970211  27.5994940
  28.4617465  -5.7713015  28.9507750  28.2515910  -5.4169420  28.2846804
  15.7213581   2.0201171  27.7225304  15.6157030   1.9748016  26.8577388
  14.9713801   2.3654952  28.0039589  15.5949184   2.0642079  27.6362634
  26.6736926   3.0301234  35.7708199  25.8232557   3.1672949  35.9065844
  26.8365054   2.2965013  36.2155900  26.5720790   2.9415336  35.8563798
  25.9121677  -0.0198996  29.9661803  25.0813607   0.1474822  29.7597051
  25.8573194  -0.3963045  30.7510688  25.7811092  -0.0509264  30.0510331
  37.2940509   1.6539184  30.6930862  37.8858349   2.2936435  30.7249060
  37.7299503   0.9562221  30.9822929  37.4458940   1.6457535  30.7411694
  29.1233899   6.0756557  31.3188756  28.6158990   6.6292403  31.7629386
  28.8260545   6.1364847  30.5007530  29.0038784   6.1662868  31.2637212
  31.7341679   9.9919814  19.2492699  31.0170989   9.8180677  18.7839937
  32.3848417   9.7572387  18.7168185  31.7243530   9.9315607  19.1021917
  34.3189650  -1.1315597  22.9934004  33.6480840  -0.5885895  22.8647070
  35.0129401  -0.6620742  22.7515699  34.3218518  -0.9817326  22.9389532
  28.3676384  11.0081115  28.2245763  28.1442039  10.2499944  28.5929789
  27.8786227  11.0379136  27.5026202  28.2619833  10.9003339  28.1722504
  23.1801463  -2.0452194  23.9607224  22.4613452  -1.6288061  24.2280088
  23.5513825  -1.4797955  23.4098862  23.1293395  -1.9002912  23.9190031
  32.4801044  -1.4124345  29.8509220  32.4598971  -1.5941050  30.7043999
  32.5280244  -0.5412326  29.8268803  32.4835685  -1.3107807  29.9732514
  30.4247373   5.1762847  35.7757696  30.3843228   4.5312524  35.1902852
  31.2370692   5.1199464  36.0883108  30.5390527   5.0721814  35.7354645
  27.0154841  11.2281573  25.6782847  26.6015240  10.5655703  25.2886689
  27.7002215  11.3759432  25.1578541  27.0553213  11.1522231  25.5439344
  30.3820135  10.3871658  26.4306464  29.9836418  10.4973929  25.6627284
  29.7671355  10.5953725  27.0133024  30.2319024  10.4345226  26.4037763
  31.8305854  -3.0474689  22.7282354  31.6019547  -3.0241988  21.8860712
  32.0903930  -3.8717222  22.8477364  31.8352042  -3.1658609  22.6207551
  26.1125082  -1.1940216  32.3307454  25.6003985  -1.8019033  32.6892485
  25.9404578  -0.4783624  32.7981430  26.0114719  -1.1776917  32.4523678
  24.8850616  -4.5098143  24.0236549  25.3607983  -4.1481063  23.3886731
  24.3839216  -3.8541676  24.3036692  24.8815975  -4.3603954  23.9713290
  38.1161978   4.9623625  19.8149554  38.4995584   5.7114981  20.0447651
  37.3206091   5.2089445  19.5561543  38.0555760   5.1093319  19.8107128
  29.9894153  -3.2715972  34.7709709  30.5465583  -3.5002162  34.1388175
  29.6655218  -2.5110306  34.4944922  30.0240563  -3.1932135  34.6366207
  27.7077270  -0.1848318  35.7361717  28.4588597   0.1303358  36.0501271
  27.8999846  -0.3869148  34.9095638  27.8468684  -0.1680937  35.6605112
  32.2803412   0.6222750  26.6321719  32.7757077  -0.0954255  26.5925739
  31.4703188   0.3193547  26.5176206  32.2347305   0.4720396  26.6095445
  27.7262024   4.4720563  18.7818723  26.9173346   4.1487236  18.7352033
  28.2336932   3.7653785  18.7146972  27.6811690   4.3201879  18.7649018
  18.3552301   1.8992756  24.5066088  17.4897820   1.8878447  24.3948859
  18.4551117   1.7122979  25.3537227  18.2426468   1.8698817  24.6155032
  34.3455231   3.3726437  29.3198848  34.7710302   2.8500859  28.7669273
  33.9812151   3.9707275  28.7987471  34.3541833   3.3836664  29.1607857
  23.9809311  11.6690655  28.0796193  24.2955870  12.4827043  28.0873975
  24.3902724  11.2840873  28.7478352  24.0877409  11.7319357  28.1800285
  30.9333830   7.0860701  25.6500005  31.4045008   7.8000964  25.8189990
  31.2694009   6.4859452  26.1859875  31.0528945   7.1032166  25.7532381
  33.0210815   8.6962015  37.8292077  33.1307780   7.9070575  38.1848824
  33.3501712   8.6067951  37.0266415  33.0863221   8.5667868  37.7634468
  31.5707777   6.8778636  32.4127698  31.0228723   6.2536519  32.1447763
  32.0320805   7.0672908  31.6971777  31.5574986   6.8137686  32.2678129
  21.3222331   5.6163763  27.7274802  21.9267188   5.5759597  27.0988622
  21.1149643   6.4634915  27.7578857  21.3811228   5.7351766  27.6390918
  31.1366103   7.8829708  28.9437039  31.9564477   7.7392674  29.2053334
  30.8560181   8.5075907  29.4853477  31.2162846   7.9540060  29.0624978
  16.5573613   4.5998381  27.5973725  16.4597891   3.7894652  27.9063781
  17.3402483   4.5790174  27.2119993  16.6589750   4.4765471  27.5860588
  47.6079753  15.5394560  21.9079915  47.5773758  16.3939197  22.0798185
  48.2061102  15.2389853  22.4666059  47.6916911  15.6211057  22.0154718
  40.8079438  14.6270211  26.6632846  39.9517334  14.7878709  26.7141963
  40.8547092  13.7562275  26.6837907  40.6878550  14.5221013  26.6738912
  40.6445538  24.5858298  17.8555624  40.3096906  25.2635220  17.4199847
  41.1572408  24.1963610  17.2672496  40.6711119  24.6282877  17.7042416
  43.6531259  16.6862255  29.3064497  44.1987219  17.3647342  29.3658467
  43.5948135  16.5449716  28.4466079  43.7247174  16.7654257  29.1876558
  45.4296328  18.1146862  20.1798225  45.3135854  18.8654548  20.6090363
  46.2252215  17.8570815  20.4294312  45.5300917  18.1881709  20.2802317
  29.9670378  20.1971608  24.3185184  29.7320563  19.3639260  24.2117452
  30.1056019  20.4776273  23.5046384  29.9526041  20.1155111  24.1827538
  32.2660466  12.3657338  27.2169491  31.6465497  11.7749985  27.0479506
  32.1644329  12.9568773  26.5833814  32.1598141  12.3661421  27.0974481
  37.3126653  22.1040885  21.4667568  37.6342494  22.6446092  20.8628876
  37.9598750  21.5337656  21.5989857  37.4552709  22.1000060  21.3974603
  39.3628361  14.1056880  21.5501954  40.0608526  14.2845008  22.0423418
  39.6780694  13.5827219  20.9272344  39.5123699  14.0550652  21.5303964
  31.9929599  15.9109620  29.4613060  31.8688296  16.4972065  30.0962879
  32.6447883  15.4169816  29.7625335  32.0703248  15.9248424  29.5998989
  39.5516297  20.4927325  21.5381746  39.9909932  19.8844426  21.9836519
  39.4020960  20.1134698  20.7667211  39.5937763  20.3465796  21.4900913
  37.0187940  19.0871337  28.7400571  37.6636942  18.5943780  28.4211520
  37.2589717  19.2296123  29.5666650  37.1498525  19.0348779  28.8150104
  39.5574031  21.9326243  28.3907464  39.8397274  21.1377648  28.1694220
  40.2860192  22.4106830  28.4112525  39.7063595  21.8860840  28.3610479
  37.5355225   9.4749277  25.6323229  37.2058555   9.9260420  24.9626928
  36.8600227   9.3965440  26.1796235  37.3865661   9.5300412  25.6146452
  43.1525633  18.8454506  18.4912515  43.0676928  19.7015473  18.6362084
  43.6410017  18.5698830  19.1594674  43.2114531  18.9311828  18.6114597
  44.7431633   5.4634800  23.8772840  44.4285074   6.1538278  24.3093262
  44.2258574   5.4079582  23.1758340  44.6196103   5.5569688  23.8369789
  44.0844067  15.4639300  19.9910250  43.5555538  15.6798934  20.6507556
  44.6069087  16.1575439  19.9111219  44.0832520  15.5982437  20.0765849
  49.5392120  21.0385605  25.3643295  48.7089823  21.2496249  25.5276711
  49.4901372  20.2122659  25.0885578  49.4098855  20.9475211  25.3480660
  35.9743674  19.3602517  18.7917718  35.3900890  19.8652549  19.1983582
  35.5713770  19.1344904  18.0514310  35.8282978  19.4010766  18.7422743
  31.5287703  25.0757278  25.5941390  31.0455281  25.8007768  25.5700973
  32.3411021  25.3733408  25.7051547  31.5778451  25.2259632  25.6068669
  40.4320889  15.6068169  17.2686639  40.6716893  15.8146153  16.4561982
  40.7536730  14.8025678  17.3775583  40.5158047  15.5182271  17.1647192
  35.7411179   7.5361565  21.1146177  36.4957147   7.9039882  20.8763227
  35.5638714   7.9101119  21.8825356  35.8265657   7.6459753  21.1931065
  49.0346078  13.6856006  29.1593716  48.1974499  13.7558193  29.3941310
  49.0034309  13.6880500  28.2868018  48.9064360  13.6966233  29.0653264
  35.4310807  15.8289041  34.8742085  35.6031311  15.7194936  35.7227366
  35.9680164  16.4743447  34.6373277  35.5355811  15.9081043  34.9647181
  34.0968244   9.9431884  17.8124290  33.9143817  10.1603765  16.9865282
  34.9593857  10.0570897  17.8682904  34.1972833   9.9921782  17.6978777
  33.7082676  21.7819806  25.2547278  34.5471575  22.0142739  25.3021039
  33.7394445  20.9124118  25.1854313  33.8364393  21.6876753  25.2511922
  39.7767963   6.9458295  20.8473313  40.5054123   6.7674250  20.4011470
  39.8662856   7.7876374  21.0580492  39.8974625   7.0442173  20.8126831
  43.7576264  17.8811682  24.7505607  44.5133779  18.3143196  24.7894516
  43.8638588  17.2316452  25.3240243  43.8846434  17.8489166  24.8403633
  46.7956435  21.7084959  25.5008010  46.3591667  21.7121702  26.2566982
  46.4619350  22.3890458  25.0687588  46.6819055  21.8097415  25.5488843
  29.7372524  18.4220972  29.7095005  29.4710939  17.6060089  29.8685995
  29.7511088  18.4674128  28.8390520  29.6997246  18.3077877  29.6048487
  46.7153918   8.7498787  27.7437438  47.3579826   8.8196892  28.3299354
  46.9676938   8.0828010  27.2416980  46.8476050   8.6625136  27.7564718
  33.6430271  13.2206057  16.3246763  32.9288448  12.9344236  16.7369195
  34.1274239  13.5602682  16.9653150  33.6089634  13.2287706  16.4802398
  34.4871130  11.9599351  32.3562012  33.7942927  11.4896330  32.6022744
  35.1031457  11.7337655  32.9303719  34.4755660  11.8566482  32.4771165
  49.9300781  18.4265879  24.3927648  50.5917215  17.8656548  24.2923556
  49.2892193  17.9317910  24.7180339  49.9329648  18.2702288  24.4259988
  40.8177589  21.7236011  16.7008571  41.2328737  21.3921034  16.0093067
  39.9869518  21.4904913  16.5728708  40.7565597  21.6407267  16.5799418
  30.1465937  19.2079752  26.9906749  29.9641511  19.1826638  26.1379041
  30.8815606  19.6778689  27.0295658  30.2280001  19.2741114  26.8704667
  46.2165612  19.4431262  24.1339636  46.4521201  19.5876461  23.3066487
  46.3655175  20.2073670  24.5271150  46.2731415  19.5770316  24.0703240
  48.0456068  18.2832928  21.9709240  48.3764285  18.8160568  21.3649335
  48.6189156  18.3371815  22.6271191  48.1789747  18.3702496  21.9787022
  43.2587957  16.1297830  22.6532820  43.3534812  16.8687124  23.1072446
  42.6346801  15.7015306  23.0867385  43.1796988  16.1759151  22.7840968
  41.5140431  19.3084043  33.3023101  42.0879293  18.6711287  33.4571665
  41.4355235  19.3088125  32.4332759  41.5873666  19.2149154  33.1969512
  30.1136848  16.0873252  27.1405815  30.6910350  15.9509703  27.7798061
  29.4150909  15.6309036  27.3951400  30.0957869  15.9995519  27.2728105
  43.5110979  17.9746570  15.8869772  43.4291141  18.0448757  16.7524759
  44.1490699  18.5376314  15.6953513  43.5930816  18.0685541  15.9859722
  36.8704150  17.7407308  25.3544299  36.6123394  16.9079043  25.3275598
  36.9252633  17.9664921  24.5136799  36.8403928  17.6505079  25.2264435
  41.9505200   9.8435759  25.4548391  41.2461527   9.3544944  25.6132310
  41.9990174   9.8558233  24.5836836  41.8535252   9.7725407  25.3487731
  35.8438862  15.2945070  25.8409193  35.2688453  15.4537239  26.4773154
  35.4674538  14.6580480  25.3777644  35.7041674  15.2242883  25.8663752
  39.5112151  13.7668420  30.7001572  39.1226583  13.3422637  30.0453763
  38.8466849  14.0150569  31.2078598  39.3559079  13.7407141  30.6789440
  49.1535420  13.5243424  23.4749402  48.8971985  12.7123366  23.2847285
  49.9964734  13.5320992  23.2479589  49.2401445  13.4055422  23.4134219
  25.5895681  14.9385145  23.8553634  25.6755933  14.5617014  24.6367164
  26.2171478  14.5645591  23.3773592  25.6952232  14.8270627  23.8999111
  43.3338512   7.4643049  28.2125556  43.7149024   6.7821220  28.5993430
  42.5301797   7.1752651  28.0301221  43.2714974   7.3210097  28.2429612
  40.6151089  17.9967024  18.8978379  41.4291728  18.2881917  18.7861150
  40.5510230  17.3426887  18.3236672  40.7253828  17.9432219  18.7967216
  46.8360579  20.6793020  33.3107954  46.5999217  19.8481085  33.1920015
  47.4803808  20.6278628  33.8962799  46.8955250  20.5490708  33.3793848
  36.4858997  21.4688542  24.0250691  37.1232944  21.2300289  24.5702484
  36.9114069  21.6725701  23.2903851  36.6435164  21.4639552  23.9967848
  31.1771640  23.7076878  27.9084995  31.2175785  23.9791729  27.0804774
  31.7366164  24.2318786  28.3242783  31.2654986  23.8252633  27.8476883
  37.1261812  16.6890832  18.3625580  37.5106965  16.4698538  19.1142125
  36.8773433  17.5153777  18.4926657  37.1463885  16.7788978  18.4926657
  37.2930353   9.9697247  38.0788165  36.9783794  10.7396809  37.8157727
  36.9720285   9.4067503  37.4940391  37.1989272  10.0007515  37.9529514
  47.8597000  20.4637469  29.3736249  47.5542817  21.1965526  29.7349565
  47.1403215  20.0575399  29.0929035  47.7084342  20.5119202  29.3849386
  38.8680469  21.9460964  25.7044477  38.9419477  21.7836136  26.5586327
  39.6849976  22.1351154  25.4604959  38.9996828  21.9497707  25.7942503
  53.5598792  17.1030470  28.7004593  53.4923292  17.1226429  27.8307180
  53.5454454  17.9460797  28.9260264  53.5477548  17.2304205  28.6057070
  32.6286226  22.2918827  22.7338921  31.8024344  22.5380564  22.6073199
  32.6898217  22.2130908  23.6000979  32.5160393  22.3163776  22.8427865
  34.8462250   8.3587768  23.6934361  33.9784675   8.4310368  23.7591970
  35.1337454   9.1609847  23.8822336  34.7601998   8.4881915  23.7309127
  43.9695138   8.5065628  32.0245683  44.7148730   8.3175438  31.6109108
  43.5532443   9.0323866  31.4659539  44.0180113   8.5567773  31.8810256
  37.4085055  24.9095707  20.4357951  37.6983353  24.5184689  19.7117177
  38.1388536  25.0912412  20.8763226  37.5591939  24.8789521  20.3940758
  51.3457409  15.8774856  26.9751188  51.8965331  15.2442925  27.2148280
  51.3301525  16.4090249  27.6666692  51.4242606  15.8623804  27.1130046
  37.9979800  19.7113453  31.5211081  37.4991494  20.4229221  31.5995969
  38.8080024  20.0314120  31.4829243  38.0435907  19.8640302  31.5267650
  34.2607918  18.9736406  25.7673802  33.9721166  18.3473878  26.3019529
  35.1291266  18.9156694  25.8338482  34.3468170  18.8723951  25.8564757
  45.0485816  14.1171190  26.0855784  44.7050581  13.3961525  26.4363033
  45.1478858  13.9085041  25.2434142  45.0127858  13.9795393  26.0127464
  34.4640191  20.6131657  21.6916167  35.2186159  20.9944697  21.9051630
  33.8710804  21.0642801  22.1462864  34.4876905  20.7360485  21.7899045
  45.5098845  20.5796894  21.6279772  46.0756877  21.2390104  21.5438315
  44.8626748  20.9246592  22.0996174  45.4977601  20.7278835  21.6852528
  36.9246858  12.5694498  36.8173379  36.1146634  12.8752277  36.7063222
  37.4021545  13.2900080  36.9325963  36.8750337  12.7209099  36.8180450
  35.7838418  21.7840219  27.0656282  35.2619171  21.9240510  27.7508147
  36.1712438  21.0250883  27.2558400  35.7642119  21.6925743  27.1957359
  32.7729602  11.8346028  21.1351237  32.4854397  11.4647298  20.3983184
  33.4600070  12.3040883  20.8734942  32.8318499  11.8492997  20.9866313
  41.9805423  23.5235678  21.0516851  41.7392099  22.7903539  20.6443916
  42.1606756  24.0722535  20.3983184  41.9713047  23.4958069  20.8947074
  37.2104743  18.8144238  22.4637773  37.0147526  19.4218972  21.8698076
  37.4339089  18.1212182  21.9829447  37.2139384  18.8021763  22.3053854
  35.6083273  15.6998976  22.5818642  36.3305925  15.8640134  22.1222448
  35.1291266  16.4208641  22.4757982  35.6447004  15.8297205  22.4984256
  43.5676781  12.0362775  27.9615327  42.7287882  12.0624053  27.7253590
  43.6381148  12.6833510  28.5420673  43.4545174  12.1358900  28.0124444
  42.0146059   8.9348152  22.6942943  42.7172412   8.7355900  22.2162901
  41.7490248   8.1624094  23.0011786  42.0792691   8.7911118  22.6688384
  47.4434305  17.2430761  25.2476568  47.3568279  17.3986187  26.1011347
  46.9884785  17.8868837  24.8735974  47.3637561  17.3606516  25.3183675
  30.3457796  12.6127240  21.9836518  30.4473933  13.4153401  22.3117494
  31.1413683  12.4114576  21.6859599  30.4785702  12.7013139  21.9871873
  36.7774615  10.1983437  31.7473823  36.5857812  10.2138571  32.5973247
  37.6273211  10.3947111  31.7240478  36.8750337  10.2297788  31.8697118
  31.1621528  12.7274418  29.7257640  31.0207020  11.8758359  29.8502148
  31.4462092  12.7703079  28.9019846  31.1829375  12.6074168  29.6225264
  41.3160121  14.5641508  23.8702128  41.0694835  14.4837259  24.7038917
  41.6445244  13.7794976  23.6764655  41.3281364  14.4367774  23.9649651
  45.2108170  21.2724868  27.6588909  45.0722529  21.9705914  28.1637652
  44.4308168  21.1173524  27.3025091  45.0751396  21.3525034  27.6815183
  43.5486255  17.5721243  33.9111291  43.5434293  16.7001060  33.9153717
  44.2547249  17.7709412  33.4380747  43.6531259  17.4725117  33.8418326
  37.2757148  17.2998227  33.2825111  37.4200524  17.8799435  32.6468221
  37.6232797  17.6774524  33.9874966  37.3484609  17.4418931  33.2924106
  39.4477065  16.4988395  31.0650243  38.7000379  16.6919410  30.6598521
  39.6018591  15.6733615  30.8274364  39.3599493  16.4053507  30.9695648
  46.7061542  20.6303122  18.4205408  46.3268351  19.8440259  18.4134698
  46.0427788  21.1789979  18.2777053  46.5520017  20.5947946  18.3986205
  39.6878842  10.3938946  31.9545646  40.1451457  11.1262920  32.0818439
  39.7635171   9.9705411  32.7132902  39.7669812  10.4396184  32.0846723
  31.9311834  10.6404766  33.0435090  31.3954023  10.0285124  33.3595857
  31.9929598  11.2152902  33.6968757  31.8607466  10.6351694  33.1870517
  44.1606168   3.5728821  25.8239489  44.2789737   4.0305285  25.0906792
  43.9868344   2.7674083  25.5375707  44.1525339   3.5222593  25.6740423
  39.5308451  24.1816641  22.2594235  40.2958342  23.9126284  21.9376899
  39.4286541  23.6966651  22.9764297  39.6289946  24.0706205  22.3174062
  37.5661220  12.3841050  28.7987470  36.7757295  12.2032510  29.1204806
  37.9621843  11.6068003  28.7817765  37.5078097  12.2428511  28.8440019
  42.0527111  21.2128824  14.2394184  42.8200096  21.2728949  13.8300036
  41.6058420  20.6409266  13.7550503  42.1000538  21.1365400  14.1071894
  42.9504907  20.0183480  26.5246916  42.2749908  19.7868712  27.0260303
  42.9597283  19.4104663  25.8989021  42.8523411  19.8942405  26.5063069
  40.0799051  14.8601309  33.2810969  40.0158192  15.7211266  33.1531106
  40.2196238  14.5433302  32.4806521  40.0914521  14.9401476  33.1439182
  44.9521641  22.8748613  18.7557094  45.0341479  23.6815599  18.4318545
  45.4371383  22.8944572  19.4797868  45.0358799  22.9969275  18.8143993
  38.7618145  17.5533448  27.4227172  38.3380394  17.7537948  26.6866191
  38.5863000  16.7062296  27.5351472  38.6729025  17.4582230  27.3300862
  34.0500590  18.0485500  22.8555145  34.2065209  17.9832303  23.7111137
  34.3901183  18.8234052  22.6433824  34.1233824  18.1534698  22.9509739
  40.5879734  17.4243383  21.7248508  41.1295280  16.9213765  22.1887129
  40.9026293  17.3708578  20.9137993  40.7144131  17.3422804  21.6732320
  38.7566184  22.8160735  19.0088536  38.8259004  21.9575273  19.1481536
  39.5354639  23.0332616  18.6807561  38.8819034  22.7213599  18.9805693
  41.7369004  12.3179688  31.7770808  41.9510973  11.6790602  31.2234162
  41.1202903  12.7625512  31.3478670  41.6774333  12.2889832  31.6321240
  43.1473671  25.2398436  23.2225029  42.7553463  24.9365151  22.5047895
  43.3026744  26.0767526  23.0329983  43.1127261  25.3182273  23.0881526
  30.6234851  15.2320450  23.1715912  31.0033816  15.6504995  22.5076179
  30.0490216  15.8133906  23.4784755  30.5946176  15.3798309  23.1192653
  43.9008092  13.9268753  32.7154116  43.0884773  13.6194644  32.7967288
  44.3598026  13.4467753  33.2796828  43.8488476  13.8105246  32.8108710
  43.3113346  21.8048425  23.1631060  42.9528001  21.9763068  23.9395092
  42.8252057  22.2661631  22.6059058  43.1872043  21.8987396  23.1956329
  41.1283732   5.4279624  26.7658151  40.2577290   5.4018345  26.7191461
  41.3824073   5.2556816  25.9483997  41.0377292   5.3989767  26.6378288
  38.1001712  17.4847591  15.7031294  38.3894236  18.2612473  15.9774869
  38.1873510  16.9736322  16.4045794  38.1555968  17.5239509  15.8473792
  40.9961599  15.3328825  37.4982818  41.4661230  15.9570941  37.8850692
  41.0423479  14.6645800  38.0576033  41.0729475  15.3263505  37.6382889
  38.1532873   7.4385852  28.2231622  37.6371361   6.7466044  28.3483201
  37.5926802   8.1056629  28.1694220  37.9939386   7.4349110  28.2337688
  40.2225106   7.9778812  30.0524474  39.8356859   8.0027844  30.8338004
  39.7358043   7.4120491  29.5998991  40.0937615   7.8974563  30.1012378
  46.1975086  14.5441467  28.6764176  45.7702694  14.4567816  27.9212276
  45.5601139  14.6519243  29.2619020  46.0404693  14.5474127  28.6509618
  39.8882248   4.8645798  32.3434734  40.5175366   5.4006098  32.0655804
  40.0568111   4.7723157  33.1948300  40.0060042   4.9307160  32.4283262
  39.6896163   9.6516992  34.6161146  40.5169592   9.3802141  34.6719760
  39.7104009  10.4477834  34.9724964  39.8149013   9.7296747  34.6776329
  44.5272342  23.3872129  30.7503617  45.3164720  23.0361194  30.8705699
  44.7015940  24.2008518  30.4880251  44.6692624  23.4557987  30.7291485
  34.2665653  16.7980855  27.8031406  33.4253659  16.6984729  28.0110300
  34.4755661  17.5676335  28.1545727  34.1730345  16.8972898  27.8858721
  31.7441220  14.4200392  25.6316157  31.3497917  14.4943404  24.8566267
  31.1881336  14.8058338  26.1824519  31.6044032  14.4882167  25.5983817
  43.3806166   7.3981686  25.3120036  43.5855760   7.3303994  26.1577033
  43.0532590   8.2040507  25.2441213  43.3621414   7.5067627  25.4279691
  38.0782317  14.7262254  27.0529004  37.7745455  14.1718243  27.6539412
  37.3761738  14.9054464  26.5657038  37.9298527  14.6707037  27.0698709
  37.1348415  12.0362774  21.6173706  37.4108149  11.3181687  21.2051273
  37.7347084  12.6347694  21.4094812  37.2641679  12.0183145  21.5254467
  46.6339854   7.9513450  24.7922801  46.0214168   8.4383853  25.1776533
  46.7304029   7.2756941  25.3360453  46.5577752   7.9231759  24.9301660
  40.6358935   9.7076292  19.8920301  41.0902682   9.8786852  20.6168145
  41.1098981   9.0944402  19.4918076  40.7727255   9.6427177  19.9394062
  34.1574460  19.1924617  29.2223039  33.5662394  19.8334116  29.1926054
  34.9195484  19.6162235  29.1954339  34.1822721  19.3500456  29.2138186
  34.5535083  10.3526615  29.8891057  35.0136565  10.4265545  30.6266181
  34.5991190  11.1507869  29.5390878  34.6285639  10.4820762  29.9463813
  36.2018433  11.0193310  34.4563084  35.8103998  10.3726657  34.8918862
  36.3704296  11.6104745  35.0757339  36.1689343  11.0107578  34.6125790
  50.2764882  19.0230387  30.2200317  50.3348006  19.4717036  30.9660294
  49.6431350  19.4329200  29.7830397  50.1916177  19.1504122  30.2652866
  43.9163977  24.6433929  26.6555064  43.7183665  25.1324744  25.9611275
  43.2951688  24.8475171  27.2339197  43.7951541  24.7450467  26.6378287
  37.9771955  16.4118826  20.9965308  38.7214000  16.7993102  21.2348258
  38.1232651  15.5676251  21.1605796  38.1082540  16.3449299  21.0559278
  39.8951530   8.2069085  26.0297169  39.0487576   8.3791893  25.9038519
  39.8922663   7.4018429  26.3662998  39.7698680   8.1130114  26.0608296
  40.9649831  11.9844299  26.8959227  40.4909785  11.4586061  27.4064538
  41.3367967  11.4373772  26.3274089  40.9499720  11.8260296  26.8874374
  47.2286561  17.0446675  28.3066008  46.9884784  16.2053090  28.3108434
  47.7078569  17.1246842  29.0306781  47.2638745  16.9328075  28.4140810
  42.8933331  12.8780854  19.9584981  42.3656349  12.9609598  19.2690690
  43.3529039  13.6198725  19.9549626  42.8835181  13.0001516  19.8559676
  49.2291748  13.8248132  26.2595267  48.9901518  13.7843966  25.4216052
  49.3925650  14.6719284  26.3860988  49.2182052  13.9440217  26.1548749
  45.8337779  18.2098081  32.1900312  46.5571977  17.7570608  32.0111332
  45.5687741  18.4902747  31.4072640  45.9019052  18.1849050  32.0479027
  34.7024647  12.8058255  28.9253191  34.0777717  12.8176647  28.3179144
  34.3670242  13.2818430  29.5744431  34.5610139  12.8776772  28.9309760
  34.8866396  11.1483373  14.9825876  34.5379200  11.8003099  15.4457426
  34.4062842  11.1340486  14.2549747  34.7636640  11.2426427  14.9436968
  42.4470413  21.4484417  19.0894638  43.1704612  21.9142530  18.9459211
  42.0071004  21.5158027  18.3392235  42.4886105  21.5268254  18.9579420
  41.6156568  18.3081960  30.3395327  41.0013561  17.7640010  30.6343962
  42.1323853  17.7946196  29.8601143  41.6012231  18.1518369  30.3119556
  40.8552865  19.3786230  28.0739626  40.4280473  18.7535948  27.6405061
  40.8477810  19.0961151  28.8998633  40.7912006  19.2439010  28.1319453
  33.9715392  14.4151403  31.1428060  34.1308879  13.6594727  31.5479782
  33.7908286  14.9642342  31.7968797  33.9680751  14.3845216  31.2990766
  41.9135695   6.5812638  31.6978849  41.4176257   6.7776312  31.0070416
  42.6704757   6.9805306  31.5267651  41.9522520   6.6690372  31.5698986
  39.1838575  10.2554984  28.2882160  39.2081062   9.7215096  27.5994940
  39.4350049   9.7472293  28.9507750  39.2248494  10.1015888  28.2846804
  26.6946165  17.5386479  27.7225304  26.5889614  17.4933323  26.8577388
  25.9446385  17.8840260  28.0039589  26.5681768  17.5827387  27.6362634
  35.4639897   8.9825802  27.6687904  35.5038269   9.4835009  28.3822611
  34.6389562   9.0736196  27.3993827  35.3479423   9.0707619  27.7338442
  37.6469510  18.5486542  35.7708199  36.7965141  18.6858257  35.9065844
  37.8097638  17.8150321  36.2155900  37.5453374  18.4600644  35.8563798
  36.8854261  15.4986312  29.9661803  36.0546190  15.6660130  29.7597051
  36.8305778  15.1222263  30.7510688  36.7543675  15.4676043  30.0510331
  34.6938044   8.9895205  35.6018214  35.3190747   8.4457338  35.8747646
  34.2388524   8.5090123  35.0326004  34.7186304   8.8384686  35.5579808
  35.2590304  13.7741904  20.4951921  35.3993265  14.2714368  21.1980562
  35.7572837  13.0728198  20.6366134  35.3531385  13.7443883  20.6203500
  35.2890527  14.6409015  17.8244498  35.9235606  15.2369440  17.7593959
  35.3716138  14.3412472  18.6390368  35.3947078  14.6849923  17.9347584
  48.2673093  17.1724492  30.6930862  48.8590933  17.8121743  30.7249060
  48.7032087  16.4747529  30.9822929  48.4191524  17.1642842  30.7411694
  36.8669510  10.5722990  17.7989940  37.1885351  10.0926073  17.1449202
  37.1296453  11.3822636  17.6080751  36.9535535  10.6212888  17.6745432
  42.2628665   9.9595184  30.1613419  42.6883736   9.5067711  29.5496945
  41.6485658   9.4055255  30.4378206  42.2357310   9.8109160  30.1118444
  31.7943515  16.8376856  21.0934044  32.3035744  17.4341363  21.4745349
  32.2677787  16.5702829  20.4110463  31.9386890  16.8862671  21.0488566
  42.7074263  25.5105122  19.2492699  41.9903572  25.3365984  18.7839937
  43.3581000  25.2757695  18.7168185  42.6976113  25.4500915  19.1021917
  40.7022887   6.4310284  23.5703996  40.0591205   6.2807930  24.1389134
  40.3622294   6.1852629  22.8053100  40.5567965   6.3722406  23.5407011
  45.2922234  14.3869711  22.9934004  44.6213424  14.9299413  22.8647070
  45.9861984  14.8564566  22.7515699  45.2951101  14.5367982  22.9389532
  39.3408968  26.5266423  28.2245763  39.1174622  25.7685252  28.5929789
  38.8518811  26.5564444  27.5026202  39.2352417  26.4188647  28.1722504
  45.4550361  10.8425594  25.9024378  45.8077971  10.4155317  26.5770176
  44.5965163  10.7576438  26.0325454  45.3799806  10.7670335  26.0219388
  34.1534046  13.4733114  23.9607224  33.4346036  13.8897247  24.2280088
  34.5246409  14.0387353  23.4098862  34.1025978  13.6182396  23.9190031
  43.4533627  14.1060963  29.8509220  43.4331555  13.9244258  30.7043999
  43.5012828  14.9772982  29.8268803  43.4568268  14.2077501  29.9732514
  41.3552719  25.9056966  26.4306464  40.9569002  26.0159236  25.6627284
  40.7403938  26.1139032  27.0133024  41.2051608  25.9530534  26.4037763
  39.9280621  12.5131114  19.2980604  39.3345460  12.8348110  18.7465171
  39.9655898  11.6672209  19.0901710  39.8455010  12.4355442  19.1863375
  46.8874422   5.9644006  26.8308690  46.3805286   5.2573146  26.7629867
  47.6841855   5.6337195  26.9609767  46.9301661   5.8117158  26.8407685
  42.8038437  12.4710618  22.7282354  42.5752130  12.4943320  21.8860712
  43.0636514  11.6468086  22.8477364  42.8084625  12.3526698  22.6207551
  37.0857666  14.3245092  32.3307454  36.5736569  13.7166274  32.6892485
  36.9137162  15.0401684  32.7981430  36.9847303  14.3408391  32.4523678
  31.9323381  12.7682667  34.9809816  31.7625971  13.4284042  34.4358022
  31.4889330  12.9789228  35.7022305  31.8422714  12.8968649  35.0071445
  35.8583200  11.0087165  24.0236549  36.3340566  11.3704245  23.3886731
  35.3571799  11.6643632  24.3036692  35.8548559  11.1581354  23.9713290
  49.0894561  20.4808933  19.8149554  49.4728167  21.2300289  20.0447651
  48.2938675  20.7274753  19.5561543  49.0288344  20.6278627  19.8107128
  40.9626736  12.2469336  34.7709709  41.5198166  12.0183146  34.1388175
  40.6387801  13.0075002  34.4944922  40.9973146  12.3253173  34.6366207
  38.6809853  15.3336989  35.7361717  39.4321180  15.6488666  36.0501271
  38.8732430  15.1316160  34.9095638  38.8201268  15.3504371  35.6605112
  37.9009853  13.1528365  17.3909933  38.2808818  13.1707994  16.6061048
  37.1602449  13.5982353  17.2700781  37.8478691  13.2210139  17.2573502
  45.5295144  11.4610556  22.9785512  45.5289370  11.3059212  23.8369788
  45.3251324  12.3073543  22.9226898  45.4994921  11.5631177  23.0973451
  27.5912414  14.8850340  27.3944329  27.4134176  14.4326949  28.1199244
  27.3031437  15.6876502  27.5782806  27.5225368  14.9372898  27.5287831
  43.2535996  16.1408058  26.6321719  43.7489661  15.4231053  26.5925739
  42.4435771  15.8378855  26.5176206  43.2079889  15.9905704  26.6095445
  38.6994607  19.9905871  18.7818723  37.8905930  19.6672544  18.7352033
  39.2069516  19.2839093  18.7146972  38.6544274  19.8387187  18.7649018
  29.3284884  17.4178064  24.5066088  28.4630404  17.4063754  24.3948859
  29.4283700  17.2308287  25.3537227  29.2159051  17.3884125  24.6155032
  45.3187814  18.8911745  29.3198848  45.7442886  18.3686167  28.7669273
  44.9544734  19.4892583  28.7987471  45.3274417  18.9021972  29.1607857
  41.9066414  22.6046009  25.6500005  42.3777592  23.3186272  25.8189990
  42.2426592  22.0044760  26.1859875  42.0261529  22.6217474  25.7532381
  38.8235909   7.3773480  32.6058100  38.9563814   6.5804473  32.9339075
  39.2081062   7.9039883  33.1856376  38.8992238   7.3373397  32.7401603
  41.8968264   4.3003806  29.2039193  41.0914228   4.1901536  29.5207032
  41.7674999   4.4016262  28.3469059  41.7588397   4.2987476  29.1247234
  45.3534225  10.4649298  29.7978890  44.7697213  10.9658504  29.3856457
  45.6738519   9.9578854  29.1643213  45.3147400  10.4641133  29.6437397
  37.8929024   9.3789893  20.0737565  38.7144718   9.5488206  19.8319260
  37.4298675   9.5337154  19.3503862  37.9460186   9.4271626  19.9309209
  36.4824356   7.3732655  30.8535994  37.0268769   7.0323782  31.4440335
  36.5361291   8.2318117  30.9957278  36.5713475   7.4487914  30.9617867
  32.2954914  21.1349071  27.7274802  32.8999772  21.0944905  27.0988622
  32.0882227  21.9820223  27.7578857  32.3543812  21.2537074  27.6390918
  42.1098687  23.4015016  28.9437039  42.9297060  23.2577982  29.2053334
  41.8292764  24.0261215  29.4853477  42.1895430  23.4725368  29.0624978
  27.5306197  20.1183689  27.5973725  27.4330475  19.3079960  27.9063781
  28.3135066  20.0975482  27.2119993  27.6322333  19.9950779  27.5860588
  58.5812337  31.0579868  21.9079915  58.5506341  31.9124505  22.0798185
  59.1793686  30.7575160  22.4666059  58.6649495  31.1396364  22.0154718
  51.7812022  30.1455519  26.6632846  50.9249917  30.3064017  26.7141963
  51.8279675  29.2747583  26.6837907  51.6611133  30.0406321  26.6738912
  51.6178121  40.1043606  17.8555624  51.2829490  40.7820528  17.4199847
  52.1304992  39.7148918  17.2672496  51.6443702  40.1468184  17.7042416
  54.6263843  32.2047563  29.3064497  55.1719803  32.8832649  29.3658467
  54.5680719  32.0635024  28.4466079  54.6979757  32.2839565  29.1876558
  56.4028911  33.6332170  20.1798225  56.2868437  34.3839856  20.6090363
  57.1984798  33.3756123  20.4294312  56.5033501  33.7067017  20.2802317
  43.2393049  27.8842646  27.2169491  42.6198081  27.2935293  27.0479506
  43.1376913  28.4754081  26.5833814  43.1330725  27.8846729  27.0974481
  48.2859237  37.6226193  21.4667568  48.6075078  38.1631400  20.8628876
  48.9331333  37.0522964  21.5989857  48.4285292  37.6185368  21.3974603
  50.3360945  29.6242188  21.5501954  51.0341110  29.8030315  22.0423418
  50.6513278  29.1012527  20.9272344  50.4856282  29.5735960  21.5303964
  50.5248880  36.0112633  21.5381746  50.9642516  35.4029733  21.9836519
  50.3753543  35.6320006  20.7667211  50.5670346  35.8651104  21.4900913
  48.5087809  24.9934585  25.6323229  48.1791139  25.4445728  24.9626928
  47.8332810  24.9150748  26.1796235  48.3598245  25.0485720  25.6146452
  54.1258217  34.3639814  18.4912515  54.0409512  35.2200781  18.6362084
  54.6142600  34.0884138  19.1594674  54.1847114  34.4497136  18.6114597
  55.7164216  20.9820107  23.8772840  55.4017657  21.6723586  24.3093262
  55.1991158  20.9264890  23.1758340  55.5928687  21.0754996  23.8369789
  55.0576650  30.9824608  19.9910250  54.5288122  31.1984242  20.6507556
  55.5801670  31.6760747  19.9111219  55.0565103  31.1167745  20.0765849
  60.5124703  36.5570913  25.3643295  59.6822406  36.7681556  25.5276711
  60.4633955  35.7307967  25.0885578  60.3831438  36.4660519  25.3480660
  46.9476258  34.8787825  18.7917718  46.3633473  35.3837857  19.1983582
  46.5446353  34.6530212  18.0514310  46.8015562  34.9196073  18.7422743
  51.4053472  31.1253477  17.2686639  51.6449476  31.3331461  16.4561982
  51.7269313  30.3210986  17.3775583  51.4890630  31.0367578  17.1647192
  46.7143763  23.0546873  21.1146177  47.4689731  23.4225190  20.8763227
  46.5371297  23.4286427  21.8825356  46.7998241  23.1645061  21.1931065
  60.0078661  29.2041313  29.1593716  59.1707082  29.2743501  29.3941310
  59.9766892  29.2065808  28.2868018  59.8796944  29.2151541  29.0653264
  45.0700827  25.4617192  17.8124290  44.8876401  25.6789073  16.9865282
  45.9326440  25.5756205  17.8682904  45.1705417  25.5107090  17.6978777
  50.7500546  22.4643603  20.8473313  51.4786707  22.2859558  20.4011470
  50.8395439  23.3061682  21.0580492  50.8707209  22.5627481  20.8126831
  54.7308847  33.3996990  24.7505607  55.4866362  33.8328504  24.7894516
  54.8371172  32.7501760  25.3240243  54.8579018  33.3674474  24.8403633
  57.7689018  37.2270267  25.5008010  57.3324250  37.2307010  26.2566982
  57.4351934  37.9075766  25.0687588  57.6551638  37.3282723  25.5488843
  57.6886501  24.2684095  27.7437438  58.3312410  24.3382200  28.3299354
  57.9409522  23.6013318  27.2416980  57.8208633  24.1810444  27.7564718
  44.6162854  28.7391365  16.3246763  43.9021031  28.4529544  16.7369195
  45.1006823  29.0787990  16.9653150  44.5822218  28.7473014  16.4802398
  60.9033364  33.9451187  24.3927648  61.5649799  33.3841856  24.2923556
  60.2624776  33.4503218  24.7180339  60.9062232  33.7887596  24.4259988
  51.7910172  37.2421319  16.7008571  52.2061321  36.9106342  16.0093067
  50.9602102  37.0090221  16.5728708  51.7298181  37.1592575  16.5799418
  57.1898195  34.9616570  24.1339636  57.4253784  35.1061768  23.3066487
  57.3387759  35.7258978  24.5271150  57.2463998  35.0955624  24.0703240
  59.0188652  33.8018235  21.9709240  59.3496869  34.3345876  21.3649335
  59.5921740  33.8557123  22.6271191  59.1522331  33.8887804  21.9787022
  54.2320541  31.6483138  22.6532820  54.3267395  32.3872432  23.1072446
  53.6079385  31.2200614  23.0867385  54.1529571  31.6944459  22.7840968
  54.4843562  33.4931878  15.8869772  54.4023725  33.5634065  16.7524759
  55.1223283  34.0561622  15.6953513  54.5663400  33.5870849  15.9859722
  52.9237784  25.3621067  25.4548391  52.2194110  24.8730252  25.6132310
  52.9722758  25.3743541  24.5836836  52.8267835  25.2910715  25.3487731
  46.8171446  30.8130378  25.8409193  46.2421037  30.9722547  26.4773154
  46.4407122  30.1765788  25.3777644  46.6774258  30.7428191  25.8663752
  60.1268003  29.0428732  23.4749402  59.8704568  28.2308674  23.2847285
  60.9697317  29.0506300  23.2479589  60.2134029  28.9240730  23.4134219
  54.3071096  22.9828356  28.2125556  54.6881608  22.3006528  28.5993430
  53.5034380  22.6937959  28.0301221  54.2447558  22.8395405  28.2429612
  51.5883673  33.5152332  18.8978379  52.4024311  33.8067225  18.7861150
  51.5242814  32.8612195  18.3236672  51.6986412  33.4617527  18.7967216
  47.4591581  36.9873850  24.0250691  48.0965528  36.7485597  24.5702484
  47.8846652  37.1911009  23.2903851  47.6167747  36.9824860  23.9967848
  48.0994396  32.2076139  18.3625580  48.4839549  31.9883846  19.1142125
  47.8506016  33.0339085  18.4926657  48.1196468  32.2974286  18.4926657
  58.8329583  35.9822777  29.3736249  58.5275400  36.7150834  29.7349565
  58.1135799  35.5760707  29.0929035  58.6816926  36.0304510  29.3849386
  64.5331376  32.6215778  28.7004593  64.4655876  32.6411737  27.8307180
  64.5187038  33.4646105  28.9260264  64.5210132  32.7489513  28.6057070
  45.8194833  23.8773076  23.6934361  44.9517259  23.9495676  23.7591970
  46.1070038  24.6795155  23.8822336  45.7334581  24.0067223  23.7309127
  54.9427722  24.0250936  32.0245683  55.6881314  23.8360746  31.6109108
  54.5265027  24.5509173  31.4659539  54.9912696  24.0753081  31.8810256
  48.3817638  40.4281015  20.4357951  48.6715937  40.0369997  19.7117177
  49.1121119  40.6097720  20.8763226  48.5324523  40.3974829  20.3940758
  62.3189993  31.3960164  26.9751188  62.8697914  30.7628233  27.2148280
  62.3034108  31.9275557  27.6666692  62.3975189  31.3809112  27.1130046
  56.0218399  29.6356498  26.0855784  55.6783165  28.9146833  26.4363033
  56.1211442  29.4270349  25.2434142  55.9860442  29.4980701  26.0127464
  48.4891510  43.7777788  22.2848793  49.1415568  43.2454230  22.5139819
  47.7917119  43.4246440  22.6716667  48.4822228  43.6467311  22.3760960
  45.4372775  36.1316965  21.6916167  46.1918743  36.5130004  21.9051630
  44.8443387  36.5828109  22.1462864  45.4609488  36.2545793  21.7899045
  56.4831428  36.0982202  21.6279772  57.0489461  36.7575412  21.5438315
  55.8359332  36.4431900  22.0996174  56.4710185  36.2464143  21.6852528
  43.7462185  27.3531335  21.1351237  43.4586981  26.9832606  20.3983184
  44.4332654  27.8226191  20.8734942  43.8051083  27.3678305  20.9866313
  52.9538006  39.0420986  21.0516851  52.7124682  38.3088847  20.6443916
  53.1339339  39.5907843  20.3983184  52.9445630  39.0143377  20.8947074
  48.1837327  34.3329546  22.4637773  47.9880110  34.9404280  21.8698076
  48.4071672  33.6397490  21.9829447  48.1871968  34.3207071  22.3053854
  46.5815857  31.2184284  22.5818642  47.3038509  31.3825442  22.1222448
  46.1023850  31.9393948  22.4757982  46.6179588  31.3482513  22.4984256
  54.5409364  27.5548082  27.9615327  53.7020465  27.5809361  27.7253590
  54.6113732  28.2018818  28.5420673  54.4277758  27.6544208  28.0124444
  52.9878643  24.4533459  22.6942943  53.6904996  24.2541208  22.2162901
  52.7222831  23.6809402  23.0011786  53.0525275  24.3096426  22.6688384
  58.4166888  32.7616069  25.2476568  58.3300863  32.9171495  26.1011347
  57.9617368  33.4054145  24.8735974  58.3370145  32.8791824  25.3183675
  41.3190380  28.1312548  21.9836518  41.4206516  28.9338709  22.3117494
  42.1146267  27.9299884  21.6859599  41.4518286  28.2198447  21.9871873
  52.2892704  30.0826816  23.8702128  52.0427419  30.0022567  24.7038917
  52.6177827  29.2980284  23.6764655  52.3013948  29.9553082  23.9649651
  56.1840753  36.7910176  27.6588909  56.0455112  37.4891221  28.1637652
  55.4040751  36.6358832  27.3025091  56.0483980  36.8710342  27.6815183
  50.4209649  32.0173703  31.0650243  49.6732963  32.2104718  30.6598521
  50.5751174  31.1918923  30.8274364  50.3332077  31.9238815  30.9695648
  57.6794126  36.1488429  18.4205408  57.3000935  35.3625567  18.4134698
  57.0160371  36.6975286  18.2777053  57.5252601  36.1133253  18.3986205
  55.1338752  19.0914129  25.8239489  55.2522320  19.5490593  25.0906792
  54.9600928  18.2859390  25.5375707  55.1257923  19.0407901  25.6740423
  50.5041034  39.7001949  22.2594235  51.2690925  39.4311592  21.9376899
  50.4019124  39.2151959  22.9764297  50.6022530  39.5891513  22.3174062
  48.5393804  27.9026358  28.7987470  47.7489879  27.7217818  29.1204806
  48.9354427  27.1253311  28.7817765  48.4810680  27.7613819  28.8440019
  53.9237490  35.5368788  26.5246916  53.2482492  35.3054020  27.0260303
  53.9329866  34.9289971  25.8989021  53.8255995  35.4127713  26.5063069
  55.9254225  38.3933920  18.7557094  56.0074062  39.2000907  18.4318545
  56.4103967  38.4129880  19.4797868  56.0091383  38.5154583  18.8143993
  45.0233173  33.5670808  22.8555145  45.1797792  33.5017611  23.7111137
  45.3633766  34.3419360  22.6433824  45.0966408  33.6720006  22.9509739
  51.5612318  32.9428691  21.7248508  52.1027863  32.4399073  22.1887129
  51.8758877  32.8893886  20.9137993  51.6876715  32.8608112  21.6732320
  49.7298767  38.3346043  19.0088536  49.7991588  37.4760581  19.1481536
  50.5087223  38.5517924  18.6807561  49.8551617  38.2398907  18.9805693
  54.1206255  40.7583744  23.2225029  53.7286047  40.4550459  22.5047895
  54.2759327  41.5952834  23.0329983  54.0859845  40.8367581  23.0881526
  54.8740675  29.4454061  32.7154116  54.0617357  29.1379951  32.7967288
  55.3330610  28.9653061  33.2796828  54.8221060  29.3290553  32.8108710
  54.2845930  37.3233733  23.1631060  53.9260585  37.4948376  23.9395092
  53.7984641  37.7846939  22.6059058  54.1604627  37.4172704  23.1956329
  52.1016316  20.9464932  26.7658151  51.2309874  20.9203653  26.7191461
  52.3556657  20.7742124  25.9483997  52.0109876  20.9175075  26.6378288
  49.0734295  33.0032898  15.7031294  49.3626820  33.7797781  15.9774869
  49.1606094  32.4921630  16.4045794  49.1288551  33.0424817  15.8473792
  49.1265456  22.9571160  28.2231622  48.6103945  22.2651352  28.3483201
  48.5659385  23.6241937  28.1694220  48.9671969  22.9534418  28.2337688
  51.1957690  23.4964120  30.0524474  50.8089443  23.5213152  30.8338004
  50.7090627  22.9305799  29.5998991  51.0670199  23.4159871  30.1012378
  57.1707669  30.0626775  28.6764176  56.7435277  29.9753124  27.9212276
  56.5333722  30.1704551  29.2619020  57.0137276  30.0659435  28.6509618
  50.8614831  20.3831106  32.3434734  51.4907949  20.9191406  32.0655804
  51.0300694  20.2908464  33.1948300  50.9792626  20.4492468  32.4283262
  42.7173803  29.9385700  25.6316157  42.3230501  30.0128712  24.8566267
  42.1613920  30.3243646  26.1824519  42.5776615  30.0067475  25.5983817
  54.3538750  22.9166994  25.3120036  54.5588343  22.8489302  26.1577033
  54.0265174  23.7225815  25.2441213  54.3353998  23.0252934  25.4279691
  49.0514901  30.2447562  27.0529004  48.7478039  29.6903551  27.6539412
  48.3494322  30.4239772  26.5657038  48.9031111  30.1892345  27.0698709
  48.1080998  27.5548082  21.6173706  48.3840732  26.8366995  21.2051273
  48.7079667  28.1533002  21.4094812  48.2374263  27.5368453  21.5254467
  57.6072438  23.4698758  24.7922801  56.9946751  23.9569160  25.1776533
  57.7036612  22.7942249  25.3360453  57.5310335  23.4417067  24.9301660
  51.6091519  25.2261599  19.8920301  52.0635265  25.3972160  20.6168145
  52.0831564  24.6129710  19.4918076  51.7459839  25.1612485  19.9394062
  45.5267667  25.8711923  29.8891057  45.9869148  25.9450853  30.6266181
  45.5723774  26.6693177  29.5390878  45.6018222  26.0006070  29.9463813
  61.2497466  34.5415695  30.2200317  61.3080589  34.9902344  30.9660294
  60.6163933  34.9514508  29.7830397  61.1648761  34.6689430  30.2652866
  54.8896560  40.1619237  26.6555064  54.6916249  40.6510051  25.9611275
  54.2684271  40.3660478  27.2339197  54.7684125  40.2635775  26.6378287
  48.9504539  31.9304134  20.9965308  49.6946584  32.3178410  21.2348258
  49.0965235  31.0861559  21.1605796  49.0815124  31.8634607  21.0559278
  50.8684114  23.7254393  26.0297169  50.0220159  23.8977200  25.9038519
  50.8655247  22.9203736  26.3662998  50.7431264  23.6315422  26.0608296
  51.9382414  27.5029607  26.8959227  51.4642369  26.9771369  27.4064538
  52.3100550  26.9559080  26.3274089  51.9232303  27.3445604  26.8874374
  58.2019145  32.5631983  28.3066008  57.9617368  31.7238398  28.3108434
  58.6811152  32.6432149  29.0306781  58.2371329  32.4513382  28.4140810
  53.8665914  28.3966162  19.9584981  53.3388933  28.4794906  19.2690690
  54.3261622  29.1384033  19.9549626  53.8567765  28.5186824  19.8559676
  60.2024332  29.3433440  26.2595267  59.9634102  29.3029274  25.4216052
  60.3658233  30.1904592  26.3860988  60.1914636  29.4625525  26.1548749
  56.8070362  33.7283389  32.1900312  57.5304561  33.2755916  32.0111332
  56.5420324  34.0088055  31.4072640  56.8751635  33.7034358  32.0479027
  45.6757231  28.3243563  28.9253191  45.0510301  28.3361955  28.3179144
  45.3402825  28.8003738  29.5744431  45.5342722  28.3962080  28.9309760
  45.8598979  26.6668681  14.9825876  45.5111784  27.3188407  15.4457426
  45.3795425  26.6525794  14.2549747  45.7369223  26.7611735  14.9436968
  53.4202997  36.9669725  19.0894638  54.1437195  37.4327838  18.9459211
  52.9803588  37.0343335  18.3392235  53.4618689  37.0453562  18.9579420
  52.8868279  22.0997946  31.6978849  52.3908840  22.2961620  31.0070416
  53.6437341  22.4990614  31.5267651  52.9255104  22.1875680  31.5698986
  50.1571159  25.7740292  28.2882160  50.1813646  25.2400404  27.5994940
  50.4082632  25.2657601  28.9507750  50.1981077  25.6201196  28.2846804
  46.4372481  24.5011110  27.6687904  46.4770852  25.0020317  28.3822611
  45.6122145  24.5921504  27.3993827  46.3212007  24.5892927  27.7338442
  46.2322888  29.2927212  20.4951921  46.3725849  29.7899676  21.1980562
  46.7305421  28.5913506  20.6366134  46.3263969  29.2629190  20.6203500
  46.2623110  30.1594323  17.8244498  46.8968190  30.7554748  17.7593959
  46.3448721  29.8597780  18.6390368  46.3679661  30.2035231  17.9347584
  59.2405676  32.6909800  30.6930862  59.8323516  33.3307051  30.7249060
  59.6764671  31.9932837  30.9822929  59.3924107  32.6828150  30.7411694
  47.8402093  26.0908298  17.7989940  48.1617934  25.6111381  17.1449202
  48.1029037  26.9007944  17.6080751  47.9268119  26.1398196  17.6745432
  53.2361248  25.4780492  30.1613419  53.6616320  25.0253018  29.5496945
  52.6218241  24.9240563  30.4378206  53.2089894  25.3294468  30.1118444
  42.7676098  32.3562163  21.0934044  43.2768328  32.9526671  21.4745349
  43.2410371  32.0888137  20.4110463  42.9119474  32.4047979  21.0488566
  53.6806846  41.0290430  19.2492699  52.9636156  40.8551292  18.7839937
  54.3313584  40.7943002  18.7168185  53.6708697  40.9686223  19.1021917
  51.6755471  21.9495592  23.5703996  51.0323789  21.7993238  24.1389134
  51.3354878  21.7037937  22.8053100  51.5300548  21.8907714  23.5407011
  56.2654818  29.9055019  22.9934004  55.5946007  30.4484721  22.8647070
  56.9594568  30.3749874  22.7515699  56.2683685  30.0553290  22.9389532
  56.4282945  26.3610902  25.9024378  56.7810555  25.9340625  26.5770176
  55.5697746  26.2761746  26.0325454  56.3532390  26.2855643  26.0219388
  45.1266630  28.9918422  23.9607224  44.4078619  29.4082555  24.2280088
  45.4978992  29.5572661  23.4098862  45.0758562  29.1367703  23.9190031
  54.4266211  29.6246271  29.8509220  54.4064138  29.4429566  30.7043999
  54.4745412  30.4958289  29.8268803  54.4300852  29.7262809  29.9732514
  50.9013204  28.0316422  19.2980604  50.3078044  28.3533418  18.7465171
  50.9388482  27.1857517  19.0901710  50.8187593  27.9540750  19.1863375
  57.8607005  21.4829314  26.8308690  57.3537870  20.7758454  26.7629867
  58.6574439  21.1522503  26.9609767  57.9034244  21.3302466  26.8407685
  53.7771021  27.9895926  22.7282354  53.5484714  28.0128628  21.8860712
  54.0369097  27.1653393  22.8477364  53.7817209  27.8712006  22.6207551
  46.8315783  26.5272473  24.0236549  47.3073150  26.8889553  23.3886731
  46.3304383  27.1828940  24.3036692  46.8281142  26.6766661  23.9713290
  60.0627145  35.9994241  19.8149554  60.4460751  36.7485597  20.0447651
  59.2671258  36.2460060  19.5561543  60.0020927  36.1463935  19.8107128
  48.8742437  28.6713673  17.3909933  49.2541401  28.6893302  16.6061048
  48.1335033  29.1167661  17.2700781  48.8211274  28.7395447  17.2573502
  56.5027727  26.9795864  22.9785512  56.5021954  26.8244520  23.8369788
  56.2983907  27.8258851  22.9226898  56.4727505  27.0816484  23.0973451
  54.2268579  31.6593366  26.6321719  54.7222244  30.9416361  26.5925739
  53.4168355  31.3564163  26.5176206  54.1812472  31.5091012  26.6095445
  49.6727191  35.5091179  18.7818723  48.8638513  35.1857852  18.7352033
  50.1802100  34.8024401  18.7146972  49.6276857  35.3572495  18.7649018
  56.2920398  34.4097053  29.3198848  56.7175470  33.8871475  28.7669273
  55.9277318  35.0077890  28.7987471  56.3007001  34.4207280  29.1607857
  52.8798997  38.1231317  25.6500005  53.3510176  38.8371580  25.8189990
  53.2159176  37.5230067  26.1859875  52.9994113  38.1402782  25.7532381
  49.7968492  22.8958788  32.6058100  49.9296398  22.0989781  32.9339075
  50.1813645  23.4225191  33.1856376  49.8724821  22.8558705  32.7401603
  52.8700848  19.8189114  29.2039193  52.0646811  19.7086844  29.5207032
  52.7407583  19.9201570  28.3469059  52.7320980  19.8172784  29.1247234
  56.3266808  25.9834606  29.7978890  55.7429797  26.4843812  29.3856457
  56.6471102  25.4764162  29.1643213  56.2879983  25.9826441  29.6437397
  48.8661607  24.8975201  20.0737565  49.6877302  25.0673514  19.8319260
  48.4031258  25.0522462  19.3503862  48.9192770  24.9456934  19.9309209
  47.4556939  22.8917963  30.8535994  48.0001352  22.5509090  31.4440335
  47.5093875  23.7503424  30.9957278  47.5446059  22.9673222  30.9617867
  69.5544920  46.5765176  21.9079915  69.5238925  47.4309813  22.0798185
  70.1526269  46.2760468  22.4666059  69.6382078  46.6581672  22.0154718
  62.7544605  45.6640827  26.6632846  61.8982501  45.8249325  26.7141963
  62.8012259  44.7932891  26.6837907  62.6343717  45.5591629  26.6738912
  57.1385745  55.2003545  22.4270077  56.3868645  54.8219083  22.1986122
  57.5871757  55.2321978  21.6788888  57.0935412  55.1489152  22.2827580
  66.0638322  51.9327352  36.2693302  66.7705089  51.4379383  36.3980236
  66.2526257  52.3736434  35.5395960  66.1966227  51.9245703  36.1802347
  62.5910705  55.6228914  17.8555624  62.2562073  56.3005836  17.4199847
  63.1037575  55.2334225  17.2672496  62.6176286  55.6653492  17.7042416
  62.1314996  57.5743183  23.7966736  62.5154376  58.1430082  23.2571511
  62.0674137  56.8492693  23.3172552  62.1788423  57.5518646  23.6460599
  65.5996426  47.7232871  29.3064497  66.1452386  48.4017957  29.3658467
  65.5413303  47.5820332  28.4466079  65.6712341  47.8024872  29.1876558
  58.7170501  55.2121937  24.6932850  58.8180864  54.4022291  25.0029978
  58.1212246  55.1178883  24.0632528  58.6443040  55.0786965  24.6459088
  67.3761495  49.1517478  20.1798225  67.2601021  49.9025164  20.6090363
  68.1717382  48.8941431  20.4294312  67.4766084  49.2252325  20.2802317
  58.5571241  60.1299526  26.0947706  59.2008696  60.5712690  26.4843864
  58.8827496  59.3252952  26.0077965  58.7003069  60.0764721  26.1393183
  51.9135546  51.2342223  24.3185184  51.6785730  50.4009876  24.2117452
  52.0521186  51.5146889  23.5046384  51.8991208  51.1525727  24.1827538
  54.2125633  43.4027954  27.2169491  53.5930665  42.8120601  27.0479506
  54.1109497  43.9939389  26.5833814  54.1063308  43.4032037  27.0974481
  59.2591821  53.1411501  21.4667568  59.5807662  53.6816708  20.8628876
  59.9063917  52.5708272  21.5989857  59.4017876  53.1370676  21.3974603
  61.3093529  45.1427496  21.5501954  62.0073693  45.3215623  22.0423418
  61.6245861  44.6197835  20.9272344  61.4588866  45.0921268  21.5303964
  61.4981464  51.5297941  21.5381746  61.9375099  50.9215041  21.9836519
  61.3486127  51.1505314  20.7667211  61.5402930  51.3836412  21.4900913
  61.5039198  52.9696859  28.3907464  61.7862441  52.1748264  28.1694220
  62.2325359  53.4477446  28.4112525  61.6528762  52.9231455  28.3610479
  59.4820392  40.5119892  25.6323229  59.1523722  40.9631036  24.9626928
  58.8065394  40.4336056  26.1796235  59.3330828  40.5671028  25.6146452
  65.0990801  49.8825122  18.4912515  65.0142096  50.7386089  18.6362084
  65.5875184  49.6069446  19.1594674  65.1579698  49.9682444  18.6114597
  66.6896800  36.5005415  23.8772840  66.3750241  37.1908894  24.3093262
  66.1723742  36.4450198  23.1758340  66.5661270  36.5940304  23.8369789
  66.0309234  46.5009916  19.9910250  65.5020705  46.7169550  20.6507556
  66.5534254  47.1946055  19.9111219  66.0297687  46.6353053  20.0765849
  71.4857287  52.0756221  25.3643295  70.6554990  52.2866864  25.5276711
  71.4366539  51.2493275  25.0885578  71.3564022  51.9845827  25.3480660
  57.9208842  50.3973133  18.7917718  57.3366057  50.9023164  19.1983582
  57.5178937  50.1715520  18.0514310  57.7748145  50.4381381  18.7422743
  59.5467024  54.9060075  28.1991204  59.0293966  54.5467490  27.5952512
  60.2441415  54.3822249  28.2097270  59.5732605  54.7757763  28.1121463
  63.2030616  55.3554889  34.1607377  63.2913962  55.1681029  35.0085588
  63.6320329  54.7092319  33.7612224  63.2792719  55.2317897  34.2279129
  60.7701076  54.6386049  33.1425039  60.2071911  54.2258659  33.6664701
  61.5322099  54.5638955  33.5618183  60.7995525  54.5663449  33.2818040
  62.3786056  46.6438785  17.2686639  62.6182060  46.8516769  16.4561982
  62.7001897  45.8396294  17.3775583  62.4623214  46.5552886  17.1647192
  57.6876346  38.5732181  21.1146177  58.4422314  38.9410498  20.8763227
  57.5103881  38.9471735  21.8825356  57.7730825  38.6830369  21.1931065
  56.3297067  56.6284070  25.7461669  57.0317647  56.1136059  25.8034426
  56.2494551  56.9558221  26.5508545  56.4220828  56.5998296  25.8734462
  70.9811245  44.7226621  29.1593716  70.1439666  44.7928808  29.3941310
  70.9499476  44.7251116  28.2868018  70.8529527  44.7336848  29.0653264
  56.0433411  40.9802500  17.8124290  55.8608984  41.1974381  16.9865282
  56.9059024  41.0941513  17.8682904  56.1438000  41.0292398  17.6978777
  55.6547843  52.8190422  25.2547278  56.4936742  53.0513355  25.3021039
  55.6859612  51.9494734  25.1854313  55.7829560  52.7247369  25.2511922
  61.7233130  37.9828911  20.8473313  62.4519291  37.8044866  20.4011470
  61.8128023  38.8246990  21.0580492  61.8439792  38.0812789  20.8126831
  65.7041431  48.9182298  24.7505607  66.4598946  49.3513812  24.7894516
  65.8103755  48.2687068  25.3240243  65.8311601  48.8859782  24.8403633
  68.7421602  52.7455575  25.5008010  68.3056834  52.7492318  26.2566982
  68.4084517  53.4261074  25.0687588  68.6284222  52.8468031  25.5488843
  68.6619085  39.7869403  27.7437438  69.3044993  39.8567508  28.3299354
  68.9142105  39.1198626  27.2416980  68.7941217  39.6995752  27.7564718
  55.5895438  44.2576673  16.3246763  54.8753615  43.9714852  16.7369195
  56.0739407  44.5973298  16.9653150  55.5554801  44.2658322  16.4802398
  63.4721069  56.6974010  30.4717616  62.6736315  56.4573510  30.7291485
  63.9207080  56.7488403  31.2184664  63.4195680  56.6696401  30.6202541
  71.8765948  49.4636495  24.3927648  72.5382382  48.9027164  24.2923556
  71.2357360  48.9688526  24.7180339  71.8794816  49.3072904  24.4259988
  62.7642756  52.7606626  16.7008571  63.1793904  52.4291650  16.0093067
  61.9334685  52.5275529  16.5728708  62.7030765  52.6777882  16.5799418
  68.1630779  50.4801877  24.1339636  68.3986368  50.6247076  23.3066487
  68.3120342  51.2444286  24.5271150  68.2196582  50.6140932  24.0703240
  69.9921236  49.3203543  21.9709240  70.3229453  49.8531184  21.3649335
  70.5654324  49.3742431  22.6271191  70.1254915  49.4073112  21.9787022
  65.2053125  47.1668446  22.6532820  65.2999979  47.9057740  23.1072446
  64.5811968  46.7385922  23.0867385  65.1262155  47.2129767  22.7840968
  65.4576146  49.0117186  15.8869772  65.3756308  49.0819373  16.7524759
  66.0955866  49.5746930  15.6953513  65.5395983  49.1056157  15.9859722
  58.8169317  48.7777924  25.3544299  58.5588561  47.9449659  25.3275598
  58.8717800  49.0035537  24.5136799  58.7869095  48.6875695  25.2264435
  63.8970367  40.8806375  25.4548391  63.1926694  40.3915560  25.6132310
  63.9455342  40.8928849  24.5836836  63.8000419  40.8096023  25.3487731
  57.7904029  46.3315686  25.8409193  57.2153621  46.4907855  26.4773154
  57.4139706  45.6951095  25.3777644  57.6506842  46.2613499  25.8663752
  71.1000587  44.5614040  23.4749402  70.8437152  43.7493982  23.2847285
  71.9429901  44.5691607  23.2479589  71.1866612  44.4426038  23.4134219
  65.2803679  38.5013664  28.2125556  65.6614191  37.8191835  28.5993430
  64.4766964  38.2123266  28.0301221  65.2180141  38.3580713  28.2429612
  62.5616256  49.0337640  18.8978379  63.3756895  49.3252533  18.7861150
  62.4975397  48.3797503  18.3236672  62.6718995  48.9802835  18.7967216
  68.7825746  51.7163636  33.3107954  68.5464384  50.8851701  33.1920015
  69.4268975  51.6649244  33.8962799  68.8420417  51.5861324  33.3793848
  58.4324164  52.5059158  24.0250691  59.0698111  52.2670905  24.5702484
  58.8579236  52.7096317  23.2903851  58.5900331  52.5010168  23.9967848
  59.0726979  47.7261447  18.3625580  59.4572132  47.5069154  19.1142125
  58.8238600  48.5524393  18.4926657  59.0929052  47.8159594  18.4926657
  69.8062167  51.5008085  29.3736249  69.5007984  52.2336142  29.7349565
  69.0868383  51.0946015  29.0929035  69.6549509  51.5489818  29.3849386
  60.8145636  52.9831580  25.7044477  60.8884645  52.8206752  26.5586327
  61.6315143  53.1721770  25.4604959  60.9461995  52.9868323  25.7942503
  75.5063959  48.1401086  28.7004593  75.4388459  48.1597045  27.8307180
  75.4919622  48.9831413  28.9260264  75.4942716  48.2674820  28.6057070
  54.5751393  53.3289443  22.7338921  53.7489511  53.5751180  22.6073199
  54.6363384  53.2501524  23.6000979  54.4625560  53.3534392  22.8427865
  56.7927417  39.3958384  23.6934361  55.9249842  39.4680984  23.7591970
  57.0802621  40.1980463  23.8822336  56.7067165  39.5252531  23.7309127
  65.9160306  39.5436243  32.0245683  66.6613898  39.3546054  31.6109108
  65.4997610  40.0694481  31.4659539  65.9645280  39.5938389  31.8810256
  59.3550222  55.9466323  20.4357951  59.6448520  55.5555305  19.7117177
  60.0853703  56.1283028  20.8763226  59.5057106  55.9160137  20.3940758
  73.2922576  46.9145472  26.9751188  73.8430498  46.2813541  27.2148280
  73.2766692  47.4460865  27.6666692  73.3707773  46.8994420  27.1130046
  57.2956138  57.9233706  23.5018100  57.0756433  57.6331060  24.2944767
  57.0750660  57.2648661  22.9736013  57.2303732  57.7833414  23.5407009
  56.2073085  50.0107022  25.7673802  55.9186333  49.3844494  26.3019529
  57.0756433  49.9527310  25.8338482  56.2933337  49.9094566  25.8564757
  66.9950983  45.1541806  26.0855784  66.6515749  44.4332141  26.4363033
  67.0944025  44.9455657  25.2434142  66.9593025  45.0166009  26.0127464
  59.4624093  59.2963096  22.2848793  60.1148151  58.7639538  22.5139819
  58.7649702  58.9431748  22.6716667  59.4554811  59.1652619  22.3760960
  56.4105358  51.6502273  21.6916167  57.1651326  52.0315312  21.9051630
  55.8175971  52.1013417  22.1462864  56.4342072  51.7731101  21.7899045
  67.4564012  51.6167510  21.6279772  68.0222044  52.2760720  21.5438315
  66.8091915  51.9617208  22.0996174  67.4442768  51.7649451  21.6852528
  54.7194769  42.8716643  21.1351237  54.4319565  42.5017914  20.3983184
  55.4065237  43.3411499  20.8734942  54.7783666  42.8863613  20.9866313
  63.9270590  54.5606294  21.0516851  63.6857266  53.8274155  20.6443916
  64.1071923  55.1093151  20.3983184  63.9178214  54.5328685  20.8947074
  59.1569910  49.8514854  22.4637773  58.9612693  50.4589588  21.8698076
  59.3804256  49.1582798  21.9829447  59.1604551  49.8392379  22.3053854
  57.5548440  46.7369592  22.5818642  58.2771092  46.9010750  22.1222448
  57.0756433  47.4579256  22.4757982  57.5912171  46.8667821  22.4984256
  65.5141948  43.0733390  27.9615327  64.6753049  43.0994669  27.7253590
  65.5846315  43.7204126  28.5420673  65.4010342  43.1729516  28.0124444
  63.9611226  39.9718767  22.6942943  64.6637579  39.7726516  22.2162901
  63.6955415  39.1994710  23.0011786  64.0257859  39.8281733  22.6688384
  69.3899472  48.2801377  25.2476568  69.3033446  48.4356803  26.1011347
  68.9349952  48.9239453  24.8735974  69.3102729  48.3977132  25.3183675
  52.2922963  43.6497856  21.9836518  52.3939100  44.4524017  22.3117494
  53.0878850  43.4485192  21.6859599  52.4250869  43.7383755  21.9871873
  63.2625288  45.6012124  23.8702128  63.0160002  45.5207875  24.7038917
  63.5910411  44.8165592  23.6764655  63.2746532  45.4738390  23.9649651
  67.1573337  52.3095484  27.6588909  67.0187696  53.0076529  28.1637652
  66.3773335  52.1544140  27.3025091  67.0216564  52.3895650  27.6815183
  65.4951422  48.6091859  33.9111291  65.4899460  47.7371675  33.9153717
  66.2012416  48.8080028  33.4380747  65.5996426  48.5095733  33.8418326
  58.2950070  56.5271615  30.1486138  58.4439634  55.9674531  29.4959542
  59.0750072  56.6063616  30.5318657  58.4324164  56.4557180  30.1083087
  68.6526710  51.6673737  18.4205408  68.2733518  50.8810875  18.4134698
  67.9892955  52.2160594  18.2777053  68.4985184  51.6318561  18.3986205
  60.8203371  56.6986258  31.4270629  60.7447042  56.0295068  31.9821417
  60.7493230  57.4004046  31.9411295  60.7983978  56.7031165  31.5847477
  66.1071336  34.6099437  25.8239489  66.2254904  35.0675900  25.0906792
  65.9333511  33.8044698  25.5375707  66.0990507  34.5593209  25.6740423
  61.4773618  55.2187256  22.2594235  62.2423509  54.9496900  21.9376899
  61.3751708  54.7337267  22.9764297  61.5755113  55.1076821  22.3174062
  63.9992278  52.2499440  14.2394184  64.7665263  52.3099565  13.8300036
  63.5523587  51.6779882  13.7550503  64.0465706  52.1736016  14.1071894
  64.8970074  51.0554096  26.5246916  64.2215076  50.8239328  27.0260303
  64.9062450  50.4475279  25.8989021  64.7988578  50.9313021  26.5063069
  66.8986808  53.9119228  18.7557094  66.9806646  54.7186215  18.4318545
  67.3836551  53.9315188  19.4797868  66.9823966  54.0339891  18.8143993
  60.2095005  60.1054577  29.8848630  60.6990935  59.4065367  29.7024294
  59.6379237  59.8078447  30.4724687  60.1979535  59.9580801  29.9449670
  55.9965757  49.0856116  22.8555145  56.1530376  49.0202919  23.7111137
  56.3366350  49.8604668  22.6433824  56.0698992  49.1905314  22.9509739
  62.5344901  48.4613999  21.7248508  63.0760447  47.9584380  22.1887129
  62.8491460  48.4079194  20.9137993  62.6609298  48.3793420  21.6732320
  66.4062009  52.6716647  38.8375420  67.2196874  52.4001796  38.9980553
  66.2456975  52.3724187  38.0335616  66.5031957  52.5871573  38.7420826
  60.7031351  53.8531351  19.0088536  60.7724171  52.9945889  19.1481536
  61.4819806  54.0703232  18.6807561  60.8284201  53.7584215  18.9805693
  65.0938839  56.2769052  23.2225029  64.7018630  55.9735767  22.5047895
  65.2491911  57.1138142  23.0329983  65.0592428  56.3552889  23.0881526
  52.5700018  46.2691066  23.1715912  52.9498983  46.6875611  22.5076179
  51.9955383  46.8504522  23.4784755  52.5411343  46.4168925  23.1192653
  65.2578513  52.8419041  23.1631060  64.8993168  53.0133684  23.9395092
  64.7717224  53.3032247  22.6059058  65.1337210  52.9358012  23.1956329
  63.0748899  36.4650240  26.7658151  62.2042457  36.4388961  26.7191461
  63.3289241  36.2927432  25.9483997  62.9842459  36.4360383  26.6378288
  60.0466879  48.5218206  15.7031294  60.3359404  49.2983089  15.9774869
  60.1338678  48.0106938  16.4045794  60.1021135  48.5610125  15.8473792
  60.0998040  38.4756468  28.2231622  59.5836528  37.7836659  28.3483201
  59.5391969  39.1427245  28.1694220  59.9404553  38.4719726  28.2337688
  62.1690273  39.0149428  30.0524474  61.7822026  39.0398459  30.8338004
  61.6823211  38.4491107  29.5998991  62.0402782  38.9345179  30.1012378
  66.4183253  53.7322937  34.1098261  67.0562973  53.2383133  33.7760717
  65.7757344  53.6600337  33.5250488  66.4177479  53.6481945  33.9740616
  68.1440253  45.5812083  28.6764176  67.7167861  45.4938432  27.9212276
  67.5066306  45.6889858  29.2619020  67.9869860  45.5844743  28.6509618
  61.8347415  35.9016414  32.3434734  62.4640533  36.4376714  32.0655804
  62.0033278  35.8093772  33.1948300  61.9525210  35.9677776  32.4283262
  66.4737509  54.4242745  30.7503617  67.2629887  54.0731810  30.8705699
  66.6481107  55.2379134  30.4880251  66.6157791  54.4928602  30.7291485
  53.6906387  45.4571008  25.6316157  53.2963084  45.5314020  24.8566267
  53.1346504  45.8428954  26.1824519  53.5509199  45.5252783  25.5983817
  65.3271333  38.4352302  25.3120036  65.5320927  38.3674610  26.1577033
  64.9997757  39.2411123  25.2441213  65.3086581  38.5438242  25.4279691
  59.0813582  43.0733390  21.6173706  59.3573316  42.3552303  21.2051273
  59.6812251  43.6718310  21.4094812  59.2106846  43.0553761  21.5254467
  68.5805021  38.9884066  24.7922801  67.9679335  39.4754468  25.1776533
  68.6769196  38.3127557  25.3360453  68.5042919  38.9602375  24.9301660
  62.5824102  40.7446907  19.8920301  63.0367849  40.9157468  20.6168145
  63.0564148  40.1315018  19.4918076  62.7192422  40.6797793  19.9394062
  72.2230049  50.0601003  30.2200317  72.2813173  50.5087652  30.9660294
  71.5896517  50.4699816  29.7830397  72.1381344  50.1874738  30.2652866
  65.8629144  55.6804545  26.6555064  65.6648832  56.1695359  25.9611275
  65.2416855  55.8845786  27.2339197  65.7416708  55.7821083  26.6378287
  59.9237122  47.4489442  20.9965308  60.6679167  47.8363718  21.2348258
  60.0697818  46.6046867  21.1605796  60.0547707  47.3819915  21.0559278
  61.8416698  39.2439701  26.0297169  60.9952743  39.4162508  25.9038519
  61.8387830  38.4389044  26.3662998  61.7163848  39.1500730  26.0608296
  62.9114998  43.0214915  26.8959227  62.4374952  42.4956677  27.4064538
  63.2833134  42.4744388  26.3274089  62.8964887  42.8630912  26.8874374
  69.1751729  48.0817291  28.3066008  68.9349951  47.2423706  28.3108434
  69.6543736  48.1617457  29.0306781  69.2103912  47.9698690  28.4140810
  64.8398498  43.9151470  19.9584981  64.3121516  43.9980214  19.2690690
  65.2994206  44.6569341  19.9549626  64.8300348  44.0372132  19.8559676
  71.1756916  44.8618748  26.2595267  70.9366686  44.8214582  25.4216052
  71.3390817  45.7089900  26.3860988  71.1647219  44.9810833  26.1548749
  67.7802946  49.2468697  32.1900312  68.5037145  48.7941224  32.0111332
  67.5152908  49.5273363  31.4072640  67.8484219  49.2219666  32.0479027
  56.8331563  42.1853989  14.9825876  56.4844367  42.8373714  15.4457426
  56.3528009  42.1711102  14.2549747  56.7101807  42.2797043  14.9436968
  64.3935580  52.4855033  19.0894638  65.1169779  52.9513146  18.9459211
  63.9536171  52.5528643  18.3392235  64.4351272  52.5638870  18.9579420
  63.5621735  49.3452575  30.3395327  62.9478728  48.8010626  30.6343962
  64.0789020  48.8316812  29.8601143  63.5477398  49.1888984  30.3119556
  62.8018032  50.4156845  28.0739626  62.3745640  49.7906564  27.6405061
  62.7942977  50.1331767  28.8998633  62.7377174  50.2809626  28.1319453
  63.8600863  37.6183254  31.6978849  63.3641424  37.8146928  31.0070416
  64.6169925  38.0175922  31.5267651  63.8987687  37.7060988  31.5698986
  61.1303742  41.2925600  28.2882160  61.1546229  40.7585712  27.5994940
  61.3815216  40.7842909  28.9507750  61.1713661  41.1386504  28.2846804
  57.4105064  40.0196418  27.6687904  57.4503436  40.5205625  28.3822611
  56.5854729  40.1106812  27.3993827  57.2944590  40.1078235  27.7338442
  57.2055472  44.8112520  20.4951921  57.3458433  45.3084984  21.1980562
  57.7038004  44.1098814  20.6366134  57.2996552  44.7814498  20.6203500
  57.2355694  45.6779631  17.8244498  57.8700773  46.2740056  17.7593959
  57.3181305  45.3783088  18.6390368  57.3412245  45.7220539  17.9347584
  70.2138260  48.2095108  30.6930862  70.8056100  48.8492359  30.7249060
  70.6497254  47.5118145  30.9822929  70.3656691  48.2013458  30.7411694
  58.8134677  41.6093606  17.7989940  59.1350518  41.1296689  17.1449202
  59.0761621  42.4193252  17.6080751  58.9000702  41.6583504  17.6745432
  62.0431650  52.6312480  31.3188756  61.5356741  53.1848327  31.7629386
  61.7458296  52.6920770  30.5007530  61.9236535  52.7218792  31.2637212
  53.7408682  47.8747471  21.0934044  54.2500911  48.4711979  21.4745349
  54.2142954  47.6073445  20.4110463  53.8852058  47.9233287  21.0488566
  64.6539430  56.5475738  19.2492699  63.9368740  56.3736600  18.7839937
  65.3046167  56.3128310  18.7168185  64.6441280  56.4871531  19.1021917
  62.6488055  37.4680900  23.5703996  62.0056373  37.3178546  24.1389134
  62.3087462  37.2223245  22.8053100  62.5033132  37.4093022  23.5407011
  67.2387401  45.4240327  22.9934004  66.5678591  45.9670029  22.8647070
  67.9327151  45.8935182  22.7515699  67.2416269  45.5738598  22.9389532
  61.2874135  57.5637039  28.2245763  61.0639789  56.8055868  28.5929789
  60.7983978  57.5935060  27.5026202  61.1817584  57.4559263  28.1722504
  67.4015529  41.8796210  25.9024378  67.7543139  41.4525933  26.5770176
  66.5430330  41.7947054  26.0325454  67.3264973  41.8040951  26.0219388
  56.0999214  44.5103730  23.9607224  55.3811203  44.9267863  24.2280088
  56.4711576  45.0757969  23.4098862  56.0491145  44.6553011  23.9190031
  65.3998794  45.1431579  29.8509220  65.3796722  44.9614874  30.7043999
  65.4477995  46.0143597  29.8268803  65.4033435  45.2448117  29.9732514
  59.9352592  57.7837497  25.6782847  59.5212990  57.1211627  25.2886689
  60.6199966  57.9315356  25.1578541  59.9750963  57.7078155  25.5439344
  63.3017886  56.9427582  26.4306464  62.9034169  57.0529852  25.6627284
  62.6869105  57.1509648  27.0133024  63.1516775  56.9901150  26.4037763
  61.8745788  43.5501730  19.2980604  61.2810627  43.8718726  18.7465171
  61.9121066  42.7042825  19.0901710  61.7920177  43.4726058  19.1863375
  68.8339589  37.0014622  26.8308690  68.3270453  36.2943762  26.7629867
  69.6307022  36.6707811  26.9609767  68.8766828  36.8487773  26.8407685
  64.7503605  43.5081234  22.7282354  64.5217298  43.5313936  21.8860712
  65.0101681  42.6838701  22.8477364  64.7549793  43.3897314  22.6207551
  57.8048367  42.0457781  24.0236549  58.2805733  42.4074860  23.3886731
  57.3036967  42.7014248  24.3036692  57.8013726  42.1951969  23.9713290
  71.0359729  51.5179549  19.8149554  71.4193334  52.2670905  20.0447651
  70.2403842  51.7645368  19.5561543  70.9753511  51.6649243  19.8107128
  59.8475020  44.1898980  17.3909933  60.2273985  44.2078610  16.6061048
  59.1067616  44.6352969  17.2700781  59.7943858  44.2580755  17.2573502
  67.4760311  42.4981172  22.9785512  67.4754537  42.3429828  23.8369788
  67.2716491  43.3444159  22.9226898  67.4460089  42.6001792  23.0973451
  65.2001163  47.1778673  26.6321719  65.6954828  46.4601668  26.5925739
  64.3900938  46.8749471  26.5176206  65.1545056  47.0276320  26.6095445
  60.6459774  51.0276487  18.7818723  59.8371097  50.7043160  18.7352033
  61.1534683  50.3209709  18.7146972  60.6009441  50.8757803  18.7649018
  67.2652982  49.9282361  29.3198848  67.6908053  49.4056783  28.7669273
  66.9009901  50.5263198  28.7987471  67.2739584  49.9392588  29.1607857
  56.9007061  58.2246578  28.0796193  57.2153620  59.0382967  28.0873975
  57.3100475  57.8396797  28.7478352  57.0075159  58.2875281  28.1800285
  63.8531581  53.6416625  25.6500005  64.3242759  54.3556888  25.8189990
  64.1891760  53.0415375  26.1859875  63.9726696  53.6588089  25.7532381
  65.9408566  55.2517939  37.8292077  66.0505531  54.4626499  38.1848824
  66.2699462  55.1623875  37.0266415  66.0060971  55.1223792  37.7634468
  64.4905527  53.4334559  32.4127698  63.9426473  52.8092443  32.1447763
  64.9518556  53.6228831  31.6971777  64.4772737  53.3693610  32.2678129
  63.8433431  35.3374422  29.2039193  63.0379395  35.2272152  29.5207032
  63.7140167  35.4386878  28.3469059  63.7053564  35.3358092  29.1247234
  67.2999392  41.5019914  29.7978890  66.7162381  42.0029120  29.3856457
  67.6203686  40.9949470  29.1643213  67.2612567  41.5011749  29.6437397
  59.8394191  40.4160509  20.0737565  60.6609885  40.5858822  19.8319260
  59.3763842  40.5707770  19.3503862  59.8925353  40.4642242  19.9309209
  64.0563854  54.4385632  28.9437039  64.8762227  54.2948598  29.2053334
  63.7757931  55.0631831  29.4853477  64.1360597  54.5095984  29.0624978
  73.7277189  61.1826135  26.6632846  72.8715084  61.3434633  26.7141963
  73.7744843  60.3118199  26.6837907  73.6076300  61.0776937  26.6738912
  68.1118329  70.7188853  22.4270077  67.3601228  70.3404391  22.1986122
  68.5604340  70.7507286  21.6788888  68.0667995  70.6674460  22.2827580
  77.0370905  67.4512660  36.2693302  77.7437673  66.9564691  36.3980236
  77.2258841  67.8921742  35.5395960  77.1698811  67.4431011  36.1802347
  76.5729010  63.2418179  29.3064497  77.1184970  63.9203265  29.3658467
  76.5145886  63.1005640  28.4466079  76.6444924  63.3210180  29.1876558
  69.6903085  70.7307245  24.6932850  69.7913448  69.9207599  25.0029978
  69.0944830  70.6364191  24.0632528  69.6175623  70.5972273  24.6459088
  62.8868129  66.7527531  24.3185184  62.6518313  65.9195184  24.2117452
  63.0253770  67.0332197  23.5046384  62.8723792  66.6711035  24.1827538
  65.1858217  58.9213262  27.2169491  64.5663248  58.3305909  27.0479506
  65.0842080  59.5124697  26.5833814  65.0795892  58.9217344  27.0974481
  72.2826112  60.6612804  21.5501954  72.9806277  60.8400931  22.0423418
  72.5978445  60.1383143  20.9272344  72.4321449  60.6106576  21.5303964
  64.9127350  62.4665544  29.4613060  64.7886046  63.0527989  30.0962879
  65.5645634  61.9725739  29.7625335  64.9900999  62.4804348  29.5998989
  72.4714048  67.0483249  21.5381746  72.9107683  66.4400349  21.9836519
  72.3218710  66.6690622  20.7667211  72.5135513  66.9021720  21.4900913
  69.9385691  65.6427261  28.7400571  70.5834693  65.1499704  28.4211520
  70.1787468  65.7852047  29.5666650  70.0696276  65.5904703  28.8150104
  72.4771782  68.4882166  28.3907464  72.7595025  67.6933572  28.1694220
  73.2057942  68.9662754  28.4112525  72.6261346  68.4416763  28.3610479
  70.4552976  56.0305200  25.6323229  70.1256306  56.4816344  24.9626928
  69.7797978  55.9521364  26.1796235  70.3063412  56.0856336  25.6146452
  77.6629384  52.0190723  23.8772840  77.3482825  52.7094202  24.3093262
  77.1456325  51.9635506  23.1758340  77.5393854  52.1125612  23.8369789
  64.4485454  71.6313202  25.5941390  63.9653032  72.3563692  25.5700973
  65.2608772  71.9289332  25.7051547  64.4976201  71.7815556  25.6068669
  70.5199608  70.4245383  28.1991204  70.0026549  70.0652798  27.5952512
  71.2173999  69.9007557  28.2097270  70.5465189  70.2943071  28.1121463
  71.7433660  70.1571357  33.1425039  71.1804494  69.7443967  33.6664701
  72.5054683  70.0824263  33.5618183  71.7728108  70.0848757  33.2818040
  68.6608930  54.0917489  21.1146177  69.4154898  54.4595806  20.8763227
  68.4836464  54.4657043  21.8825356  68.7463408  54.2015677  21.1931065
  67.3029651  72.1469378  25.7461669  68.0050230  71.6321367  25.8034426
  67.2227134  72.4743529  26.5508545  67.3953411  72.1183604  25.8734462
  68.3508558  62.3844965  34.8742085  68.5229061  62.2750860  35.7227366
  68.8877915  63.0299370  34.6373277  68.4553562  62.4636967  34.9647181
  67.0165994  56.4987808  17.8124290  66.8341568  56.7159689  16.9865282
  67.8791607  56.6126821  17.8682904  67.1170584  56.5477706  17.6978777
  66.6280426  68.3375730  25.2547278  67.4669326  68.5698663  25.3021039
  66.6592196  67.4680041  25.1854313  66.7562144  68.2432676  25.2511922
  67.2533129  68.7576605  29.5560583  67.7931354  68.6147736  30.2263955
  66.5703076  69.1573356  29.9244609  67.2325283  68.7956276  29.7095005
  72.6965714  53.5014219  20.8473313  73.4251874  53.3230173  20.4011470
  72.7860607  54.3432298  21.0580492  72.8172376  53.5998097  20.8126831
  76.6774014  64.4367606  24.7505607  77.4331529  64.8699120  24.7894516
  76.7836339  63.7872376  25.3240243  76.8044185  64.4045090  24.8403633
  62.6570274  64.9776896  29.7095005  62.3908690  64.1616013  29.8685995
  62.6708839  65.0230052  28.8390520  62.6194997  64.8633801  29.6048487
  66.5628021  59.7761980  16.3246763  65.8486199  59.4900160  16.7369195
  67.0471990  60.1158606  16.9653150  66.5287385  59.7843630  16.4802398
  67.4068881  58.5155274  32.3562012  66.7140678  58.0452254  32.6022744
  68.0229208  58.2893579  32.9303719  67.3953411  58.4122406  32.4771165
  63.0663688  65.7635675  26.9906749  62.8839261  65.7382561  26.1379041
  63.8013357  66.2334613  27.0295658  63.1477752  65.8297038  26.8704667
  66.1309440  62.4820678  33.4988858  66.8549412  62.4673709  33.9853752
  66.2325576  63.1916034  33.0010826  66.2527649  62.5845382  33.4967644
  73.5054389  65.9619763  38.3637805  72.7127370  66.2763275  38.5490424
  73.6203316  66.1771231  37.5258589  73.4049800  66.0403600  38.2676139
  76.1785708  62.6853754  22.6532820  76.2732563  63.4243048  23.1072446
  75.5544552  62.2571230  23.0867385  76.0994738  62.7315075  22.7840968
  74.4338182  65.8639967  33.3023101  75.0077044  65.2267211  33.4571665
  74.3552986  65.8644049  32.4332759  74.5071417  65.7705078  33.1969512
  63.0334598  62.6429176  27.1405815  63.6108101  62.5065627  27.7798061
  62.3348660  62.1864960  27.3951400  63.0155620  62.5551442  27.2728105
  69.7901901  64.2963232  25.3544299  69.5321145  63.4634967  25.3275598
  69.8450384  64.5220845  24.5136799  69.7601679  64.2061003  25.2264435
  74.8702951  56.3991682  25.4548391  74.1659278  55.9100868  25.6132310
  74.9187925  56.4114157  24.5836836  74.7733002  56.3281330  25.3487731
  68.7636613  61.8500994  25.8409193  68.1886204  62.0093163  26.4773154
  68.3872289  61.2136403  25.3777644  68.6239425  61.7798807  25.8663752
  72.4309901  60.3224344  30.7001572  72.0424334  59.8978561  30.0453763
  71.7664600  60.5706493  31.2078598  72.2756829  60.2963065  30.6789440
  58.5093432  61.4941069  23.8553634  58.5953684  61.1172937  24.6367164
  59.1369229  61.1201515  23.3773592  58.6149983  61.3826551  23.8999111
  76.2536263  54.0198972  28.2125556  76.6346775  53.3377143  28.5993430
  75.4499547  53.7308574  28.0301221  76.1912725  53.8766021  28.2429612
  69.4056748  68.0244466  24.0250691  70.0430695  67.7856213  24.5702484
  69.8311820  68.2281624  23.2903851  69.5632914  68.0195476  23.9967848
  64.0969390  70.2632802  27.9084995  64.1373536  70.5347653  27.0804774
  64.6563914  70.7874710  28.3242783  64.1852736  70.3808557  27.8476883
  70.0459563  63.2446755  18.3625580  70.4304716  63.0254462  19.1142125
  69.7971183  64.0709701  18.4926657  70.0661636  63.3344902  18.4926657
  70.2128103  56.5253171  38.0788165  69.8981544  57.2952733  37.8157727
  69.8918036  55.9623427  37.4940391  70.1187023  56.5563439  37.9529514
  71.7878220  68.5016888  25.7044477  71.8617228  68.3392060  26.5586327
  72.6047726  68.6907078  25.4604959  71.9194579  68.5053631  25.7942503
  65.5483977  68.8474751  22.7338921  64.7222094  69.0936488  22.6073199
  65.6095968  68.7686832  23.6000979  65.4358144  68.8719700  22.8427865
  67.7660000  54.9143692  23.6934361  66.8982426  54.9866292  23.7591970
  68.0535205  55.7165771  23.8822336  67.6799748  55.0437839  23.7309127
  76.8892889  55.0621551  32.0245683  77.6346481  54.8731362  31.6109108
  76.4730194  55.5879789  31.4659539  76.9377863  55.1123697  31.8810256
  70.9177551  66.2669377  31.5211081  70.4189245  66.9785145  31.5995969
  71.7277775  66.5870044  31.4829243  70.9633658  66.4196226  31.5267650
  68.2688721  73.4419014  23.5018100  68.0489017  73.1516368  24.2944767
  68.0483243  72.7833969  22.9736013  68.2036315  73.3018722  23.5407009
  67.1805668  65.5292330  25.7673802  66.8918917  64.9029801  26.3019529
  68.0489017  65.4712618  25.8338482  67.2665920  65.4279874  25.8564757
  77.9683566  60.6727114  26.0855784  77.6248332  59.9517449  26.4363033
  78.0676609  60.4640965  25.2434142  77.9325609  60.5351317  26.0127464
  67.3837942  67.1687581  21.6916167  68.1383910  67.5500620  21.9051630
  66.7908554  67.6198725  22.1462864  67.4074655  67.2916409  21.7899045
  69.8444609  59.1250422  36.8173379  69.0344385  59.4308201  36.7063222
  70.3219296  59.8456004  36.9325963  69.7948088  59.2765023  36.8180450
  68.7036168  68.3396143  27.0656282  68.1816922  68.4796434  27.7508147
  69.0910189  67.5806807  27.2558400  68.6839869  68.2481666  27.1957359
  65.6927352  58.3901951  21.1351237  65.4052148  58.0203222  20.3983184
  66.3797821  58.8596807  20.8734942  65.7516250  58.4048921  20.9866313
  70.1302494  65.3700162  22.4637773  69.9345277  65.9774896  21.8698076
  70.3536840  64.6768106  21.9829447  70.1337135  65.3577687  22.3053854
  68.5281024  62.2554900  22.5818642  69.2503676  62.4196058  22.1222448
  68.0489017  62.9764564  22.4757982  68.5644755  62.3853129  22.4984256
  76.4874532  58.5918698  27.9615327  75.6485632  58.6179977  27.7253590
  76.5578899  59.2389434  28.5420673  76.3742925  58.6914824  28.0124444
  66.1788641  64.6612972  31.6872782  66.6909738  64.9397225  31.0381541
  65.8924983  65.4002266  32.0535595  66.2123504  64.8115326  31.6462660
  74.9343810  55.4904075  22.6942943  75.6370163  55.2911824  22.2162901
  74.6687999  54.7180018  23.0011786  74.9990442  55.3467041  22.6688384
  63.2655547  59.1683164  21.9836518  63.3671684  59.9709325  22.3117494
  64.0611434  58.9670500  21.6859599  63.3983453  59.2569063  21.9871873
  69.6972366  56.7539361  31.7473823  69.5055563  56.7694495  32.5973247
  70.5470962  56.9503035  31.7240478  69.7948088  56.7853712  31.8697118
  64.0819279  59.2830342  29.7257640  63.9404771  58.4314283  29.8502148
  64.3659843  59.3259003  28.9019846  64.1027125  59.1630092  29.6225264
  74.2357872  61.1197432  23.8702128  73.9892586  61.0393183  24.7038917
  74.5642995  60.3350900  23.6764655  74.2479115  60.9923698  23.9649651
  76.4684005  64.1277167  33.9111291  76.4632044  63.2556983  33.9153717
  77.1744999  64.3265336  33.4380747  76.5729009  64.0281041  33.8418326
  70.1954899  63.8554151  33.2825111  70.3398275  64.4355359  32.6468221
  70.5430547  64.2330448  33.9874966  70.2682360  63.9974855  33.2924106
  72.3674816  63.0544319  31.0650243  71.6198130  63.2475334  30.6598521
  72.5216341  62.2289539  30.8274364  72.2797244  62.9609431  30.9695648
  69.2682654  72.0456923  30.1486138  69.4172218  71.4859838  29.4959542
  70.0482656  72.1248924  30.5318657  69.4056747  71.9742488  30.1083087
  72.6076593  56.9494870  31.9545646  73.0649207  57.6818844  32.0818439
  72.6832922  56.5261335  32.7132902  72.6867563  56.9952108  32.0846723
  64.8509584  57.1960690  33.0435090  64.3151774  56.5841048  33.3595857
  64.9127349  57.7708826  33.6968757  64.7805217  57.1907617  33.1870517
  77.0803919  50.1284745  25.8239489  77.1987487  50.5861208  25.0906792
  76.9066095  49.3230006  25.5375707  77.0723090  50.0778517  25.6740423
  70.4858971  58.9396974  28.7987470  69.6955046  58.7588434  29.1204806
  70.8819594  58.1623926  28.7817765  70.4275847  58.7984435  28.8440019
  75.8702657  66.5739404  26.5246916  75.1947659  66.3424636  27.0260303
  75.8795034  65.9660587  25.8989021  75.7721162  66.4498329  26.5063069
  72.9996801  61.4157233  33.2810969  72.9355943  62.2767189  33.1531106
  73.1393989  61.0989226  32.4806521  73.0112271  61.4957400  33.1439182
  71.6815895  64.1089372  27.4227172  71.2578144  64.3093871  26.6866191
  71.5060750  63.2618220  27.5351472  71.5926776  64.0138154  27.3300862
  66.9698340  64.6041424  22.8555145  67.1262959  64.5388227  23.7111137
  67.3098933  65.3789976  22.6433824  67.0431575  64.7090622  22.9509739
  73.5077485  63.9799307  21.7248508  74.0493030  63.4769688  22.1887129
  73.8224044  63.9264502  20.9137993  73.6341882  63.8978728  21.6732320
  74.6566754  58.8735612  31.7770808  74.8708724  58.2346526  31.2234162
  74.0400653  59.3181436  31.3478670  74.5972083  58.8445755  31.6321240
  63.5432602  61.7876374  23.1715912  63.9231567  62.2060919  22.5076179
  62.9687967  62.3689830  23.4784755  63.5143927  61.9354233  23.1192653
  76.8205842  60.4824677  32.7154116  76.0082524  60.1750567  32.7967288
  77.2795777  60.0023677  33.2796828  76.7686227  60.3661169  32.8108710
  74.0481483  51.9835547  26.7658151  73.1775041  51.9574269  26.7191461
  74.3021824  51.8112740  25.9483997  73.9575043  51.9545691  26.6378288
  73.9159350  61.8884748  37.4982818  74.3858981  62.5126865  37.8850692
  73.9621230  61.2201724  38.0576033  73.9927226  61.8819429  37.6382889
  71.0730623  53.9941776  28.2231622  70.5569112  53.3021967  28.3483201
  70.5124552  54.6612553  28.1694220  70.9137137  53.9905034  28.2337688
  73.1422857  54.5334736  30.0524474  72.7554610  54.5583767  30.8338004
  72.6555794  53.9676415  29.5998991  73.0135366  54.4530487  30.1012378
  72.8079999  51.4201721  32.3434734  73.4373117  51.9562021  32.0655804
  72.9765861  51.3279080  33.1948300  72.9257793  51.4863084  32.4283262
  72.6093913  56.2072916  34.6161146  73.4367343  55.9358065  34.6719760
  72.6301759  57.0033758  34.9724964  72.7346764  56.2852670  34.6776329
  67.1863403  63.3536779  27.8031406  66.3451410  63.2540653  28.0110300
  67.3953411  64.1232259  28.1545727  67.0928096  63.4528822  27.8858721
  64.6638970  60.9756316  25.6316157  64.2695668  61.0499328  24.8566267
  64.1079087  61.3614262  26.1824519  64.5241783  61.0438090  25.5983817
  76.3003917  53.9537610  25.3120036  76.5053510  53.8859918  26.1577033
  75.9730341  54.7596431  25.2441213  76.2819165  54.0623550  25.4279691
  70.9980068  61.2818178  27.0529004  70.6943206  60.7274166  27.6539412
  70.2959489  61.4610388  26.5657038  70.8496278  61.2262960  27.0698709
  70.0546165  58.5918698  21.6173706  70.3305900  57.8737610  21.2051273
  70.6544835  59.1903618  21.4094812  70.1839430  58.5739069  21.5254467
  69.0598419  68.4967899  31.7601102  68.9518774  68.5069961  32.6263160
  69.2694201  69.3222679  31.5706055  69.0748530  68.6208974  31.8605193
  73.5556686  56.2632215  19.8920301  74.0100432  56.4342776  20.6168145
  74.0296731  55.6500326  19.4918076  73.6925006  56.1983101  19.9394062
  67.0772211  65.7480541  29.2223039  66.4860144  66.3890039  29.1926054
  67.8393235  66.1718158  29.1954339  67.1020472  65.9056380  29.2138186
  67.4732834  56.9082539  29.8891057  67.9334316  56.9821468  30.6266181
  67.5188941  57.7063793  29.5390878  67.5483389  57.0376686  29.9463813
  69.1216184  57.5749234  34.4563084  68.7301749  56.9282581  34.8918862
  69.2902046  58.1660669  35.0757339  69.0887094  57.5663502  34.6125790
  70.8969706  62.9674750  20.9965308  71.6411751  63.3549026  21.2348258
  71.0430402  62.1232175  21.1605796  71.0280291  62.9005222  21.0559278
  73.8847582  58.5400223  26.8959227  73.4107536  58.0141985  27.4064538
  74.2565717  57.9929696  26.3274089  73.8697471  58.3816220  26.8874374
  64.2620612  60.5371730  32.2642773  65.1246225  60.4367439  32.1780103
  63.9312395  59.9566439  31.7028345  64.3405808  60.4363356  32.1688179
  75.8131081  59.4336778  19.9584981  75.2854100  59.5165522  19.2690690
  76.2726789  60.1754649  19.9549626  75.8032932  59.5557440  19.8559676
  67.6222398  59.3614179  28.9253191  66.9975468  59.3732571  28.3179144
  67.2867993  59.8374354  29.5744431  67.4807890  59.4332696  28.9309760
  67.8064146  57.7039297  14.9825876  67.4576951  58.3559022  15.4457426
  67.3260592  57.6896410  14.2549747  67.6834390  57.7982351  14.9436968
  64.3348073  67.4214639  30.3656956  63.8047998  66.7307078  30.4151930
  64.6073167  67.4124824  29.5369664  64.2972796  67.3181771  30.2504371
  74.5354319  64.8637883  30.3395327  73.9211312  64.3195934  30.6343962
  75.0521604  64.3502120  29.8601143  74.5209981  64.7074292  30.3119556
  73.7750616  65.9342153  28.0739626  73.3478224  65.3091872  27.6405061
  73.7675560  65.6517075  28.8998633  73.7109757  65.7994934  28.1319453
  66.8913143  60.9707326  31.1428060  67.0506630  60.2150651  31.5479782
  66.7106037  61.5198266  31.7968797  66.8878502  60.9401140  31.2990766
  74.8333446  53.1368562  31.6978849  74.3374007  53.3332236  31.0070416
  75.5902508  53.5361230  31.5267651  74.8720271  53.2246296  31.5698986
  72.1036326  56.8110908  28.2882160  72.1278813  56.2771020  27.5994940
  72.3547799  56.3028217  28.9507750  72.1446244  56.6571812  28.2846804
  59.6143915  64.0942403  27.7225304  59.5087365  64.0489247  26.8577388
  58.8644135  64.4396183  28.0039589  59.4879518  64.1383311  27.6362634
  68.3837648  55.5381726  27.6687904  68.4236020  56.0390933  28.3822611
  67.5587313  55.6292120  27.3993827  68.2677174  55.6263542  27.7338442
  70.5667261  65.1042466  35.7708199  69.7162891  65.2414180  35.9065844
  70.7295389  64.3706244  36.2155900  70.4651124  65.0156567  35.8563798
  69.8052011  62.0542236  29.9661803  68.9743941  62.2216054  29.7597051
  69.7503528  61.6778187  30.7510688  69.6741426  62.0231967  30.0510331
  67.6135795  55.5451129  35.6018214  68.2388498  55.0013262  35.8747646
  67.1586274  55.0646047  35.0326004  67.6384055  55.3940610  35.5579808
  68.1788055  60.3297828  20.4951921  68.3191016  60.8270292  21.1980562
  68.6770588  59.6284122  20.6366134  68.2729136  60.2999806  20.6203500
  68.2088278  61.1964939  17.8244498  68.8433357  61.7925364  17.7593959
  68.2913888  60.8968396  18.6390368  68.3144828  61.2405847  17.9347584
  69.7867260  57.1278914  17.7989940  70.1083101  56.6481996  17.1449202
  70.0494204  57.9378560  17.6080751  69.8733286  57.1768812  17.6745432
  73.0164233  68.1497788  31.3188756  72.5089324  68.7033635  31.7629386
  72.7190879  68.2106078  30.5007530  72.8969118  68.2404100  31.2637212
  75.1826415  56.5151108  30.1613419  75.6081487  56.0623634  29.5496945
  74.5683408  55.9611179  30.4378206  75.1555061  56.3665084  30.1118444
  64.7141265  63.3932779  21.0934044  65.2233495  63.9897287  21.4745349
  65.1875538  63.1258753  20.4110463  64.8584641  63.4418595  21.0488566
  73.6220638  52.9866208  23.5703996  72.9788956  52.8363854  24.1389134
  73.2820045  52.7408553  22.8053100  73.4765716  52.9278330  23.5407011
  78.3748112  57.3981518  25.9024378  78.7275722  56.9711241  26.5770176
  77.5162914  57.3132362  26.0325454  78.2997557  57.3226259  26.0219388
  67.0731797  60.0289038  23.9607224  66.3543786  60.4453170  24.2280088
  67.4444159  60.5943277  23.4098862  67.0223729  60.1738319  23.9190031
  76.3731378  60.6616887  29.8509220  76.3529305  60.4800182  30.7043999
  76.4210579  61.5328905  29.8268803  76.3766019  60.7633425  29.9732514
  74.3177708  67.2504079  35.7757696  74.2773563  66.6053756  35.1902852
  75.1301026  67.1940696  36.0883108  74.4320861  67.1463046  35.7354645
  72.8478371  59.0687038  19.2980604  72.2543211  59.3904034  18.7465171
  72.8853649  58.2228133  19.0901710  72.7652761  58.9911366  19.1863375
  75.7236188  59.0266542  22.7282354  75.4949881  59.0499244  21.8860712
  75.9834264  58.2024009  22.8477364  75.7282376  58.9082622  22.6207551
  70.0055417  60.8801015  32.3307454  69.4934320  60.2722198  32.6892485
  69.8334913  61.5957608  32.7981430  69.9045054  60.8964315  32.4523678
  64.8521131  59.3238591  34.9809816  64.6823721  59.9839965  34.4358022
  64.4087081  59.5345152  35.7022305  64.7620465  59.4524573  35.0071445
  68.7780951  57.5643089  24.0236549  69.2538317  57.9260168  23.3886731
  68.2769550  58.2199556  24.3036692  68.7746310  57.7137277  23.9713290
  73.8824487  58.8025260  34.7709709  74.4395917  58.5739069  34.1388175
  73.5585552  59.5630926  34.4944922  73.9170897  58.8809097  34.6366207
  61.7523196  62.2285456  30.2398306  61.2049915  61.5586102  30.3579174
  62.5415574  61.8615304  30.3041773  61.7875379  62.0750443  30.2667006
  71.6007604  61.8892913  35.7361717  72.3518931  62.2044590  36.0501271
  71.7930181  61.6872084  34.9095638  71.7399018  61.9060295  35.6605112
  70.8207604  59.7084288  17.3909933  71.2006569  59.7263918  16.6061048
  70.0800200  60.1538277  17.2700781  70.7676441  59.7766063  17.2573502
  78.4492894  58.0166480  22.9785512  78.4487121  57.8615136  23.8369788
  78.2449074  58.8629467  22.9226898  78.4192672  58.1187100  23.0973451
  60.5110165  61.4406264  27.3944329  60.3331926  60.9882873  28.1199244
  60.2229187  62.2432425  27.5782806  60.4423118  61.4928822  27.5287831
  76.1733746  62.6963981  26.6321719  76.6687412  61.9786976  26.5925739
  75.3633522  62.3934779  26.5176206  76.1277640  62.5461628  26.6095445
  62.2482635  63.9733988  24.5066088  61.3828155  63.9619678  24.3948859
  62.3481451  63.7864211  25.3537227  62.1356802  63.9440049  24.6155032
  78.2385565  65.4467669  29.3198848  78.6640637  64.9242091  28.7669273
  77.8742485  66.0448506  28.7987471  78.2472168  65.4577896  29.1607857
  67.8739645  73.7431886  28.0796193  68.1886204  74.5568275  28.0873975
  68.2833058  73.3582105  28.7478352  67.9807743  73.8060589  28.1800285
  74.8264165  69.1601933  25.6500005  75.2975343  69.8742196  25.8189990
  75.1624343  68.5600683  26.1859875  74.9459280  69.1773397  25.7532381
  71.7433660  53.9329404  32.6058100  71.8761565  53.1360397  32.9339075
  72.1278812  54.4595807  33.1856376  71.8189988  53.8929320  32.7401603
  75.4638111  68.9519867  32.4127698  74.9159057  68.3277751  32.1447763
  75.9251140  69.1414139  31.6971777  75.4505320  68.8878917  32.2678129
  74.8166015  50.8559730  29.2039193  74.0111978  50.7457459  29.5207032
  74.6872750  50.9572186  28.3469059  74.6786148  50.8543400  29.1247234
  78.2731975  57.0205222  29.7978890  77.6894964  57.5214428  29.3856457
  78.5936269  56.5134778  29.1643213  78.2345151  57.0197057  29.6437397
  70.8126774  55.9345817  20.0737565  71.6342469  56.1044129  19.8319260
  70.3496425  56.0893078  19.3503862  70.8657937  55.9827550  19.9309209
  69.4022106  53.9288579  30.8535994  69.9466519  53.5879706  31.4440335
  69.4559042  54.7874040  30.9957278  69.4911226  54.0043838  30.9617867
  65.2152665  67.6904995  27.7274802  65.8197522  67.6500829  27.0988622
  65.0079978  68.5376147  27.7578857  65.2741562  67.8092997  27.6390918
  60.4503947  66.6739612  27.5973725  60.3528225  65.8635884  27.9063781
  61.2332817  66.6531406  27.2119993  60.5520084  66.5506703  27.5860588
  36.3056898   6.0307041  13.0287753  36.9494353   6.4720205  13.4183911
  36.6313153   5.2260468  12.9418011  36.4488726   5.9772236  13.0733230
  40.9516273   1.2562404  21.0947424  41.0399619   1.0688545  21.9425634
  41.3805986   0.6099834  20.6952271  41.0278375   1.1325412  21.1619175
  38.5186733   0.5393564  20.0765086  37.9557568   0.1266174  20.6004747
  39.2807756   0.4646470  20.4958229  38.5481181   0.4670965  20.2158087
  41.0636332   0.6871423  23.7591208  41.8476749   0.8002271  24.1246950
  40.8632927  -0.1387440  23.9549893  41.1502358   0.5818143  23.8425594
  41.2206726   2.5981525  17.4057663  40.4221971   2.3581025  17.6631532
  41.6692737   2.6495918  18.1524711  41.1681337   2.5703917  17.5542587
  36.0435727   2.4279130  17.0826185  36.1925291   1.8682046  16.4299589
  36.8235729   2.5071132  17.4658704  36.1809821   2.3564695  17.0423134
  38.5689028   2.5993773  18.3610676  38.4932699   1.9302583  18.9161464
  38.4978887   3.3011561  18.8751342  38.5469635   2.6038680  18.5187524
  37.9580662   6.0062093  16.8188676  38.4476592   5.3072882  16.6364341
  37.3864894   5.7085963  17.4064734  37.9465192   5.8588316  16.8789717
  35.8351492  -1.1209894  18.6941148  35.7271847  -1.1107832  19.5603207
  36.0447274  -0.2955113  18.5046102  35.8501603  -0.9968819  18.7945240
  43.6114801   1.5812060  13.5895110  43.4134489   2.0702875  12.8951322
  42.9902512   1.7853302  14.1679244  43.4902365   1.6828598  13.5718334
  39.7917306  -1.4680004  18.2528803  39.2842397  -0.9144157  18.6969433
  39.4943953  -1.4071714  17.4347577  39.6722191  -1.3773693  18.1977259
  39.0359792   3.4644554  15.1585809  38.8125446   2.7063383  15.5269836
  38.5469635   3.4942575  14.4366249  38.9303241   3.3566778  15.1062550
  41.0503543   2.8435097  13.3646511  40.6519826   2.9537368  12.5967331
  40.4354762   3.0517164  13.9473070  40.9002432   2.8908665  13.3377810
  34.6492718   4.1254094  15.0136240  34.9639277   4.9390482  15.0214022
  35.0586132   3.7404312  15.6818399  34.7560816   4.1882796  15.1140332
  43.6894222   1.1525454  24.7632124  43.7991188   0.3634014  25.1188871
  44.0185119   1.0631390  23.9606462  43.7546628   1.0231307  24.6974515
  41.8049510   0.3393147  15.8777086  42.6247884   0.1956113  16.1393381
  41.5243588   0.9639346  16.4193524  41.8846254   0.4103499  15.9965025
  51.4762846   7.0833650  13.5972893  50.6200741   7.2442148  13.6482009
  51.5230499   6.2125714  13.6177954  51.3561957   6.9784452  13.6078959
  45.8603985  16.6196368   9.3610124  45.1086885  16.2411906   9.1326169
  46.3089997  16.6514802   8.6128934  45.8153652  16.5681975   9.2167626
  54.7856562  13.3520176  23.2033349  55.4923329  12.8572206  23.3320283
  54.9744498  13.7929257  22.4736007  54.9184468  13.3438526  23.1142394
  51.3128945  17.0421737   4.7895671  50.9780314  17.7198659   4.3539893
  51.8255816  16.6527049   4.2012543  51.3394526  17.0846316   4.6382463
  50.8533237  18.9936006  10.7306783  51.2372616  19.5622905  10.1911558
  50.7892378  18.2685516  10.2512599  50.9006664  18.9711470  10.5800645
  54.3214667   9.1425694  16.2404544  54.8670627   9.8210781  16.2998514
  54.2631543   9.0013155  15.3806126  54.3930581   9.2217696  16.1216605
  47.4388742  16.6314760  11.6272897  47.5399104  15.8215114  11.9370024
  46.8430487  16.5371707  10.9972575  47.3661280  16.4979788  11.5799135
  56.0979735  10.5710301   7.1138272  55.9819261  11.3217987   7.5430410
  56.8935622  10.3134254   7.3634359  56.1984325  10.6445148   7.2142364
  47.2789481  21.5492349  13.0287753  47.9226937  21.9905513  13.4183911
  47.6045737  20.7445775  12.9418011  47.4221310  21.4957544  13.0733230
  40.6353786  12.6535047  11.2525230  40.4003970  11.8202699  11.1457499
  40.7739427  12.9339712  10.4386431  40.6209448  12.5718550  11.1167585
  42.9343873   4.8220777  14.1509538  42.3148905   4.2313425  13.9819553
  42.8327737   5.4132213  13.5173861  42.8281549   4.8224860  14.0314528
  47.9810061  14.5604324   8.4007614  48.3025902  15.1009531   7.7968922
  48.6282157  13.9901096   8.5329904  48.1236116  14.5563499   8.3314650
  50.0311769   6.5620319   8.4842001  50.7291934   6.7408447   8.9763464
  50.3464101   6.0390658   7.8612390  50.1807106   6.5114091   8.4644011
  42.6613006   8.3673059  16.3953107  42.5371703   8.9535504  17.0302926
  43.3131291   7.8733255  16.6965382  42.7386656   8.3811863  16.5339036
  50.2199704  12.9490764   8.4721793  50.6593340  12.3407865   8.9176565
  50.0704367  12.5698137   7.7007258  50.2621170  12.8029235   8.4240960
  47.6871347  11.5434776  15.6740618  48.3320350  11.0507219  15.3551567
  47.9273124  11.6859563  16.5006696  47.8181932  11.4912218  15.7490151
  50.2257439  14.3889682  15.3247511  50.5080682  13.5941088  15.1034266
  50.9543599  14.8670269  15.3452572  50.3747002  14.3424279  15.2950526
  48.2038633   1.9312716  12.5663276  47.8741963   2.3823859  11.8966974
  47.5283634   1.8528879  13.1136282  48.0549069   1.9863851  12.5486499
  53.8209041  11.3017945   5.4252562  53.7360336  12.1578912   5.5702131
  54.3093424  11.0262269   6.0934721  53.8797938  11.3875267   5.5454643
  54.7527474   7.9202740   6.9250297  54.2238946   8.1362373   7.5847603
  55.2752494   8.6138878   6.8451266  54.7515927   8.0545876   7.0105896
  60.2075527  13.4949044  12.2983341  59.3773230  13.7059688  12.4616758
  60.1584779  12.6686099  12.0225625  60.0782262  13.4038650  12.2820707
  42.1971111  17.5320717  12.5281436  41.7138689  18.2571207  12.5041020
  43.0094429  17.8296848  12.6391594  42.2461858  17.6823071  12.5408716
  48.2685265  16.3252898  15.1331251  47.7512206  15.9660313  14.5292559
  48.9659656  15.8015073  15.1437317  48.2950846  16.1950586  15.0461510
  51.9248857  16.7747712  21.0947424  52.0132202  16.5873853  21.9425634
  52.3538569  16.1285142  20.6952271  52.0010959  16.6510720  21.1619175
  49.4919316  16.0578872  20.0765086  48.9290151  15.6451482  20.6004747
  50.2540340  15.9831778  20.4958229  49.5213765  15.9856273  20.2158087
  45.0515308  18.0476893  12.6801716  45.7535887  17.5328882  12.7374473
  44.9712791  18.3751045  13.4848591  45.1439068  18.0191120  12.8074509
  59.7029485   6.1419445  16.0933763  58.8657906   6.2121632  16.3281357
  59.6717716   6.1443940  15.2208065  59.5747768   6.1529672  15.9993311
  46.0994214   8.2852480  21.8082131  46.2714718   8.1758375  22.6567413
  46.6363572   8.9306886  21.5713324  46.2039218   8.3644482  21.8987228
  44.3766083  14.2383245  12.1887324  45.2154983  14.4706178  12.2361086
  44.4077852  13.3687557  12.1194360  44.5047801  14.1440192  12.1851969
  45.0018786  14.6584121  16.4900630  45.5417011  14.5155252  17.1604002
  44.3188733  15.0580871  16.8584656  44.9810940  14.6963791  16.6435052
  54.4259671  10.3375121  11.6845654  55.1817186  10.7706636  11.7234563
  54.5321996   9.6879891  12.2580290  54.5529842  10.3052605  11.7743680
  57.4639842  14.1648398  12.4348057  57.0275074  14.1685141  13.1907029
  57.1302758  14.8453897  12.0027635  57.3502462  14.2660854  12.4828890
  52.0368916  16.2056731  23.7591208  52.8209332  16.3187579  24.1246950
  51.8365510  15.3797868  23.9549893  52.1234941  16.1003451  23.8425594
  40.4055931  10.8784411  16.6435051  40.1394347  10.0623528  16.8026042
  40.4194495  10.9237567  15.7730567  40.3680654  10.7641316  16.5388533
  45.1554538   4.4162790  19.2902059  44.4626334   3.9459769  19.5362791
  45.7714865   4.1901094  19.8643766  45.1439068   4.3129921  19.4111212
  52.1939309  18.1166833  17.4057663  51.3954555  17.8766333  17.6631532
  52.6425321  18.1681226  18.1524711  52.1413920  18.0889224  17.5542587
  60.5984188  10.8829318  11.3267694  61.2600623  10.3219987  11.2263603
  59.9575600  10.3881349  11.6520386  60.6013056  10.7265727  11.3600035
  51.4860996  14.1799450   3.6348618  51.9012145  13.8484474   2.9433113
  50.6552926  13.9468352   3.5068754  51.4249005  14.0970706   3.5139465
  40.8149345  11.6643191  13.9246796  40.6324918  11.6390077  13.0719088
  41.5499014  12.1342129  13.9635704  40.8963409  11.7304553  13.8044714
  56.8849019  11.8994701  11.0679683  57.1204608  12.0439900  10.2406534
  57.0338583  12.6637109  11.4611197  56.9414822  12.0333755  11.0043287
  43.8795097   8.3828194  20.4328904  44.6035069   8.3681224  20.9193799
  43.9811233   9.0923549  19.9350873  44.0013306   8.4852897  20.4307691
  58.7139476  10.7396367   8.9049287  59.0447693  11.2724007   8.2989382
  59.2872564  10.7935254   9.5611238  58.8473155  10.8265936   8.9127069
  51.2540046  11.8627278  25.2977851  50.4613027  12.1770790  25.4830471
  51.3688973  12.0778747  24.4598636  51.1535457  11.9411115  25.2016186
  53.9271365   8.5861269   9.5872867  54.0218219   9.3250563  10.0412493
  53.3030209   8.1578745  10.0207432  53.8480395   8.6322590   9.7181015
  52.1823839  11.7647482  20.2363148  52.7562701  11.1274726  20.3911712
  52.1038643  11.7651564  19.3672806  52.2557074  11.6712593  20.1309559
  40.7820255   8.5436691  14.0745862  41.3593758   8.4073142  14.7138108
  40.0834317   8.0872476  14.3291447  40.7641277   8.4558958  14.2068152
  47.5387557  10.1970747  12.2884345  47.2806802   9.3642482  12.2615645
  47.5936040  10.4228360  11.4476846  47.5087335  10.1068518  12.1604482
  46.5122270   7.7508510  12.7749240  45.9371861   7.9100678  13.4113201
  46.1357946   7.1143919  12.3117691  46.3725082   7.6806323  12.8003799
  50.1795558   6.2231859  17.6341619  49.7909991   5.7986077  16.9793810
  49.5150257   6.4714009  18.1418645  50.0242486   6.1970580  17.6129487
  51.2834497  10.4530463   5.8318426  52.0975135  10.7445356   5.7201197
  51.2193638   9.7990326   5.2576719  51.3937236  10.3995658   5.7307263
  57.5043987  13.1356460  20.2448001  57.2682624  12.3044524  20.1260062
  58.1487216  13.0842067  20.8302845  57.5638657  13.0054148  20.3133895
  47.1542405  13.9251981  10.9590738  47.7916352  13.6863728  11.5042531
  47.5797476  14.1289140  10.2243898  47.3118571  13.9202991  10.9307895
  41.8455047  16.1640317  14.8425041  41.8859192  16.4355168  14.0144821
  42.4049571  16.6882225  15.2582829  41.9338393  16.2816072  14.7816930
  47.9613760   2.4260686  25.0128211  47.6467201   3.1960249  24.7497774
  47.6403693   1.8630942  24.4280438  47.8672679   2.4570955  24.8869561
  58.5280407  12.9200908  16.3076296  58.2226224  13.6528965  16.6689611
  57.8086623  12.5138838  16.0269082  58.3767750  12.9682641  16.3189433
  49.5363877  14.4024404  12.6384524  49.6102885  14.2399575  13.4926374
  50.3533383  14.5914593  12.3945006  49.6680235  14.4061146  12.7282550
  64.2282199   9.5593909  15.6344640  64.1606700   9.5789868  14.7647227
  64.2137862  10.4024236  15.8600311  64.2160956   9.6867644  15.5397117
  43.2969633  14.7482266   9.6678967  42.4707751  14.9944004   9.5413246
  43.3581625  14.6694347  10.5341026  43.1843800  14.7727215   9.7767912
  48.0768462  17.3659147   7.3697997  48.3666761  16.9748128   6.6457224
  48.8071943  17.5475851   7.8103273  48.2275347  17.3352960   7.3280804
  62.0140817   8.3338295  13.9091234  62.5648738   7.7006364  14.1488326
  61.9984932   8.8653688  14.6006739  62.0926013   8.3187243  14.0470093
  48.6663208  12.1676892  18.4551128  48.1674901  12.8792660  18.5336016
  49.4763432  12.4877559  18.4169290  48.7119314  12.3203741  18.4607696
  46.0174378  19.3426529  10.4358147  45.7974673  19.0523884  11.2284814
  45.7968900  18.6841484   9.9076059  45.9521972  19.2026237  10.4747056
  44.9291325  11.4299845  12.7013849  44.6404574  10.8037317  13.2359576
  45.7974673  11.3720133  12.7678529  45.0151577  11.3287390  12.7904803
  55.7169223   6.5734629  13.0195831  55.3733989   5.8524964  13.3703080
  55.8162266   6.3648480  12.1774189  55.6811266   6.4358832  12.9467511
  48.1842334  20.7155919   9.2188839  48.8366392  20.1832361   9.4479866
  47.4867942  20.3624571   9.6056714  48.1773052  20.5845442   9.3101007
  45.1323599  13.0695097   8.6256214  45.8869567  13.4508136   8.8391676
  44.5394211  13.5206240   9.0802910  45.1560312  13.1923924   8.7239092
  56.1782252  13.0360333   8.5619819  56.7440285  13.6953543   8.4778362
  55.5310156  13.3810031   9.0336221  56.1661009  13.1842274   8.6192575
  47.5930266   5.0257937  23.7513426  46.7830041   5.3315717  23.6403268
  48.0704952   5.7463519  23.8666010  47.5433744   5.1772538  23.7520497
  46.4521825  14.2403658  13.9996329  45.9302579  14.3803950  14.6848194
  46.8395846  13.4814322  14.1898447  46.4325526  14.1489182  14.1297406
  52.6488830  15.9799117   7.9856898  52.4075506  15.2466978   7.5783963
  52.8290163  16.5285974   7.3323231  52.6396454  15.9521508   7.8287121
  47.8788151  11.2707677   9.3977820  47.6830933  11.8782411   8.8038123
  48.1022496  10.5775621   8.9169494  47.8822792  11.2585202   9.2393901
  46.2766681   8.1562415   9.5158689  46.9989333   8.3203573   9.0562495
  45.7974674   8.8772080   9.4098028  46.3130412   8.2860644   9.4324303
  54.2360188   4.4926214  14.8955374  53.3971289   4.5187493  14.6593637
  54.3064556   5.1396949  15.4760720  54.1228582   4.5922339  14.9464490
  43.9274298  10.5620487  18.6212828  44.4395394  10.8404741  17.9721588
  43.6410640  11.3009781  18.9875641  43.9609161  10.7122841  18.5802707
  58.1117712   9.6994200  12.1816615  58.0251687   9.8549626  13.0351394
  57.6568192  10.3432276  11.8076020  58.0320969   9.8169956  12.2523722
  47.4458023   2.6546876  18.6813870  47.2541220   2.6702010  19.5313294
  48.2956619   2.8510550  18.6580525  47.5433745   2.6861227  18.8037165
  41.8304936   5.1837857  16.6597686  41.6890428   4.3321798  16.7842194
  42.1145499   5.2266518  15.8359893  41.8512782   5.0637607  16.5565311
  51.9843528   7.0204948  10.8042175  51.7378243   6.9400698  11.6378964
  52.3128651   6.2358415  10.6104702  51.9964772   6.8931213  10.8989698
  55.8791577  13.7288307  14.5928956  55.7405936  14.4269353  15.0977698
  55.0991575  13.5736963  14.2365138  55.7434804  13.8088474  14.6155230
  54.2169662  10.0284682  20.8451338  54.2117701   9.1564499  20.8493764
  54.9230656  10.2272851  20.3720793  54.3214666   9.9288556  20.7758373
  47.9440556   9.7561666  20.2165158  48.0883931  10.3362874  19.5808268
  48.2916204  10.1337963  20.9215012  48.0168017   9.8982370  20.2264153
  50.1160473   8.9551834  17.9990289  49.3683787   9.1482849  17.5938568
  50.2701998   8.1297054  17.7614411  50.0282901   8.8616946  17.9035695
  47.0168311  17.9464438  17.0826185  47.1657874  17.3867354  16.4299589
  47.7968313  18.0256440  17.4658704  47.1542404  17.8750003  17.0423134
  49.5421611  18.1179081  18.3610676  49.4665282  17.4487891  18.9161464
  49.4711470  18.8196869  18.8751342  49.5202218  18.1223988  18.5187524
  50.3562250   2.8502385  18.8885693  50.8134864   3.5826360  19.0158485
  50.4318579   2.4268850  19.6472949  50.4353220   2.8959623  19.0186770
  42.5995241   3.0968205  19.9775137  42.0637431   2.4848563  20.2935904
  42.6613006   3.6716341  20.6308804  42.5290874   3.0915133  20.1210564
  50.1991858  16.6380080   9.1934281  50.9641749  16.3689723   8.8716946
  50.0969948  16.1530090   9.9104344  50.2973354  16.5269644   9.2514109
  48.2344628   4.8404489  15.7327517  47.4440703   4.6595949  16.0544853
  48.6305251   4.0631442  15.7157812  48.1761504   4.6991950  15.7780066
  53.6188314  12.4746919  13.4586963  52.9433316  12.2432152  13.9600350
  53.6280690  11.8668102  12.8329068  53.5206819  12.3505844  13.4403115
  50.7482458   7.3164748  20.2151016  50.6841599   8.1774705  20.0871153
  50.8879646   6.9996741  19.4146567  50.7597928   7.3964915  20.0779229
  55.6205049  15.3312052   5.6897141  55.7024886  16.1379038   5.3658592
  56.1054791  15.3508011   6.4137915  55.7042207  15.4532714   5.7484040
  49.4301552  10.0096888  14.3567219  49.0063801  10.2101387  13.6206237
  49.2546407   9.1625736  14.4691519  49.3412433   9.9145669  14.2640909
  48.9313246  21.5247401  16.8188676  49.4209176  20.8258190  16.6364341
  48.3597478  21.2271271  17.4064734  48.9197775  21.3773624  16.8789717
  44.7183997  10.5048939   9.7895192  44.8748616  10.4395742  10.6451184
  45.0584590  11.2797492   9.5773871  44.7917232  10.6098137   9.8849786
  51.2563142   9.8806823   8.6588555  51.7978687   9.3777204   9.1227175
  51.5709701   9.8272017   7.8478040  51.3827539   9.7986244   8.6072367
  55.1280249  14.0909470  25.7715467  55.9415114  13.8194619  25.9320599
  54.9675215  13.7917010  24.9675663  55.2250198  14.0064396  25.6760873
  49.4249591  15.2724174   5.9428583  49.4942412  14.4138713   6.0821583
  50.2038047  15.4896055   5.6147607  49.5502441  15.1777038   5.9145740
  52.4052411   4.7743127  18.7110855  52.6194381   4.1354041  18.1574209
  51.7886310   5.2188951  18.2818717  52.3457740   4.7453271  18.5661286
  53.8157079  17.6961875  10.1565076  53.4236871  17.3928591   9.4387942
  53.9710151  18.5330965   9.9670030  53.7810669  17.7745712  10.0221573
  41.2918259   7.6883890  10.1055959  41.6717223   8.1068434   9.4416226
  40.7173623   8.2697345  10.4124802  41.2629583   7.8361748  10.0532700
  54.5691499   6.3832192  19.6494162  53.7568181   6.0758083  19.7307335
  55.0281434   5.9031192  20.2136875  54.5171884   6.2668685  19.7448756
  53.9796754  14.2611864  10.0971107  53.6211408  14.4326507  10.8735139
  53.4935464  14.7225070   9.5399105  53.8555451  14.3550835  10.1296376
  51.6645007   7.7892264  24.4322865  52.1344638   8.4134380  24.8190739
  51.7106887   7.1209239  24.9916079  51.7412882   7.7826944  24.5722936
  55.1401493  15.1515760  21.0438308  55.7781214  14.6575956  20.7100764
  54.4975585  15.0793161  20.4590534  55.1395720  15.0674769  20.9080663
  56.8658493   7.0004906  15.6104223  56.4386101   6.9131255  14.8552323
  56.2284546   7.1082682  16.1959067  56.7088100   7.0037566  15.5849665
  55.1955750  15.8435569  17.6843664  55.9848128  15.4924633  17.8045746
  55.3699347  16.6571957  17.4220298  55.3376031  15.9121426  17.6631532
  44.9349060   9.2544294  14.7371453  44.0937067   9.1548168  14.9450347
  45.1439068  10.0239775  15.0885774  44.8413753   9.3536338  14.8198768
  42.4124627   6.8763831  12.5656204  42.0181325   6.9506843  11.7906313
  41.8564744   7.2621778  13.1164566  42.2727439   6.9445606  12.5323864
  48.7465725   7.1825693  13.9869051  48.4428862   6.6281682  14.5879458
  48.0445146   7.3617903  13.4997085  48.5981935   7.1270476  14.0038756
  46.8084076  14.3975414  18.6941148  46.7004431  14.4077476  19.5603207
  47.0179857  15.2230195  18.5046102  46.8234187  14.5216489  18.7945240
  44.8257868  11.6488057  16.1563086  44.2345801  12.2897555  16.1266101
  45.5878891  12.0725674  16.1294386  44.8506129  11.8063895  16.1478233
  45.2218491   2.8090054  16.8231104  45.6819972   2.8828984  17.5606227
  45.2674597   3.6071308  16.4730925  45.2969046   2.9384201  16.8803860
  46.8701840   3.4756749  21.3903131  46.4787406   2.8290096  21.8258909
  47.0387703   4.0668184  22.0097386  46.8372751   3.4671017  21.5465837
  60.9448290  11.4793826  17.1540364  61.0031413  11.9280475  17.9000341
  60.3114757  11.8892639  16.7170444  60.8599585  11.6067561  17.1992913
  54.5847384  17.0997368  13.5895110  54.3867073  17.5888183  12.8951322
  53.9635095  17.3038610  14.1679244  54.4634949  17.2013906  13.5718334
  48.6455363   8.8682265   7.9305355  49.3897407   9.2556541   8.1688305
  48.7916059   8.0239690   8.0945843  48.7765948   8.8012738   7.9899324
  51.6333238   4.4407738  13.8299274  51.1593193   3.9149500  14.3404585
  52.0051374   3.8937211  13.2614136  51.6183127   4.2823735  13.8214421
  42.0106269   6.4379245  19.1982820  42.8731882   6.3374954  19.1120150
  41.6798052   5.8573954  18.6368392  42.0891465   6.3370872  19.1028226
  57.8969969   9.5010114  15.2406055  57.6568192   8.6616529  15.2448481
  58.3761976   9.5810281  15.9646828  57.9322153   9.3891514  15.3480857
  59.8975156   6.2811571  13.1935314  59.6584926   6.2407405  12.3556098
  60.0609057   7.1282723  13.3201035  59.8865459   6.4003656  13.0888796
  56.5021186  10.6661520  19.1240359  57.2255385  10.2134047  18.9451379
  56.2371148  10.9466186  18.3412687  56.5702459  10.6412489  18.9819074
  45.3708055   5.2621694  15.8593238  44.7461125   5.2740086  15.2519191
  45.0353649   5.7381869  16.5084478  45.2293546   5.3340211  15.8649807
  42.0833730  13.3222154  17.2997002  41.5533655  12.6314593  17.3491977
  42.3558823  13.3132339  16.4709711  42.0458452  13.2189286  17.1844418
  53.1153821  13.9047856   6.0234685  53.8388019  14.3705969   5.8799258
  52.6754412  13.9721466   5.2732282  53.1569513  13.9831693   5.8919466
  52.2839976  10.7645399  17.2735374  51.6696969  10.2203449  17.5684009
  52.8007261  10.2509635  16.7941190  52.2695638  10.6081808  17.2459602
  51.5236273  11.8349669  15.0079673  51.0963881  11.2099387  14.5745108
  51.5161217  11.5524591  15.8338680  51.4595414  11.7002449  15.0659500
  44.6398800   6.8714842  18.0768107  44.7992287   6.1158166  18.4819828
  44.4591693   7.4205781  18.7308844  44.6364159   6.8408656  18.2330813
  49.8521982   2.7118423  15.2222207  49.8764470   2.1778536  14.5334987
  50.1033456   2.2035732  15.8847797  49.8931901   2.5579327  15.2186851
  37.3629572   9.9949918  14.6565351  37.2573021   9.9496763  13.7917435
  36.6129792  10.3403699  14.9379636  37.2365175  10.0390826  14.5702680
  46.1323305   1.4389242  14.6027951  46.1721676   1.9398448  15.3162658
  45.3072969   1.5299635  14.3333874  46.0162831   1.5271058  14.6678489
  48.3152918  11.0049981  22.7048245  47.4648548  11.1421696  22.8405890
  48.4781045  10.2713760  23.1495947  48.2136781  10.9164083  22.7903845
  47.5537668   7.9549751  16.9001850  46.7229598   8.1223569  16.6937098
  47.4989185   7.5785702  17.6850735  47.4227083   7.9239483  16.9850378
  45.3621451   1.4458644  22.5358261  45.9874155   0.9020777  22.8087693
  44.9071931   0.9653562  21.9666051  45.3869712   1.2948126  22.4919854
  58.9356500   9.6287931  17.6270909  59.5274340  10.2685182  17.6589107
  59.3715495   8.9310968  17.9162975  59.0874931   9.6206282  17.6751741
  50.7649890  14.0505304  18.2528803  50.2574981  14.6041150  18.6969433
  50.4676536  14.1113594  17.4347577  50.6454775  14.1411615  18.1977259
  53.3757670  17.9668561   6.1832746  52.6586980  17.7929424   5.7179983
  54.0264408  17.7321134   5.6508232  53.3659521  17.9064354   6.0361964
  55.9605641   6.8433150   9.9274051  55.2896831   7.3862852   9.7987117
  56.6545392   7.3128005   9.6855746  55.9634509   6.9931421   9.8729579
  50.0092375  18.9829862  15.1585809  49.7858030  18.2248691  15.5269836
  49.5202218  19.0127883  14.4366249  49.9035824  18.8752086  15.1062550
  44.8217454   5.9296553  10.8947271  44.1029443   6.3460686  11.1620134
  45.1929816   6.4950792  10.3438909  44.7709386   6.0745835  10.8530078
  54.1217035   6.5624402  16.7849267  54.1014962   6.3807697  17.6384045
  54.1696235   7.4336421  16.7608850  54.1251676   6.6640940  16.9072561
  52.0663365  13.1511594  22.7097743  52.0259219  12.5061271  22.1242899
  52.8786683  13.0948211  23.0223155  52.1806518  13.0470561  22.6694692
  52.0236126  18.3620405  13.3646511  51.6252409  18.4722676  12.5967331
  51.4087346  18.5702472  13.9473070  51.8735016  18.4093973  13.3377810
  53.4721845   4.9274058   9.6622401  53.2435538   4.9506759   8.8200759
  53.7319921   4.1031525   9.7817411  53.4768033   4.8090138   9.5547598
  47.7541073   6.7808531  19.2647501  47.2419976   6.1729714  19.6232532
  47.5820569   7.4965123  19.7321477  47.6530710   6.7971830  19.3863724
  42.6006788   5.2246106  21.9149863  42.4309378   5.8847481  21.3698069
  42.1572738   5.4352667  22.6362352  42.5106122   5.3532088  21.9411492
  46.5266607   3.4650604  10.9576596  47.0023974   3.8267684  10.3226777
  46.0255207   4.1207071  11.2376739  46.5231966   3.6144793  10.9053337
  51.6310144   4.7032775  21.7049756  52.1881574   4.4746585  21.0728222
  51.3071209   5.4638441  21.4284969  51.6656554   4.7816612  21.5706253
  39.5008853   8.1292972  17.1738352  38.9535572   7.4593617  17.2919221
  40.2901231   7.7622819  17.2381820  39.5361036   7.9757958  17.2007053
  49.3493261   7.7900429  22.6701763  50.1004588   8.1052105  22.9841318
  49.5415837   7.5879599  21.8435685  49.4884675   7.8067810  22.5945159
  38.2595822   7.3413779  14.3284375  38.0817583   6.8890388  15.0539291
  37.9714844   8.1439941  14.5122853  38.1908775   7.3936337  14.4627878
  53.9219403   8.5971497  13.5661766  54.4173068   7.8794492  13.5265786
  53.1119179   8.2942294  13.4516253  53.8763296   8.4469143  13.5435492
  49.3678015  12.4469310   5.7158770  48.5589337  12.1235983   5.6692080
  49.8752923  11.7402532   5.6487019  49.3227681  12.2950626   5.6989065
  39.9968292   9.8741503  11.4406134  39.1313811   9.8627194  11.3288906
  40.0967108   9.6871726  12.2877274  39.8842459   9.8447564  11.5495079
  55.9871222  11.3475184  16.2538894  56.4126294  10.8249606  15.7009320
  55.6228142  11.9456022  15.7327517  55.9957825  11.3585411  16.0947904
  45.6225302  19.6439402  15.0136240  45.9371861  20.4575790  15.0214022
  46.0318715  19.2589620  15.6818399  45.7293400  19.7068104  15.1140332
  52.5749821  15.0609448  12.5840052  53.0461000  15.7749711  12.7530037
  52.9110000  14.4608199  13.1199921  52.6944936  15.0780913  12.6872428
  54.6626806  16.6710762  24.7632124  54.7723771  15.8819322  25.1188871
  54.9917703  16.5816698  23.9606462  54.7279212  16.5416615  24.6974515
  53.2123768  14.8527383  19.3467745  52.6644714  14.2285266  19.0787810
  53.6736796  15.0421655  18.6311824  53.1990977  14.7886433  19.2018176
  42.9638322  13.5912510  14.6614848  43.5683179  13.5508344  14.0328669
  42.7565634  14.4383662  14.6918904  43.0227219  13.7100513  14.5730965
  52.7782094  15.8578455  15.8777086  53.5980468  15.7141421  16.1393381
  52.4976172  16.4824654  16.4193524  52.8578837  15.9288807  15.9965025
  38.1989604  12.5747128  14.5313772  38.1013882  11.7643399  14.8403828
  38.9818474  12.5538921  14.1460040  38.3005741  12.4514218  14.5200634
  62.4495429  22.6018958  13.5972893  61.5933325  22.7627456  13.6482009
  62.4963083  21.7311022  13.6177954  62.3294541  22.4969760  13.6078959
  56.8336569  32.1381676   9.3610124  56.0819469  31.7597214   9.1326169
  57.2822581  32.1700110   8.6128934  56.7886236  32.0867283   9.2167626
  65.7589146  28.8705484  23.2033349  66.4655913  28.3757514  23.3320283
  65.9477081  29.3114565  22.4736007  65.8917051  28.8623834  23.1142394
  62.2861529  32.5607045   4.7895671  61.9512897  33.2383967   4.3539893
  62.7988399  32.1712357   4.2012543  62.3127110  32.6031624   4.6382463
  61.8265820  34.5121314  10.7306783  62.2105199  35.0808213  10.1911558
  61.7624961  33.7870824  10.2512599  61.8739247  34.4896777  10.5800645
  65.2947250  24.6611002  16.2404544  65.8403210  25.3396089  16.2998514
  65.2364127  24.5198463  15.3806126  65.3663165  24.7403004  16.1216605
  58.4121325  32.1500068  11.6272897  58.5131688  31.3400422  11.9370024
  57.8163070  32.0557014  10.9972575  58.3393864  32.0165096  11.5799135
  67.0712319  26.0895609   7.1138272  66.9551845  26.8403295   7.5430410
  67.8668206  25.8319562   7.3634359  67.1716908  26.1630456   7.2142364
  58.2522065  37.0677657  13.0287753  58.8959520  37.5090821  13.4183911
  58.5778320  36.2631083  12.9418011  58.3953893  37.0142852  13.0733230
  51.6086369  28.1720355  11.2525230  51.3736554  27.3388007  11.1457499
  51.7472010  28.4525020  10.4386431  51.5942032  28.0903858  11.1167585
  53.9076457  20.3406085  14.1509538  53.2881489  19.7498732  13.9819553
  53.8060320  20.9317520  13.5173861  53.8014132  20.3410168  14.0314528
  58.9542644  30.0789632   8.4007614  59.2758486  30.6194839   7.7968922
  59.6014741  29.5086403   8.5329904  59.0968700  30.0748807   8.3314650
  61.0044353  22.0805627   8.4842001  61.7024517  22.2593755   8.9763464
  61.3196685  21.5575966   7.8612390  61.1539690  22.0299399   8.4644011
  53.6345590  23.8858367  16.3953107  53.5104287  24.4720812  17.0302926
  54.2863874  23.3918563  16.6965382  53.7119239  23.8997171  16.5339036
  61.1932288  28.4676072   8.4721793  61.6325923  27.8593173   8.9176565
  61.0436951  28.0883445   7.7007258  61.2353754  28.3214543   8.4240960
  58.6603931  27.0620084  15.6740618  59.3052933  26.5692527  15.3551567
  58.9005708  27.2044870  16.5006696  58.7914516  27.0097526  15.7490151
  61.1990022  29.9074990  15.3247511  61.4813265  29.1126395  15.1034266
  61.9276183  30.3855577  15.3452572  61.3479586  29.8609587  15.2950526
  59.1771216  17.4498024  12.5663276  58.8474546  17.9009167  11.8966974
  58.5016218  17.3714187  13.1136282  59.0281652  17.5049159  12.5486499
  64.7941624  26.8203253   5.4252562  64.7092920  27.6764220   5.5702131
  65.2826008  26.5447577   6.0934721  64.8530522  26.9060575   5.5454643
  65.7260058  23.4388048   6.9250297  65.1971529  23.6547681   7.5847603
  66.2485078  24.1324186   6.8451266  65.7248511  23.5731184   7.0105896
  71.1808111  29.0134352  12.2983341  70.3505814  29.2244996  12.4616758
  71.1317363  28.1871407  12.0225625  71.0514846  28.9223958  12.2820707
  57.6159665  27.3351264   5.7257765  57.0316881  27.8401296   6.1323629
  57.2129761  27.1093651   4.9854357  57.4698969  27.3759513   5.6762790
  53.1703694  33.0506025  12.5281436  52.6871272  33.7756515  12.5041020
  53.9827012  33.3482155  12.6391594  53.2194442  33.2008379  12.5408716
  59.2417848  31.8438206  15.1331251  58.7244790  31.4845621  14.5292559
  59.9392239  31.3200381  15.1437317  59.2683429  31.7135894  15.0461510
  62.8981440  32.2933020  21.0947424  62.9864786  32.1059161  21.9425634
  63.3271153  31.6470450  20.6952271  62.9743542  32.1696028  21.1619175
  60.4651900  31.5764180  20.0765086  59.9022735  31.1636790  20.6004747
  61.2272923  31.5017086  20.4958229  60.4946349  31.5041581  20.2158087
  57.3827170  15.5110312   8.0486223  58.1373138  15.8788629   7.8103274
  57.2054705  15.8849866   8.8165403  57.4681649  15.6208500   8.1271112
  56.0247891  33.5662201  12.6801716  56.7268471  33.0514190  12.7374473
  55.9445374  33.8936353  13.4848591  56.1171652  33.5376428  12.8074509
  70.6762069  21.6604753  16.0933763  69.8390490  21.7306940  16.3281357
  70.6450300  21.6629247  15.2208065  70.5480351  21.6714980  15.9993311
  57.0726798  23.8037788  21.8082131  57.2447302  23.6943683  22.6567413
  57.6096155  24.4492194  21.5713324  57.1771802  23.8829790  21.8987228
  55.7384235  17.9180631   4.7464336  55.5559808  18.1352512   3.9205329
  56.6009848  18.0319644   4.8022951  55.8388824  17.9670529   4.6318823
  55.3498667  29.7568553  12.1887324  56.1887566  29.9891486  12.2361086
  55.3810436  28.8872865  12.1194360  55.4780384  29.6625500  12.1851969
  55.9751370  30.1769428  16.4900630  56.5149595  30.0340560  17.1604002
  55.2921316  30.5766179  16.8584656  55.9543524  30.2149099  16.6435052
  65.3992255  25.8560429  11.6845654  66.1549770  26.2891943  11.7234563
  65.5054579  25.2065199  12.2580290  65.5262425  25.8237913  11.7743680
  68.4372426  29.6833706  12.4348057  68.0007658  29.6870449  13.1907029
  68.1035341  30.3639205  12.0027635  68.3235046  29.7846162  12.4828890
  63.0101499  31.7242039  23.7591208  63.7941916  31.8372887  24.1246950
  62.8098094  30.8983176  23.9549893  63.0967525  31.6188759  23.8425594
  51.3788515  26.3969719  16.6435051  51.1126930  25.5808836  16.8026042
  51.3927079  26.4422875  15.7730567  51.3413237  26.2826624  16.5388533
  68.3569909  16.7247534  14.6777485  68.9995817  16.7945639  15.2639400
  68.6092929  16.0576757  14.1757027  68.4892041  16.6373883  14.6904764
  55.2846262  21.1954804   3.2586810  54.5704439  20.9092983   3.6709242
  55.7690231  21.5351430   3.8993197  55.2505625  21.2036453   3.4142444
  56.1287121  19.9348098  19.2902059  55.4358918  19.4645077  19.5362791
  56.7447449  19.7086402  19.8643766  56.1171651  19.8315229  19.4111212
  63.1671893  33.6352141  17.4057663  62.3687139  33.3951641  17.6631532
  63.6157904  33.6866534  18.1524711  63.1146504  33.6074532  17.5542587
  71.5716772  26.4014626  11.3267694  72.2333206  25.8405295  11.2263603
  70.9308184  25.9066657  11.6520386  71.5745640  26.2451035  11.3600035
  62.4593580  29.6984758   3.6348618  62.8744728  29.3669781   2.9433113
  61.6285509  29.4653660   3.5068754  62.3981588  29.6156014   3.5139465
  51.7881929  27.1828499  13.9246796  51.6057502  27.1575385  13.0719088
  52.5231597  27.6527437  13.9635704  51.8695992  27.2489861  13.8044714
  67.8581603  27.4180009  11.0679683  68.0937192  27.5625208  10.2406534
  68.0071166  28.1822417  11.4611197  67.9147406  27.5519063  11.0043287
  54.8527680  23.9013502  20.4328904  55.5767653  23.8866532  20.9193799
  54.9543817  24.6108857  19.9350873  54.9745889  24.0038205  20.4307691
  69.6872059  26.2581675   8.9049287  70.0180277  26.7909315   8.2989382
  70.2605148  26.3120562   9.5611238  69.8205739  26.3451243   8.9127069
  62.2272630  27.3812586  25.2977851  61.4345610  27.6956098  25.4830471
  62.3421557  27.5964055  24.4598636  62.1268040  27.4596423  25.2016186
  64.9003949  24.1046577   9.5872867  64.9950803  24.8435871  10.0412493
  64.2762792  23.6764053  10.0207432  64.8212979  24.1507898   9.7181015
  63.1556422  27.2832790  20.2363148  63.7295284  26.6460034  20.3911712
  63.0771226  27.2836872  19.3672806  63.2289657  27.1897901  20.1309559
  51.7552839  24.0621999  14.0745862  52.3326341  23.9258450  14.7138108
  51.0566901  23.6057784  14.3291447  51.7373860  23.9744266  14.2068152
  58.5120141  25.7156055  12.2884345  58.2539385  24.8827790  12.2615645
  58.5668624  25.9413668  11.4476846  58.4819919  25.6253826  12.1604482
  63.5921191  17.8184506  12.3888438  62.8877518  17.3293691  12.5472357
  63.6406166  17.8306980  11.5176883  63.4951243  17.7474154  12.2827778
  57.4854853  23.2693817  12.7749240  56.9104444  23.4285986  13.4113201
  57.1090529  22.6329227  12.3117691  57.3457666  23.1991630  12.8003799
  61.1528142  21.7417167  17.6341619  60.7642575  21.3171385  16.9793810
  60.4882840  21.9899316  18.1418645  60.9975070  21.7155888  17.6129487
  47.2311672  22.9133892  10.7893681  47.3171924  22.5365761  11.5707211
  47.8587470  22.5394338  10.3113639  47.3368223  22.8019374  10.8339158
  64.9754503  15.4391796  15.1465603  65.3565015  14.7569967  15.5333477
  64.1717788  15.1501398  14.9641267  64.9130965  15.2958844  15.1769659
  62.2567080  25.9715771   5.8318426  63.0707719  26.2630664   5.7201197
  62.1926221  25.3175634   5.2576719  62.3669819  25.9180966   5.7307263
  68.4776570  28.6541768  20.2448001  68.2415208  27.8229832  20.1260062
  69.1219799  28.6027375  20.8302845  68.5371241  28.5239455  20.3133895
  58.1274988  29.4437289  10.9590738  58.7648935  29.2049036  11.5042531
  58.5530060  29.6474448  10.2243898  58.2851155  29.4388299  10.9307895
  52.8187631  31.6825625  14.8425041  52.8591776  31.9540476  14.0144821
  53.3782155  32.2067533  15.2582829  52.9070977  31.8001380  14.7816930
  58.7677803  24.6639579   5.2965627  59.1522956  24.4447285   6.0482172
  58.5189424  25.4902524   5.4266703  58.7879876  24.7537725   5.4266704
  58.9346344  17.9445994  25.0128211  58.6199785  18.7145557  24.7497774
  58.6136276  17.3816250  24.4280438  58.8405263  17.9756262  24.8869561
  69.5012991  28.4386216  16.3076296  69.1958808  29.1714273  16.6689611
  68.7819207  28.0324146  16.0269082  69.3500333  28.4867949  16.3189433
  60.5096460  29.9209711  12.6384524  60.5835469  29.7584883  13.4926374
  61.3265967  30.1099901  12.3945006  60.6412819  29.9246454  12.7282550
  75.2014783  25.0779217  15.6344640  75.1339283  25.0975176  14.7647227
  75.1870445  25.9209544  15.8600311  75.1893539  25.2052952  15.5397117
  54.2702217  30.2667574   9.6678967  53.4440335  30.5129311   9.5413246
  54.3314208  30.1879655  10.5341026  54.1576384  30.2912523   9.7767912
  56.4878241  16.3336515  10.6274408  55.6200666  16.4059115  10.6932017
  56.7753445  17.1358594  10.8162383  56.4017989  16.4630662  10.6649174
  65.6111129  16.4814375  18.9585729  66.3564722  16.2924185  18.5449155
  65.1948434  17.0072613  18.3999586  65.6596104  16.5316520  18.8150303
  59.0501046  32.8844455   7.3697997  59.3399344  32.4933436   6.6457224
  59.7804527  33.0661159   7.8103273  59.2007930  32.8538268   7.3280804
  72.9873400  23.8523603  13.9091234  73.5381322  23.2191672  14.1488326
  72.9717516  24.3838996  14.6006739  73.0658597  23.8372551  14.0470093
  59.6395791  27.6862200  18.4551128  59.1407485  28.3977968  18.5336016
  60.4496015  28.0062867  18.4169290  59.6851898  27.8389049  18.4607696
  56.9906962  34.8611837  10.4358147  56.7707257  34.5709192  11.2284814
  56.7701484  34.2026792   9.9076059  56.9254556  34.7211545  10.4747056
  55.9023909  26.9485153  12.7013849  55.6137157  26.3222625  13.2359576
  56.7707257  26.8905441  12.7678529  55.9884161  26.8472698  12.7904803
  66.6901807  22.0919937  13.0195831  66.3466572  21.3710272  13.3703080
  66.7894849  21.8833788  12.1774189  66.6543849  21.9544140  12.9467511
  59.1574917  36.2341227   9.2188839  59.8098975  35.7017669   9.4479866
  58.4600526  35.8809879   9.6056714  59.1505635  36.1030750   9.3101007
  56.1056182  28.5880404   8.6256214  56.8602150  28.9693444   8.8391676
  55.5126795  29.0391548   9.0802910  56.1292896  28.7109232   8.7239092
  67.1514836  28.5545641   8.5619819  67.7172868  29.2138851   8.4778362
  66.5042739  28.8995339   9.0336221  67.1393592  28.7027582   8.6192575
  58.5662849  20.5443245  23.7513426  57.7562625  20.8501025  23.6403268
  59.0437536  21.2648827  23.8666010  58.5166328  20.6957846  23.7520497
  57.4254409  29.7588966  13.9996329  56.9035162  29.8989258  14.6848194
  57.8128429  28.9999630  14.1898447  57.4058110  29.6674490  14.1297406
  54.4145593  19.8094775   8.0691284  54.1270389  19.4396045   7.3323231
  55.1016061  20.2789630   7.8074989  54.4734490  19.8241744   7.9206360
  63.6221414  31.4984425   7.9856898  63.3808090  30.7652286   7.5783963
  63.8022747  32.0471282   7.3323231  63.6129038  31.4706816   7.8287121
  58.8520734  26.7892985   9.3977820  58.6563517  27.3967719   8.8038123
  59.0755080  26.0960929   8.9169494  58.8555375  26.7770510   9.2393901
  57.2499264  23.6747723   9.5158689  57.9721916  23.8388881   9.0562495
  56.7707257  24.3957388   9.4098028  57.2862995  23.8045952   9.4324303
  65.2092772  20.0111522  14.8955374  64.3703873  20.0372800  14.6593637
  65.2797139  20.6582257  15.4760720  65.0961165  20.1107647  14.9464490
  54.9006881  26.0805795  18.6212828  55.4127978  26.3590048  17.9721588
  54.6143224  26.8195089  18.9875641  54.9341744  26.2308149  18.5802707
  69.0850296  25.2179508  12.1816615  68.9984270  25.3734934  13.0351394
  68.6300776  25.8617584  11.8076020  69.0053552  25.3355263  12.2523722
  51.9873787  20.5875987   8.9176565  52.0889924  21.3902148   9.2457540
  52.7829674  20.3863323   8.6199645  52.1201693  20.6761886   8.9211920
  58.4190606  18.1732184  18.6813870  58.2273804  18.1887318  19.5313294
  59.2689202  18.3695858  18.6580525  58.5166328  18.2046535  18.8037165
  52.8037520  20.7023165  16.6597686  52.6623011  19.8507106  16.7842194
  53.0878083  20.7451826  15.8359893  52.8245366  20.5822915  16.5565311
  62.9576112  22.5390255  10.8042175  62.7110826  22.4586006  11.6378964
  63.2861235  21.7543723  10.6104702  62.9697355  22.4116521  10.8989698
  66.8524161  29.2473615  14.5928956  66.7138520  29.9454661  15.0977698
  66.0724159  29.0922271  14.2365138  66.7167388  29.3273781  14.6155230
  65.1902246  25.5469990  20.8451338  65.1850284  24.6749807  20.8493764
  65.8963240  25.7458159  20.3720793  65.2947250  25.4473864  20.7758373
  58.9173139  25.2746974  20.2165158  59.0616515  25.8548182  19.5808268
  59.2648788  25.6523271  20.9215012  58.9900601  25.4167678  20.2264153
  61.0893057  24.4737142  17.9990289  60.3416371  24.6668157  17.5938568
  61.2434582  23.6482362  17.7614411  61.0015484  24.3802254  17.9035695
  57.9900894  33.4649746  17.0826185  58.1390458  32.9052662  16.4299589
  58.7700896  33.5441748  17.4658704  58.1274988  33.3935311  17.0423134
  60.5154195  33.6364389  18.3610676  60.4397866  32.9673199  18.9161464
  60.4444054  34.3382177  18.8751342  60.4934802  33.6409296  18.5187524
  61.3294834  18.3687693  18.8885693  61.7867448  19.1011667  19.0158485
  61.4051162  17.9454158  19.6472949  61.4085803  18.4144931  19.0186770
  53.5727825  18.6153513  19.9775137  53.0370014  18.0033871  20.2935904
  53.6345590  19.1901649  20.6308804  53.5023457  18.6100441  20.1210564
  61.1724442  32.1565388   9.1934281  61.9374333  31.8875031   8.8716946
  61.0702532  31.6715398   9.9104344  61.2705937  32.0454952   9.2514109
  59.2077211  20.3589797  15.7327517  58.4173286  20.1781257  16.0544853
  59.6037834  19.5816750  15.7157812  59.1494088  20.2177258  15.7780066
  64.5920898  27.9932227  13.4586963  63.9165900  27.7617459  13.9600350
  64.6013274  27.3853410  12.8329068  64.4939402  27.8691152  13.4403115
  61.7215042  22.8350056  20.2151016  61.6574183  23.6960013  20.0871153
  61.8612229  22.5182049  19.4146567  61.7330512  22.9150223  20.0779229
  66.5937632  30.8497360   5.6897141  66.6757470  31.6564346   5.3658592
  67.0787375  30.8693319   6.4137915  66.6774790  30.9718022   5.7484040
  60.4034136  25.5282196  14.3567219  59.9796385  25.7286695  13.6206237
  60.2278991  24.6811043  14.4691519  60.3145016  25.4330977  14.2640909
  59.9045829  37.0432708  16.8188676  60.3941759  36.3443498  16.6364341
  59.3330061  36.7456578  17.4064734  59.8930359  36.8958932  16.8789717
  55.6916581  26.0234247   9.7895192  55.8481200  25.9581050  10.6451184
  56.0317174  26.7982800   9.5773871  55.7649815  26.1283445   9.8849786
  62.2295725  25.3992131   8.6588555  62.7711271  24.8962512   9.1227175
  62.5442284  25.3457325   7.8478040  62.3560122  25.3171551   8.6072367
  66.1012833  29.6094778  25.7715467  66.9147698  29.3379927  25.9320599
  65.9407799  29.3102318  24.9675663  66.1982781  29.5249704  25.6760873
  60.3982175  30.7909482   5.9428583  60.4674995  29.9324021   6.0821583
  61.1770630  31.0081363   5.6147607  60.5235025  30.6962346   5.9145740
  63.3784995  20.2928435  18.7110855  63.5926964  19.6539349  18.1574209
  62.7618894  20.7374259  18.2818717  63.3190324  20.2638579  18.5661286
  64.7889663  33.2147183  10.1565076  64.3969454  32.9113899   9.4387942
  64.9442735  34.0516273   9.9670030  64.7543252  33.2931020  10.0221573
  52.2650842  23.2069197  10.1055959  52.6449807  23.6253742   9.4416226
  51.6906207  23.7882653  10.4124802  52.2362167  23.3547056  10.0532700
  65.5424083  21.9017500  19.6494162  64.7300764  21.5943391  19.7307335
  66.0014017  21.4216500  20.2136875  65.4904467  21.7853993  19.7448756
  64.9529337  29.7797172  10.0971107  64.5943992  29.9511815  10.8735139
  64.4668048  30.2410378   9.5399105  64.8288034  29.8736143  10.1296376
  62.7699723  13.4028371  13.6998198  61.8993281  13.3767092  13.6531508
  63.0240065  13.2305563  12.8824044  62.6793283  13.3738514  13.5718335
  59.7417703  25.4596338   2.6371341  60.0310228  26.2361220   2.9114915
  59.8289502  24.9485069   3.3385840  59.7971959  25.4988256   2.7813839
  62.6377590  23.3077572  24.4322865  63.1077221  23.9319688  24.8190739
  62.6839470  22.6394547  24.9916079  62.7145466  23.3012252  24.5722936
  59.7948864  15.4134599  15.1571668  59.2787352  14.7214791  15.2823247
  59.2342793  16.0805376  15.1034267  59.6355377  15.4097857  15.1677734
  61.8641097  15.9527559  16.9864521  61.4772850  15.9776591  17.7678051
  61.3774034  15.3869238  16.5339038  61.7353606  15.8723310  17.0352425
  66.1134077  30.6701068  21.0438308  66.7513797  30.1761264  20.7100764
  65.4708168  30.5978469  20.4590534  66.1128303  30.5860077  20.9080663
  67.8391077  22.5190214  15.6104223  67.4118685  22.4316563  14.8552323
  67.2017130  22.6267990  16.1959067  67.6820684  22.5222874  15.5849665
  61.5298239  12.8394545  19.2774781  62.1591357  13.3754845  18.9995851
  61.6984102  12.7471904  20.1288347  61.6476033  12.9055907  19.3623309
  61.3312154  17.6265739  21.5501192  62.1585583  17.3550888  21.6059807
  61.3520000  18.4226581  21.9065011  61.4565004  17.7045494  21.6116375
  66.1688333  31.3620876  17.6843664  66.9580711  31.0109941  17.8045746
  66.3431931  32.1757265  17.4220298  66.3108615  31.4306734  17.6631532
  55.9081644  24.7729602  14.7371453  55.0669650  24.6733476  14.9450347
  56.1171652  25.5425082  15.0885774  55.8146336  24.8721646  14.8198768
  53.3857211  22.3949139  12.5656204  52.9913908  22.4692151  11.7906313
  52.8297327  22.7807085  13.1164566  53.2460023  22.4630914  12.5323864
  65.0222157  15.3730433  12.2460083  65.2271751  15.3052741  13.0917080
  64.6948581  16.1789254  12.1781260  65.0037405  15.4816374  12.3619738
  59.7198309  22.7011001  13.9869051  59.4161446  22.1466990  14.5879458
  59.0177729  22.8803211  13.4997085  59.5714518  22.6455784  14.0038756
  58.7764406  20.0111521   8.5513753  59.0524140  19.2930434   8.1391320
  59.3763075  20.6096441   8.3434859  58.9057670  19.9931892   8.4594514
  57.7816660  29.9160722  18.6941148  57.6737014  29.9262784  19.5603207
  57.9912441  30.7415502  18.5046102  57.7966771  30.0401797  18.7945240
  55.7990452  27.1673364  16.1563086  55.2078385  27.8082863  16.1266101
  56.5611475  27.5910982  16.1294386  55.8238712  27.3249203  16.1478233
  56.1951074  18.3275362  16.8231104  56.6552556  18.4014292  17.5606227
  56.2407181  19.1256616  16.4730925  56.2701630  18.4569509  16.8803860
  57.8434424  18.9942057  21.3903131  57.4519989  18.3475404  21.8258909
  58.0120287  19.5853492  22.0097386  57.8105334  18.9856325  21.5465837
  71.9180873  26.9979134  17.1540364  71.9763997  27.4465783  17.9000341
  71.2847341  27.4077947  16.7170444  71.8332168  27.1252869  17.1992913
  65.5579968  32.6182676  13.5895110  65.3599656  33.1073491  12.8951322
  64.9367679  32.8223918  14.1679244  65.4367532  32.7199214  13.5718334
  59.6187946  24.3867573   7.9305355  60.3629991  24.7741849   8.1688305
  59.7648642  23.5424998   8.0945843  59.7498531  24.3198046   7.9899324
  61.5367522  16.1817832  12.9637216  60.6903567  16.3540640  12.8378566
  61.5338654  15.3767176  13.3003045  61.4114671  16.0878861  12.9948343
  62.6065822  19.9593046  13.8299274  62.1325776  19.4334808  14.3404585
  62.9783958  19.4122519  13.2614136  62.5915711  19.8009043  13.8214421
  52.9838852  21.9564553  19.1982820  53.8464465  21.8560262  19.1120150
  52.6530635  21.3759262  18.6368392  53.0624048  21.8556180  19.1028226
  68.8702553  25.0195422  15.2406055  68.6300775  24.1801837  15.2448481
  69.3494560  25.0995589  15.9646828  68.9054736  24.9076822  15.3480857
  70.8707740  21.7996879  13.1935314  70.6317510  21.7592713  12.3556098
  71.0341641  22.6468031  13.3201035  70.8598043  21.9188964  13.0888796
  67.4753770  26.1846828  19.1240359  68.1987969  25.7319355  18.9451379
  67.2103732  26.4651494  18.3412687  67.5435043  26.1597797  18.9819074
  56.3440638  20.7807002  15.8593238  55.7193708  20.7925394  15.2519191
  56.0086233  21.2567177  16.5084478  56.2026130  20.8525519  15.8649807
  56.5282387  19.1232120   1.9165923  56.1795191  19.7751846   2.3797472
  56.0478833  19.1089233   1.1889794  56.4052631  19.2175174   1.8777014
  53.0566314  28.8407462  17.2997002  52.5266238  28.1499901  17.3491977
  53.3291407  28.8317647  16.4709711  53.0191036  28.7374594  17.1844418
  64.0886404  29.4233164   6.0234685  64.8120603  29.8891277   5.8799258
  63.6486995  29.4906774   5.2732282  64.1302096  29.5017001   5.8919466
  63.2572559  26.2830707  17.2735374  62.6429552  25.7388757  17.5684009
  63.7739844  25.7694943  16.7941190  63.2428222  26.1267116  17.2459602
  62.4968856  27.3534977  15.0079673  62.0696464  26.7284695  14.5745108
  62.4893801  27.0709899  15.8338680  62.4327998  27.2187757  15.0659500
  55.6131383  22.3900150  18.0768107  55.7724870  21.6343474  18.4819828
  55.4324277  22.9391089  18.7308844  55.6096742  22.3593963  18.2330813
  63.5551686  14.5561385  18.6318896  63.0592248  14.7525059  17.9410463
  64.3120748  14.9554054  18.4607698  63.5938511  14.6439119  18.5039033
  60.8254566  18.2303731  15.2222207  60.8497053  17.6963843  14.5334987
  61.0766040  17.7221040  15.8847797  60.8664485  18.0764635  15.2186851
  48.3362156  25.5135226  14.6565351  48.2305605  25.4682070  13.7917435
  47.5862376  25.8589007  14.9379636  48.2097759  25.5576134  14.5702680
  57.1055888  16.9574549  14.6027951  57.1454260  17.4583756  15.3162658
  56.2805553  17.0484943  14.3333874  56.9895414  17.0456366  14.6678489
  59.2885501  26.5235289  22.7048245  58.4381132  26.6607004  22.8405890
  59.4513629  25.7899068  23.1495947  59.1869365  26.4349391  22.7903845
  58.5270252  23.4735059  16.9001850  57.6962181  23.6408877  16.6937098
  58.4721769  23.0971010  17.6850735  58.3959667  23.4424791  16.9850378
  56.3354035  16.9643952  22.5358261  56.9606738  16.4206085  22.8087693
  55.8804515  16.4838870  21.9666051  56.3602296  16.8133433  22.4919854
  56.9006295  21.7490651   7.4291968  57.0409257  22.2463115   8.1320609
  57.3988828  21.0476945   7.5706181  56.9947376  21.7192630   7.5543547
  56.9306518  22.6157762   4.7584544  57.5651597  23.2118187   4.6934006
  57.0132129  22.3161219   5.5730415  57.0363069  22.6598670   4.8687631
  69.9089084  25.1473239  17.6270909  70.5006924  25.7870490  17.6589107
  70.3448078  24.4496276  17.9162975  70.0607515  25.1391590  17.6751741
  58.5085501  18.5471737   4.7329986  58.8301342  18.0674820   4.0789249
  58.7712444  19.3571383   4.5420798  58.5951526  18.5961635   4.6085478
  61.7382474  29.5690612  18.2528803  61.2307565  30.1226458  18.6969433
  61.4409120  29.6298901  17.4347577  61.6187358  29.6596923  18.1977259
  63.9044656  17.9343931  17.0953466  64.3299727  17.4816458  16.4836992
  63.2901649  17.3804002  17.3718253  63.8773301  17.7857907  17.0458491
  53.4359506  24.8125603   8.0274090  53.9451735  25.4090110   8.4085396
  53.9093778  24.5451576   7.3450510  53.5802881  24.8611418   7.9828613
  64.3490254  33.4853869   6.1832746  63.6319564  33.3114732   5.7179983
  64.9996991  33.2506442   5.6508232  64.3392104  33.4249662   6.0361964
  62.3438879  14.4059031  10.5044043  61.7007197  14.2556677  11.0729181
  62.0038286  14.1601376   9.7393147  62.1983956  14.3471153  10.4747058
  66.9338225  22.3618458   9.9274051  66.2629415  22.9048160   9.7987117
  67.6277975  22.8313313   9.6855746  66.9367093  22.5116729   9.8729579
  60.9824959  34.5015170  15.1585809  60.7590613  33.7433999  15.5269836
  60.4934802  34.5313191  14.4366249  60.8768408  34.3937394  15.1062550
  67.0966353  18.8174341  12.8364424  67.4493963  18.3904064  13.5110223
  66.2381154  18.7325185  12.9665501  67.0215797  18.7419082  12.9559435
  55.7950037  21.4481861  10.8947271  55.0762027  21.8645994  11.1620134
  56.1662400  22.0136100  10.3438909  55.7441969  21.5931143  10.8530078
  65.0949618  22.0809710  16.7849267  65.0747546  21.8993005  17.6384045
  65.1428819  22.9521729  16.7608850  65.0984259  22.1826248  16.9072561
  63.0395948  28.6696902  22.7097743  62.9991803  28.0246579  22.1242899
  63.8519266  28.6133519  23.0223155  63.1539102  28.5655869  22.6694692
  59.6303416  34.7215628  12.6122894  59.2163814  34.0589758  12.2226736
  60.3150790  34.8693487  12.0918588  59.6701787  34.6456286  12.4779391
  62.9968710  33.8805713  13.3646511  62.5984993  33.9907984  12.5967331
  62.3819929  34.0887780  13.9473070  62.8467599  33.9279281  13.3377810
  61.5696612  20.4879861   6.2320650  60.9761451  20.8096858   5.6805217
  61.6071890  19.6420956   6.0241756  61.4871001  20.4104189   6.1203422
  64.4454428  20.4459366   9.6622401  64.2168121  20.4692067   8.8200759
  64.7052505  19.6216833   9.7817411  64.4500616  20.3275445   9.5547598
  58.7273657  22.2993839  19.2647501  58.2152560  21.6915022  19.6232532
  58.5553153  23.0150431  19.7321477  58.6263294  22.3157138  19.3863724
  53.5739372  20.7431414  21.9149863  53.4041962  21.4032789  21.3698069
  53.1305321  20.9537975  22.6362352  53.4838705  20.8717396  21.9411492
  57.4999191  18.9835912  10.9576596  57.9756557  19.3452992  10.3226777
  56.9987791  19.6392379  11.2376739  57.4964550  19.1330101  10.9053337
  62.6042727  20.2218083  21.7049756  63.1614157  19.9931893  21.0728222
  62.2803792  20.9823749  21.4284969  62.6389137  20.3001920  21.5706253
  50.4741436  23.6478279  17.1738352  49.9268156  22.9778925  17.2919221
  51.2633814  23.2808127  17.2381820  50.5093620  23.4943266  17.2007053
  60.3225844  23.3085737  22.6701763  61.0737171  23.6237413  22.9841318
  60.5148421  23.1064907  21.8435685  60.4617259  23.3253118  22.5945159
  59.5425844  21.1277112   4.3249980  59.9224809  21.1456741   3.5401095
  58.8018440  21.5731100   4.2040827  59.4894682  21.1958886   4.1913548
  67.1711135  19.4359303   9.9125559  67.1705361  19.2807959  10.7709835
  66.9667315  20.2822290   9.8566944  67.1410912  19.5379924  10.0313498
  49.2328406  22.8599087  14.3284375  49.0550167  22.4075696  15.0539291
  48.9447428  23.6625249  14.5122853  49.1641359  22.9121645  14.4627878
  64.8951987  24.1156805  13.5661766  65.3905652  23.3979800  13.5265786
  64.0851762  23.8127602  13.4516253  64.8495880  23.9654451  13.5435492
  60.3410598  27.9654618   5.7158770  59.5321921  27.6421291   5.6692080
  60.8485507  27.2587840   5.6487019  60.2960265  27.8135934   5.6989065
  50.9700875  25.3926811  11.4406134  50.1046395  25.3812501  11.3288906
  51.0699691  25.2057034  12.2877274  50.8575042  25.3632872  11.5495079
  66.9603806  26.8660492  16.2538894  67.3858877  26.3434914  15.7009320
  66.5960725  27.4641330  15.7327517  66.9690408  26.8770719  16.0947904
  56.5957885  35.1624710  15.0136240  56.9104444  35.9761098  15.0214022
  57.0051299  34.7774928  15.6818399  56.7025983  35.2253412  15.1140332
  63.5482405  30.5794756  12.5840052  64.0193583  31.2935019  12.7530037
  63.8842584  29.9793507  13.1199921  63.6677520  30.5966221  12.6872428
  65.6359390  32.1896070  24.7632124  65.7456355  31.4004630  25.1188871
  65.9650286  32.1002006  23.9606462  65.7011795  32.0601923  24.6974515
  60.4651900  15.3522227  19.5398147  60.5979806  14.5553220  19.8679122
  60.8497053  15.8788630  20.1196422  60.5408229  15.3122144  19.6741650
  64.1856351  30.3712691  19.3467745  63.6377297  29.7470574  19.0787810
  64.6469380  30.5606963  18.6311824  64.1723561  30.3071741  19.2018176
  63.5384255  12.2752553  16.1379240  62.7330219  12.1650283  16.4547078
  63.4090991  12.3765009  15.2809106  63.4004388  12.2736223  16.0587280
  66.9950216  18.4398045  16.7318937  66.4113204  18.9407251  16.3196504
  67.3154510  17.9327601  16.0983260  66.9563391  18.4389880  16.5777444
  59.5345015  17.3538640   7.0077612  60.3560709  17.5236953   6.7659307
  59.0714666  17.5085901   6.2843909  59.5876177  17.4020373   6.8649256
  58.1240347  15.3481402  17.7876041  58.6684760  15.0072529  18.3780382
  58.1777282  16.2066864  17.9297325  58.2129466  15.4236661  17.8957914
  53.9370905  29.1097818  14.6614848  54.5415763  29.0693652  14.0328669
  53.7298218  29.9568970  14.6918904  53.9959803  29.2285821  14.5730965
  63.7514678  31.3763763  15.8777086  64.5713051  31.2326729  16.1393381
  63.4708755  32.0009962  16.4193524  63.8311421  31.4474115  15.9965025
  49.1722188  28.0932436  14.5313772  49.0746466  27.2828707  14.8403828
  49.9551057  28.0724229  14.1460040  49.2738324  27.9699526  14.5200634
  73.4228013  38.1204266  13.5972893  72.5665908  38.2812764  13.6482009
  73.4695667  37.2496330  13.6177954  73.3027124  38.0155068  13.6078959
  67.8069153  47.6566984   9.3610124  67.0552052  47.2782522   9.1326169
  68.2555164  47.6885417   8.6128934  67.7618819  47.6052591   9.2167626
  76.7321729  44.3890792  23.2033349  77.4388497  43.8942822  23.3320283
  76.9209665  44.8299873  22.4736007  76.8649635  44.3809142  23.1142394
  76.2679834  40.1796310  16.2404544  76.8135794  40.8581396  16.2998514
  76.2096710  40.0383771  15.3806126  76.3395748  40.2588312  16.1216605
  69.3853909  47.6685376  11.6272897  69.4864272  46.8585730  11.9370024
  68.7895654  47.5742322  10.9972575  69.3126447  47.5350404  11.5799135
  69.2254648  52.5862965  13.0287753  69.8692104  53.0276129  13.4183911
  69.5510904  51.7816391  12.9418011  69.3686477  52.5328160  13.0733230
  62.5818953  43.6905663  11.2525230  62.3469137  42.8573315  11.1457499
  62.7204594  43.9710328  10.4386431  62.5674615  43.6089166  11.1167585
  64.8809040  35.8591393  14.1509538  64.2614072  35.2684040  13.9819553
  64.7792904  36.4502828  13.5173861  64.7746716  35.8595476  14.0314528
  71.9776936  37.5990935   8.4842001  72.6757101  37.7779062   8.9763464
  72.2929269  37.0761274   7.8612390  72.1272273  37.5484707   8.4644011
  64.6078173  39.4043675  16.3953107  64.4836870  39.9906120  17.0302926
  65.2596458  38.9103871  16.6965382  64.6851823  39.4182479  16.5339036
  72.1664871  43.9861380   8.4721793  72.6058507  43.3778480   8.9176565
  72.0169534  43.6068753   7.7007258  72.2086337  43.8399851   8.4240960
  69.6336514  42.5805392  15.6740618  70.2785517  42.0877835  15.3551567
  69.8738292  42.7230178  16.5006696  69.7647100  42.5282834  15.7490151
  72.1722606  45.4260298  15.3247511  72.4545849  44.6311703  15.1034266
  72.9008766  45.9040885  15.3452572  72.3212170  45.3794895  15.2950526
  70.1503800  32.9683332  12.5663276  69.8207130  33.4194475  11.8966974
  69.4748801  32.8899495  13.1136282  70.0014236  33.0234467  12.5486499
  64.1436278  48.5691333  12.5281436  63.6603856  49.2941823  12.5041020
  64.9559596  48.8667463  12.6391594  64.1927025  48.7193687  12.5408716
  70.2150432  47.3623514  15.1331251  69.6977373  47.0030929  14.5292559
  70.9124823  46.8385688  15.1437317  70.2416013  47.2321202  15.0461510
  73.8714024  47.8118328  21.0947424  73.9597370  47.6244469  21.9425634
  74.3003736  47.1655758  20.6952271  73.9476126  47.6881336  21.1619175
  71.4384483  47.0949488  20.0765086  70.8755318  46.6822098  20.6004747
  72.2005507  47.0202394  20.4958229  71.4678932  47.0226889  20.2158087
  68.3559754  31.0295620   8.0486223  69.1105722  31.3973937   7.8103274
  68.1787288  31.4035174   8.8165403  68.4414232  31.1393808   8.1271112
  66.9980475  49.0847509  12.6801716  67.7001054  48.5699498  12.7374473
  66.9177958  49.4121661  13.4848591  67.0904235  49.0561735  12.8074509
  68.0459381  39.3223096  21.8082131  68.2179885  39.2128991  22.6567413
  68.5828739  39.9677502  21.5713324  68.1504385  39.4015098  21.8987228
  66.7116818  33.4365939   4.7464336  66.5292392  33.6537820   3.9205329
  67.5742431  33.5504952   4.8022951  66.8121408  33.4855837   4.6318823
  66.3231250  45.2753861  12.1887324  67.1620150  45.5076794  12.2361086
  66.3543020  44.4058173  12.1194360  66.4512968  45.1810808  12.1851969
  66.9483953  45.6954736  16.4900630  67.4882178  45.5525867  17.1604002
  66.2653900  46.0951487  16.8584656  66.9276107  45.7334407  16.6435052
  76.3724838  41.3745737  11.6845654  77.1282353  41.8077251  11.7234563
  76.4787163  40.7250507  12.2580290  76.4995009  41.3423221  11.7743680
  73.9834083  47.2427347  23.7591208  74.7674500  47.3558195  24.1246950
  73.7830678  46.4168484  23.9549893  74.0700108  47.1374067  23.8425594
  62.3521098  41.9155027  16.6435051  62.0859514  41.0994144  16.8026042
  62.3659663  41.9608183  15.7730567  62.3145821  41.8011932  16.5388533
  66.2578845  36.7140112   3.2586810  65.5437023  36.4278291   3.6709242
  66.7422814  37.0536737   3.8993197  66.2238209  36.7221761   3.4142444
  67.1019705  35.4533405  19.2902059  66.4091502  34.9830385  19.5362791
  67.7180032  35.2271710  19.8643766  67.0904235  35.3500537  19.4111212
  74.1404476  49.1537449  17.4057663  73.3419722  48.9136949  17.6631532
  74.5890488  49.2051842  18.1524711  74.0879088  49.1259840  17.5542587
  62.7614512  42.7013807  13.9246796  62.5790085  42.6760693  13.0719088
  63.4964181  43.1712744  13.9635704  62.8428576  42.7675169  13.8044714
  65.8260264  39.4198809  20.4328904  66.5500236  39.4051840  20.9193799
  65.9276400  40.1294165  19.9350873  65.9478473  39.5223513  20.4307691
  73.2005213  42.8997894  25.2977851  72.4078194  43.2141406  25.4830471
  73.3154140  43.1149363  24.4598636  73.1000624  42.9781731  25.2016186
  75.8736532  39.6231885   9.5872867  75.9683387  40.3621179  10.0412493
  75.2495376  39.1949361  10.0207432  75.7945562  39.6693206   9.7181015
  74.1289006  42.8018098  20.2363148  74.7027868  42.1645342  20.3911712
  74.0503810  42.8022180  19.3672806  74.2022241  42.7083209  20.1309559
  62.7285422  39.5807307  14.0745862  63.3058925  39.4443758  14.7138108
  62.0299484  39.1243091  14.3291447  62.7106444  39.4929573  14.2068152
  69.4852725  41.2341363  12.2884345  69.2271969  40.4013098  12.2615645
  69.5401207  41.4598976  11.4476846  69.4552502  41.1439134  12.1604482
  74.5653775  33.3369814  12.3888438  73.8610101  32.8478999  12.5472357
  74.6138749  33.3492288  11.5176883  74.4683826  33.2659462  12.2827778
  68.4587437  38.7879125  12.7749240  67.8837028  38.9471294  13.4113201
  68.0823113  38.1514535  12.3117691  68.3190249  38.7176938  12.8003799
  72.1260725  37.2602475  17.6341619  71.7375158  36.8356692  16.9793810
  71.4615424  37.5084624  18.1418645  71.9707653  37.2341196  17.6129487
  58.2044256  38.4319200  10.7893681  58.2904507  38.0551069  11.5707211
  58.8320053  38.0579646  10.3113639  58.3100807  38.3204682  10.8339158
  75.9487087  30.9577103  15.1465603  76.3297599  30.2755275  15.5333477
  75.1450371  30.6686706  14.9641267  75.8863549  30.8144152  15.1769659
  69.1007572  44.9622597  10.9590738  69.7381519  44.7234344  11.5042531
  69.5262643  45.1659756  10.2243898  69.2583738  44.9573607  10.9307895
  63.7920214  47.2010933  14.8425041  63.8324360  47.4725784  14.0144821
  64.3514738  47.7252841  15.2582829  63.8803560  47.3186688  14.7816930
  69.7410387  40.1824887   5.2965627  70.1255540  39.9632593   6.0482172
  69.4922007  41.0087832   5.4266703  69.7612460  40.2723033   5.4266704
  69.9078927  33.4631302  25.0128211  69.5932368  34.2330864  24.7497774
  69.5868860  32.9001558  24.4280438  69.8137846  33.4941570  24.8869561
  71.4829044  45.4395019  12.6384524  71.5568052  45.2770191  13.4926374
  72.2998550  45.6285209  12.3945006  71.6145402  45.4431762  12.7282550
  65.2434801  45.7852882   9.6678967  64.4172918  46.0314619   9.5413246
  65.3046792  45.7064963  10.5341026  65.1308968  45.8097831   9.7767912
  67.4610824  31.8521823  10.6274408  66.5933250  31.9244423  10.6932017
  67.7486029  32.6543902  10.8162383  67.3750572  31.9815970  10.6649174
  76.5843713  31.9999683  18.9585729  77.3297305  31.8109493  18.5449155
  76.1681018  32.5257921  18.3999586  76.6328687  32.0501828  18.8150303
  70.6128375  43.2047508  18.4551128  70.1140068  43.9163276  18.5336016
  71.4228599  43.5248175  18.4169290  70.6584481  43.3574357  18.4607696
  67.9639545  50.3797145  10.4358147  67.7439841  50.0894500  11.2284814
  67.7434067  49.7212100   9.9076059  67.8987139  50.2396853  10.4747056
  66.8756492  42.4670461  12.7013849  66.5869741  41.8407933  13.2359576
  67.7439840  42.4090749  12.7678529  66.9616744  42.3658006  12.7904803
  77.6634390  37.6105245  13.0195831  77.3199156  36.8895580  13.3703080
  77.7627433  37.4019096  12.1774189  77.6276433  37.4729448  12.9467511
  67.0788766  44.1065712   8.6256214  67.8334734  44.4878751   8.8391676
  66.4859378  44.5576856   9.0802910  67.1025479  44.2294540   8.7239092
  69.5395433  36.0628553  23.7513426  68.7295209  36.3686332  23.6403268
  70.0170119  36.7834135  23.8666010  69.4898912  36.2143154  23.7520497
  68.3986992  45.2774274  13.9996329  67.8767746  45.4174565  14.6848194
  68.7861013  44.5184938  14.1898447  68.3790693  45.1859798  14.1297406
  65.3878176  35.3280082   8.0691284  65.1002972  34.9581353   7.3323231
  66.0748645  35.7974938   7.8074989  65.4467074  35.3427052   7.9206360
  69.8253318  42.3078293   9.3977820  69.6296101  42.9153027   8.8038123
  70.0487664  41.6146237   8.9169494  69.8287959  42.2955818   9.2393901
  68.2231848  39.1933031   9.5158689  68.9454500  39.3574189   9.0562495
  67.7439841  39.9142696   9.4098028  68.2595579  39.3231260   9.4324303
  76.1825356  35.5296830  14.8955374  75.3436456  35.5558108  14.6593637
  76.2529723  36.1767565  15.4760720  76.0693749  35.6292955  14.9464490
  65.8739465  41.5991103  18.6212828  66.3860562  41.8775356  17.9721588
  65.5875807  42.3380397  18.9875641  65.9074328  41.7493457  18.5802707
  62.9606371  36.1061295   8.9176565  63.0622507  36.9087456   9.2457540
  63.7562258  35.9048631   8.6199645  63.0934277  36.1947194   8.9211920
  69.3923190  33.6917492  18.6813870  69.2006387  33.7072626  19.5313294
  70.2421786  33.8881166  18.6580525  69.4898912  33.7231843  18.8037165
  63.7770103  36.2208473  16.6597686  63.6355595  35.3692414  16.7842194
  64.0610666  36.2637134  15.8359893  63.7977949  36.1008223  16.5565311
  73.9308695  38.0575563  10.8042175  73.6843410  37.9771314  11.6378964
  74.2593819  37.2729031  10.6104702  73.9429939  37.9301829  10.8989698
  77.8256744  44.7658923  14.5928956  77.6871104  45.4639969  15.0977698
  77.0456742  44.6107579  14.2365138  77.6899971  44.8459089  14.6155230
  76.1634829  41.0655298  20.8451338  76.1582868  40.1935115  20.8493764
  76.8695823  41.2643467  20.3720793  76.2679833  40.9659172  20.7758373
  69.8905723  40.7932282  20.2165158  70.0349098  41.3733490  19.5808268
  70.2381371  41.1708579  20.9215012  69.9633184  40.9352986  20.2264153
  72.0625640  39.9922450  17.9990289  71.3148954  40.1853465  17.5938568
  72.2167165  39.1667670  17.7614411  71.9748068  39.8987562  17.9035695
  68.9633478  48.9835054  17.0826185  69.1123041  48.4237970  16.4299589
  69.7433480  49.0627055  17.4658704  69.1007571  48.9120619  17.0423134
  71.4886778  49.1549697  18.3610676  71.4130449  48.4858507  18.9161464
  71.4176637  49.8567485  18.8751342  71.4667385  49.1594604  18.5187524
  72.3027417  33.8873001  18.8885693  72.7600031  34.6196975  19.0158485
  72.3783746  33.4639466  19.6472949  72.3818387  33.9330239  19.0186770
  64.5460408  34.1338821  19.9775137  64.0102598  33.5219179  20.2935904
  64.6078173  34.7086957  20.6308804  64.4756041  34.1285749  20.1210564
  70.1809795  35.8775105  15.7327517  69.3905870  35.6966565  16.0544853
  70.5770418  35.1002058  15.7157812  70.1226671  35.7362566  15.7780066
  75.5653481  43.5117535  13.4586963  74.8898483  43.2802767  13.9600350
  75.5745857  42.9038718  12.8329068  75.4671986  43.3876460  13.4403115
  72.6947625  38.3535364  20.2151016  72.6306767  39.2145321  20.0871153
  72.8344813  38.0367357  19.4146567  72.7063095  38.4335531  20.0779229
  71.3766719  41.0467503  14.3567219  70.9528968  41.2472002  13.6206237
  71.2011574  40.1996351  14.4691519  71.2877600  40.9516285  14.2640909
  70.8778413  52.5618016  16.8188676  71.3674343  51.8628806  16.6364341
  70.3062645  52.2641886  17.4064734  70.8662943  52.4144240  16.8789717
  66.6649164  41.5419555   9.7895192  66.8213783  41.4766358  10.6451184
  67.0049757  42.3168107   9.5773871  66.7382399  41.6468753   9.8849786
  73.2028309  40.9177438   8.6588555  73.7443854  40.4147820   9.1227175
  73.5174868  40.8642633   7.8478040  73.3292706  40.8356859   8.6072367
  77.0745416  45.1280086  25.7715467  77.8880281  44.8565235  25.9320599
  76.9140383  44.8287626  24.9675663  77.1715365  45.0435012  25.6760873
  74.3517578  35.8113743  18.7110855  74.5659548  35.1724657  18.1574209
  73.7351477  36.2559567  18.2818717  74.2922907  35.7823887  18.5661286
  63.2383426  38.7254505  10.1055959  63.6182391  39.1439050   9.4416226
  62.6638790  39.3067961  10.4124802  63.2094751  38.8732364  10.0532700
  76.5156666  37.4202808  19.6494162  75.7033348  37.1128699  19.7307335
  76.9746601  36.9401808  20.2136875  76.4637051  37.3039301  19.7448756
  73.7432307  28.9213679  13.6998198  72.8725865  28.8952400  13.6531508
  73.9972648  28.7490871  12.8824044  73.6525867  28.8923822  13.5718335
  73.6110174  38.8262880  24.4322865  74.0809805  39.4504996  24.8190739
  73.6572054  38.1579855  24.9916079  73.6878050  38.8197560  24.5722936
  70.7681447  30.9319907  15.1571668  70.2519936  30.2400099  15.2823247
  70.2075376  31.5990684  15.1034267  70.6087961  30.9283165  15.1677734
  72.8373681  31.4712867  16.9864521  72.4505434  31.4961899  17.7678051
  72.3506618  30.9054546  16.5339038  72.7086190  31.3908618  17.0352425
  77.0866660  46.1886376  21.0438308  77.7246381  45.6946572  20.7100764
  76.4440752  46.1163777  20.4590534  77.0860887  46.1045385  20.9080663
  78.8123660  38.0375522  15.6104223  78.3851268  37.9501871  14.8552323
  78.1749713  38.1453298  16.1959067  78.6553268  38.0408182  15.5849665
  72.5030823  28.3579853  19.2774781  73.1323940  28.8940153  18.9995851
  72.6716685  28.2657212  20.1288347  72.6208617  28.4241215  19.3623309
  72.3044737  33.1451047  21.5501192  73.1318167  32.8736196  21.6059807
  72.3252583  33.9411889  21.9065011  72.4297587  33.2230802  21.6116375
  77.1420917  46.8806184  17.6843664  77.9313295  46.5295249  17.8045746
  77.3164515  47.6942573  17.4220298  77.2841198  46.9492041  17.6631532
  66.8814227  40.2914910  14.7371453  66.0402234  40.1918784  14.9450347
  67.0904235  41.0610390  15.0885774  66.7878920  40.3906953  14.8198768
  64.3589794  37.9134447  12.5656204  63.9646492  37.9877459  11.7906313
  63.8029911  38.2992393  13.1164566  64.2192607  37.9816222  12.5323864
  75.9954741  30.8915741  12.2460083  76.2004334  30.8238049  13.0917080
  75.6681165  31.6974562  12.1781260  75.9769989  31.0001682  12.3619738
  70.6930892  38.2196309  13.9869051  70.3894030  37.6652298  14.5879458
  69.9910313  38.3988519  13.4997085  70.5447102  38.1641092  14.0038756
  69.7496989  35.5296829   8.5513753  70.0256724  34.8115742   8.1391320
  70.3495659  36.1281749   8.3434859  69.8790254  35.5117200   8.4594514
  68.7549243  45.4346030  18.6941148  68.6469598  45.4448092  19.5603207
  68.9645025  46.2600810  18.5046102  68.7699354  45.5587105  18.7945240
  66.7723035  42.6858672  16.1563086  66.1810968  43.3268171  16.1266101
  67.5344059  43.1096290  16.1294386  66.7971296  42.8434511  16.1478233
  67.1683658  33.8460670  16.8231104  67.6285139  33.9199600  17.5606227
  67.2139765  34.6441924  16.4730925  67.2434213  33.9754817  16.8803860
  68.8167008  34.5127365  21.3903131  68.4252573  33.8660712  21.8258909
  68.9852870  35.1038800  22.0097386  68.7837918  34.5041633  21.5465837
  76.5312551  48.1367984  13.5895110  76.3332240  48.6258798  12.8951322
  75.9100262  48.3409225  14.1679244  76.4100116  48.2384522  13.5718334
  70.5920530  39.9052881   7.9305355  71.3362575  40.2927157   8.1688305
  70.7381226  39.0610306   8.0945843  70.7231115  39.8383354   7.9899324
  72.5100105  31.7003140  12.9637216  71.6636150  31.8725948  12.8378566
  72.5071238  30.8952483  13.3003045  72.3847255  31.6064169  12.9948343
  73.5798406  35.4778354  13.8299274  73.1058360  34.9520116  14.3404585
  73.9516541  34.9307827  13.2614136  73.5648294  35.3194351  13.8214421
  63.9571436  37.4749861  19.1982820  64.8197049  37.3745570  19.1120150
  63.6263219  36.8944570  18.6368392  64.0356632  37.3741488  19.1028226
  67.3173222  36.2992310  15.8593238  66.6926292  36.3110702  15.2519191
  66.9818817  36.7752485  16.5084478  67.1758714  36.3710827  15.8649807
  67.5014970  34.6417428   1.9165923  67.1527775  35.2937154   2.3797472
  67.0211416  34.6274541   1.1889794  67.3785214  34.7360482   1.8777014
  64.0298897  44.3592770  17.2997002  63.4998822  43.6685209  17.3491977
  64.3023991  44.3502955  16.4709711  63.9923620  44.2559902  17.1844418
  74.2305143  41.8016015  17.2735374  73.6162136  41.2574065  17.5684009
  74.7472428  41.2880251  16.7941190  74.2160805  41.6452424  17.2459602
  73.4701440  42.8720285  15.0079673  73.0429048  42.2470003  14.5745108
  73.4626384  42.5895206  15.8338680  73.4060581  42.7373065  15.0659500
  66.5863967  37.9085458  18.0768107  66.7457454  37.1528782  18.4819828
  66.4056861  38.4576397  18.7308844  66.5829326  37.8779271  18.2330813
  74.5284270  30.0746693  18.6318896  74.0324831  30.2710367  17.9410463
  75.2853332  30.4739361  18.4607698  74.5671095  30.1624427  18.5039033
  71.7987150  33.7489039  15.2222207  71.8229637  33.2149151  14.5334987
  72.0498623  33.2406348  15.8847797  71.8397068  33.5949943  15.2186851
  59.3094739  41.0320534  14.6565351  59.2038189  40.9867378  13.7917435
  58.5594959  41.3774315  14.9379636  59.1830342  41.0761442  14.5702680
  68.0788472  32.4759857  14.6027951  68.1186843  32.9769064  15.3162658
  67.2538137  32.5670251  14.3333874  67.9627998  32.5641674  14.6678489
  70.2618085  42.0420597  22.7048245  69.4113715  42.1792312  22.8405890
  70.4246212  41.3084376  23.1495947  70.1601948  41.9534699  22.7903845
  69.5002835  38.9920367  16.9001850  68.6694765  39.1594185  16.6937098
  69.4454352  38.6156318  17.6850735  69.3692250  38.9610098  16.9850378
  67.3086618  32.4829260  22.5358261  67.9339322  31.9391393  22.8087693
  66.8537098  32.0024178  21.9666051  67.3334879  32.3318741  22.4919854
  67.8738879  37.2675959   7.4291968  68.0141840  37.7648423   8.1320609
  68.3721412  36.5662253   7.5706181  67.9679960  37.2377937   7.5543547
  67.9039101  38.1343070   4.7584544  68.5384181  38.7303495   4.6934006
  67.9864712  37.8346527   5.5730415  68.0095652  38.1783978   4.8687631
  69.4818084  34.0657045   4.7329986  69.8033925  33.5860128   4.0789249
  69.7445028  34.8756691   4.5420798  69.5684110  34.1146943   4.6085478
  72.7115057  45.0875919  18.2528803  72.2040148  45.6411766  18.6969433
  72.4141703  45.1484209  17.4347577  72.5919942  45.1782231  18.1977259
  74.8777239  33.4529239  17.0953466  75.3032311  33.0001766  16.4836992
  74.2634232  32.8989310  17.3718253  74.8505885  33.3043215  17.0458491
  64.4092089  40.3310910   8.0274090  64.9184319  40.9275418   8.4085396
  64.8826362  40.0636884   7.3450510  64.5535465  40.3796726   7.9828613
  73.3171462  29.9244339  10.5044043  72.6739780  29.7741985  11.0729181
  72.9770869  29.6786684   9.7393147  73.1716539  29.8656461  10.4747058
  77.9070809  37.8803766   9.9274051  77.2361998  38.4233468   9.7987117
  78.6010559  38.3498621   9.6855746  77.9099676  38.0302037   9.8729579
  71.9557542  50.0200478  15.1585809  71.7323197  49.2619307  15.5269836
  71.4667386  50.0498499  14.4366249  71.8500991  49.9122702  15.1062550
  78.0698936  34.3359649  12.8364424  78.4226546  33.9089372  13.5110223
  77.2113738  34.2510493  12.9665501  77.9948381  34.2604390  12.9559435
  66.7682621  36.9667169  10.8947271  66.0494610  37.3831302  11.1620134
  67.1394983  37.5321408  10.3438909  66.7174553  37.1116450  10.8530078
  76.0682202  37.5995018  16.7849267  76.0480129  37.4178313  17.6384045
  76.1161403  38.4707036  16.7608850  76.0716843  37.7011556  16.9072561
  74.0128532  44.1882210  22.7097743  73.9724387  43.5431887  22.1242899
  74.8251850  44.1318827  23.0223155  74.1271685  44.0841177  22.6694692
  70.6035999  50.2400936  12.6122894  70.1896398  49.5775066  12.2226736
  71.2883374  50.3878795  12.0918588  70.6434371  50.1641594  12.4779391
  73.9701293  49.3991021  13.3646511  73.5717577  49.5093291  12.5967331
  73.3552513  49.6073087  13.9473070  73.8200183  49.4464589  13.3377810
  72.5429195  36.0065169   6.2320650  71.9494035  36.3282165   5.6805217
  72.5804473  35.1606264   6.0241756  72.4603585  35.9289497   6.1203422
  75.4187012  35.9644673   9.6622401  75.1900705  35.9877375   8.8200759
  75.6785088  35.1402140   9.7817411  75.4233200  35.8460753   9.5547598
  69.7006240  37.8179146  19.2647501  69.1885144  37.2100329  19.6232532
  69.5285737  38.5335739  19.7321477  69.5995877  37.8342446  19.3863724
  64.5471955  36.2616722  21.9149863  64.3774545  36.9218097  21.3698069
  64.1037905  36.4723283  22.6362352  64.4571289  36.3902704  21.9411492
  68.4731775  34.5021220  10.9576596  68.9489141  34.8638300  10.3226777
  67.9720374  35.1577687  11.2376739  68.4697134  34.6515409  10.9053337
  73.5775311  35.7403391  21.7049756  74.1346741  35.5117201  21.0728222
  73.2536376  36.5009057  21.4284969  73.6121721  35.8187228  21.5706253
  61.4474020  39.1663587  17.1738352  60.9000739  38.4964233  17.2919221
  62.2366398  38.7993435  17.2381820  61.4826203  39.0128574  17.2007053
  71.2958428  38.8271044  22.6701763  72.0469755  39.1422721  22.9841318
  71.4881005  38.6250215  21.8435685  71.4349842  38.8438426  22.5945159
  70.5158428  36.6462420   4.3249980  70.8957393  36.6642049   3.5401095
  69.7751024  37.0916408   4.2040827  70.4627265  36.7144194   4.1913548
  78.1443718  34.9544611   9.9125559  78.1437945  34.7993267  10.7709835
  77.9399898  35.8007598   9.8566944  78.1143496  35.0565231  10.0313498
  60.2060989  38.3784395  14.3284375  60.0282750  37.9261004  15.0539291
  59.9180011  39.1810557  14.5122853  60.1373942  38.4306953  14.4627878
  75.8684570  39.6342113  13.5661766  76.3638236  38.9165108  13.5265786
  75.0584346  39.3312910  13.4516253  75.8228464  39.4839759  13.5435492
  61.9433459  40.9112119  11.4406134  61.0778979  40.8997809  11.3288906
  62.0432275  40.7242342  12.2877274  61.8307626  40.8818180  11.5495079
  77.9336389  42.3845800  16.2538894  78.3591461  41.8620222  15.7009320
  77.5693309  42.9826637  15.7327517  77.9422992  42.3956027  16.0947904
  67.5690469  50.6810018  15.0136240  67.8837028  51.4946406  15.0214022
  67.9783882  50.2960236  15.6818399  67.6758567  50.7438720  15.1140332
  74.5214989  46.0980064  12.5840052  74.9926167  46.8120327  12.7530037
  74.8575167  45.4978814  13.1199921  74.6410104  46.1151529  12.6872428
  76.6091973  47.7081378  24.7632124  76.7188939  46.9189938  25.1188871
  76.9382870  47.6187314  23.9606462  76.6744379  47.5787231  24.6974515
  71.4384484  30.8707535  19.5398147  71.5712389  30.0738528  19.8679122
  71.8229636  31.3973938  20.1196422  71.5140812  30.8307452  19.6741650
  75.1588935  45.8897998  19.3467745  74.6109881  45.2655882  19.0787810
  75.6201964  46.0792270  18.6311824  75.1456144  45.8257049  19.2018176
  74.5116839  27.7937861  16.1379240  73.7062802  27.6835591  16.4547078
  74.3823574  27.8950317  15.2809106  74.3736972  27.7921531  16.0587280
  77.9682799  33.9583353  16.7318937  77.3845788  34.4592559  16.3196504
  78.2887093  33.4512909  16.0983260  77.9295975  33.9575188  16.5777444
  70.5077598  32.8723948   7.0077612  71.3293293  33.0422261   6.7659307
  70.0447249  33.0271209   6.2843909  70.5608761  32.9205681   6.8649256
  69.0972930  30.8666710  17.7876041  69.6417343  30.5257837  18.3780382
  69.1509866  31.7252172  17.9297325  69.1862050  30.9421969  17.8957914
  64.9103489  44.6283126  14.6614848  65.5148346  44.5878960  14.0328669
  64.7030802  45.4754278  14.6918904  64.9692386  44.7471129  14.5730965
  74.7247261  46.8949071  15.8777086  75.5445635  46.7512037  16.1393381
  74.4441339  47.5195270  16.4193524  74.8044005  46.9659423  15.9965025
  60.1454771  43.6117744  14.5313772  60.0479049  42.8014015  14.8403828
  60.9283641  43.5909537  14.1460040  60.2470908  43.4884834  14.5200634
  75.5810757  54.9228983  16.3953107  75.4569454  55.5091428  17.0302926
  76.2329042  54.4289178  16.6965382  75.6584406  54.9367787  16.5339036
  73.3253682  57.4340335  16.6435051  73.0592097  56.6179452  16.8026042
  73.3392246  57.4793491  15.7730567  73.2878404  57.3197240  16.5388533
  78.0752288  50.9718713  19.2902059  77.3824085  50.5015693  19.5362791
  78.6912616  50.7457018  19.8643766  78.0636818  50.8685845  19.4111212
  76.7992847  54.9384117  20.4328904  77.5232820  54.9237148  20.9193799
  76.9008984  55.6479473  19.9350873  76.9211056  55.0408821  20.4307691
  76.8472048  57.1176411  18.6212828  77.3593145  57.3960664  17.9721588
  76.5608391  57.8565705  18.9875641  76.8806911  57.2678765  18.5802707
  74.7502687  51.7393781  16.6597686  74.6088178  50.8877722  16.7842194
  75.0343250  51.7822442  15.8359893  74.7710533  51.6193531  16.5565311
  75.5192992  49.6524129  19.9775137  74.9835181  49.0404487  20.2935904
  75.5810757  50.2272265  20.6308804  75.4488625  49.6471056  20.1210564
  78.1416241  49.3645978  16.8231104  78.6017723  49.4384908  17.5606227
  78.1872348  50.1627232  16.4730925  78.2166797  49.4940125  16.8803860
  74.9304019  52.9935169  19.1982820  75.7929632  52.8930878  19.1120150
  74.5995802  52.4129878  18.6368392  75.0089216  52.8926795  19.1028226
  78.2905805  51.8177618  15.8593238  77.6658875  51.8296010  15.2519191
  77.9551400  52.2937793  16.5084478  78.1491297  51.8896135  15.8649807
  77.5596551  53.4270766  18.0768107  77.7190037  52.6714090  18.4819828
  77.3789444  53.9761705  18.7308844  77.5561910  53.3964579  18.2330813
  75.5204539  51.7802030  21.9149863  75.3507129  52.4403405  21.3698069
  75.0770489  51.9908591  22.6362352  75.4303872  51.9088012  21.9411492
  72.4206603  54.6848895  17.1738352  71.8733323  54.0149541  17.2919221
  73.2098981  54.3178743  17.2381820  72.4558787  54.5313882  17.2007053
  71.1793573  53.8969703  14.3284375  71.0015334  53.4446312  15.0539291
  70.8912595  54.6995865  14.5122853  71.1106526  53.9492261  14.4627878
   4.7113304  45.8719645  47.7665182   4.6807309  46.7264282  47.9383452
   5.3094653  45.5714937  48.3251326   4.7950462  45.9536141  47.8739984
   1.2206706  51.2281822  62.1278569   1.9273473  50.7333852  62.2565503
   1.4094641  51.6690903  61.3981227   1.3534611  51.2200172  62.0387614
   0.7564810  47.0187340  55.1649764   1.3020770  47.6972426  55.2243734
   0.6981687  46.8774801  54.3051346   0.8280725  47.0979342  55.0461825
   2.5329879  48.4471947  46.0383492   2.4169405  49.1979633  46.4675630
   3.3285766  48.1895900  46.2879579   2.6334468  48.5206794  46.1387584
   1.8465184  35.7959884  49.7358106   1.5318625  36.4863363  50.1678529
   1.3292126  35.7404667  49.0343607   1.7229654  35.8894773  49.6955056
   1.1877618  45.7964385  45.8495517   0.6589089  46.0124019  46.5092823
   1.7102638  46.4900524  45.7696486   1.1866071  45.9307522  45.9351116
   6.6425671  51.3710690  51.2228561   5.8123374  51.5821333  51.3861978
   6.5934923  50.5447744  50.9470845   6.5132406  51.2800296  51.2065927
   6.1379629  44.0181090  55.0178983   5.3008050  44.0883278  55.2526577
   6.1067860  44.0205585  54.1453285   6.0097911  44.0291318  54.9238531
   0.8609815  48.2136767  50.6090874   1.6167330  48.6468281  50.6479783
   0.9672139  47.5641537  51.1825510   0.9879985  48.1814251  50.6988900
   3.8989986  52.0410044  51.3593277   3.4625218  52.0446787  52.1152249
   3.5652901  52.7215543  50.9272855   3.7852606  52.1422500  51.4074110
   3.8187469  39.0823872  53.6022705   4.4613377  39.1521977  54.1884620
   4.0710489  38.4153095  53.1002247   3.9509601  38.9950221  53.6149984
   7.0334332  48.7590964  50.2512914   7.6950766  48.1981633  50.1508823
   6.3925744  48.2642995  50.5765606   7.0363200  48.6027373  50.2845255
   3.3199163  49.7756347  49.9924903   3.5554752  49.9201545  49.1651754
   3.4688726  50.5398755  50.3856417   3.3764966  49.9095401  49.9288507
   5.1489619  48.6158012  47.8294507   5.4797837  49.1485653  47.2234602
   5.7222708  48.6696900  48.4856458   5.2823299  48.7027581  47.8372289
   0.6144530  48.3071655  41.7455039   0.5324692  48.3773842  42.6110026
   1.2524250  48.8701399  41.5538780   0.6964367  48.4010626  41.8444989
   6.2568971  43.8568509  49.3334669   6.0005536  43.0448451  49.1432551
   7.0998285  43.8646077  49.1064856   6.3434996  43.7380507  49.2719486
   3.9394130  51.0118105  59.1693221   3.7032768  50.1806170  59.0505282
   4.5837359  50.9603713  59.7548065   3.9988801  50.8815793  59.2379115
   4.9630551  50.7962554  55.2321516   4.6576368  51.5290611  55.5934831
   4.2436767  50.3900484  54.9514302   4.8117893  50.8444287  55.2434653
  10.6632343  47.4355555  54.5589860  10.5956843  47.4551514  53.6892447
  10.6488005  48.2785882  54.7845531  10.6511099  47.5629290  54.4642337
   1.0728690  38.8390713  57.8830949   1.8182282  38.6500523  57.4694375
   0.6565994  39.3648950  57.3244806   1.1213664  38.8892858  57.7395523
   8.4490960  46.2099941  52.8336454   8.9998882  45.5768010  53.0733547
   8.4335076  46.7415334  53.5251959   8.5276157  46.1948889  52.9715313
   2.1519367  44.4496275  51.9441051   1.8084132  43.7286610  52.2948300
   2.2512409  44.2410126  51.1019409   2.1161409  44.3120478  51.8712731
   2.6132396  50.9121979  47.4865039   3.1790428  51.5715189  47.4023582
   1.9660299  51.2571677  47.9581441   2.6011152  51.0603920  47.5437795
   4.5467856  47.5755846  51.1061835   4.4601830  47.7311272  51.9596614
   4.0918336  48.2193922  50.7321240   4.4671112  47.6931601  51.1768942
   2.3141721  51.6049953  53.5174176   2.1756080  52.3030998  54.0222918
   1.5341719  51.4498609  53.1610358   2.1784948  51.6850119  53.5400450
   0.6519806  47.9046328  59.7696558   0.6467844  47.0326145  59.7738984
   1.3580800  48.1034497  59.2966013   0.7564810  47.8050202  59.7003593
   3.8095094  50.9628206  44.2790675   3.4301902  50.1765344  44.2719965
   3.1461339  51.5115063  44.1362319   3.6553568  50.9273030  44.2571472
   1.2639719  33.9053906  51.6824756   1.3823288  34.3630370  50.9492059
   1.0901895  33.0999167  51.3960974   1.2558890  33.8547678  51.5325690
   2.0555192  53.2073697  44.6142361   2.1375030  54.0140684  44.2903812
   2.5404935  53.2269657  45.3383135   2.1392350  53.3294360  44.6729260
   1.5630393  51.9671116  64.6960687   2.3765258  51.6956265  64.8565819
   1.4025359  51.6678656  63.8920883   1.6600341  51.8826042  64.6006093
   1.5751637  53.0277406  59.9683528   2.2131357  52.5337602  59.6345984
   0.9325728  52.9554807  59.3835754   1.5745863  52.9436415  59.8325883
   3.3008637  44.8766552  54.5349443   2.8736245  44.7892901  53.7797543
   2.6634690  44.9844328  55.1204287   3.1438244  44.8799212  54.5094885
   1.6305893  53.7197214  56.6088884   2.4198271  53.3686279  56.7290966
   1.8049491  54.5333603  56.3465518   1.7726175  53.7883071  56.5876752
   3.7373405  38.2838535  50.6508068   3.1247719  38.7708937  51.0361800
   3.8337580  37.6082026  51.1945719   3.6611303  38.2556844  50.7886926
   7.3798433  49.3555472  56.0785584   7.4381557  49.8042121  56.8245561
   6.7464901  49.7654285  55.6415664   7.2949728  49.4829207  56.1238133
   4.3320113  47.3771760  54.1651275   4.0918335  46.5378175  54.1693701
   4.8112120  47.4571926  54.8892048   4.3672296  47.2653159  54.2726077
   6.3325300  44.1573217  52.1180534   6.0935070  44.1169051  51.2801318
   6.4959201  45.0044369  52.2446255   6.3215603  44.2765302  52.0134016
   2.9371330  48.5423166  58.0485579   3.6605529  48.0895693  57.8696599
   2.6721292  48.8227832  57.2657907   3.0052603  48.5174135  57.9064294
   5.3706644  47.5049577  56.5516129   5.9624484  48.1446828  56.5834327
   5.8065638  46.8072614  56.8408195   5.5225075  47.4967927  56.5996961
   2.3955785  44.7194796  48.8519271   1.7246975  45.2624498  48.7232337
   3.0895535  45.1889651  48.6100966   2.3984653  44.8693067  48.7974799
   2.5583913  41.1750679  51.7609644   2.9111523  40.7480402  52.4355443
   1.6998714  41.0901523  51.8910721   2.4833357  41.0995420  51.8804655
   0.5567178  44.4386048  55.7094487   0.5365106  44.2569343  56.5629265
   0.6046379  45.3098066  55.6854070   0.5601819  44.5402586  55.8317781
   3.9907973  36.2969091  52.6893957   3.4838837  35.5898231  52.6215134
   4.7875406  35.9662280  52.8195033   4.0335212  36.1442243  52.6992952
   6.1928113  50.8134018  45.6734821   6.5761718  51.5625374  45.9032918
   5.3972226  51.0599837  45.4146810   6.1321895  50.9603712  45.6692395
   2.6328695  41.7935641  48.8370779   2.6322921  41.6384297  49.6955055
   2.4284875  42.6398628  48.7812164   2.6028472  41.8956261  48.9558718
   2.4221366  49.2236830  55.1784115   2.8476437  48.7011252  54.6254540
   2.0578285  49.8217667  54.6572737   2.4307968  49.2347057  55.0193124
   2.4567776  40.7974383  55.6564157   1.8730764  41.2983589  55.2441724
   2.7772070  40.2903939  55.0228480   2.4180951  40.7966218  55.5022664
  15.6845888  61.3904953  47.7665182  15.6539892  62.2449590  47.9383452
  16.2827237  61.0900245  48.3251326  15.7683046  61.4721449  47.8739984
   8.8845573  60.4780604  52.5218113   8.0283468  60.6389102  52.5727229
   8.9313227  59.6072668  52.5423174   8.7644684  60.3731406  52.5324179
  12.1939289  66.7467129  62.1278569  12.9006057  66.2519160  62.2565503
  12.3827225  67.1876211  61.3981227  12.3267195  66.7385480  62.0387614
  11.7297394  62.5372648  55.1649764  12.2753354  63.2157734  55.2243734
  11.6714270  62.3960109  54.3051346  11.8013308  62.6164649  55.0461825
  13.5062463  63.9657255  46.0383492  13.3901988  64.7164941  46.4675630
  14.3018349  63.7081208  46.2879579  13.6067052  64.0392102  46.1387584
   5.3892788  67.9551278  47.3252834   5.7108629  68.4956485  46.7214143
   6.0364885  67.3848049  47.4575124   5.5318843  67.9510453  47.2559870
   7.4394496  59.9567273  47.4087221   8.1374661  60.1355400  47.9008684
   7.7546829  59.4337612  46.7857610   7.5889833  59.9061045  47.3889231
   7.6282431  66.3437718  47.3967013   8.0676067  65.7354818  47.8421785
   7.4787094  65.9645091  46.6252478   7.6703897  66.1976189  47.3486180
   5.0954074  64.9381730  54.5985838   5.7403077  64.4454173  54.2796787
   5.3355852  65.0806516  55.4251916   5.2264660  64.8859172  54.6735371
   7.6340166  67.7836636  54.2492731   7.9163409  66.9888041  54.0279487
   8.3626326  68.2617223  54.2697792   7.7829730  67.7371232  54.2195746
   5.6121360  55.3259669  51.4908496   5.2824690  55.7770813  50.8212194
   4.9366361  55.2475833  52.0381502   5.4631796  55.3810805  51.4731719
  11.2291768  64.6964899  44.3497782  11.1443063  65.5525866  44.4947351
  11.7176151  64.4209223  45.0179941  11.2880665  64.7822221  44.4699863
  12.8197767  51.3145192  49.7358106  12.5051208  52.0048671  50.1678529
  12.3024709  51.2589975  49.0343607  12.6962238  51.4080081  49.6955056
  12.1610201  61.3149693  45.8495517  11.6321673  61.5309327  46.5092823
  12.6835221  62.0085832  45.7696486  12.1598654  61.4492830  45.9351116
  17.6158254  66.8895998  51.2228561  16.7855957  67.1006641  51.3861978
  17.5667506  66.0633052  50.9470845  17.4864990  66.7985604  51.2065927
   4.0509809  65.2112910  44.6502985   3.4667024  65.7162941  45.0568849
   3.6479904  64.9855297  43.9099577   3.9049113  65.2521158  44.6008010
   9.3331584  70.1694666  60.0192644   9.4214930  69.9820806  60.8670854
   9.7621296  69.5232096  59.6197491   9.4093686  70.0457674  60.0864395
   8.5087023  61.4578562  43.1271906   8.7483027  61.6656546  42.3147249
   8.8302864  60.6536071  43.2360850   8.5924181  61.3692663  43.0232459
   3.8177314  53.3871958  46.9731443   4.5723282  53.7550275  46.7348494
   3.6404848  53.7611512  47.7410623   3.9031792  53.4970146  47.0516332
  17.1112212  59.5366398  55.0178983  16.2740634  59.6068585  55.2526577
  17.0800443  59.5390893  54.1453285  16.9830495  59.5476625  54.9238531
   3.5076941  61.6799434  60.7327351   3.6797445  61.5705329  61.5812633
   4.0446299  62.3253839  60.4958544   3.6121945  61.7591436  60.8232448
   2.1734378  55.7942277  43.6709556   1.9909952  56.0114158  42.8450549
   3.0359991  55.9081290  43.7268171   2.2738968  55.8432175  43.5564044
   1.7848810  67.6330199  51.1132544   2.6237710  67.8653132  51.1606306
   1.8160580  66.7634511  51.0439580   1.9130528  67.5387146  51.1097189
   7.8534098  52.7968688  46.7058580   8.5820258  52.6184643  46.2596737
   7.9428990  53.6386767  46.9165758   7.9740760  52.8952566  46.6712098
  11.8342398  63.7322075  50.6090874  12.5899913  64.1653589  50.6479783
  11.9404723  63.0826845  51.1825510  11.9612569  63.6999559  50.6988900
  14.8722569  67.5595352  51.3593277  14.4357801  67.5632095  52.1152249
  14.5385485  68.2400851  50.9272855  14.7585189  67.6607808  51.4074110
  14.7920052  54.6009180  53.6022705  15.4345961  54.6707285  54.1884620
  15.0443073  53.9338403  53.1002247  14.9242184  54.5135529  53.6149984
   1.7196405  59.0716450  42.1832030   1.0054583  58.7854629  42.5954462
   2.2040374  59.4113075  42.8238417   1.6855769  59.0798099  42.3387664
   2.5637265  57.8109743  58.2147279   1.8709062  57.3406723  58.4608011
   3.1797592  57.5848048  58.7888986   2.5521795  57.7076875  58.3356432
  18.0066916  64.2776272  50.2512914  18.6683350  63.7166941  50.1508823
  17.3658328  63.7828303  50.5765606  18.0095783  64.1212681  50.2845255
   8.8943723  67.5746403  42.5593838   9.3094872  67.2431427  41.8678333
   8.0635653  67.3415306  42.4313974   8.8331732  67.4917659  42.4384685
  14.2931746  65.2941654  49.9924903  14.5287335  65.4386853  49.1651754
  14.4421310  66.0584062  50.3856417  14.3497550  65.4280709  49.9288507
   1.2877824  61.7775147  59.3574124   2.0117796  61.7628178  59.8439019
   1.3893960  62.4870503  58.8596093   1.4096033  61.8799851  59.3552911
  16.1222203  64.1343320  47.8294507  16.4530420  64.6670961  47.2234602
  16.6955291  64.1882208  48.4856458  16.2555882  64.2212889  47.8372289
  11.3354092  61.9808223  48.5118087  11.4300947  62.7197517  48.9657713
  10.7112936  61.5525699  48.9452652  11.2563122  62.0269544  48.6426235
   9.5906566  65.1594436  59.1608368  10.1645428  64.5221680  59.3156932
   9.5121370  65.1598518  58.2918026   9.6639801  65.0659547  59.0554779
  11.5877113  63.8256963  41.7455039  11.5057276  63.8959150  42.6110026
  12.2256834  64.3886707  41.5538780  11.6696951  63.9195934  41.8444989
   4.9470285  63.5917701  51.2129566   4.6889529  62.7589436  51.1860865
   5.0018767  63.8175314  50.3722066   4.9170062  63.5015472  51.0849702
  10.0271335  55.6946152  51.3133658   9.3227661  55.2055337  51.4717577
  10.0756309  55.7068626  50.4422103   9.9301386  55.6235800  51.2072998
   3.9204997  61.1455463  51.6994460   3.3454588  61.3047632  52.3358421
   3.5440673  60.5090872  51.2362911   3.7807809  61.0753276  51.7249019
   7.5878285  59.6178813  56.5586839   7.1992718  59.1933030  55.9039030
   6.9232984  59.8660962  57.0663865   7.4325213  59.5917534  56.5374707
  17.2301555  59.3753817  49.3334669  16.9738119  58.5633759  49.1432551
  18.0730869  59.3831384  49.1064856  17.3167580  59.2565815  49.2719486
  11.4104647  53.3153441  54.0710823  11.7915159  52.6331612  54.4578697
  10.6067931  53.0263043  53.8886487  11.3481109  53.1720490  54.1014879
   8.6917224  63.8477417  44.7563646   9.5057862  64.1392310  44.6446417
   8.6276365  63.1937280  44.1821939   8.8019963  63.7942612  44.6552483
  14.9126714  66.5303413  59.1693221  14.6765351  65.6991478  59.0505282
  15.5569943  66.4789021  59.7548065  14.9721385  66.4001101  59.2379115
   4.5625132  67.3198935  49.8835958   5.1999079  67.0810682  50.4287751
   4.9880203  67.5236094  49.1489118   4.7201298  67.3149945  49.8553115
   5.3696487  55.8207640  63.9373431   5.0549928  56.5907202  63.6742994
   5.0486420  55.2577896  63.3525658   5.2755406  55.8517908  63.8114781
  15.9363134  66.3147862  55.2321516  15.6308952  67.0475919  55.5934831
  15.2169350  65.9085792  54.9514302  15.7850477  66.3629595  55.2434653
   6.9446604  67.7971357  51.5629744   7.0185612  67.6346529  52.4171594
   7.7616110  67.9861547  51.3190226   7.0762962  67.8008100  51.6527770
  21.6364927  62.9540863  54.5589860  21.5689427  62.9736822  53.6892447
  21.6220589  63.7971190  54.7845531  21.6243683  63.0814597  54.4642337
   2.9228384  54.2098161  49.5519628   2.0550810  54.2820761  49.6177237
   3.2103589  55.0120240  49.7407603   2.8368132  54.3392308  49.5894394
  12.0461273  54.3576020  57.8830949  12.7914865  54.1685831  57.4694375
  11.6298578  54.8834258  57.3244806  12.0946247  54.4078166  57.7395523
  19.4223544  61.7285249  52.8336454  19.9731465  61.0953318  53.0733547
  19.4067659  62.2600642  53.5251959  19.5008740  61.7134197  52.9715313
   6.0745935  65.5623846  57.3796348   5.5757628  66.2739614  57.4581236
   6.8846159  65.8824513  57.3414510   6.1202041  65.7150695  57.3852916
   2.3374052  64.8246799  51.6259069   2.0487301  64.1984271  52.1604796
   3.2057400  64.7667087  51.6923749   2.4234304  64.7234343  51.7150023
  13.1251950  59.9681583  51.9441051  12.7816716  59.2471918  52.2948300
  13.2244993  59.7595434  51.1019409  13.0893993  59.8305786  51.8712731
   2.5406326  66.4642050  47.5501434   3.2952294  66.8455089  47.7636896
   1.9476938  66.9153194  48.0048130   2.5643039  66.5870878  47.6484312
  13.5864979  66.4307287  47.4865039  14.1523012  67.0900497  47.4023582
  12.9392883  66.7756985  47.9581441  13.5743736  66.5789228  47.5437795
   5.0012993  58.4204891  62.6758646   4.1912769  58.7262670  62.5648488
   5.4787679  59.1410473  62.7911230   4.9516472  58.5719492  62.6765717
   3.8604552  67.6350612  52.9241549   3.3385306  67.7750903  53.6093414
   4.2478573  66.8761276  53.1143667   3.8408253  67.5436135  53.0542626
   0.8495736  57.6856420  46.9936504   0.5620532  57.3157691  46.2568451
   1.5366205  58.1551276  46.7320209   0.9084634  57.7003390  46.8451580
  10.0571557  69.3746071  46.9102118   9.8158233  68.6413932  46.5029183
  10.2372890  69.9232928  46.2568451  10.0479181  69.3468462  46.7532341
   5.2870878  64.6654631  48.3223040   5.0913661  65.2729365  47.7283343
   5.5105224  63.9722575  47.8414714   5.2905519  64.6532156  48.1639121
   3.6849408  61.5509369  48.4403909   4.4072060  61.7150527  47.9807715
   3.2057401  62.2719033  48.3343248   3.7213139  61.6807598  48.3569523
  11.6442916  57.8873167  53.8200594  10.8054016  57.9134446  53.5838857
  11.7147283  58.5343903  54.4005940  11.5311309  57.9869293  53.8709710
  10.0912194  54.7858544  48.5528209  10.7938547  54.5866293  48.0748168
   9.8256383  54.0134487  48.8597053  10.1558826  54.6421510  48.5273651
  15.5200439  63.0941154  51.1061835  15.4334414  63.2496580  51.9596614
  15.0650919  63.7379230  50.7321240  15.4403696  63.2116909  51.1768942
   4.8540750  56.0493830  57.6059090   4.6623947  56.0648964  58.4558514
   5.7039346  56.2457504  57.5825745   4.9516472  56.0808181  57.7282385
   9.3926255  60.4151901  49.7287395   9.1460970  60.3347652  50.5624184
   9.7211379  59.6305369  49.5349922   9.4047499  60.2878167  49.8234918
  13.2874304  67.1235261  53.5174176  13.1488664  67.8216306  54.0222918
  12.5074302  66.9683917  53.1610358  13.1517531  67.2035427  53.5400450
  11.6252389  63.4231636  59.7696558  11.6200428  62.5511452  59.7738984
  12.3313383  63.6219805  59.2966013  11.7297393  63.3235510  59.7003593
   5.3523283  63.1508620  59.1410378   5.4966658  63.7309828  58.5053488
   5.6998931  63.5284917  59.8460232   5.4250744  63.2929324  59.1509373
   7.5243200  62.3498788  56.9235509   6.7766514  62.5429803  56.5183788
   7.6784725  61.5244008  56.6859631   7.4365628  62.2563900  56.8280915
  14.7827677  66.4813514  44.2790675  14.4034486  65.6950652  44.2719965
  14.1193923  67.0300371  44.1362319  14.6286152  66.4458338  44.2571472
   7.7644977  56.2449339  57.8130913   8.2217591  56.9773313  57.9403705
   7.8401306  55.8215804  58.5718169   7.8435947  56.2906577  57.9431990
  12.2372303  49.4239214  51.6824756  12.3555871  49.8815677  50.9492059
  12.0634479  48.6184475  51.3960974  12.2291474  49.3732986  51.5325690
   5.6427355  58.2351443  54.6572737   4.8523430  58.0542903  54.9790073
   6.0387978  57.4578395  54.6403032   5.5844231  58.0938904  54.7025286
  10.1293246  67.0639217  40.0979451  10.8966231  67.1239342  39.6885303
   9.6824555  66.4919659  39.6135769  10.1766673  66.9875793  39.9657161
  11.0271041  65.8693873  52.3832183  10.3516043  65.6379105  52.8845570
  11.0363417  65.2615056  51.7574288  10.9289546  65.7452798  52.3648335
   8.1565185  60.7111702  59.1396236   8.0924327  61.5721658  59.0116373
   8.2962373  60.3943695  58.3391787   8.1680655  60.7911869  59.0024449
  13.0287776  68.7259005  44.6142361  13.1107613  69.5325992  44.2903812
  13.5137518  68.7454965  45.3383135  13.1124934  68.8479668  44.6729260
   6.8384279  63.4043841  53.2812439   6.4146528  63.6048340  52.5451457
   6.6629134  62.5572689  53.3936739   6.7495160  63.3092623  53.1886129
   2.1266724  63.8995893  48.7140412   2.2831343  63.8342696  49.5696404
   2.4667317  64.6744445  48.5019091   2.1999959  64.0045091  48.8095006
   8.6645869  63.2753776  47.5833775   9.2061414  62.7724157  48.0472395
   8.9792428  63.2218971  46.7723260   8.7910266  63.1933197  47.5317587
  12.5362976  67.4856424  64.6960687  13.3497841  67.2141573  64.8565819
  12.3757943  67.1863964  63.8920883  12.6332925  67.4011350  64.6006093
   6.8332319  68.6671128  44.8673803   6.9025139  67.8085666  45.0066803
   7.6120774  68.8843009  44.5392827   6.9585169  68.5723992  44.8390960
   9.8135138  58.1690081  57.6356075  10.0277108  57.5300995  57.0819429
   9.1969037  58.6135905  57.2063937   9.7540467  58.1400225  57.4906506
  11.9774226  59.7779146  58.5739382  11.1650908  59.4705036  58.6552555
  12.4364161  59.2978146  59.1382095  11.9254611  59.6615638  58.6693977
  11.3879481  67.6558818  49.0216327  11.0294136  67.8273461  49.7980359
  10.9018192  68.1172024  48.4644325  11.2638178  67.7497789  49.0541596
   9.2049867  51.2790017  52.6243418   8.3343425  51.2528738  52.5776728
   9.4590208  51.1067209  51.8069264   9.1143427  51.2500160  52.4963555
   6.1767846  63.3357983  41.5616561   6.4660371  64.1122866  41.8360135
   6.2639645  62.8246715  42.2631060   6.2322103  63.3749902  41.7059059
   9.0727734  61.1839217  63.3568085   9.5427365  61.8081334  63.7435959
   9.1189614  60.5156193  63.9161299   9.1495610  61.1773898  63.4968156
   6.2299007  53.2896245  54.0816888   5.7137496  52.5976436  54.2068467
   5.6692936  53.9567022  54.0279487   6.0705521  53.2859503  54.0922954
   8.2991241  53.8289205  55.9109741   7.9122994  53.8538236  56.6923271
   7.8124178  53.2630884  55.4584258   8.1703750  53.7484956  55.9597645
  12.5484220  68.5462714  59.9683528  13.1863941  68.0522910  59.6345984
  11.9058312  68.4740114  59.3835754  12.5478447  68.4621722  59.8325883
  14.2741220  60.3951860  54.5349443  13.8468828  60.3078209  53.7797543
  13.6367273  60.5029635  55.1204287  14.1170828  60.3984520  54.5094885
   7.9648383  50.7156190  58.2020001   8.5941500  51.2516491  57.9241071
   8.1334245  50.6233549  59.0533567   8.0826177  50.7817553  58.2868529
   7.7662297  55.5027385  60.4746413   8.5935727  55.2312534  60.5305027
   7.7870143  56.2988227  60.8310231   7.8915147  55.5807139  60.5361595
  12.6038477  69.2382522  56.6088884  13.3930855  68.8871587  56.7290966
  12.7782075  70.0518911  56.3465518  12.7458758  69.3068379  56.5876752
   2.3431787  62.6491248  53.6616673   1.5019794  62.5495122  53.8695567
   2.5521795  63.4186728  54.0130994   2.2496480  62.7483291  53.7443988
  11.4572301  53.2492079  51.1705303  11.6621894  53.1814387  52.0162300
  11.1298725  54.0550900  51.1026480  11.4387549  53.3578019  51.2864958
   6.1548452  60.5772647  52.9114271   5.8511590  60.0228635  53.5124678
   5.4527873  60.7564857  52.4242305   6.0064662  60.5217430  52.9283976
   5.2114549  57.8873167  47.4758973   5.4874284  57.1692080  47.0636540
   5.8113219  58.4858087  47.2680079   5.3407814  57.8693538  47.3839734
  14.7105989  53.8023843  50.6508068  14.0980302  54.2894245  51.0361800
  14.8070164  53.1267334  51.1945719  14.6343886  53.7742152  50.7886926
   8.7125070  55.5586684  45.7505568   9.1668816  55.7297245  46.4753412
   9.1865115  54.9454795  45.3503343   8.8493390  55.4937570  45.7979329
   2.2340595  65.0435010  55.0808306   1.6428528  65.6844508  55.0511321
   2.9961619  65.4672628  55.0539606   2.2588856  65.2010849  55.0723453
   2.6301218  56.2037008  55.7476324   3.0902699  56.2775937  56.4851447
   2.6757325  57.0018262  55.3976145   2.7051773  56.3331155  55.8049080
   4.2784568  56.8703703  60.3148351   3.8870133  56.2237050  60.7504129
   4.4470430  57.4615138  60.9342606   4.2455478  56.8617971  60.4711057
  18.3531017  64.8740780  56.0785584  18.4114140  65.3227429  56.8245561
  17.7197484  65.2839593  55.6415664  18.2682312  65.0014515  56.1238133
  11.9930111  70.4944322  52.5140330  11.7949800  70.9835136  51.8196542
  11.3717822  70.6985563  53.0924464  11.8717676  70.5960860  52.4963554
   6.0538090  62.2629219  46.8550575   6.7980135  62.6503495  47.0933525
   6.1998786  61.4186644  47.0191063   6.1848675  62.1959692  46.9144544
   7.9717665  54.0579478  51.8882436   7.1253710  54.2302285  51.7623786
   7.9688798  53.2528821  52.2248265   7.8464815  53.9640507  51.9193563
   9.0415966  57.8354692  52.7544494   8.5675920  57.3096454  53.2649805
   9.4134101  57.2884165  52.1859356   9.0265854  57.6770689  52.7459641
  15.3052696  62.8957068  54.1651275  15.0650919  62.0563483  54.1693701
  15.7844703  62.9757234  54.8892048  15.3404880  62.7838467  54.2726077
  10.9699465  58.7291247  45.8170248  10.4422484  58.8119991  45.1275957
  11.4295173  59.4709118  45.8134893  10.9601316  58.8511909  45.7144943
  17.3057883  59.6758525  52.1180534  17.0667653  59.6354359  51.2801318
  17.4691784  60.5229677  52.2446255  17.2948187  59.7950610  52.0134016
  13.9103913  64.0608474  58.0485579  14.6338112  63.6081001  57.8696599
  13.6453876  64.3413140  57.2657907  13.9785187  64.0359443  57.9064294
   2.7790782  58.6568648  54.7838458   2.1543852  58.6687040  54.1764411
   2.4436377  59.1328823  55.4329698   2.6376274  58.7287165  54.7895027
   2.9632530  56.9993766  40.8411143   2.6145335  57.6513491  41.3042692
   2.4828976  56.9850879  40.1135014   2.8402774  57.0936820  40.8022234
  10.5236548  67.2994810  44.9479905  11.2470747  67.7652923  44.8044478
  10.0837139  67.3668420  44.1977502  10.5652240  67.3778647  44.8164686
   9.6922703  64.1592352  56.1980594   9.0779696  63.6150403  56.4929229
  10.2089988  63.6456589  55.7186410   9.6778365  64.0028761  56.1704822
   8.9319000  65.2296622  53.9324893   8.5046608  64.6046341  53.4990328
   8.9243944  64.9471544  54.7583900   8.8678141  65.0949403  53.9904720
   2.0481527  60.2661795  57.0013327   2.2075014  59.5105120  57.4065048
   1.8674421  60.8152735  57.6554064   2.0446886  60.2355609  57.1576033
   9.9901830  52.4323031  57.5564116   9.4942391  52.6286705  56.8655683
  10.7470892  52.8315699  57.3852918  10.0288655  52.5200765  57.4284253
   7.2604710  56.1065377  54.1467427   7.2847197  55.5725489  53.4580207
   7.5116183  55.5982686  54.8093017   7.3014628  55.9526281  54.1432071
   3.5406032  54.8336195  53.5273171   3.5804403  55.3345402  54.2407878
   2.7155697  54.9246589  53.2579094   3.4245558  54.9218012  53.5923709
   4.9620395  61.3496705  55.8247070   4.1312325  61.5170523  55.6182318
   4.9071912  60.9732656  56.6095955   4.8309810  61.3186436  55.9095598
   2.7704178  54.8405598  61.4603481   3.3956882  54.2967731  61.7332913
   2.3154658  54.3600516  60.8911271   2.7952439  54.6895079  61.4165074
   3.3356439  59.6252297  46.3537188   3.4759400  60.1224761  47.0565829
   3.8338972  58.9238591  46.4951401   3.4297520  59.5954275  46.4788767
   3.3656661  60.4919408  43.6829764   4.0001741  61.0879833  43.6179226
   3.4482272  60.1922865  44.4975635   3.4713212  60.5360316  43.7932851
  16.3439227  63.0234885  56.5516129  16.9357068  63.6632136  56.5834327
  16.7798222  62.3257922  56.8408195  16.4957658  63.0153235  56.5996961
   4.9435644  56.4233383  43.6575206   5.2651485  55.9436466  43.0034469
   5.2062588  57.2333029  43.4666018   5.0301670  56.4723281  43.5330698
   8.1732617  67.4452257  57.1774023   7.6657708  67.9988104  57.6214653
   7.8759263  67.5060547  56.3592797   8.0537502  67.5358569  57.1222479
  10.3394799  55.8105577  56.0198686  10.7649871  55.3578103  55.4082212
   9.7251792  55.2565648  56.2963473  10.3123445  55.6619553  55.9703711
   8.7789022  52.2820677  49.4289263   8.1357340  52.1318323  49.9974401
   8.4388429  52.0363022  48.6638367   8.6334099  52.2232799  49.3992278
  13.3688369  60.2380104  48.8519271  12.6979558  60.7809806  48.7232337
  14.0628119  60.7074959  48.6100966  13.3717236  60.3878375  48.7974799
  13.5316496  56.6935987  51.7609644  13.8844106  56.2665710  52.4355443
  12.6731298  56.6086831  51.8910721  13.4565941  56.6180728  51.8804655
   2.2300181  59.3243507  49.8192491   1.5112170  59.7407640  50.0865354
   2.6012543  59.8897746  49.2684129   2.1792113  59.4692788  49.7775298
  11.5299762  59.9571356  55.7094487  11.5097689  59.7754651  56.5629265
  11.5778963  60.8283374  55.6854070  11.5334403  60.0587894  55.8317781
   9.4746092  66.5458548  61.6342963   9.4341947  65.9008225  61.0488119
  10.2869410  66.4895165  61.9468375   9.5889245  66.4417515  61.5939912
   8.0046755  58.3641507  45.1565870   7.4111595  58.6858503  44.6050437
   8.0422033  57.5182602  44.9486976   7.9221145  58.2865835  45.0448642
  14.9640556  51.8154399  52.6893957  14.4571421  51.1083539  52.6215134
  15.7607990  51.4847588  52.8195033  15.0067795  51.6627550  52.6992952
  10.8804572  58.3221011  48.5867621  10.6518265  58.3453713  47.7445979
  11.1402648  57.4978478  48.7062631  10.8850760  58.2037091  48.4792818
   5.1623800  60.1755484  58.1892721   4.6502704  59.5676667  58.5477752
   4.9903297  60.8912077  58.6566697   5.0613437  60.1918784  58.3108944
   3.9349335  56.8597558  49.8821816   4.4106701  57.2214637  49.2471997
   3.4337934  57.5154025  50.1621959   3.9314694  57.0091746  49.8298557
  17.1660696  66.3319326  45.6734821  17.5494302  67.0810682  45.9032918
  16.3704809  66.5785145  45.4146810  17.1054478  66.4789020  45.6692395
   9.0392871  58.0979729  60.6294976   9.5964301  57.8693539  59.9973442
   8.7153936  58.8585395  60.3530189   9.0739281  58.1763566  60.4951473
   6.7575988  61.1847382  61.5946983   7.5087315  61.4999059  61.9086538
   6.9498565  60.9826553  60.7680905   6.8967402  61.2014764  61.5190379
   5.9775988  59.0038757  43.2495200   6.3574953  59.0218387  42.4646315
   5.2368584  59.4492746  43.1286048   5.9244825  59.0720532  43.1158768
  13.6061278  57.3120949  48.8370779  13.6055505  57.1569605  49.6955055
  13.4017458  58.1583936  48.7812164  13.5761056  57.4141569  48.9558718
  11.3302130  61.9918450  52.4906986  11.8255796  61.2741445  52.4511006
  10.5201906  61.6889248  52.3761473  11.2846024  61.8416097  52.4680712
   6.7760742  65.8416264  44.6403990   5.9672064  65.5182937  44.5937300
   7.2835651  65.1349486  44.5732239   6.7310409  65.6897580  44.6234285
  13.3953949  64.7422138  55.1784115  13.8209021  64.2196560  54.6254540
  13.0310869  65.3402975  54.6572737  13.4040552  64.7532365  55.0193124
   9.9832549  68.4556402  51.5085272  10.4543727  69.1696665  51.6775257
  10.3192727  67.8555152  52.0445141  10.1027664  68.4727866  51.6117648
   6.9002044  53.2283873  58.4643367   7.0329949  52.4314866  58.7924342
   7.2847196  53.7550276  59.0441642   6.9758372  53.1883789  58.5986870
  10.6206495  68.2474336  58.2712965  10.0727441  67.6232220  58.0033030
  11.0819524  68.4368608  57.5557044  10.6073704  68.1833387  58.1263396
   9.9734399  50.1514199  55.0624460   9.1680362  50.0411929  55.3792298
   9.8441134  50.2526655  54.2054326   9.8354532  50.1497869  54.9832500
  13.4300359  56.3159691  55.6564157  12.8463348  56.8168897  55.2441724
  13.7504653  55.8089247  55.0228480  13.3913535  56.3151526  55.5022664
   5.9695158  55.2300286  45.9322832   6.7910853  55.3998599  45.6904527
   5.5064809  55.3847547  45.2089129   6.0226321  55.2782019  45.7894476
   4.5590490  53.2243048  56.7121261   5.1034903  52.8834175  57.3025602
   4.6127426  54.0828509  56.8542545   4.6479610  53.2998307  56.8203134
  10.1864821  69.2525409  54.8022306  11.0063195  69.1088375  55.0638601
   9.9058899  69.8771608  55.3438744  10.2661565  69.3235761  54.9210245
  16.5853943  70.8444977  51.4908496  16.2557273  71.2956121  50.8212194
  15.9098945  70.7661141  52.0381502  16.4364380  70.8996113  51.4731719
  23.7930351  66.8330500  49.7358106  23.4783792  67.5233979  50.1678529
  23.2757293  66.7775283  49.0343607  23.6694821  66.9265389  49.6955056
  14.7909897  68.9057266  46.9731443  15.5455865  69.2735583  46.7348494
  14.6137432  69.2796820  47.7410623  14.8764376  69.0155454  47.0516332
  28.0844796  75.0551706  55.0178983  27.2473217  75.1253893  55.2526577
  28.0533027  75.0576201  54.1453285  27.9563078  75.0661933  54.9238531
  13.1466962  71.3127585  43.6709556  12.9642535  71.5299466  42.8450549
  14.0092575  71.4266598  43.7268171  13.2471551  71.3617483  43.5564044
  18.8266681  68.3153996  46.7058580  19.5552842  68.1369950  46.2596737
  18.9161574  69.1572075  46.9165758  18.9473343  68.4137874  46.6712098
  25.7652636  70.1194488  53.6022705  26.4078544  70.1892593  54.1884620
  26.0175657  69.4523711  53.1002247  25.8974768  70.0320837  53.6149984
  21.0003918  71.2131459  51.3133658  20.2960245  70.7240645  51.4717577
  21.0488893  71.2253934  50.4422103  20.9033970  71.1421107  51.2072998
  28.2034138  74.8939125  49.3334669  27.9470703  74.0819067  49.1432551
  29.0463452  74.9016692  49.1064856  28.2900164  74.7751123  49.2719486
  22.3837231  68.8338749  54.0710823  22.7647742  68.1516920  54.4578697
  21.5800515  68.5448351  53.8886487  22.3213692  68.6905798  54.1014879
  16.3429071  71.3392948  63.9373431  16.0282512  72.1092510  63.6742994
  16.0219004  70.7763204  63.3525658  16.2487990  71.3703216  63.8114781
  13.8960968  69.7283469  49.5519628  13.0283393  69.8006069  49.6177237
  14.1836172  70.5305548  49.7407603  13.8100716  69.8577616  49.5894394
  23.0193857  69.8761328  57.8830949  23.7647449  69.6871139  57.4694375
  22.6031161  70.4019566  57.3244806  23.0678831  69.9263474  57.7395523
  30.3956128  77.2470557  52.8336454  30.9464049  76.6138626  53.0733547
  30.3800243  77.7785950  53.5251959  30.4741324  77.2319505  52.9715313
  24.0984534  75.4866891  51.9441051  23.7549300  74.7657226  52.2948300
  24.1977576  75.2780742  51.1019409  24.0626577  75.3491094  51.8712731
  22.6175499  73.4058475  53.8200594  21.7786600  73.4319754  53.5838857
  22.6879866  74.0529211  54.4005940  22.5043893  73.5054601  53.8709710
  21.0644777  70.3043852  48.5528209  21.7671130  70.1051601  48.0748168
  20.7988966  69.5319795  48.8597053  21.1291410  70.1606818  48.5273651
  15.8273334  71.5679138  57.6059090  15.6356531  71.5834272  58.4558514
  16.6771930  71.7642812  57.5825745  15.9249056  71.5993489  57.7282385
  18.7377561  71.7634647  57.8130913  19.1950175  72.4958621  57.9403705
  18.8133889  71.3401112  58.5718169  18.8168531  71.8091885  57.9431990
  23.2104887  64.9424522  51.6824756  23.3288455  65.4000985  50.9492059
  23.0367062  64.1369783  51.3960974  23.2024058  64.8918294  51.5325690
  20.7867722  73.6875389  57.6356075  21.0009691  73.0486303  57.0819429
  20.1701621  74.1321213  57.2063937  20.7273051  73.6585532  57.4906506
  22.9506810  75.2964454  58.5739382  22.1383491  74.9890344  58.6552555
  23.4096744  74.8163454  59.1382095  22.8987195  75.1800946  58.6693977
  20.1782450  66.7975324  52.6243418  19.3076008  66.7714046  52.5776728
  20.4322792  66.6252517  51.8069264  20.0876010  66.7685468  52.4963555
  17.2031591  68.8081553  54.0816888  16.6870079  68.1161744  54.2068467
  16.6425520  69.4752330  54.0279487  17.0438104  68.8044811  54.0922954
  19.2723824  69.3474513  55.9109741  18.8855577  69.3723544  56.6923271
  18.7856762  68.7816192  55.4584258  19.1436333  69.2670264  55.9597645
  18.9380966  66.2341498  58.2020001  19.5674084  66.7701798  57.9241071
  19.1066829  66.1418857  59.0533567  19.0558761  66.3002861  58.2868529
  18.7394881  71.0212693  60.4746413  19.5668310  70.7497842  60.5305027
  18.7602727  71.8173535  60.8310231  18.8647731  71.0992447  60.5361595
  22.4304885  68.7677387  51.1705303  22.6354478  68.6999695  52.0162300
  22.1031309  69.5736208  51.1026480  22.4120132  68.8763327  51.2864958
  25.6838572  69.3209151  50.6508068  25.0712886  69.8079553  51.0361800
  25.7802747  68.6452642  51.1945719  25.6076470  69.2927460  50.7886926
  19.6857653  71.0771992  45.7505568  20.1401400  71.2482553  46.4753412
  20.1597699  70.4640103  45.3503343  19.8225973  71.0122878  45.7979329
  18.9450249  69.5764786  51.8882436  18.0986294  69.7487593  51.7623786
  18.9421381  68.7714129  52.2248265  18.8197399  69.4825814  51.9193563
  20.0148549  73.3540000  52.7544494  19.5408503  72.8281762  53.2649805
  20.3866685  72.8069473  52.1859356  19.9998438  73.1955997  52.7459641
  21.9432049  74.2476555  45.8170248  21.4155067  74.3305299  45.1275957
  22.4027757  74.9894426  45.8134893  21.9333899  74.3697217  45.7144943
  28.2790467  75.1943833  52.1180534  28.0400237  75.1539667  51.2801318
  28.4424368  76.0414985  52.2446255  28.2680770  75.3135918  52.0134016
  20.9634414  67.9508339  57.5564116  20.4674975  68.1472013  56.8655683
  21.7203476  68.3501007  57.3852918  21.0021238  68.0386073  57.4284253
  18.2337293  71.6250685  54.1467427  18.2579780  71.0910797  53.4580207
  18.4848767  71.1167994  54.8093017  18.2747212  71.4711589  54.1432071
  14.5138615  70.3521503  53.5273171  14.5536987  70.8530710  54.2407878
  13.6888280  70.4431897  53.2579094  14.3978141  70.4403319  53.5923709
  13.7436762  70.3590906  61.4603481  14.3689465  69.8153039  61.7332913
  13.2887242  69.8785823  60.8911271  13.7685023  70.2080387  61.4165074
  15.9168228  71.9418691  43.6575206  16.2384069  71.4621773  43.0034469
  16.1795172  72.7518337  43.4666018  16.0034253  71.9908589  43.5330698
  21.3127383  71.3290885  56.0198686  21.7382454  70.8763411  55.4082212
  20.6984376  70.7750956  56.2963473  21.2856028  71.1804861  55.9703711
  19.7521606  67.8005985  49.4289263  19.1089924  67.6503631  49.9974401
  19.4121013  67.5548330  48.6638367  19.6066683  67.7418107  49.3992278
  24.5049080  72.2121295  51.7609644  24.8576690  71.7851018  52.4355443
  23.6463881  72.1272139  51.8910721  24.4298524  72.1366036  51.8804655
  25.9373140  67.3339707  52.6893957  25.4304004  66.6268847  52.6215134
  26.7340573  67.0032896  52.8195033  25.9800379  67.1812858  52.6992952
  21.8537156  73.8406319  48.5867621  21.6250849  73.8639021  47.7445979
  22.1135232  73.0163786  48.7062631  21.8583344  73.7222399  48.4792818
  24.5793862  72.8306257  48.8370779  24.5788088  72.6754913  49.6955055
  24.3750042  73.6769244  48.7812164  24.5493640  72.9326877  48.9558718
  17.8734627  68.7469181  58.4643367  18.0062533  67.9500174  58.7924342
  18.2579780  69.2735584  59.0441642  17.9490956  68.7069097  58.5986870
  20.9466982  65.6699507  55.0624460  20.1412946  65.5597236  55.3792298
  20.8173718  65.7711963  54.2054326  20.8087115  65.6683177  54.9832500
  24.4032943  71.8344999  55.6564157  23.8195932  72.3354205  55.2441724
  24.7237237  71.3274555  55.0228480  24.3646118  71.8336834  55.5022664
  16.9427742  70.7485594  45.9322832  17.7643436  70.9183906  45.6904527
  16.4797393  70.9032855  45.2089129  16.9958904  70.7967327  45.7894476
  15.5323074  68.7428356  56.7121261  16.0767487  68.4019483  57.3025602
  15.5860010  69.6013817  56.8542545  15.6212193  68.8183615  56.8203134
   4.4064128  22.8097776  34.7005229   4.3758133  23.6642413  34.8723498
   5.0045477  22.5093069  35.2591373   4.4901286  22.8914273  34.8080031
   0.9157530  28.1659953  49.0618616   1.6224297  27.6711983  49.1905550
   1.1045465  28.6069034  48.3321274   1.0485435  28.1578303  48.9727661
   2.2280703  25.3850078  32.9723539   2.1120229  26.1357764  33.4015677
   3.0236590  25.1274031  33.2219626   2.3285292  25.4584925  33.0727630
   1.5416008  12.7338016  36.6698153   1.2269449  13.4241494  37.1018576
   1.0242949  12.6782798  35.9683654   1.4180478  12.8272904  36.6295102
   6.3376495  28.3088821  38.1568608   5.5074198  28.5199465  38.3202025
   6.2885747  27.4825876  37.8810892   6.2083230  28.2178427  38.1405974
   5.8330453  20.9559222  41.9519030   4.9958874  21.0261409  42.1866624
   5.8018684  20.9583716  41.0793332   5.7048735  20.9669449  41.8578578
   0.5560639  25.1514898  37.5430921   1.3118154  25.5846413  37.5819830
   0.6622963  24.5019668  38.1165557   0.6830809  25.1192382  37.6328947
   3.5940810  28.9788175  38.2933324   3.1576042  28.9824918  39.0492295
   3.2603725  29.6593674  37.8612902   3.4803430  29.0800631  38.3414157
   3.5138293  16.0202003  40.5362752   4.1564201  16.0900108  41.1224667
   3.7661313  15.3531226  40.0342294   3.6460425  15.9328352  40.5490031
   6.7285156  25.6969095  37.1852961   7.3901590  25.1359764  37.0848870
   6.0876568  25.2021126  37.5105652   6.7314023  25.5405504  37.2185301
   3.0149987  26.7134478  36.9264950   3.2505576  26.8579677  36.0991801
   3.1639550  27.4776886  37.3196464   3.0715790  26.8473532  36.8628554
   4.8440443  25.5536144  34.7634554   5.1748661  26.0863784  34.1574649
   5.4173532  25.6075031  35.4196505   4.9774123  25.6405713  34.7712336
   5.9519795  20.7946641  36.2674716   5.6956360  19.9826582  36.0772598
   6.7949109  20.8024208  36.0404903   6.0385820  20.6758638  36.2059533
   3.6344954  27.9496237  46.1033268   3.3983592  27.1184301  45.9845329
   4.2788183  27.8981844  46.6888112   3.6939625  27.8193925  46.1719162
   4.6581375  27.7340685  42.1661563   4.3527192  28.4668742  42.5274878
   3.9387591  27.3278615  41.8854349   4.5068717  27.7822418  42.1774700
  10.3583167  24.3733686  41.4929907  10.2907667  24.3929645  40.6232493
  10.3438829  25.2164013  41.7185577  10.3461923  24.5007421  41.3982384
   8.1441784  23.1478072  39.7676501   8.6949706  22.5146141  40.0073593
   8.1285900  23.6793465  40.4592006   8.2226981  23.1327020  39.9055359
   1.8470191  21.3874406  38.8781097   1.5034956  20.6664741  39.2288347
   1.9463233  21.1788257  38.0359456   1.8112233  21.2498609  38.8052777
   2.3083220  27.8500110  34.4205086   2.8741252  28.5093320  34.3363629
   1.6611123  28.1949808  34.8921488   2.2961976  27.9982051  34.4777842
   4.2418680  24.5133977  38.0401882   4.1552654  24.6689403  38.8936661
   3.7869160  25.1572053  37.6661287   4.1621936  24.6309733  38.1108989
   2.0092545  28.5428084  40.4514223   1.8706904  29.2409130  40.9562965
   1.2292543  28.3876740  40.0950405   1.8735772  28.6228251  40.4740497
   3.5045917  27.9006338  31.2130722   3.1252726  27.1143476  31.2060011
   2.8412163  28.4493195  31.0702366   3.3504392  27.8651162  31.1911519
   1.7506016  30.1451829  31.5482408   1.8325854  30.9518815  31.2243859
   2.2355758  30.1647788  32.2723181   1.8343174  30.2672491  31.6069307
   1.2581217  28.9049247  51.6300734   2.0716082  28.6334396  51.7905866
   1.0976183  28.6056787  50.8260930   1.3551165  28.8204173  51.5346140
   1.2702461  29.9655537  46.9023574   1.9082181  29.4715733  46.5686030
   0.6276552  29.8932938  46.3175801   1.2696687  29.8814546  46.7665929
   2.9959461  21.8144683  41.4689490   2.5687069  21.7271032  40.7137590
   2.3585514  21.9222459  42.0544334   2.8389068  21.8177343  41.4434932
   1.3256717  30.6575346  43.5428931   2.1149095  30.3064410  43.6631013
   1.5000315  31.4711734  43.2805565   1.4676999  30.7261203  43.5216799
   3.4324229  15.2216666  37.5848115   2.8198543  15.7087069  37.9701847
   3.5288404  14.5460157  38.1285766   3.3562127  15.1934975  37.7226973
   7.0749257  26.2933603  43.0125631   7.1332381  26.7420252  43.7585608
   6.4415725  26.7032416  42.5755711   6.9900552  26.4207338  43.0578179
   4.0270936  24.3149891  41.0991321   3.7869159  23.4756306  41.1033748
   4.5062944  24.3950058  41.8232095   4.0623120  24.2031291  41.2066124
   6.0276124  21.0951348  39.0520581   5.7885893  21.0547182  38.2141365
   6.1910025  21.9422500  39.1786302   6.0166427  21.2143433  38.9474063
   2.6322154  25.4801297  44.9825626   3.3556353  25.0273824  44.8036646
   2.3672116  25.7605963  44.1997954   2.7003427  25.4552266  44.8404341
   5.0657468  24.4427708  43.4856175   5.6575308  25.0824959  43.5174373
   5.5016462  23.7450745  43.7748242   5.2175899  24.4346059  43.5337008
   2.0906609  21.6572927  35.7859318   1.4197799  22.2002629  35.6572383
   2.7846359  22.1267782  35.5441013   2.0935476  21.8071198  35.7314846
   2.2534736  18.1128810  38.6949691   2.6062347  17.6858533  39.3695490
   1.3949538  18.0279654  38.8250768   2.1784181  18.0373551  38.8144702
   3.6858797  13.2347222  39.6234004   3.1789661  12.5276362  39.5555181
   4.4826230  12.9040411  39.7535080   3.7286036  13.0820374  39.6332999
   5.8878936  27.7512149  32.6074868   6.2712542  28.5003505  32.8372965
   5.0923050  27.9977969  32.3486857   5.8272719  27.8981843  32.6032442
   2.3279519  18.7313772  35.7710826   2.3273745  18.5762428  36.6295102
   2.1235699  19.5776759  35.7152211   2.2979296  18.8334393  35.8898765
   2.1172189  26.1614961  42.1124161   2.5427261  25.6389383  41.5594586
   1.7529109  26.7595799  41.5912784   2.1258792  26.1725188  41.9533171
   0.7927774  31.4850539  50.6217391   0.9024739  30.6959099  50.9774138
   1.1218670  31.3956475  49.8191729   0.8580179  31.3556392  50.5559782
   2.1518600  17.7352514  42.5904204   1.5681588  18.2361721  42.1781771
   2.4722894  17.2282070  41.9568527   2.1131775  17.7344349  42.4362711
  15.3796712  38.3283084  34.7005229  15.3490716  39.1827721  34.8723498
  15.9778061  38.0278377  35.2591373  15.4633870  38.4099581  34.8080031
   8.5796397  37.4158735  39.4558159   7.7234292  37.5767233  39.5067276
   8.6264051  36.5450799  39.4763220   8.4595508  37.3109537  39.4664225
   2.9637537  46.9521453  35.2195391   2.2120436  46.5736991  34.9911436
   3.4123548  46.9839886  34.4714201   2.9187203  46.9007060  35.0752893
  11.8890113  43.6845261  49.0618616  12.5956881  43.1897291  49.1905550
  12.0778049  44.1254342  48.3321274  12.0218019  43.6763611  48.9727661
   8.4162496  47.3746822  30.6480938   8.0813865  48.0523744  30.2125160
   8.9289367  46.9852134  30.0597810   8.4428077  47.4171401  30.4967730
   7.9566788  49.3261091  36.5892050   8.3406167  49.8947990  36.0496825
   7.8925929  48.6010601  36.1097866   8.0040215  49.3036554  36.4385912
  11.4248218  39.4750779  42.0989811  11.9704178  40.1535866  42.1583781
  11.3665094  39.3338240  41.2391393  11.4964132  39.5542781  41.9801872
   4.5422293  46.9639845  37.4858163   4.6432656  46.1540199  37.7955291
   3.9464038  46.8696791  36.8557842   4.4694831  46.8304873  37.4384402
  13.2013286  40.9035386  32.9723539  13.0852812  41.6543072  33.4015677
  13.9969173  40.6459339  33.2219626  13.3017876  40.9770233  33.0727630
   4.3823032  51.8817434  38.8873020   5.0260488  52.3230598  39.2769178
   4.7079288  51.0770860  38.8003278   4.5254861  51.8282629  38.9318497
   5.0843612  44.8929409  34.2592881   5.4059453  45.4334616  33.6554189
   5.7315708  44.3226180  34.3915171   5.2269667  44.8888584  34.1899917
   7.1345320  36.8945404  34.3427268   7.8325485  37.0733532  34.8348731
   7.4497653  36.3715743  33.7197657   7.2840657  36.8439176  34.3229278
   7.3233255  43.2815849  34.3307059   7.7626891  42.6732950  34.7761832
   7.1737918  42.9023222  33.5592524   7.3654721  43.1354320  34.2826227
   4.7904898  41.8759861  41.5325885   5.4353901  41.3832304  41.2136833
   5.0306675  42.0184647  42.3591963   4.9215484  41.8237303  41.6075418
   7.3290990  44.7214767  41.1832777   7.6114233  43.9266172  40.9619533
   8.0577150  45.1995354  41.2037838   7.4780553  44.6749364  41.1535793
   5.3072184  32.2637801  38.4248543   4.9775514  32.7148944  37.7552241
   4.6317185  32.1853964  38.9721549   5.1582620  32.3188936  38.4071766
  10.9242592  41.6343030  31.2837829  10.8393887  42.4903997  31.4287397
  11.4126975  41.3587354  31.9519988  10.9831489  41.7200352  31.4039910
  12.5148591  28.2523324  36.6698153  12.2002032  28.9426802  37.1018576
  11.9975533  28.1968106  35.9683654  12.3913062  28.3458212  36.6295102
  11.8561025  38.2527825  32.7835564  11.3272497  38.4687458  33.4432870
  12.3786045  38.9463963  32.7036533  11.8549478  38.3870961  32.8691163
  17.3109078  43.8274129  38.1568608  16.4806781  44.0384773  38.3202025
  17.2618330  43.0011184  37.8810892  17.1815814  43.7363735  38.1405974
   3.7460633  42.1491041  31.5843032   3.1617848  42.6541073  31.9908896
   3.3430728  41.9233428  30.8439624   3.5999937  42.1899290  31.5348057
   5.3718816  46.6577983  40.9916518   4.8545757  46.2985398  40.3877826
   6.0693207  46.1340158  41.0022584   5.3984397  46.5275671  40.9046776
   9.0282408  47.1072797  46.9532691   9.1165754  46.9198938  47.8010901
   9.4572120  46.4610227  46.5537538   9.1044510  46.9835805  47.0204442
   6.5952867  46.3903957  45.9350353   6.0323702  45.9776567  46.4590014
   7.3573891  46.3156863  46.3543496   6.6247316  46.3181358  46.0743353
   8.2037847  38.3956693  30.0611952   8.4433851  38.6034677  29.2487295
   8.5253688  37.5914202  30.1700897   8.2875005  38.3070795  29.9572505
   3.5128138  30.3250089  33.9071490   4.2674106  30.6928406  33.6688540
   3.3355672  30.6989643  34.6750670   3.5982616  30.4348277  33.9856379
   2.1548859  48.3801978  38.5386983   2.8569438  47.8653967  38.5959740
   2.0746342  48.7076130  39.3433858   2.2472619  48.3516205  38.6659775
  16.8063036  36.4744530  41.9519030  15.9691457  36.5446717  42.1866624
  16.7751267  36.4769024  41.0793332  16.6781319  36.4854757  41.8578578
   3.2027765  38.6177565  47.6667398   3.3748269  38.5083460  48.5152680
   3.7397123  39.2631971  47.4298591   3.3072769  38.6969567  47.7572495
   1.8685202  32.7320408  30.6049603   1.6860776  32.9492289  29.7790596
   2.7310815  32.8459421  30.6608218   1.9689792  32.7810306  30.4904090
   1.4799634  44.5708330  38.0472591   2.3188534  44.8031263  38.0946353
   1.5111403  43.7012642  37.9779627   1.6081352  44.4765277  38.0437236
   2.1052337  44.9909205  42.3485897   2.6450562  44.8480337  43.0189269
   1.4222284  45.3905956  42.7169923   2.0844491  45.0288876  42.5020318
  11.5293222  40.6700206  37.5430921  12.2850737  41.1031720  37.5819830
  11.6355547  40.0204976  38.1165557  11.6563393  40.6377690  37.6328947
  14.5673393  44.4973483  38.2933324  14.1308625  44.5010226  39.0492295
  14.2336309  45.1778982  37.8612902  14.4536013  44.5985939  38.3414157
   9.1402467  46.5381816  49.6176474   9.9242884  46.6512664  49.9832217
   8.9399061  45.7122953  49.8135160   9.2268492  46.4328536  49.7010860
  14.4870876  31.5387311  40.5362752  15.1296785  31.6085416  41.1224667
  14.7393897  30.8716534  40.0342294  14.6193008  31.4513660  40.5490031
   1.4147229  36.0094581  29.1172076   0.7005406  35.7232760  29.5294509
   1.8991198  36.3491207  29.7578464   1.3806593  36.0176230  29.2727711
   2.2588089  34.7487875  45.1487326   1.5659886  34.2784854  45.3948058
   2.8748416  34.5226179  45.7229033   2.2472619  34.6455006  45.2696479
   9.2972860  48.4491918  43.2642930   8.4988106  48.2091418  43.5216799
   9.7458872  48.5006311  44.0109978   9.2447472  48.4214309  43.4127854
   8.5894547  44.5124535  29.4933885   9.0045696  44.1809558  28.8018380
   7.7586477  44.2793437  29.3654021   8.5282556  44.4295791  29.3724732
  13.9882570  42.2319786  36.9264950  14.2238159  42.3764985  36.0991801
  14.1372134  42.9962194  37.3196464  14.0448374  42.3658840  36.8628554
   0.9828648  38.7153279  46.2914171   1.7068620  38.7006309  46.7779066
   1.0844784  39.4248634  45.7936139   1.1046857  38.8177982  46.2892958
  15.8173027  41.0721452  34.7634554  16.1481244  41.6049092  34.1574649
  16.3906115  41.1260339  35.4196505  15.9506706  41.1591020  34.7712336
   8.3573597  42.1952363  51.1563118   7.5646578  42.5095875  51.3415738
   8.4722524  42.4103832  50.3183903   8.2569008  42.2736200  51.0601453
  11.0304916  38.9186354  35.4458134  11.1251770  39.6575648  35.8997759
  10.4063760  38.4903830  35.8792699  10.9513946  38.9647675  35.5766282
   9.2857390  42.0972567  46.0948415   9.8596252  41.4599811  46.2496979
   9.2072194  42.0976649  45.2258073   9.3590625  42.0037678  45.9894826
  11.2827937  40.7635094  28.6795086  11.2008100  40.8337281  29.5450073
  11.9207658  41.3264838  28.4878827  11.3647775  40.8574065  28.7785035
   4.6421109  40.5295832  38.1469612   4.3840353  39.6967567  38.1200912
   4.6969591  40.7553445  37.3062113   4.6120886  40.4393603  38.0189749
   9.7222159  32.6324283  38.2473705   9.0178485  32.1433468  38.4057624
   9.7707133  32.6446757  37.3762149   9.6252210  32.5613931  38.1413045
   3.6155821  38.0833594  38.6334507   3.0405412  38.2425763  39.2698468
   3.2391497  37.4469004  38.1702958   3.4758633  38.0131407  38.6589065
   7.2829109  36.5556944  43.4926885   6.8943542  36.1311162  42.8379077
   6.6183808  36.8039093  44.0003912   7.1276037  36.5295665  43.4714753
  16.9252379  36.3131948  36.2674716  16.6688943  35.5011890  36.0772598
  17.7681692  36.3209516  36.0404903  17.0118404  36.1943946  36.2059533
  11.1055471  30.2531573  41.0050870  11.4865983  29.5709744  41.3918744
  10.3018755  29.9641175  40.8226534  11.0431933  30.1098621  41.0354926
   8.3868048  40.7855548  31.6903692   9.2008686  41.0770441  31.5786464
   8.3227189  40.1315411  31.1161985   8.4970787  40.7320743  31.5892530
  14.6077538  43.4681544  46.1033268  14.3716175  42.6369609  45.9845329
  15.2520767  43.4167152  46.6888112  14.6672209  43.3379232  46.1719162
   4.2575956  44.2577066  36.8176005   4.8949903  44.0188813  37.3627798
   4.6831027  44.4614225  36.0829165   4.4152122  44.2528076  36.7893162
   4.8978771  39.4779356  31.1550894   5.2823924  39.2587062  31.9067439
   4.6490391  40.3042301  31.2851970   4.9180843  39.5677502  31.2851970
   5.0647311  32.7585771  50.8713478   4.7500752  33.5285334  50.6083041
   4.7437244  32.1956027  50.2865705   4.9706230  32.7896039  50.7454828
  15.6313958  43.2525993  42.1661563  15.3259775  43.9854050  42.5274878
  14.9120174  42.8463923  41.8854349  15.4801301  43.3007726  42.1774700
   6.6397428  44.7349488  38.4969791   6.7136436  44.5724660  39.3511641
   7.4566934  44.9239678  38.2530272   6.7713786  44.7386231  38.5867816
   2.6179208  31.1476292  36.4859674   1.7501634  31.2198892  36.5517284
   2.9054413  31.9498371  36.6747650   2.5318956  31.2770439  36.5234441
  11.7412097  31.2954152  44.8170996  12.4865689  31.1063962  44.4034422
  11.3249402  31.8212390  44.2584853  11.7897071  31.3456297  44.6735570
   5.1802014  47.6984231  33.2283264   5.4700312  47.3073213  32.5042491
   5.9105494  47.8800936  33.6688539   5.3308898  47.6678045  33.1866071
   5.7696759  42.5001977  44.3136395   5.2708452  43.2117745  44.3921283
   6.5796983  42.8202644  44.2754557   5.8152865  42.6528826  44.3192963
   3.1207929  49.6751614  36.2943414   2.9008225  49.3848969  37.0870081
   2.9002451  49.0166569  35.7661326   3.0555523  49.5351322  36.3332323
   2.0324876  41.7624930  38.5599116   1.7438125  41.1362402  39.0944843
   2.9008224  41.7045218  38.6263796   2.1185128  41.6612475  38.6490070
  12.8202774  36.9059714  38.8781097  12.4767540  36.1850049  39.2288347
  12.9195817  36.6973565  38.0359456  12.7844817  36.7683917  38.8052777
   5.2875885  51.0481004  35.0774106   5.9399943  50.5157446  35.3065132
   4.5901494  50.6949656  35.4641980   5.2806603  50.9170527  35.1686274
   2.2357150  43.4020181  34.4841481   2.9903118  43.7833221  34.6976943
   1.6427762  43.8531325  34.9388177   2.2593863  43.5249009  34.5824359
  13.2815803  43.3685418  34.4205086  13.8473836  44.0278628  34.3363629
  12.6343707  43.7135116  34.8921488  13.2694560  43.5167359  34.4777842
   4.6963817  35.3583022  49.6098693   3.8863592  35.6640802  49.4988535
   5.1738503  36.0788604  49.7251277   4.6467295  35.5097623  49.6105764
   3.5555376  44.5728743  39.8581596   3.0336130  44.7129035  40.5433461
   3.9429397  43.8139407  40.0483713   3.5359077  44.4814267  39.9882673
   9.7522381  46.3124202  33.8442165   9.5109057  45.5792063  33.4369230
   9.9323714  46.8611059  33.1908498   9.7430005  46.2846593  33.6872388
   4.9821702  41.6032762  35.2563087   4.7864485  42.2107496  34.6623390
   5.2056047  40.9100706  34.7754761   4.9856343  41.5910287  35.0979168
   3.3800232  38.4887500  35.3743955   4.1022884  38.6528658  34.9147761
   2.9008225  39.2097165  35.2683295   3.4163963  38.6185729  35.2909569
  11.3393740  34.8251299  40.7540640  10.5004840  34.8512577  40.5178904
  11.4098107  35.4722034  41.3345987  11.2262133  34.9247424  40.8049757
   1.0307849  40.8945572  44.4798095   1.5428946  41.1729825  43.8306855
   0.7444191  41.6334866  44.8460908   1.0642712  41.0447926  44.4387973
   9.7863018  31.7236676  35.4868256  10.4889371  31.5244424  35.0088215
   9.5207207  30.9512618  35.7937100   9.8509650  31.5799642  35.4613698
  15.2151263  40.0319285  38.0401882  15.1285238  40.1874711  38.8936661
  14.7601743  40.6757361  37.6661287  15.1354520  40.1495040  38.1108989
   4.5491574  32.9871961  44.5399137   4.3574771  33.0027095  45.3898560
   5.3990170  33.1835635  44.5165792   4.6467296  33.0186312  44.6622432
   9.0877079  37.3530032  36.6627442   8.8411794  37.2725783  37.4964231
   9.4162202  36.5683500  36.4689969   9.0998323  37.2256298  36.7574965
  12.9825128  44.0613392  40.4514223  12.8439488  44.7594438  40.9562965
  12.2025126  43.9062048  40.0950405  12.8468355  44.1413558  40.4740497
  11.3203213  40.3609767  46.7036605  11.3151252  39.4889584  46.7079031
  12.0264207  40.5597936  46.2306060  11.4248217  40.2613641  46.6343640
   5.0474107  40.0886751  46.0750425   5.1917482  40.6687959  45.4393535
   5.3949755  40.4663048  46.7800279   5.1201568  40.2307455  46.0849420
   7.2194024  39.2876919  43.8575556   6.4717338  39.4807934  43.4523834
   7.3735549  38.4622139  43.6199678   7.1316452  39.1942031  43.7620962
   4.1201862  48.2789523  42.9411452   4.2691425  47.7192439  42.2884856
   4.9001864  48.3581525  43.3243970   4.2575955  48.2075088  42.9008401
  14.4778501  43.4191646  31.2130722  14.0985310  42.6328783  31.2060011
  13.8144746  43.9678503  31.0702366  14.3236976  43.3836470  31.1911519
   6.6455162  48.4504166  44.2195942   6.5698833  47.7812976  44.7746731
   6.5745021  49.1521954  44.7336609   6.6235769  48.4549073  44.3772790
   7.4595801  33.1827470  44.7470960   7.9168415  33.9151444  44.8743752
   7.5352130  32.7593935  45.5058216   7.5386771  33.2284708  44.8772037
  11.9323127  26.3617345  38.6164803  12.0506695  26.8193809  37.8832106
  11.7585303  25.5562607  38.3301021  11.9242298  26.3111117  38.4665737
   7.3025409  46.9705165  35.0519548   8.0675300  46.7014808  34.7302213
   7.2003499  46.4855175  35.7689611   7.4006905  46.8594729  35.1099376
   5.3378179  35.1729574  41.5912784   4.5474254  34.9921034  41.9130120
   5.7338802  34.3956527  41.5743079   5.2795055  35.0317035  41.6365332
   9.8244070  44.0017348  27.0319498  10.5917055  44.0617473  26.6225349
   9.3775379  43.4297790  26.5475816   9.8717497  43.9253924  26.8997208
  10.7221865  42.8072004  39.3172230  10.0466867  42.5757236  39.8185617
  10.7314241  42.1993187  38.6914335  10.6240370  42.6830929  39.2988382
   7.8516009  37.6489833  46.0736283   7.7875150  38.5099790  45.9456420
   7.9913197  37.3321826  45.2731834   7.8631479  37.7290000  45.9364496
  12.7238600  45.6637137  31.5482408  12.8058437  46.4704123  31.2243859
  13.2088342  45.6833096  32.2723181  12.8075758  45.7857799  31.6069307
   6.5335103  40.3421973  40.2152486   6.1097352  40.5426472  39.4791504
   6.3579958  39.4950820  40.3276786   6.4445984  40.2470754  40.1226176
   6.0346797  51.8572485  42.6773943   6.5242727  51.1583275  42.4949608
   5.4631029  51.5596355  43.2650000   6.0231327  51.7098709  42.7374984
   1.8217548  40.8374024  35.6480458   1.9782167  40.7720827  36.5036450
   2.1618141  41.6122577  35.4359138   1.8950783  40.9423222  35.7435053
   8.3596693  40.2131908  34.5173822   8.9012238  39.7102289  34.9812442
   8.6743252  40.1597102  33.7063307   8.4861090  40.1311328  34.4657634
  12.2313800  44.4234555  51.6300734  13.0448665  44.1519704  51.7905866
  12.0708766  44.1242095  50.8260930  12.3283749  44.3389481  51.5346140
   6.5283142  45.6049259  31.8013850   6.5975963  44.7463798  31.9406850
   7.3071598  45.8221140  31.4732874   6.6535993  45.5102123  31.7731007
   9.5085962  35.1068212  44.5696122   9.7227932  34.4679126  44.0159476
   8.8919861  35.5514036  44.1403984   9.4491291  35.0778356  44.4246553
  10.9190630  48.0286960  36.0150343  10.5270422  47.7253676  35.2973209
  11.0743702  48.8656050  35.8255297  10.8844220  48.1070797  35.8806840
  11.6725050  36.7157277  45.5079429  10.8601732  36.4083168  45.5892602
  12.1314985  36.2356277  46.0722141  11.6205435  36.5993770  45.6034023
  11.0830305  44.5936949  35.9556374  10.7244960  44.7651592  36.7320406
  10.5969016  45.0550155  35.3984372  10.9589002  44.6875920  35.9881643
   8.9000691  28.2168148  39.5583465   8.0294249  28.1906869  39.5116774
   9.1541032  28.0445340  38.7409311   8.8094251  28.1878291  39.4303602
   5.8718670  40.2736115  28.4956608   6.1611195  41.0500997  28.7700182
   5.9590469  39.7624846  29.1971107   5.9272926  40.3128033  28.6399106
   8.7678558  38.1217349  50.2908131   9.2378189  38.7459465  50.6776006
   8.8140438  37.4534324  50.8501346   8.8446433  38.1152029  50.4308203
   5.9249831  30.2274376  41.0156935   5.4088320  29.5354568  41.1408514
   5.3643760  30.8945153  40.9619534   5.7656345  30.2237634  41.0263001
   7.9942065  30.7667336  42.8449788   7.6073818  30.7916368  43.6263318
   7.5075002  30.2009015  42.3924304   7.8654574  30.6863087  42.8937691
  12.2435044  45.4840845  46.9023574  12.8814765  44.9901041  46.5686030
  11.6009136  45.4118246  46.3175801  12.2429271  45.3999854  46.7665929
  13.9692044  37.3329991  41.4689490  13.5419652  37.2456340  40.7137590
  13.3318097  37.4407767  42.0544334  13.8121651  37.3362651  41.4434932
   7.6599206  27.6534322  45.1360048   8.2892324  28.1894622  44.8581118
   7.8285069  27.5611681  45.9873613   7.7777001  27.7195684  45.2208576
   7.4613121  32.4405516  47.4086459   8.2886551  32.1690665  47.4645074
   7.4820967  33.2366358  47.7650277   7.5865971  32.5185271  47.4701642
  12.2989301  46.1760653  43.5428931  13.0881679  45.8249718  43.6631013
  12.4732899  46.9897042  43.2805565  12.4409582  46.2446511  43.5216799
   2.0382611  39.5869379  40.5956720   1.1970618  39.4873253  40.8035614
   2.2472619  40.3564859  40.9471041   1.9447304  39.6861423  40.6784035
  11.1523125  30.1870210  38.1045350  11.3572718  30.1192518  38.9502347
  10.8249549  30.9929031  38.0366527  11.1338373  30.2956151  38.2205005
   5.8499276  37.5150778  39.8454318   5.5462414  36.9606767  40.4464725
   5.1478697  37.6942988  39.3582352   5.7015486  37.4595561  39.8624023
   4.9065373  34.8251298  34.4099019   5.1825107  34.1070211  33.9976587
   5.5064042  35.4236218  34.2020125   5.0358638  34.8071669  34.3179781
   3.9117627  44.7300499  44.5526415   3.8037982  44.7402561  45.4188473
   4.1213409  45.5555279  44.3631369   3.9267738  44.8541574  44.6530507
  14.4056813  30.7401974  37.5848115  13.7931126  31.2272377  37.9701847
  14.5020988  30.0645465  38.1285766  14.3294710  30.7120283  37.7226973
   8.4075894  32.4964816  32.6845614   8.8619640  32.6675376  33.4093459
   8.8815939  31.8832926  32.2843390   8.5444214  32.4315701  32.7319376
   1.9291419  41.9813141  42.0148353   1.3379352  42.6222640  41.9851368
   2.6912443  42.4050759  41.9879652   1.9539680  42.1388980  42.0063500
   2.3252042  33.1415139  42.6816370   2.7853523  33.2154069  43.4191494
   2.3708149  33.9396393  42.3316192   2.4002597  33.2709286  42.7389127
   3.9735392  33.8081834  47.2488398   3.5820957  33.1615181  47.6844175
   4.1421254  34.3993269  47.8682653   3.9406302  33.7996102  47.4051104
  18.0481841  41.8118911  43.0125631  18.1064964  42.2605560  43.7585608
  17.4148308  42.2217724  42.5755711  17.9633136  41.9392646  43.0578179
  11.6880935  47.4322453  39.4480377  11.4900624  47.9213268  38.7536589
  11.0668646  47.6363695  40.0264511  11.5668500  47.5338991  39.4303601
   5.7488914  39.2007350  33.7890622   6.4930959  39.5881626  34.0273571
   5.8949610  38.3564775  33.9531109   5.8799499  39.1337823  33.8484591
   7.6668489  30.9957609  38.8222483   6.8204534  31.1680417  38.6963833
   7.6639622  30.1906953  39.1588311   7.5415639  30.9018638  38.8533610
   8.7366789  34.7732823  39.6884541   8.2626744  34.2474585  40.1989852
   9.1084925  34.2262296  39.1199402   8.7216678  34.6148820  39.6799688
  15.0003520  39.8335199  41.0991321  14.7601743  38.9941614  41.1033748
  15.4795527  39.9135366  41.8232095  15.0355704  39.7216599  41.2066124
  10.6650289  35.6669378  32.7510295  10.1373308  35.7498122  32.0616004
  11.1245997  36.4087249  32.7474939  10.6552140  35.7890040  32.6484990
  17.0008707  36.6136656  39.0520581  16.7618477  36.5732490  38.2141365
  17.1642608  37.4607808  39.1786302  16.9899011  36.7328741  38.9474063
  13.6054737  40.9986605  44.9825626  14.3288936  40.5459132  44.8036646
  13.3404700  41.2791271  44.1997954  13.6736011  40.9737574  44.8404341
   2.4741606  35.5946779  41.7178505   1.8494676  35.6065171  41.1104458
   2.1387200  36.0706954  42.3669745   2.3327097  35.6665296  41.7235073
   2.6583354  33.9371897  27.7751190   2.3096159  34.5891623  28.2382739
   2.1779800  33.9229010  27.0475061   2.5353598  34.0314951  27.7362281
  10.2187372  44.2372941  31.8819952  10.9421571  44.7031054  31.7384525
   9.7787963  44.3046551  31.1317549  10.2603064  44.3156778  31.7504733
   9.3873527  41.0970484  43.1320641   8.7730520  40.5528534  43.4269276
   9.9040812  40.5834720  42.6526457   9.3729189  40.9406893  43.1044869
   8.6269824  42.1674754  40.8664939   8.1997432  41.5424472  40.4330375
   8.6194768  41.8849676  41.6923947   8.5628965  42.0327534  40.9244767
   1.7432351  37.2039927  43.9353373   1.9025838  36.4483251  44.3405095
   1.5625245  37.7530866  44.5894111   1.7397710  37.1733740  44.0916079
   9.6852654  29.3701162  44.4904163   9.1893215  29.5664836  43.7995730
  10.4421716  29.7693831  44.3192965   9.7239479  29.4578896  44.3624300
   6.9555534  33.0443508  41.0807473   6.9798021  32.5103620  40.3920253
   7.2067007  32.5360817  41.7433064   6.9965452  32.8904412  41.0772118
   3.2356856  31.7714326  40.4613218   3.2755227  32.2723533  41.1747925
   2.4106520  31.8624720  40.1919141   3.1196382  31.8596143  40.5263756
   5.4186469  41.3375066  48.5633512   4.5682099  41.4746781  48.6991157
   5.5814596  40.6038845  49.0081214   5.3170332  41.2489168  48.6489111
   4.6571219  38.2874836  42.7587117   3.8263149  38.4548654  42.5522365
   4.6022736  37.9110787  43.5436002   4.5260634  38.2564568  42.8435645
   2.4655002  31.7783729  48.3943527   3.0907706  31.2345862  48.6672960
   2.0105482  31.2978647  47.8251318   2.4903263  31.6273210  48.3505121
   3.0307263  36.5630428  33.2877234   3.1710224  37.0602892  33.9905876
   3.5289796  35.8616722  33.4291448   3.1248344  36.5332407  33.4128813
   3.0607485  37.4297539  30.6169811   3.6952565  38.0257964  30.5519273
   3.1433096  37.1300996  31.4315681   3.1664036  37.4738447  30.7272898
  16.0390051  39.9613016  43.4856175  16.6307891  40.6010267  43.5174373
  16.4749046  39.2636053  43.7748242  16.1908482  39.9531367  43.5337008
   4.6386468  33.3611514  30.5915253   4.9602309  32.8814597  29.9374516
   4.9013412  34.1711160  30.4006065   4.7252494  33.4101412  30.4670745
   7.8683441  44.3830389  44.1114069   7.3608532  44.9366235  44.5554700
   7.5710087  44.4438678  43.2932844   7.7488326  44.4736700  44.0562526
  10.0345623  32.7483708  42.9538732  10.4600695  32.2956235  42.3422259
   9.4202616  32.1943779  43.2303520  10.0074269  32.5997684  42.9043758
  10.4791221  48.2993646  32.0418013   9.7620531  48.1254509  31.5765250
  11.1297959  48.0646219  31.5093499  10.4693072  48.2389439  31.8947231
   8.4739846  29.2198808  36.3629309   7.8308164  29.0696454  36.9314448
   8.1339253  28.9741153  35.5978414   8.3284923  29.1610930  36.3332324
  13.0639193  37.1758235  35.7859318  12.3930382  37.7187937  35.6572383
  13.7578943  37.6453090  35.5441013  13.0668060  37.3256506  35.7314846
   7.1125926  49.3154947  41.0171076   6.8891581  48.5573776  41.3855103
   6.6235770  49.3452968  40.2951516   7.0069375  49.2077171  40.9647817
  13.2267320  33.6314118  38.6949691  13.5794930  33.2043841  39.3695490
  12.3682122  33.5464962  38.8250768  13.1516765  33.5558859  38.8144702
   1.9251005  36.2621638  36.7532538   1.2062994  36.6785771  37.0205401
   2.2963367  36.8275877  36.2024176   1.8742937  36.4070920  36.7115345
  11.2250586  36.8949487  42.6434533  11.2048513  36.7132782  43.4969312
  11.2729787  37.7661506  42.6194117  11.2285227  36.9966025  42.7657828
   9.1696916  43.4836679  48.5683010   9.1292771  42.8386356  47.9828166
   9.9820234  43.4273296  48.8808422   9.2840069  43.3795646  48.5279959
   5.7604383  49.5355405  38.4708161   5.3464782  48.8729535  38.0812003
   6.4451757  49.6833264  37.9503855   5.8002755  49.4596063  38.3364658
   9.1269677  48.6945490  39.2231777   8.7285961  48.8047761  38.4552598
   8.5120897  48.9027557  39.8058337   8.9768567  48.7419058  39.1963077
   7.6997579  35.3019638  32.0905917   7.1062419  35.6236635  31.5390484
   7.7372857  34.4560733  31.8827023   7.6171969  35.2243966  31.9788688
  14.6591380  28.7532530  39.6234004  14.1522245  28.0461670  39.5555181
  15.4558814  28.4225719  39.7535080  14.7018619  28.6005682  39.6332999
  10.5755396  35.2599143  35.5207667  10.3469089  35.2831844  34.6786026
  10.8353472  34.4356610  35.6402678  10.5801584  35.1415222  35.4132865
   4.8574624  37.1133616  45.1232768   4.3453527  36.5054799  45.4817799
   4.6854121  37.8290208  45.5906743   4.7564261  37.1296915  45.2448991
   3.6300158  33.7975689  36.8161863   4.1057525  34.1592769  36.1812044
   3.1288758  34.4532156  37.0962006   3.6265517  33.9469878  36.7638604
  16.8611520  43.2697457  32.6074868  17.2445126  44.0188813  32.8372965
  16.0655633  43.5163277  32.3486857  16.8005302  43.4167151  32.6032442
   8.7343695  35.0357860  47.5635023   9.2915125  34.8071670  46.9313489
   8.4104760  35.7963526  47.2870236   8.7690105  35.1141697  47.4291520
   6.4526812  38.1225514  48.5287030   7.2038139  38.4377190  48.8426584
   6.6449388  37.9204684  47.7020952   6.5918226  38.1392895  48.4530426
   5.6726812  35.9416889  30.1835247   6.0525776  35.9596518  29.3986362
   4.9319408  36.3870877  30.0626094   5.6195649  36.0098663  30.0498815
  13.3012102  34.2499080  35.7710826  13.3006329  34.0947736  36.6295102
  13.0968282  35.0962067  35.7152211  13.2711880  34.3519701  35.8898765
  11.0252954  38.9296582  39.4247033  11.5206620  38.2119577  39.3851053
  10.2152730  38.6267379  39.3101520  10.9796847  38.7794228  39.4020758
   6.4711566  42.7794395  31.5744037   5.6622888  42.4561068  31.5277346
   6.9786475  42.0727617  31.5072286   6.4261232  42.6275711  31.5574331
  13.0904773  41.6800269  42.1124161  13.5159845  41.1574691  41.5594586
  12.7261693  42.2781107  41.5912784  13.0991376  41.6910496  41.9533171
   2.7258853  49.9764487  40.8721507   3.0405412  50.7900875  40.8799289
   3.1352266  49.5914705  41.5403666   2.8326951  50.0393189  40.9725598
   9.6783373  45.3934533  38.4425319  10.1494551  46.1074796  38.6115304
  10.0143551  44.7933284  38.9785188   9.7978488  45.4105998  38.5457695
  11.7660357  47.0035847  50.6217391  11.8757323  46.2144407  50.9774138
  12.0951254  46.9141783  49.8191729  11.8312763  46.8741700  50.5559782
   6.5952867  30.1662004  45.3983414   6.7280773  29.3692997  45.7264389
   6.9798020  30.6928407  45.9781689   6.6709196  30.1261921  45.5326916
  10.3157319  45.1852468  45.2053011   9.7678265  44.5610351  44.9373077
  10.7770348  45.3746740  44.4897091  10.3024528  45.1211518  45.0603443
   9.6685223  27.0892330  41.9964507   8.8631186  26.9790060  42.3132345
   9.5391958  27.1904786  41.1394373   9.5305355  27.0876000  41.9172547
  13.1251183  33.2537822  42.5904204  12.5414172  33.7547028  42.1781771
  13.4455477  32.7467378  41.9568527  13.0864359  33.2529657  42.4362711
   5.6645982  32.1678417  32.8662879   6.4861677  32.3376730  32.6244573
   5.2015633  32.3225678  32.1429176   5.7177145  32.2160150  32.7234523
   4.2541314  30.1621179  43.6461307   4.7985727  29.8212306  44.2365649
   4.3078250  31.0206641  43.7882592   4.3430434  30.2376438  43.7543181
   9.8815645  46.1903540  41.7362353  10.7014019  46.0466506  41.9978648
   9.6009723  46.8149739  42.2778791   9.9612389  46.2613892  41.8550292
  19.5528980  52.9344043  39.4558159  18.6966876  53.0952541  39.5067276
  19.5996634  52.0636107  39.4763220  19.4328092  52.8294845  39.4664225
  13.9370120  62.4706761  35.2195391  13.1853020  62.0922299  34.9911436
  14.3856132  62.5025194  34.4714201  13.8919787  62.4192368  35.0752893
  22.8622697  59.2030569  49.0618616  23.5689464  58.7082599  49.1905550
  23.0510632  59.6439650  48.3321274  22.9950603  59.1948919  48.9727661
  19.3895080  62.8932130  30.6480938  19.0546448  63.5709052  30.2125160
  19.9021950  62.5037442  30.0597810  19.4160661  62.9356709  30.4967730
  18.9299371  64.8446399  36.5892050  19.3138751  65.4133298  36.0496825
  18.8658512  64.1195909  36.1097866  18.9772798  64.8221862  36.4385912
  22.3980801  54.9936087  42.0989811  22.9436761  55.6721173  42.1583781
  22.3397678  54.8523548  41.2391393  22.4696716  55.0728089  41.9801872
  15.5154876  62.4825153  37.4858163  15.6165239  61.6725507  37.7955291
  14.9196622  62.3882099  36.8557842  15.4427415  62.3490181  37.4384402
  24.1745870  56.4220694  32.9723539  24.0585396  57.1728380  33.4015677
  24.9701757  56.1644647  33.2219626  24.2750459  56.4955541  33.0727630
  15.3555616  67.4002742  38.8873020  15.9993071  67.8415906  39.2769178
  15.6811871  66.5956168  38.8003278  15.4987445  67.3467937  38.9318497
   8.7119921  58.5045440  37.1110497   8.4770105  57.6713092  37.0042766
   8.8505561  58.7850105  36.2971698   8.6975583  58.4228943  36.9752852
  11.0110008  50.6731170  40.0094805  10.3915040  50.0823817  39.8404820
  10.9093872  51.2642605  39.3759128  10.9047684  50.6735253  39.8899794
  16.0576196  60.4114717  34.2592881  16.3792037  60.9519924  33.6554189
  16.7048292  59.8411488  34.3915171  16.2002251  60.4073892  34.1899917
  18.1077904  52.4130712  34.3427268  18.8058068  52.5918839  34.8348731
  18.4230236  51.8901051  33.7197657  18.2573241  52.3624484  34.3229278
  10.7379141  54.2183452  42.2538374  10.6137838  54.8045897  42.8888193
  11.3897426  53.7243648  42.5550649  10.8152790  54.2322256  42.3924303
  18.2965839  58.8001157  34.3307059  18.7359474  58.1918257  34.7761832
  18.1470502  58.4208530  33.5592524  18.3387305  58.6539628  34.2826227
  15.7637482  57.3945169  41.5325885  16.4086485  56.9017612  41.2136833
  16.0039259  57.5369955  42.3591963  15.8948067  57.3422611  41.6075418
  18.3023573  60.2400075  41.1832777  18.5846816  59.4451480  40.9619533
  19.0309734  60.7180662  41.2037838  18.4513137  60.1934672  41.1535793
  16.2804767  47.7823109  38.4248543  15.9508097  48.2334252  37.7552241
  15.6049769  47.7039272  38.9721549  16.1315204  47.8374244  38.4071766
  21.8975176  57.1528338  31.2837829  21.8126471  58.0089305  31.4287397
  22.3859559  56.8772662  31.9519988  21.9564073  57.2385660  31.4039910
  22.8293609  53.7713132  32.7835564  22.3005080  53.9872766  33.4432870
  23.3518629  54.4649271  32.7036533  22.8282062  53.9056269  32.8691163
  14.7193217  57.6676349  31.5843032  14.1350432  58.1726381  31.9908896
  14.3163312  57.4418736  30.8439624  14.5732520  57.7084597  31.5348057
  10.2737245  63.3831110  38.3866703   9.7904823  64.1081600  38.3626287
  11.0860563  63.6807240  38.4976861  10.3227993  63.5333464  38.3993983
  16.3451399  62.1763291  40.9916518  15.8278341  61.8170706  40.3877826
  17.0425791  61.6525465  41.0022584  16.3716980  62.0460979  40.9046776
  20.0014991  62.6258105  46.9532691  20.0898337  62.4384246  47.8010901
  20.4304704  61.9795535  46.5537538  20.0777094  62.5021113  47.0204442
  17.5685451  61.9089265  45.9350353  17.0056286  61.4961875  46.4590014
  18.3306475  61.8342171  46.3543496  17.5979900  61.8366666  46.0743353
  19.1770431  53.9142001  30.0611952  19.4166435  54.1219985  29.2487295
  19.4986272  53.1099510  30.1700897  19.2607589  53.8256102  29.9572505
  14.4860721  45.8435397  33.9071490  15.2406689  46.2113714  33.6688540
  14.3088256  46.2174951  34.6750670  14.5715200  45.9533585  33.9856379
  13.1281442  63.8987286  38.5386983  13.8302022  63.3839275  38.5959740
  13.0478926  64.2261438  39.3433858  13.2205203  63.8701512  38.6659775
  27.7795620  51.9929838  41.9519030  26.9424041  52.0632025  42.1866624
  27.7483851  51.9954332  41.0793332  27.6513902  52.0040065  41.8578578
  14.1760349  54.1362873  47.6667398  14.3480853  54.0268768  48.5152680
  14.7129707  54.7817279  47.4298591  14.2805353  54.2154875  47.7572495
  12.8417786  48.2505716  30.6049603  12.6593359  48.4677597  29.7790596
  13.7043399  48.3644729  30.6608218  12.9422375  48.2995614  30.4904090
  12.4532218  60.0893638  38.0472591  13.2921117  60.3216571  38.0946353
  12.4843987  59.2197950  37.9779627  12.5813935  59.9950585  38.0437236
  13.0784921  60.5094513  42.3485897  13.6183146  60.3665644  43.0189269
  12.3954867  60.9091264  42.7169923  13.0577075  60.5474184  42.5020318
  18.5217505  45.2532127  33.6398627  19.2503666  45.0748082  33.1936783
  18.6112398  46.0950206  33.8505805  18.6424167  45.3516005  33.6052145
  22.5025806  56.1885514  37.5430921  23.2583321  56.6217028  37.5819830
  22.6088130  55.5390284  38.1165557  22.6295976  56.1562998  37.6328947
  25.5405977  60.0158791  38.2933324  25.1041209  60.0195534  39.0492295
  25.2068892  60.6964290  37.8612902  25.4268597  60.1171247  38.3414157
  20.1135051  62.0567124  49.6176474  20.8975467  62.1697972  49.9832217
  19.9131645  61.2308261  49.8135160  20.2001076  61.9513844  49.7010860
   8.4822066  56.7294804  42.5020318   8.2160481  55.9133921  42.6611309
   8.4960630  56.7747960  41.6315834   8.4446788  56.6151709  42.3973800
  12.3879813  51.5279889  29.1172076  11.6737990  51.2418068  29.5294509
  12.8723782  51.8676514  29.7578464  12.3539176  51.5361538  29.2727711
  13.2320672  50.2673182  45.1487326  12.5392469  49.7970162  45.3948058
  13.8481000  50.0411487  45.7229033  13.2205202  50.1640314  45.2696479
  20.2705444  63.9677226  43.2642930  19.4720690  63.7276726  43.5216799
  20.7191455  64.0191619  44.0109978  20.2180055  63.9399617  43.4127854
  19.5627131  60.0309843  29.4933885  19.9778279  59.6994866  28.8018380
  18.7319060  59.7978745  29.3654021  19.5015140  59.9481099  29.3724732
   8.8915480  57.5153584  39.7832062   8.7091053  57.4900470  38.9304355
   9.6265149  57.9852521  39.8220971   8.9729544  57.5814946  39.6629981
  11.9561231  54.2338586  46.2914171  12.6801204  54.2191617  46.7779066
  12.0577368  54.9433942  45.7936139  12.0779440  54.3363290  46.2892958
  19.3306181  57.7137671  51.1563118  18.5379162  58.0281183  51.3415738
  19.4455108  57.9289140  50.3183903  19.2301591  57.7921508  51.0601453
  22.0037500  54.4371662  35.4458134  22.0984354  55.1760956  35.8997759
  21.3796343  54.0089138  35.8792699  21.9246530  54.4832983  35.5766282
  20.2589974  57.6157875  46.0948415  20.8328835  56.9785119  46.2496979
  20.1804777  57.6161957  45.2258073  20.3323208  57.5222986  45.9894826
   8.8586390  54.3947084  39.9331129   9.4359893  54.2583535  40.5723374
   8.1600452  53.9382868  40.1876713   8.8407411  54.3069350  40.0653419
  22.2560521  56.2820402  28.6795086  22.1740684  56.3522589  29.5450073
  22.8940241  56.8450146  28.4878827  22.3380358  56.3759373  28.7785035
  15.6153692  56.0481140  38.1469612  15.3572936  55.2152875  38.1200912
  15.6702175  56.2738753  37.3062113  15.5853470  55.9578911  38.0189749
  20.6954742  48.1509591  38.2473705  19.9911069  47.6618776  38.4057624
  20.7439717  48.1632065  37.3762149  20.5984794  48.0799239  38.1413045
  14.5888404  53.6018902  38.6334507  14.0137996  53.7611071  39.2698468
  14.2124081  52.9654312  38.1702958  14.4491217  53.5316715  38.6589065
  18.2561693  52.0742252  43.4926885  17.8676126  51.6496469  42.8379077
  17.5916391  52.3224401  44.0003912  18.1008621  52.0480973  43.4714753
   4.3345223  53.2458977  36.6478948   4.4205475  52.8690846  37.4292478
   4.9621021  52.8719423  36.1698906   4.4401774  53.1344459  36.6924425
  22.0788054  45.7716880  41.0050870  22.4598566  45.0895052  41.3918744
  21.2751339  45.4826483  40.8226534  22.0164516  45.6283929  41.0354926
  19.3600631  56.3040856  31.6903692  20.1741270  56.5955749  31.5786464
  19.2959772  55.6500719  31.1161985  19.4703370  56.2506051  31.5892530
  25.5810121  58.9866852  46.1033268  25.3448759  58.1554917  45.9845329
  26.2253350  58.9352460  46.6888112  25.6404792  58.8564540  46.1719162
  15.2308539  59.7762374  36.8176005  15.8682486  59.5374121  37.3627798
  15.6563611  59.9799533  36.0829165  15.3884706  59.7713384  36.7893162
   9.9221182  62.0150710  40.7010308   9.9625327  62.2865561  39.8730088
  10.4815706  62.5392618  41.1168096  10.0104528  62.1326465  40.6402196
  15.8711354  54.9964664  31.1550894  16.2556507  54.7772370  31.9067439
  15.6222975  55.8227609  31.2851970  15.8913427  55.0862810  31.2851970
  16.0379895  48.2771079  50.8713478  15.7233336  49.0470641  50.6083041
  15.7169827  47.7141335  50.2865705  15.9438814  48.3081347  50.7454828
  26.6046542  58.7711301  42.1661563  26.2992359  59.5039358  42.5274878
  25.8852758  58.3649231  41.8854349  26.4533884  58.8193034  42.1774700
  17.6130011  60.2534796  38.4969791  17.6869020  60.0909968  39.3511641
  18.4299518  60.4424986  38.2530272  17.7446370  60.2571539  38.5867816
  32.3048334  55.4104302  41.4929907  32.2372834  55.4300261  40.6232493
  32.2903997  56.2534629  41.7185577  32.2927091  55.5378037  41.3982384
  11.3735768  60.5992659  35.5264234  10.5473886  60.8454396  35.3998513
  11.4347759  60.5204740  36.3926292  11.2609935  60.6237608  35.6353179
  13.5911792  46.6661600  36.4859674  12.7234217  46.7384200  36.5517284
  13.8786996  47.4683679  36.6747650  13.5051540  46.7955747  36.5234441
  22.7144681  46.8139460  44.8170996  23.4598273  46.6249270  44.4034422
  22.2981985  47.3397698  44.2584853  22.7629655  46.8641605  44.6735570
  16.1534597  63.2169539  33.2283264  16.4432896  62.8258521  32.5042491
  16.8838078  63.3986244  33.6688539  16.3041481  63.1863353  33.1866071
  16.7429342  58.0187285  44.3136395  16.2441036  58.7303053  44.3921283
  17.5529567  58.3387952  44.2754557  16.7885449  58.1714134  44.3192963
  14.0940513  65.1936922  36.2943414  13.8740808  64.9034277  37.0870081
  13.8735035  64.5351877  35.7661326  14.0288107  65.0536630  36.3332323
  13.0057460  57.2810238  38.5599116  12.7170709  56.6547710  39.0944843
  13.8740808  57.2230526  38.6263796  13.0917712  57.1797783  38.6490070
  23.7935358  52.4245022  38.8781097  23.4500124  51.7035357  39.2288347
  23.8928400  52.2158873  38.0359456  23.7577401  52.2869225  38.8052777
  16.2608468  66.5666312  35.0774106  16.9132526  66.0342754  35.3065132
  15.5634077  66.2134964  35.4641980  16.2539186  66.4355835  35.1686274
  13.2089733  58.9205489  34.4841481  13.9635701  59.3018528  34.6976943
  12.6160346  59.3716633  34.9388177  13.2326447  59.0434317  34.5824359
  24.2548387  58.8870726  34.4205086  24.8206419  59.5463936  34.3363629
  23.6076290  59.2320424  34.8921488  24.2427143  59.0352667  34.4777842
  15.6696400  50.8768330  49.6098693  14.8596176  51.1826109  49.4988535
  16.1471087  51.5973912  49.7251277  15.6199879  51.0282931  49.6105764
  14.5287960  60.0914051  39.8581596  14.0068713  60.2314342  40.5433461
  14.9161980  59.3324715  40.0483713  14.5091661  59.9999575  39.9882673
  11.5179144  50.1419859  33.9276551  11.2303940  49.7721130  33.1908498
  12.2049612  50.6114715  33.6660256  11.5768041  50.1566829  33.7791626
  20.7254965  61.8309510  33.8442165  20.4841641  61.0977371  33.4369230
  20.9056298  62.3796367  33.1908498  20.7162589  61.8031901  33.6872388
  15.9554285  57.1218070  35.2563087  15.7597068  57.7292804  34.6623390
  16.1788631  56.4286014  34.7754761  15.9588927  57.1095595  35.0979168
  14.3532816  54.0072808  35.3743955  15.0755467  54.1713966  34.9147761
  13.8740808  54.7282473  35.2683295  14.3896546  54.1371037  35.2909569
  22.3126323  50.3436606  40.7540640  21.4737424  50.3697885  40.5178904
  22.3830690  50.9907342  41.3345987  22.1994717  50.4432732  40.8049757
  12.0040432  56.4130880  44.4798095  12.5161529  56.6915133  43.8306855
  11.7176775  57.1520174  44.8460908  12.0375295  56.5633234  44.4387973
  20.7595601  47.2421984  35.4868256  21.4621954  47.0429732  35.0088215
  20.4939790  46.4697926  35.7937100  20.8242234  47.0984950  35.4613698
   9.0907339  50.9201072  34.7761832   9.1923475  51.7227233  35.1042807
   9.8863225  50.7188408  34.4784912   9.2235244  51.0086971  34.7797187
  15.5224158  48.5057269  44.5399137  15.3307355  48.5212403  45.3898560
  16.3722754  48.7020943  44.5165792  15.6199880  48.5371620  44.6622432
   9.9071071  51.0348250  42.5182953   9.7656562  50.1832191  42.6427461
  10.1911634  51.0776911  41.6945159   9.9278917  50.9148000  42.4150577
  20.0609663  52.8715340  36.6627442  19.8144377  52.7911091  37.4964231
  20.3894786  52.0868808  36.4689969  20.0730907  52.7441606  36.7574965
  23.9557712  59.5798700  40.4514223  23.8172071  60.2779746  40.9562965
  23.1757710  59.4247356  40.0950405  23.8200939  59.6598866  40.4740497
  22.2935797  55.8795075  46.7036605  22.2883835  55.0074892  46.7079031
  22.9996791  56.0783244  46.2306060  22.3980801  55.7798949  46.6343640
  16.0206690  55.6072059  46.0750425  16.1650066  56.1873267  45.4393535
  16.3682339  55.9848356  46.7800279  16.0934152  55.7492763  46.0849420
  18.1926608  54.8062227  43.8575556  17.4449922  54.9993242  43.4523834
  18.3468133  53.9807447  43.6199678  18.1049035  54.7127339  43.7620962
  15.0934445  63.7974831  42.9411452  15.2424009  63.2377747  42.2884856
  15.8734447  63.8766832  43.3243970  15.2308539  63.7260396  42.9008401
  25.4511085  58.9376953  31.2130722  25.0717893  58.1514091  31.2060011
  24.7877330  59.4863810  31.0702366  25.2969559  58.9021777  31.1911519
  17.6187746  63.9689474  44.2195942  17.5431417  63.2998284  44.7746731
  17.5477605  64.6707262  44.7336609  17.5968353  63.9734381  44.3772790
  18.4328385  48.7012778  44.7470960  18.8900999  49.4336752  44.8743752
  18.5084713  48.2779243  45.5058216  18.5119354  48.7470016  44.8772037
  10.6761376  48.9478598  45.8360404  10.1403565  48.3358956  46.1521171
  10.7379141  49.5226734  46.4894070  10.6057009  48.9425526  45.9795830
  18.2757993  62.4890473  35.0519548  19.0407884  62.2200116  34.7302213
  18.1736083  62.0040483  35.7689611  18.3739488  62.3780037  35.1099376
  16.3110763  50.6914882  41.5912784  15.5206837  50.5106342  41.9130120
  16.7071385  49.9141835  41.5743079  16.2527639  50.5502343  41.6365332
  20.7976653  59.5202656  27.0319498  21.5649638  59.5802781  26.6225349
  20.3507962  58.9483098  26.5475816  20.8450081  59.4439232  26.8997208
  21.6954449  58.3257312  39.3172230  21.0199451  58.0942544  39.8185617
  21.7046825  57.7178495  38.6914335  21.5972953  58.2016237  39.2988382
  18.8248593  53.1675141  46.0736283  18.7607734  54.0285098  45.9456420
  18.9645781  52.8507134  45.2731834  18.8364063  53.2475308  45.9364496
  23.6971183  61.1822445  31.5482408  23.7791021  61.9889431  31.2243859
  24.1820926  61.2018404  32.2723181  23.7808341  61.3043107  31.6069307
  17.5067687  55.8607280  40.2152486  17.0829936  56.0611779  39.4791504
  17.3312542  55.0136128  40.3276786  17.4178567  55.7656062  40.1226176
  17.0079380  67.3757793  42.6773943  17.4975310  66.6768583  42.4949608
  16.4363612  67.0781663  43.2650000  16.9963910  67.2284017  42.7374984
  12.7950132  56.3559332  35.6480458  12.9514751  56.2906135  36.5036450
  13.1350725  57.1307884  35.4359138  12.8683367  56.4608530  35.7435053
  19.3329276  55.7317215  34.5173822  19.8744822  55.2287597  34.9812442
  19.6475835  55.6782410  33.7063307  19.4593673  55.6496636  34.4657634
  23.2046384  59.9419863  51.6300734  24.0181249  59.6705012  51.7905866
  23.0441350  59.6427403  50.8260930  23.3016332  59.8574789  51.5346140
  17.5015726  61.1234567  31.8013850  17.5708546  60.2649105  31.9406850
  18.2804181  61.3406448  31.4732874  17.6268576  61.0287431  31.7731007
  20.4818546  50.6253520  44.5696122  20.6960515  49.9864434  44.0159476
  19.8652445  51.0699344  44.1403984  20.4223875  50.5963664  44.4246553
  21.8923214  63.5472268  36.0150343  21.5003005  63.2438983  35.2973209
  22.0476286  64.3841358  35.8255297  21.8576803  63.6256105  35.8806840
   9.3684393  53.5394282  35.9641226   9.7483358  53.9578827  35.3001493
   8.7939758  54.1207738  36.2710069   9.3395718  53.6872141  35.9117967
  22.6457634  52.2342585  45.5079429  21.8334315  51.9268476  45.5892602
  23.1047568  51.7541585  46.0722141  22.5938018  52.1179078  45.6034023
  22.0562888  60.1122257  35.9556374  21.6977543  60.2836900  36.7320406
  21.5701599  60.5735463  35.3984372  21.9321585  60.2061228  35.9881643
  19.8733274  43.7353456  39.5583465  19.0026832  43.7092177  39.5116774
  20.1273616  43.5630648  38.7409311  19.7826834  43.7063599  39.4303602
  16.8451254  55.7921423  28.4956608  17.1343779  56.5686305  28.7700182
  16.9323053  55.2810154  29.1971107  16.9005510  55.8313341  28.6399106
  19.7411141  53.6402657  50.2908131  20.2110772  54.2644773  50.6776006
  19.7873021  52.9719632  50.8501346  19.8179017  53.6337337  50.4308203
  16.8982415  45.7459684  41.0156935  16.3820903  45.0539876  41.1408514
  16.3376344  46.4130461  40.9619534  16.7388928  45.7422942  41.0263001
  18.9674648  46.2852644  42.8449788  18.5806401  46.3101676  43.6263318
  18.4807586  45.7194323  42.3924304  18.8387157  46.2048395  42.8937691
  23.2167628  61.0026153  46.9023574  23.8547348  60.5086349  46.5686030
  22.5741719  60.9303554  46.3175801  23.2161854  60.9185162  46.7665929
  24.9424628  52.8515299  41.4689490  24.5152236  52.7641648  40.7137590
  24.3050681  52.9593075  42.0544334  24.7854235  52.8547959  41.4434932
  18.6331790  43.1719630  45.1360048  19.2624908  43.7079930  44.8581118
  18.8017653  43.0796989  45.9873613  18.7509585  43.2380992  45.2208576
  18.4345705  47.9590824  47.4086459  19.2619134  47.6875973  47.4645074
  18.4553551  48.7551666  47.7650277  18.5598555  48.0370579  47.4701642
  23.2721884  61.6945961  43.5428931  24.0614262  61.3435026  43.6631013
  23.4465482  62.5082350  43.2805565  23.4142166  61.7631818  43.5216799
  13.0115195  55.1054687  40.5956720  12.1703201  55.0058561  40.8035614
  13.2205203  55.8750167  40.9471041  12.9179887  55.2046730  40.6784035
  10.4890762  52.7274224  38.4241471  10.0947459  52.8017236  37.6491580
   9.9330879  53.1132170  38.9749832  10.3493574  52.7955999  38.3909130
  16.8231860  53.0336086  39.8454318  16.5194997  52.4792075  40.4464725
  16.1211280  53.2128296  39.3582352  16.6748069  52.9780869  39.8624023
  15.8797957  50.3436606  34.4099019  16.1557691  49.6255519  33.9976587
  16.4796626  50.9421526  34.2020125  16.0091221  50.3256977  34.3179781
  14.8850211  60.2485807  44.5526415  14.7770566  60.2587869  45.4188473
  15.0945992  61.0740587  44.3631369  14.9000322  60.3726882  44.6530507
  19.3808477  48.0150123  32.6845614  19.8352224  48.1860684  33.4093459
  19.8548523  47.4018234  32.2843390  19.5176797  47.9501009  32.7319376
  12.9024003  57.4998449  42.0148353  12.3111936  58.1407948  41.9851368
  13.6645026  57.9236067  41.9879652  12.9272263  57.6574288  42.0063500
  13.2984625  48.6600447  42.6816370  13.7586107  48.7339377  43.4191494
  13.3440732  49.4581701  42.3316192  13.3735181  48.7894594  42.7389127
  14.9467975  49.3267142  47.2488398  14.5553540  48.6800489  47.6844175
  15.1153838  49.9178577  47.8682653  14.9138885  49.3181410  47.4051104
  29.0214424  57.3304219  43.0125631  29.0797548  57.7790868  43.7585608
  28.3880892  57.7403032  42.5755711  28.9365719  57.4577954  43.0578179
  22.6613519  62.9507761  39.4480377  22.4633207  63.4398575  38.7536589
  22.0401230  63.1549002  40.0264511  22.5401083  63.0524299  39.4303601
  16.7221497  54.7192658  33.7890622  17.4663542  55.1066934  34.0273571
  16.8682193  53.8750083  33.9531109  16.8532082  54.6523131  33.8484591
  18.6401073  46.5142917  38.8222483  17.7937118  46.6865724  38.6963833
  18.6372205  45.7092260  39.1588311  18.5148223  46.4203946  38.8533610
  19.7099373  50.2918131  39.6884541  19.2359327  49.7659893  40.1989852
  20.0817509  49.7447604  39.1199402  19.6949262  50.1334128  39.6799688
  25.9736104  55.3520507  41.0991321  25.7334327  54.5126922  41.1033748
  26.4528111  55.4320673  41.8232095  26.0088287  55.2401906  41.2066124
  21.6382873  51.1854686  32.7510295  21.1105891  51.2683430  32.0616004
  22.0978581  51.9272557  32.7474939  21.6284723  51.3075348  32.6484990
  27.9741291  52.1321964  39.0520581  27.7351061  52.0917798  38.2141365
  28.1375192  52.9793116  39.1786302  27.9631594  52.2514049  38.9474063
  24.5787321  56.5171913  44.9825626  25.3021520  56.0644440  44.8036646
  24.3137283  56.7976579  44.1997954  24.6468594  56.4922882  44.8404341
  13.4474189  51.1132087  41.7178505  12.8227259  51.1250479  41.1104458
  13.1119784  51.5892262  42.3669745  13.3059681  51.1850604  41.7235073
  13.6315938  49.4557205  27.7751190  13.2828742  50.1076931  28.2382739
  13.1512384  49.4414318  27.0475061  13.5086182  49.5500259  27.7362281
  10.1599865  59.1732547  43.1582269   9.6299789  58.4824986  43.2077244
  10.4324958  59.1642732  42.3294978  10.1224587  59.0699679  43.0429685
  21.1919955  59.7558249  31.8819952  21.9154154  60.2216362  31.7384525
  20.7520546  59.8231859  31.1317549  21.2335647  59.8342086  31.7504733
  20.3606110  56.6155792  43.1320641  19.7463103  56.0713842  43.4269276
  20.8773395  56.1020028  42.6526457  20.3461773  56.4592201  43.1044869
  19.6002407  57.6860062  40.8664939  19.1730015  57.0609780  40.4330375
  19.5927352  57.4034983  41.6923947  19.5361549  57.5512842  40.9244767
  12.7164935  52.7225235  43.9353373  12.8758421  51.9668559  44.3405095
  12.5357828  53.2716174  44.5894111  12.7130294  52.6919048  44.0916079
  20.6585238  44.8886470  44.4904163  20.1625799  45.0850144  43.7995730
  21.4154300  45.2879138  44.3192965  20.6972062  44.9764204  44.3624300
  17.9288117  48.5628816  41.0807473  17.9530604  48.0288928  40.3920253
  18.1799591  48.0546125  41.7433064  17.9698036  48.4089720  41.0772118
   5.4395707  55.8460311  40.5150617   5.3339156  55.8007155  39.6502702
   4.6895927  56.1914092  40.7964902   5.3131310  55.8901219  40.4287947
  14.2089439  47.2899634  40.4613218  14.2487811  47.7908841  41.1747925
  13.3839104  47.3810028  40.1919141  14.0928965  47.3781451  40.5263756
  16.3919052  56.8560374  48.5633512  15.5414683  56.9932089  48.6991157
  16.5547180  56.1224153  49.0081214  16.2902916  56.7674476  48.6489111
  15.6303803  53.8060144  42.7587117  14.7995732  53.9733962  42.5522365
  15.5755320  53.4296095  43.5436002  15.4993218  53.7749875  42.8435645
  14.0039847  52.0815736  33.2877234  14.1442808  52.5788200  33.9905876
  14.5022379  51.3802030  33.4291448  14.0980928  52.0517714  33.4128813
  14.0340069  52.9482847  30.6169811  14.6685148  53.5443272  30.5519273
  14.1165680  52.6486304  31.4315681  14.1396620  52.9923755  30.7272898
  27.0122635  55.4798324  43.4856175  27.6040475  56.1195575  43.5174373
  27.4481629  54.7821361  43.7748242  27.1641066  55.4716674  43.5337008
  15.6119052  48.8796822  30.5915253  15.9334893  48.3999905  29.9374516
  15.8745996  49.6896468  30.4006065  15.6985077  48.9286720  30.4670745
  18.8416025  59.9015696  44.1114069  18.3341116  60.4551543  44.5554700
  18.5442671  59.9623986  43.2932844  18.7220910  59.9922008  44.0562526
  21.0078207  48.2669016  42.9538732  21.4333278  47.8141543  42.3422259
  20.3935200  47.7129087  43.2303520  20.9806852  48.1182992  42.9043758
  10.5393057  55.1450687  33.8859357  11.0485286  55.7415195  34.2670663
  11.0127329  54.8776661  33.2035777  10.6836433  55.1936503  33.8413880
  21.4523805  63.8178954  32.0418013  20.7353115  63.6439816  31.5765250
  22.1030543  63.5831526  31.5093499  21.4425655  63.7574747  31.8947231
  19.4472430  44.7384116  36.3629309  18.8040748  44.5881762  36.9314448
  19.1071837  44.4926461  35.5978414  19.3017507  44.6796238  36.3332324
  24.0371776  52.6943543  35.7859318  23.3662966  53.2373245  35.6572383
  24.7311526  53.1638398  35.5441013  24.0400644  52.8441814  35.7314846
  18.0858510  64.8340255  41.0171076  17.8624164  64.0759084  41.3855103
  17.5968353  64.8638276  40.2951516  17.9801959  64.7262479  40.9647817
  24.1999904  49.1499426  38.6949691  24.5527514  48.7229149  39.3695490
  23.3414705  49.0650270  38.8250768  24.1249348  49.0744167  38.8144702
  12.8983589  51.7806946  36.7532538  12.1795578  52.1971079  37.0205401
  13.2695951  52.3461185  36.2024176  12.8475520  51.9256227  36.7115345
  22.1983169  52.4134795  42.6434533  22.1781097  52.2318090  43.4969312
  22.2462370  53.2846813  42.6194117  22.2017810  52.5151333  42.7657828
  20.1429499  59.0021987  48.5683010  20.1025354  58.3571664  47.9828166
  20.9552818  58.9458604  48.8808422  20.2572653  58.8980954  48.5279959
  16.7336967  65.0540713  38.4708161  16.3197365  64.3914843  38.0812003
  17.4184341  65.2018572  37.9503855  16.7735339  64.9781371  38.3364658
  20.1002261  64.2130798  39.2231777  19.7018544  64.3233068  38.4552598
  19.4853481  64.4212864  39.8058337  19.9501150  64.2604366  39.1963077
  18.6730163  50.8204946  32.0905917  18.0795002  51.1421942  31.5390484
  18.7105441  49.9746041  31.8827023  18.5904552  50.7429274  31.9788688
  21.5487980  50.7784450  35.5207667  21.3201673  50.8017152  34.6786026
  21.8086056  49.9541917  35.6402678  21.5534168  50.6600530  35.4132865
  15.8307208  52.6318923  45.1232768  15.3186111  52.0240106  45.4817799
  15.6586704  53.3475516  45.5906743  15.7296845  52.6482223  45.2448991
  10.6772923  51.0756499  47.7735129  10.5075513  51.7357874  47.2283336
  10.2338873  51.2863060  48.4947618  10.5872256  51.2042481  47.7996759
  14.6032742  49.3160997  36.8161863  15.0790108  49.6778077  36.1812044
  14.1021342  49.9717464  37.0962006  14.5998101  49.4655186  36.7638604
  19.7076278  50.5543168  47.5635023  20.2647708  50.3256978  46.9313489
  19.3837343  51.3148834  47.2870236  19.7422688  50.6327005  47.4291520
   7.5774987  53.9803364  43.0323619   7.0301707  53.3104010  43.1504488
   8.3667365  53.6133212  43.0967086   7.6127171  53.8268351  43.0592320
  17.4259396  53.6410821  48.5287030  18.1770723  53.9562498  48.8426584
  17.6181972  53.4389992  47.7020952  17.5650810  53.6578203  48.4530426
  16.6459395  51.4602197  30.1835247  17.0258360  51.4781826  29.3986362
  15.9051991  51.9056185  30.0626094  16.5928233  51.5283971  30.0498815
   6.3361957  53.1924172  40.1869642   6.1583718  52.7400781  40.9124558
   6.0480979  53.9950334  40.3708120   6.2674910  53.2446730  40.3213145
  21.9985538  54.4481890  39.4247033  22.4939203  53.7304885  39.3851053
  21.1885314  54.1452687  39.3101520  21.9529431  54.2979536  39.4020758
  17.4444149  58.2979703  31.5744037  16.6355472  57.9746376  31.5277346
  17.9519058  57.5912925  31.5072286  17.3993816  58.1461019  31.5574331
   8.0734427  55.7251896  37.2991401   7.2079946  55.7137586  37.1874173
   8.1733242  55.5382119  38.1462541   7.9608594  55.6957957  37.4080346
  24.0637357  57.1985577  42.1124161  24.4892428  56.6759999  41.5594586
  23.6994276  57.7966414  41.5912784  24.0723959  57.2095804  41.9533171
  13.6991436  65.4949795  40.8721507  14.0137995  66.3086183  40.8799289
  14.1084850  65.1100013  41.5403666  13.8059534  65.5578497  40.9725598
  20.6515956  60.9119841  38.4425319  21.1227134  61.6260104  38.6115304
  20.9876135  60.3118591  38.9785188  20.7711071  60.9291306  38.5457695
  22.7392941  62.5221155  50.6217391  22.8489906  61.7329715  50.9774138
  23.0683837  62.4327091  49.8191729  22.8045346  62.3927008  50.5559782
  17.5685451  45.6847312  45.3983414  17.7013357  44.8878305  45.7264389
  17.9530604  46.2113715  45.9781689  17.6441780  45.6447229  45.5326916
  21.2889902  60.7037775  45.2053011  20.7410848  60.0795659  44.9373077
  21.7502931  60.8932047  44.4897091  21.2757112  60.6396826  45.0603443
  20.6417806  42.6077638  41.9964507  19.8363770  42.4975368  42.3132345
  20.5124542  42.7090094  41.1394373  20.5037939  42.6061308  41.9172547
  24.0983767  48.7723130  42.5904204  23.5146756  49.2732336  42.1781771
  24.4188061  48.2652686  41.9568527  24.0596942  48.7714965  42.4362711
  16.6378566  47.6863725  32.8662879  17.4594260  47.8562038  32.6244573
  16.1748217  47.8410986  32.1429176  16.6909728  47.7345458  32.7234523
  15.2273898  45.6806487  43.6461307  15.7718311  45.3397614  44.2365649
  15.2810834  46.5391949  43.7882592  15.3163017  45.7561746  43.7543181
  11.0404457  59.4422903  40.5200115  11.6449314  59.4018737  39.8913936
  10.8331769  60.2894055  40.5504171  11.0993354  59.5610905  40.4316232
  20.8548229  61.7088848  41.7362353  21.6746603  61.5651814  41.9978648
  20.5742306  62.3335047  42.2778791  20.9344972  61.7799200  41.8550292
   6.2755739  58.4257521  40.3899038   6.1780017  57.6153792  40.6989095
   7.0584609  58.4049314  40.0045306   6.3771875  58.3024611  40.3785901
  37.3261879  69.3653700  34.7005229  37.2955883  70.2198337  34.8723498
  37.9243228  69.0648992  35.2591373  37.4099037  69.4470196  34.8080031
  30.5261564  68.4529351  39.4558159  29.6699459  68.6137849  39.5067276
  30.5729218  67.5821415  39.4763220  30.4060675  68.3480153  39.4664225
  33.8355280  74.7215876  49.0618616  34.5422048  74.2267907  49.1905550
  34.0243216  75.1624958  48.3321274  33.9683186  74.7134227  48.9727661
  33.3713385  70.5121395  42.0989811  33.9169345  71.1906481  42.1583781
  33.3130261  70.3708856  41.2391393  33.4429299  70.5913396  41.9801872
  35.1478454  71.9406002  32.9723539  35.0317980  72.6913688  33.4015677
  35.9434340  71.6829955  33.2219626  35.2483043  72.0140849  33.0727630
  21.9842592  66.1916478  40.0094805  21.3647623  65.6009125  39.8404820
  21.8826455  66.7827913  39.3759128  21.8780267  66.1920561  39.8899794
  27.0308779  75.9300025  34.2592881  27.3524620  76.4705232  33.6554189
  27.6780876  75.3596796  34.3915171  27.1734834  75.9259200  34.1899917
  29.0810487  67.9316020  34.3427268  29.7790652  68.1104147  34.8348731
  29.3962820  67.4086359  33.7197657  29.2305824  67.8809792  34.3229278
  21.7111725  69.7368760  42.2538374  21.5870421  70.3231205  42.8888193
  22.3630009  69.2428955  42.5550649  21.7885374  69.7507564  42.3924303
  29.2698423  74.3186465  34.3307059  29.7092058  73.7103565  34.7761832
  29.1203085  73.9393838  33.5592524  29.3119888  74.1724936  34.2826227
  26.7370066  72.9130477  41.5325885  27.3819068  72.4202920  41.2136833
  26.9771843  73.0555263  42.3591963  26.8680651  72.8607919  41.6075418
  29.2756157  75.7585383  41.1832777  29.5579400  74.9636788  40.9619533
  30.0042317  76.2365970  41.2037838  29.4245721  75.7119979  41.1535793
  27.2537351  63.3008417  38.4248543  26.9240681  63.7519560  37.7552241
  26.5782353  63.2224580  38.9721549  27.1047787  63.3559552  38.4071766
  32.8707759  72.6713646  31.2837829  32.7859054  73.5274613  31.4287397
  33.3592142  72.3957970  31.9519988  32.9296656  72.7570968  31.4039910
  33.8026192  69.2898440  32.7835564  33.2737664  69.5058074  33.4432870
  34.3251212  69.9834579  32.7036533  33.8014645  69.4241577  32.8691163
  39.2574245  74.8644745  38.1568608  38.4271948  75.0755388  38.3202025
  39.2083498  74.0381799  37.8810892  39.1280981  74.7734351  38.1405974
  25.6925800  73.1861657  31.5843032  25.1083015  73.6911688  31.9908896
  25.2895895  72.9604044  30.8439624  25.5465104  73.2269905  31.5348057
  30.9747575  78.1443413  46.9532691  31.0630921  77.9569553  47.8010901
  31.4037287  77.4980843  46.5537538  31.0509677  78.0206421  47.0204442
  30.1503015  69.4327309  30.0611952  30.3899018  69.6405293  29.2487295
  30.4718856  68.6284818  30.1700897  30.2340172  69.3441410  29.9572505
  25.4593305  61.3620705  33.9071490  26.2139273  61.7299022  33.6688540
  25.2820839  61.7360259  34.6750670  25.5447783  61.4718893  33.9856379
  38.7528204  67.5115145  41.9519030  37.9156625  67.5817333  42.1866624
  38.7216434  67.5139640  41.0793332  38.6246486  67.5225372  41.8578578
  25.1492933  69.6548181  47.6667398  25.3213436  69.5454076  48.5152680
  25.6862290  70.3002587  47.4298591  25.2537937  69.7340183  47.7572495
  23.8150369  63.7691024  30.6049603  23.6325943  63.9862905  29.7790596
  24.6775983  63.8830037  30.6608218  23.9154959  63.8180922  30.4904090
  33.4758389  71.7070822  37.5430921  34.2315904  72.1402336  37.5819830
  33.5820714  71.0575592  38.1165557  33.6028560  71.6748306  37.6328947
  36.5138560  75.5344099  38.2933324  36.0773792  75.5380842  39.0492295
  36.1801476  76.2149598  37.8612902  36.4001180  75.6356555  38.3414157
  31.0867634  77.5752432  49.6176474  31.8708051  77.6883280  49.9832217
  30.8864229  76.7493569  49.8135160  31.1733659  77.4699151  49.7010860
  19.4554650  72.2480112  42.5020318  19.1893065  71.4319229  42.6611309
  19.4693214  72.2933268  41.6315834  19.4179372  72.1337017  42.3973800
  36.4336043  62.5757927  40.5362752  37.0761952  62.6456032  41.1224667
  36.6859064  61.9087150  40.0342294  36.5658175  62.4884276  40.5490031
  23.3612397  67.0465197  29.1172076  22.6470574  66.7603376  29.5294509
  23.8456365  67.3861822  29.7578464  23.3271760  67.0546846  29.2727711
  24.2053256  65.7858490  45.1487326  23.5125053  65.3155470  45.3948058
  24.8213583  65.5596795  45.7229033  24.1937786  65.6825622  45.2696479
  39.6482907  72.2525019  37.1852961  40.3099341  71.6915688  37.0848870
  39.0074319  71.7577050  37.5105652  39.6511774  72.0961428  37.2185301
  30.5359714  75.5495151  29.4933885  30.9510863  75.2180174  28.8018380
  29.7051644  75.3164053  29.3654021  30.4747723  75.4666406  29.3724732
  19.8648063  73.0338892  39.7832062  19.6823636  73.0085778  38.9304355
  20.5997732  73.5037829  39.8220971  19.9462127  73.1000254  39.6629981
  35.9347737  73.2690402  36.9264950  36.1703327  73.4135600  36.0991801
  36.0837301  74.0332810  37.3196464  35.9913541  73.4029456  36.8628554
  22.9293815  69.7523894  46.2914171  23.6533787  69.7376925  46.7779066
  23.0309951  70.4619250  45.7936139  23.0512024  69.8548598  46.2892958
  37.7638194  72.1092067  34.7634554  38.0946411  72.6419708  34.1574649
  38.3371282  72.1630955  35.4196505  37.8971873  72.1961636  34.7712336
  30.3038764  73.2322979  51.1563118  29.5111745  73.5466491  51.3415738
  30.4187691  73.4474447  50.3183903  30.2034175  73.3106816  51.0601453
  32.9770083  69.9556970  35.4458134  33.0716938  70.6946264  35.8997759
  32.3528927  69.5274446  35.8792699  32.8979113  70.0018291  35.5766282
  31.2322557  73.1343183  46.0948415  31.8061419  72.4970427  46.2496979
  31.1537361  73.1347265  45.2258073  31.3055792  73.0408294  45.9894826
  19.8318974  69.9132392  39.9331129  20.4092476  69.7768843  40.5723374
  19.1333035  69.4568176  40.1876713  19.8139995  69.8254658  40.0653419
  33.2293105  71.8005710  28.6795086  33.1473267  71.8707897  29.5450073
  33.8672825  72.3635454  28.4878827  33.3112942  71.8944681  28.7785035
  26.5886276  71.5666448  38.1469612  26.3305520  70.7338183  38.1200912
  26.6434759  71.7924061  37.3062113  26.5586054  71.4764219  38.0189749
  31.6687326  63.6694899  38.2473705  30.9643653  63.1804084  38.4057624
  31.7172300  63.6817373  37.3762149  31.5717377  63.5984547  38.1413045
  25.5620988  69.1204210  38.6334507  24.9870579  69.2796379  39.2698468
  25.1856664  68.4839619  38.1702958  25.4223800  69.0502023  38.6589065
  29.2294277  67.5927560  43.4926885  28.8408709  67.1681777  42.8379077
  28.5648975  67.8409709  44.0003912  29.0741204  67.5666281  43.4714753
  38.8717546  67.3502564  36.2674716  38.6154110  66.5382506  36.0772598
  39.7146860  67.3580131  36.0404903  38.9583571  67.2314562  36.2059533
  15.3077807  68.7644285  36.6478948  15.3938059  68.3876153  37.4292478
  15.9353604  68.3904731  36.1698906  15.4134358  68.6529767  36.6924425
  33.0520638  61.2902188  41.0050870  33.4331150  60.6080359  41.3918744
  32.2483922  61.0011790  40.8226534  32.9897100  61.1469237  41.0354926
  30.3333215  71.8226164  31.6903692  31.1473854  72.1141057  31.5786464
  30.2692356  71.1686027  31.1161985  30.4435954  71.7691359  31.5892530
  36.5542705  74.5052160  46.1033268  36.3181342  73.6740225  45.9845329
  37.1985934  74.4537768  46.6888112  36.6137376  74.3749848  46.1719162
  26.2041123  75.2947682  36.8176005  26.8415070  75.0559429  37.3627798
  26.6296195  75.4984841  36.0829165  26.3617289  75.2898692  36.7893162
  26.8443938  70.5149971  31.1550894  27.2289091  70.2957678  31.9067439
  26.5955558  71.3412917  31.2851970  26.8646011  70.6048118  31.2851970
  27.0112478  63.7956387  50.8713478  26.6965920  64.5655949  50.6083041
  26.6902411  63.2326643  50.2865705  26.9171398  63.8266655  50.7454828
  37.5779126  74.2896609  42.1661563  37.2724943  75.0224666  42.5274878
  36.8585341  73.8834539  41.8854349  37.4266468  74.3378342  42.1774700
  28.5862595  75.7720104  38.4969791  28.6601603  75.6095276  39.3511641
  29.4032101  75.9610294  38.2530272  28.7178954  75.7756847  38.5867816
  43.2780918  70.9289610  41.4929907  43.2105418  70.9485569  40.6232493
  43.2636580  71.7719937  41.7185577  43.2659674  71.0563344  41.3982384
  24.5644375  62.1846908  36.4859674  23.6966801  62.2569508  36.5517284
  24.8519580  62.9868987  36.6747650  24.4784124  62.3141055  36.5234441
  33.6877264  62.3324768  44.8170996  34.4330856  62.1434578  44.4034422
  33.2714569  62.8583005  44.2584853  33.7362238  62.3826913  44.6735570
  41.0639535  69.7033996  39.7676501  41.6147457  69.0702065  40.0073593
  41.0483650  70.2349389  40.4592006  41.1424731  69.6882944  39.9055359
  27.7161926  73.5372593  44.3136395  27.2173620  74.2488361  44.3921283
  28.5262150  73.8573260  44.2754557  27.7618033  73.6899442  44.3192963
  23.9790043  72.7995546  38.5599116  23.6903292  72.1733018  39.0944843
  24.8473392  72.7415834  38.6263796  24.0650295  72.6983091  38.6490070
  34.7667941  67.9430330  38.8781097  34.4232707  67.2220665  39.2288347
  34.8660984  67.7344181  38.0359456  34.7309984  67.8054533  38.8052777
  24.1822317  74.4390797  34.4841481  24.9368285  74.8203836  34.6976943
  23.5892930  74.8901941  34.9388177  24.2059030  74.5619625  34.5824359
  35.2280970  74.4056034  34.4205086  35.7939003  75.0649244  34.3363629
  34.5808874  74.7505732  34.8921488  35.2159727  74.5537975  34.4777842
  26.6428984  66.3953638  49.6098693  25.8328760  66.7011417  49.4988535
  27.1203671  67.1159220  49.7251277  26.5932463  66.5468239  49.6105764
  25.5020543  75.6099359  39.8581596  24.9801297  75.7499650  40.5433461
  25.8894564  74.8510023  40.0483713  25.4824244  75.5184883  39.9882673
  22.4911728  65.6605167  33.9276551  22.2036523  65.2906438  33.1908498
  23.1782196  66.1300023  33.6660256  22.5500625  65.6752137  33.7791626
  31.6987548  77.3494818  33.8442165  31.4574224  76.6162679  33.4369230
  31.8788881  77.8981675  33.1908498  31.6895172  77.3217209  33.6872388
  26.9286869  72.6403378  35.2563087  26.7329652  73.2478112  34.6623390
  27.1521215  71.9471322  34.7754761  26.9321510  72.6280903  35.0979168
  25.3265399  69.5258116  35.3743955  26.0488051  69.6899274  34.9147761
  24.8473392  70.2467780  35.2683295  25.3629130  69.6556345  35.2909569
  33.2858907  65.8621914  40.7540640  32.4470007  65.8883193  40.5178904
  33.3563274  66.5092650  41.3345987  33.1727300  65.9618040  40.8049757
  22.9773016  71.9316188  44.4798095  23.4894113  72.2100441  43.8306855
  22.6909358  72.6705482  44.8460908  23.0107879  72.0818542  44.4387973
  37.1616431  71.0689901  38.0401882  37.0750405  71.2245327  38.8936661
  36.7066910  71.7127977  37.6661287  37.0819687  71.1865656  38.1108989
  20.0639922  66.4386380  34.7761832  20.1656059  67.2412541  35.1042807
  20.8595809  66.2373716  34.4784912  20.1967828  66.5272279  34.7797187
  26.4956741  64.0242577  44.5399137  26.3039938  64.0397711  45.3898560
  27.3455337  64.2206251  44.5165792  26.5932463  64.0556928  44.6622432
  20.8803654  66.5533558  42.5182953  20.7389146  65.7017499  42.6427461
  21.1644218  66.5962219  41.6945159  20.9011500  66.4333308  42.4150577
  31.0342247  68.3900648  36.6627442  30.7876961  68.3096399  37.4964231
  31.3627370  67.6054116  36.4689969  31.0463490  68.2626914  36.7574965
  34.9290295  75.0984008  40.4514223  34.7904655  75.7965053  40.9562965
  34.1490293  74.9432664  40.0950405  34.7933522  75.1784174  40.4740497
  33.2668381  71.3980383  46.7036605  33.2616419  70.5260200  46.7079031
  33.9729374  71.5968552  46.2306060  33.3713385  71.2984257  46.6343640
  26.9939274  71.1257367  46.0750425  27.1382650  71.7058575  45.4393535
  27.3414922  71.5033664  46.7800279  27.0666735  71.2678071  46.0849420
  29.1659191  70.3247535  43.8575556  28.4182505  70.5178550  43.4523834
  29.3200716  69.4992755  43.6199678  29.0781619  70.2312647  43.7620962
  36.4243668  74.4562261  31.2130722  36.0450477  73.6699399  31.2060011
  35.7609914  75.0049118  31.0702366  36.2702143  74.4207085  31.1911519
  29.4060968  64.2198086  44.7470960  29.8633582  64.9522060  44.8743752
  29.4817297  63.7964551  45.5058216  29.4851938  64.2655324  44.8772037
  21.6493959  64.4663906  45.8360404  21.1136149  63.8544264  46.1521171
  21.7111724  65.0412042  46.4894070  21.5789592  64.4610833  45.9795830
  33.8788294  57.3987961  38.6164803  33.9971862  57.8564424  37.8832106
  33.7050470  56.5933222  38.3301021  33.8707465  57.3481733  38.4665737
  27.2843346  66.2100190  41.5912784  26.4939421  66.0291650  41.9130120
  27.6803969  65.4327142  41.5743079  27.2260222  66.0687651  41.6365332
  31.7709237  75.0387964  27.0319498  32.5382222  75.0988089  26.6225349
  31.3240546  74.4668406  26.5475816  31.8182664  74.9624540  26.8997208
  32.6687032  73.8442620  39.3172230  31.9932034  73.6127852  39.8185617
  32.6779409  73.2363803  38.6914335  32.5705537  73.7201545  39.2988382
  29.7981176  68.6860449  46.0736283  29.7340318  69.5470405  45.9456420
  29.9378364  68.3692442  45.2731834  29.8096646  68.7660616  45.9364496
  34.6703767  76.7007752  31.5482408  34.7523604  77.5074739  31.2243859
  35.1553509  76.7203712  32.2723181  34.7540925  76.8228415  31.6069307
  28.4800270  71.3792588  40.2152486  28.0562519  71.5797087  39.4791504
  28.3045125  70.5321436  40.3276786  28.3911151  71.2841370  40.1226176
  23.7682715  71.8744640  35.6480458  23.9247334  71.8091443  36.5036450
  24.1083308  72.6493192  35.4359138  23.8415950  71.9793838  35.7435053
  30.3061860  71.2502523  34.5173822  30.8477405  70.7472904  34.9812442
  30.6208419  71.1967718  33.7063307  30.4326257  71.1681944  34.4657634
  34.1778967  75.4605171  51.6300734  34.9913833  75.1890320  51.7905866
  34.0173934  75.1612711  50.8260930  34.2748916  75.3760097  51.5346140
  28.4748310  76.6419875  31.8013850  28.5441130  75.7834413  31.9406850
  29.2536765  76.8591756  31.4732874  28.6001160  76.5472739  31.7731007
  31.4551129  66.1438828  44.5696122  31.6693099  65.5049742  44.0159476
  30.8385028  66.5884652  44.1403984  31.3956459  66.1148972  44.4246553
  20.3416977  69.0579590  35.9641226  20.7215942  69.4764135  35.3001493
  19.7672342  69.6393046  36.2710069  20.3128302  69.2057449  35.9117967
  33.6190217  67.7527893  45.5079429  32.8066899  67.4453783  45.5892602
  34.0780152  67.2726893  46.0722141  33.5670602  67.6364385  45.6034023
  33.0295472  75.6307565  35.9556374  32.6710127  75.8022208  36.7320406
  32.5434183  76.0920771  35.3984372  32.9054169  75.7246536  35.9881643
  27.8183837  71.3106730  28.4956608  28.1076362  72.0871613  28.7700182
  27.9055636  70.7995462  29.1971107  27.8738094  71.3498649  28.6399106
  30.7143725  69.1587965  50.2908131  31.1843356  69.7830081  50.6776006
  30.7605605  68.4904940  50.8501346  30.7911601  69.1522645  50.4308203
  27.8714998  61.2644992  41.0156935  27.3553487  60.5725183  41.1408514
  27.3108927  61.9315769  40.9619534  27.7121512  61.2608250  41.0263001
  29.9407232  61.8037952  42.8449788  29.5538985  61.8286984  43.6263318
  29.4540169  61.2379631  42.3924304  29.8119741  61.7233703  42.8937691
  34.1900211  76.5211461  46.9023574  34.8279932  76.0271657  46.5686030
  33.5474303  76.4488861  46.3175801  34.1894438  76.4370470  46.7665929
  35.9157211  68.3700607  41.4689490  35.4884819  68.2826956  40.7137590
  35.2783264  68.4778382  42.0544334  35.7586819  68.3733267  41.4434932
  29.6064374  58.6904938  45.1360048  30.2357492  59.2265238  44.8581118
  29.7750236  58.5982296  45.9873613  29.7242168  58.7566300  45.2208576
  29.4078288  63.4776132  47.4086459  30.2351718  63.2061281  47.4645074
  29.4286135  64.2736974  47.7650277  29.5331139  63.5555886  47.4701642
  34.2454468  77.2131269  43.5428931  35.0346846  76.8620334  43.6631013
  34.4198066  78.0267658  43.2805565  34.3874750  77.2817126  43.5216799
  23.9847778  70.6239995  40.5956720  23.1435785  70.5243869  40.8035614
  24.1937786  71.3935475  40.9471041  23.8912471  70.7232038  40.6784035
  21.4623345  68.2459532  38.4241471  21.0680043  68.3202544  37.6491580
  20.9063462  68.6317478  38.9749832  21.3226158  68.3141307  38.3909130
  27.7964443  68.5521394  39.8454318  27.4927581  67.9977382  40.4464725
  27.0943864  68.7313604  39.3582352  27.6480653  68.4966177  39.8624023
  26.8530540  65.8621914  34.4099019  27.1290275  65.1440827  33.9976587
  27.4529210  66.4606834  34.2020125  26.9823805  65.8442285  34.3179781
  23.8756586  73.0183757  42.0148353  23.2844519  73.6593256  41.9851368
  24.6377610  73.4421375  41.9879652  23.9004847  73.1759596  42.0063500
  24.2717209  64.1785755  42.6816370  24.7318691  64.2524685  43.4191494
  24.3173316  64.9767009  42.3316192  24.3467764  64.3079902  42.7389127
  25.9200559  64.8452450  47.2488398  25.5286124  64.1985797  47.6844175
  26.0886421  65.4363885  47.8682653  25.8871469  64.8366718  47.4051104
  39.9947008  72.8489527  43.0125631  40.0530131  73.2976176  43.7585608
  39.3613475  73.2588340  42.5755711  39.9098303  72.9763262  43.0578179
  33.6346102  78.4693069  39.4480377  33.4365791  78.9583883  38.7536589
  33.0133813  78.6734310  40.0264511  33.5133667  78.5709607  39.4303601
  27.6954081  70.2377966  33.7890622  28.4396126  70.6252242  34.0273571
  27.8414777  69.3935391  33.9531109  27.8264666  70.1708439  33.8484591
  29.6133656  62.0328225  38.8222483  28.7669701  62.2051032  38.6963833
  29.6104789  61.2277568  39.1588311  29.4880806  61.9389254  38.8533610
  30.6831957  65.8103439  39.6884541  30.2091911  65.2845201  40.1989852
  31.0550092  65.2632912  39.1199402  30.6681846  65.6519436  39.6799688
  21.0604987  67.8074946  45.0568087  21.9230600  67.7070655  44.9705417
  20.7296770  67.2269655  44.4953659  21.1390183  67.7066572  44.9613493
  36.9468687  70.8705815  41.0991321  36.7066910  70.0312230  41.1033748
  37.4260694  70.9505981  41.8232095  36.9820871  70.7587214  41.2066124
  32.6115456  66.7039994  32.7510295  32.0838475  66.7868738  32.0616004
  33.0711164  67.4457865  32.7474939  32.6017307  66.8260656  32.6484990
  38.9473874  67.6507272  39.0520581  38.7083644  67.6103106  38.2141365
  39.1107775  68.4978424  39.1786302  38.9364178  67.7699357  38.9474063
  35.5519904  72.0357221  44.9825626  36.2754103  71.5829748  44.8036646
  35.2869867  72.3161887  44.1997954  35.6201178  72.0108190  44.8404341
  24.4206773  66.6317395  41.7178505  23.7959843  66.6435787  41.1104458
  24.0852368  67.1077570  42.3669745  24.2792265  66.7035912  41.7235073
  24.6048521  64.9742513  27.7751190  24.2561326  65.6262238  28.2382739
  24.1244967  64.9599626  27.0475061  24.4818765  65.0685567  27.7362281
  21.1332448  74.6917855  43.1582269  20.6032373  74.0010294  43.2077244
  21.4057542  74.6828040  42.3294978  21.0957171  74.5884987  43.0429685
  32.1652539  75.2743557  31.8819952  32.8886738  75.7401670  31.7384525
  31.7253130  75.3417167  31.1317549  32.2068231  75.3527394  31.7504733
  31.3338694  72.1341099  43.1320641  30.7195687  71.5899150  43.4269276
  31.8505979  71.6205336  42.6526457  31.3194356  71.9777508  43.1044869
  30.5734991  73.2045369  40.8664939  30.1462599  72.5795088  40.4330375
  30.5659935  72.9220291  41.6923947  30.5094132  73.0698150  40.9244767
  23.6897518  68.2410543  43.9353373  23.8491005  67.4853867  44.3405095
  23.5090412  68.7901482  44.5894111  23.6862877  68.2104356  44.0916079
  31.6317821  60.4071778  44.4904163  31.1358382  60.6035452  43.7995730
  32.3886883  60.8064446  44.3192965  31.6704646  60.4949512  44.3624300
  28.9020701  64.0814124  41.0807473  28.9263188  63.5474236  40.3920253
  29.1532174  63.5731433  41.7433064  28.9430619  63.9275028  41.0772118
  16.4128291  71.3645619  40.5150617  16.3071740  71.3192463  39.6502702
  15.6628511  71.7099400  40.7964902  16.2863893  71.4086527  40.4287947
  25.1822023  62.8084942  40.4613218  25.2220395  63.3094149  41.1747925
  24.3571688  62.8995336  40.1919141  25.0661549  62.8966759  40.5263756
  27.3651636  72.3745682  48.5633512  26.5147266  72.5117397  48.6991157
  27.5279764  71.6409460  49.0081214  27.2635499  72.2859783  48.6489111
  26.6036386  69.3245452  42.7587117  25.7728316  69.4919270  42.5522365
  26.5487904  68.9481403  43.5436002  26.4725801  69.2935183  42.8435645
  24.4120170  62.8154345  48.3943527  25.0372873  62.2716478  48.6672960
  23.9570650  62.3349263  47.8251318  24.4368430  62.6643826  48.3505121
  24.9772430  67.6001044  33.2877234  25.1175391  68.0973508  33.9905876
  25.4754963  66.8987338  33.4291448  25.0713511  67.5703022  33.4128813
  25.0072653  68.4668155  30.6169811  25.6417732  69.0628580  30.5519273
  25.0898263  68.1671612  31.4315681  25.1129204  68.5109063  30.7272898
  37.9855218  70.9983632  43.4856175  38.5773059  71.6380883  43.5174373
  38.4214213  70.3006669  43.7748242  38.1373650  70.9901982  43.5337008
  26.5851635  64.3982130  30.5915253  26.9067476  63.9185213  29.9374516
  26.8478579  65.2081776  30.4006065  26.6717661  64.4472028  30.4670745
  29.8148608  75.4201004  44.1114069  29.3073699  75.9736851  44.5554700
  29.5175254  75.4809294  43.2932844  29.6953493  75.5107316  44.0562526
  31.9810790  63.7854324  42.9538732  32.4065862  63.3326850  42.3422259
  31.3667784  63.2314395  43.2303520  31.9539436  63.6368300  42.9043758
  21.5125640  70.6635995  33.8859357  22.0217870  71.2600503  34.2670663
  21.9859913  70.3961969  33.2035777  21.6569016  70.7121811  33.8413880
  35.0104360  68.2128851  35.7859318  34.3395550  68.7558553  35.6572383
  35.7044110  68.6823706  35.5441013  35.0133227  68.3627122  35.7314846
  35.1732487  64.6684734  38.6949691  35.5260097  64.2414457  39.3695490
  34.3147289  64.5835578  38.8250768  35.0981932  64.5929475  38.8144702
  23.8716172  67.2992254  36.7532538  23.1528161  67.7156387  37.0205401
  24.2428534  67.8646493  36.2024176  23.8208104  67.4441535  36.7115345
  33.1715753  67.9320103  42.6434533  33.1513680  67.7503398  43.4969312
  33.2194954  68.8032121  42.6194117  33.1750394  68.0336641  42.7657828
  31.1162083  74.5207295  48.5683010  31.0757938  73.8756972  47.9828166
  31.9285401  74.4643912  48.8808422  31.2305236  74.4166262  48.5279959
  29.6462747  66.3390254  32.0905917  29.0527586  66.6607250  31.5390484
  29.6838024  65.4931349  31.8827023  29.5637136  66.2614582  31.9788688
  36.6056547  59.7903146  39.6234004  36.0987412  59.0832286  39.5555181
  37.4023981  59.4596335  39.7535080  36.6483786  59.6376298  39.6332999
  32.5220563  66.2969758  35.5207667  32.2934256  66.3202460  34.6786026
  32.7818639  65.4727225  35.6402678  32.5266751  66.1785838  35.4132865
  26.8039792  68.1504231  45.1232768  26.2918695  67.5425414  45.4817799
  26.6319288  68.8660824  45.5906743  26.7029429  68.1667531  45.2448991
  21.6505506  66.5941807  47.7735129  21.4808097  67.2543182  47.2283336
  21.2071456  66.8048368  48.4947618  21.5604840  66.7227789  47.7996759
  25.5765326  64.8346305  36.8161863  26.0522692  65.1963384  36.1812044
  25.0753925  65.4902772  37.0962006  25.5730685  64.9840493  36.7638604
  38.8076687  74.3068073  32.6074868  39.1910293  75.0559429  32.8372965
  38.0120801  74.5533892  32.3486857  38.7470469  74.4537767  32.6032442
  30.6808862  66.0728476  47.5635023  31.2380292  65.8442286  46.9313489
  30.3569927  66.8334142  47.2870236  30.7155272  66.1512313  47.4291520
  18.5507571  69.4988672  43.0323619  18.0034290  68.8289318  43.1504488
  19.3399949  69.1318520  43.0967086  18.5859754  69.3453659  43.0592320
  28.3991979  69.1596129  48.5287030  29.1503306  69.4747806  48.8426584
  28.5914556  68.9575300  47.7020952  28.5383393  69.1763511  48.4530426
  27.6191979  66.9787504  30.1835247  27.9990944  66.9967134  29.3986362
  26.8784575  67.4241493  30.0626094  27.5660817  67.0469279  30.0498815
  35.2477269  65.2869696  35.7710826  35.2471496  65.1318352  36.6295102
  35.0433449  66.1332683  35.7152211  35.2177047  65.3890316  35.8898765
  17.3094540  68.7109480  40.1869642  17.1316301  68.2586089  40.9124558
  17.0213562  69.5135641  40.3708120  17.2407493  68.7632038  40.3213145
  32.9718121  69.9667197  39.4247033  33.4671787  69.2490193  39.3851053
  32.1617897  69.6637995  39.3101520  32.9262015  69.8164844  39.4020758
  28.4176733  73.8165011  31.5744037  27.6088056  73.4931684  31.5277346
  28.9251642  73.1098233  31.5072286  28.3726400  73.6646327  31.5574331
  19.0467010  71.2437204  37.2991401  18.1812530  71.2322894  37.1874173
  19.1465826  71.0567427  38.1462541  18.9341177  71.2143265  37.4080346
  35.0369940  72.7170885  42.1124161  35.4625012  72.1945307  41.5594586
  34.6726860  73.3151722  41.5912784  35.0456543  72.7281112  41.9533171
  31.6248540  76.4305149  38.4425319  32.0959718  77.1445412  38.6115304
  31.9608718  75.8303899  38.9785188  31.7443655  76.4476614  38.5457695
  33.7125524  78.0406463  50.6217391  33.8222490  77.2515023  50.9774138
  34.0416421  77.9512399  49.8191729  33.7777930  77.9112316  50.5559782
  28.5418035  61.2032620  45.3983414  28.6745940  60.4063613  45.7264389
  28.9263187  61.7299023  45.9781689  28.6174363  61.1632537  45.5326916
  32.2622486  76.2223083  45.2053011  31.7143432  75.5980967  44.9373077
  32.7235515  76.4117355  44.4897091  32.2489695  76.1582134  45.0603443
  31.6150390  58.1262946  41.9964507  30.8096353  58.0160676  42.3132345
  31.4857125  58.2275402  41.1394373  31.4770523  58.1246616  41.9172547
  35.0716350  64.2908438  42.5904204  34.4879339  64.7917644  42.1781771
  35.3920644  63.7837994  41.9568527  35.0329526  64.2900273  42.4362711
  27.6111149  63.2049033  32.8662879  28.4326844  63.3747346  32.6244573
  27.1480800  63.3596294  32.1429176  27.6642312  63.2530766  32.7234523
  26.2006481  61.1991795  43.6461307  26.7450894  60.8582922  44.2365649
  26.2543417  62.0577256  43.7882592  26.2895601  61.2747054  43.7543181
  31.8280812  77.2274156  41.7362353  32.6479186  77.0837122  41.9978648
  31.5474890  77.8520355  42.2778791  31.9077556  77.2984508  41.8550292
  38.2269934  78.8193724  38.4248543  37.8973264  79.2704868  37.7552241
  37.5514936  78.7409888  38.9721549  38.0780371  78.8744860  38.4071766
  45.4346342  74.8079247  36.6698153  45.1199783  75.4982726  37.1018576
  44.9173284  74.7524030  35.9683654  45.3110813  74.9014136  36.6295102
  36.4325888  76.8806013  33.9071490  37.1871856  77.2484330  33.6688540
  36.2553423  77.2545567  34.6750670  36.5180367  76.9904201  33.9856379
  49.7260787  83.0300453  41.9519030  48.8889208  83.1002640  42.1866624
  49.6949018  83.0324948  41.0793332  49.5979070  83.0410680  41.8578578
  40.4682672  76.2902743  33.6398627  41.1968833  76.1118697  33.1936783
  40.5577565  77.1320822  33.8505805  40.5889334  76.3886621  33.6052145
  47.4068627  78.0943235  40.5362752  48.0494535  78.1641340  41.1224667
  47.6591648  77.4272458  40.0342294  47.5390759  78.0069584  40.5490031
  42.6419909  79.1880207  38.2473705  41.9376236  78.6989392  38.4057624
  42.6904884  79.2002681  37.3762149  42.5449961  79.1169854  38.1413045
  49.8450129  82.8687872  36.2674716  49.5886694  82.0567814  36.0772598
  50.6879443  82.8765439  36.0404903  49.9316155  82.7499870  36.2059533
  44.0253222  76.8087496  41.0050870  44.4063733  76.1265667  41.3918744
  43.2216506  76.5197098  40.8226534  43.9629683  76.6654545  41.0354926
  37.9845062  79.3141695  50.8713478  37.6698503  80.0841257  50.6083041
  37.6634995  78.7511951  50.2865705  37.8903981  79.3451963  50.7454828
  35.5376959  77.7032216  36.4859674  34.6699384  77.7754816  36.5517284
  35.8252163  78.5054295  36.6747650  35.4516707  77.8326363  36.5234441
  44.6609848  77.8510075  44.8170996  45.4063440  77.6619886  44.4034422
  44.2447152  78.3768313  44.2584853  44.7094822  77.9012221  44.6735570
  44.2591490  81.3807222  40.7540640  43.4202591  81.4068501  40.5178904
  44.3295858  82.0277958  41.3345987  44.1459884  81.4803348  40.8049757
  42.7060769  78.2792599  35.4868256  43.4087121  78.0800348  35.0088215
  42.4404957  77.5068542  35.7937100  42.7707401  78.1355565  35.4613698
  37.4689325  79.5427885  44.5399137  37.2772522  79.5583019  45.3898560
  38.3187921  79.7391559  44.5165792  37.5665047  79.5742236  44.6622432
  40.3793552  79.7383394  44.7470960  40.8366166  80.4707368  44.8743752
  40.4549881  79.3149859  45.5058216  40.4584522  79.7840632  44.8772037
  44.8520878  72.9173269  38.6164803  44.9704446  73.3749732  37.8832106
  44.6783053  72.1118530  38.3301021  44.8440049  72.8667041  38.4665737
  41.8198442  74.7724071  39.5583465  40.9491999  74.7462793  39.5116774
  42.0738783  74.6001264  38.7409311  41.7292002  74.7434215  39.4303602
  38.8447582  76.7830300  41.0156935  38.3286071  76.0910491  41.1408514
  38.2841511  77.4501077  40.9619534  38.6854095  76.7793558  41.0263001
  40.9139815  77.3223260  42.8449788  40.5271569  77.3472291  43.6263318
  40.4272753  76.7564939  42.3924304  40.7852324  77.2419011  42.8937691
  40.5796957  74.2090245  45.1360048  41.2090075  74.7450545  44.8581118
  40.7482820  74.1167604  45.9873613  40.6974752  74.2751608  45.2208576
  40.3810872  78.9961440  47.4086459  41.2084301  78.7246589  47.4645074
  40.4018718  79.7922282  47.7650277  40.5063722  79.0741194  47.4701642
  44.0720876  76.7426134  38.1045350  44.2770469  76.6748442  38.9502347
  43.7447300  77.5484955  38.0366527  44.0536124  76.8512074  38.2205005
  47.3254563  77.2957898  37.5848115  46.7128877  77.7828300  37.9701847
  47.4218738  76.6201389  38.1285766  47.2492461  77.2676207  37.7226973
  41.3273644  79.0520739  32.6845614  41.7817391  79.2231300  33.4093459
  41.8013690  78.4388850  32.2843390  41.4641964  78.9871625  32.7319376
  40.5866240  77.5513533  38.8222483  39.7402285  77.7236340  38.6963833
  40.5837372  76.7462876  39.1588311  40.4613390  77.4574562  38.8533610
  41.6564540  81.3288747  39.6884541  41.1824494  80.8030509  40.1989852
  42.0282676  80.7818220  39.1199402  41.6414429  81.1704744  39.6799688
  49.9206458  83.1692580  39.0520581  49.6816228  83.1288414  38.2141365
  50.0840359  84.0163732  39.1786302  49.9096761  83.2884665  38.9474063
  42.6050405  75.9257086  44.4904163  42.1090966  76.1220760  43.7995730
  43.3619467  76.3249754  44.3192965  42.6437229  76.0134820  44.3624300
  39.8753284  79.5999432  41.0807473  39.8995771  79.0659544  40.3920253
  40.1264758  79.0916741  41.7433064  39.9163203  79.4460336  41.0772118
  36.1554607  78.3270250  40.4613218  36.1952978  78.8279457  41.1747925
  35.3304271  78.4180644  40.1919141  36.0394132  78.4152067  40.5263756
  35.3852753  78.3339653  48.3943527  36.0105457  77.7901786  48.6672960
  34.9303233  77.8534571  47.8251318  35.4101014  78.1829134  48.3505121
  42.9543374  79.3039632  42.9538732  43.3798446  78.8512158  42.3422259
  42.3400367  78.7499703  43.2303520  42.9272019  79.1553608  42.9043758
  41.3937597  75.7754732  36.3629309  40.7505915  75.6252378  36.9314448
  41.0537004  75.5297077  35.5978414  41.2482674  75.7166854  36.3332324
  46.1465071  80.1870042  38.6949691  46.4992681  79.7599765  39.3695490
  45.2879872  80.1020886  38.8250768  46.0714515  80.1114783  38.8144702
  47.5789131  75.3088454  39.6234004  47.0719995  74.6017594  39.5555181
  48.3756565  74.9781643  39.7535080  47.6216370  75.1561605  39.6332999
  43.4953147  81.8155066  35.5207667  43.2666840  81.8387768  34.6786026
  43.7551223  80.9912533  35.6402678  43.4999335  81.6971146  35.4132865
  46.2209853  80.8055004  35.7710826  46.2204079  80.6503660  36.6295102
  46.0166033  81.6517991  35.7152211  46.1909631  80.9075624  35.8898765
  39.5150618  76.7217928  45.3983414  39.6478524  75.9248921  45.7264389
  39.8995771  77.2484331  45.9781689  39.5906947  76.6817844  45.5326916
  42.5882973  73.6448254  41.9964507  41.7828937  73.5345984  42.3132345
  42.4589709  73.7460710  41.1394373  42.4503106  73.6431924  41.9172547
  46.0448934  79.8093746  42.5904204  45.4611923  80.3102952  42.1781771
  46.3653228  79.3023302  41.9568527  46.0062109  79.8085581  42.4362711
  38.5843733  78.7234341  32.8662879  39.4059427  78.8932653  32.6244573
  38.1213384  78.8781602  32.1429176  38.6374895  78.7716074  32.7234523
  37.1739065  76.7177103  43.6461307  37.7183478  76.3768230  44.2365649
  37.2276001  77.5762564  43.7882592  37.2628184  76.7932362  43.7543181
  15.0747536  15.2661215  21.6345276  15.0441540  16.1205852  21.8063545
  15.6728885  14.9656508  22.1931419  15.1584694  15.3477712  21.7420078
   8.2747221  14.3536866  26.3898206   7.4185116  14.5145364  26.4407323
   8.3214874  13.4828930  26.4103267   8.1546332  14.2487668  26.4004272
   2.6588360  23.8899584  22.1535438   1.9071260  23.5115122  21.9251483
   3.1074372  23.9218018  21.4054248   2.6138027  23.8385191  22.0092940
  11.5840937  20.6223392  35.9958662  12.2907705  20.1275423  36.1245597
  11.7728873  21.0632473  35.2661320  11.7168843  20.6141742  35.9067708
   8.1113320  24.3124954  17.5820985   7.7764689  24.9901875  17.1465207
   8.6240191  23.9230265  16.9937857   8.1378901  24.3549532  17.4307776
   7.6517612  26.2639222  23.5232096   8.0356991  26.8326121  22.9836872
   7.5876753  25.5388733  23.0437913   7.6991039  26.2414686  23.3725959
  11.1199042  16.4128910  29.0329858  11.6655002  17.0913997  29.0923828
  11.0615918  16.2716371  28.1731439  11.1914956  16.4920912  28.9141918
   4.2373117  23.9017976  24.4198210   4.3383480  23.0918330  24.7295338
   3.6414862  23.8074923  23.7897889   4.1645655  23.7683004  24.3724449
  12.8964110  17.8413517  19.9063586  12.7803636  18.5921203  20.3355724
  13.6919997  17.5837470  20.1559673  12.9968700  17.9148364  20.0067677
   4.0773856  28.8195565  25.8213066   4.7211312  29.2608729  26.2109225
   4.4030112  28.0148992  25.7343325   4.2205685  28.7660760  25.8658544
   4.7794436  21.8307540  21.1932928   5.1010277  22.3712748  20.5894236
   5.4266532  21.2604312  21.3255218   4.9220491  21.8266715  21.1239963
   6.8296144  13.8323535  21.2767315   7.5276309  14.0111663  21.7688778
   7.1448477  13.3093875  20.6537704   6.9791481  13.7817307  21.2569325
   7.0184079  20.2193980  21.2647106   7.4577715  19.6111081  21.7101879
   6.8688742  19.8401354  20.4932571   7.0605545  20.0732451  21.2166274
   4.4855722  18.8137992  28.4665932   5.1304725  18.3210435  28.1476880
   4.7257499  18.9562779  29.2932010   4.6166307  18.7615434  28.5415465
   7.0241814  21.6592898  28.1172824   7.3065057  20.8644304  27.8959580
   7.7527974  22.1373485  28.1377885   7.1731377  21.6127495  28.0875839
  10.6193416  18.5721161  18.2177875  10.5344711  19.4282128  18.3627444
  11.1077799  18.2965486  18.8860035  10.6782313  18.6578483  18.3379957
  11.5511849  15.1905956  19.7175611  11.0223321  15.4065589  20.3772917
  12.0736869  15.8842094  19.6376580  11.5500302  15.3249093  19.8031210
  17.0059902  20.7652260  25.0908655  16.1757605  20.9762904  25.2542072
  16.9569154  19.9389315  24.8150939  16.8766637  20.6741866  25.0746020
   5.0669640  23.5956114  27.9256565   4.5496581  23.2363529  27.3217873
   5.7644031  23.0718289  27.9362631   5.0935221  23.4653802  27.8386823
   8.7233232  24.0450928  33.8872738   8.8116577  23.8577069  34.7350948
   9.1522944  23.3988358  33.4877584   8.7995334  23.9213936  33.9544489
   6.2903691  23.3282088  32.8690400   5.7274526  22.9154698  33.3930061
   7.0524715  23.2534994  33.2883543   6.3198140  23.2559489  33.0083400
   1.8499683  25.3180109  25.4727030   2.5520262  24.8032099  25.5299787
   1.7697166  25.6454261  26.2773905   1.9423443  25.2894336  25.5999822
  16.5013860  13.4122661  28.8859076  15.6642281  13.4824848  29.1206671
  16.4702091  13.4147156  28.0133379  16.3732143  13.4232888  28.7918624
   2.8978589  15.5555696  34.6007445   3.0699093  15.4461591  35.4492726
   3.4347947  16.2010102  34.3638637   3.0023593  15.6347698  34.6912542
   1.1750458  21.5086461  24.9812638   2.0139358  21.7409394  25.0286400
   1.2062227  20.6390773  24.9119673   1.3032176  21.4143408  24.9777283
   1.8003161  21.9287337  29.2825944   2.3401386  21.7858468  29.9529316
   1.1173108  22.3284087  29.6509970   1.7795315  21.9667008  29.4360365
  11.2244046  17.6078337  24.4770968  11.9801561  18.0409852  24.5159877
  11.3306371  16.9583107  25.0505604  11.3514217  17.5755821  24.5668993
  14.2624217  21.4351615  25.2273371  13.8259449  21.4388357  25.9832342
  13.9287133  22.1157114  24.7952948  14.1486837  21.5364070  25.2754203
   8.8353291  23.4759947  36.5516521   9.6193708  23.5890795  36.9172263
   8.6349885  22.6501084  36.7475207   8.9219316  23.3706667  36.6350907
  14.1821700   8.4765442  27.4702799  14.8247609   8.5463547  28.0564714
  14.4344721   7.8094665  26.9682341  14.3143832   8.3891791  27.4830078
   8.9923684  25.3870049  30.1982977   8.1938930  25.1469549  30.4556845
   9.4409696  25.4384442  30.9450024   8.9398295  25.3592441  30.3467901
  17.3968563  18.1532534  24.1193008  18.0584998  17.5923203  24.0188917
  16.7559975  17.6584565  24.4445699  17.3997431  17.9968943  24.1525348
   8.2845371  21.4502666  16.4273931   8.6996520  21.1187690  15.7358427
   7.4537301  21.2171568  16.2994068   8.2233380  21.3673922  16.3064779
  13.6833394  19.1697917  23.8604997  13.9188983  19.3143116  23.0331848
  13.8322958  19.9340325  24.2536511  13.7399197  19.3036971  23.7968601
   0.6779472  15.6531410  33.2254218   1.4019444  15.6384440  33.7119113
   0.7795608  16.3626765  32.7276186   0.7997681  15.7556113  33.2233005
  15.5123851  18.0099583  21.6974601  15.8432068  18.5427223  21.0914696
  16.0856939  18.0638471  22.3536552  15.6457530  18.0969152  21.7052382
   8.0524421  19.1330494  38.0903165   7.2597402  19.4474006  38.2755785
   8.1673348  19.3481963  37.2523950   7.9519832  19.2114331  37.9941500
  10.7255740  15.8564485  22.3798181  10.8202594  16.5953780  22.8337806
  10.1014584  15.4281961  22.8132745  10.6464770  15.9025806  22.5106328
   8.9808214  19.0350698  33.0288462   9.5547076  18.3977942  33.1837026
   8.9023018  19.0354781  32.1598119   9.0541449  18.9415809  32.9234873
   4.3371932  17.4673963  25.0809659   4.0791177  16.6345698  25.0540959
   4.3920415  17.6931576  24.2402159   4.3071710  17.3771734  24.9529796
   9.4172983   9.5702414  25.1813752   8.7129309   9.0811599  25.3397671
   9.4657957   9.5824888  24.3102196   9.3203034   9.4992062  25.0753092
   3.3106645  15.0211726  25.5674554   2.7356236  15.1803894  26.2038515
   2.9342321  14.3847135  25.1043004   3.1709457  14.9509539  25.5929112
   6.9779933  13.4935075  30.4266932   6.5894366  13.0689293  29.7719123
   6.3134632  13.7417225  30.9343959   6.8226861  13.4673796  30.4054800
  16.6203202  13.2510080  23.2014762  16.3639767  12.4390021  23.0112645
  17.4632516  13.2587647  22.9744950  16.7069228  13.1322077  23.1399579
  10.8006295   7.1909704  27.9390917  11.1816807   6.5087875  28.3258791
   9.9969579   6.9019306  27.7566581  10.7382757   7.0476752  27.9694972
   8.0818872  17.7233680  18.6243739   8.8959510  18.0148572  18.5126511
   8.0178013  17.0693542  18.0502032   8.1921611  17.6698874  18.5232577
  14.3028362  20.4059676  33.0373315  14.0666999  19.5747740  32.9185376
  14.9471591  20.3545283  33.6228159  14.3623032  20.2757364  33.1059208
   3.9526780  21.1955197  23.7516051   4.5900727  20.9566945  24.2967845
   4.3781851  21.3992356  23.0169212   4.1102946  21.1906207  23.7233209
  15.3264782  20.1904124  29.1001609  15.0210599  20.9232181  29.4614925
  14.6070998  19.7842054  28.8194395  15.1752125  20.2385857  29.1114746
   6.3348252  21.6727620  25.4309838   6.4087260  21.5102791  26.2851688
   7.1517758  21.8617809  25.1870319   6.4664610  21.6764362  25.5207863
  21.0266574  16.8297125  28.4269954  20.9591075  16.8493084  27.5572540
  21.0122237  17.6727452  28.6525624  21.0145331  16.9570860  28.3322431
  11.4362921   8.2332283  31.7511043  12.1816513   8.0442093  31.3374469
  11.0200226   8.7590521  31.1924899  11.4847895   8.2834428  31.6075616
   4.8752837  24.6362363  20.1623311   5.1651136  24.2451344  19.4382538
   5.6056318  24.8179068  20.6028586   5.0259722  24.6056176  20.1206118
  18.8125192  15.6041511  26.7016548  19.3633113  14.9709580  26.9413640
  18.7969307  16.1356904  27.3932052  18.8910388  15.5890459  26.8395406
   5.4647583  19.4380109  31.2476441   4.9659276  20.1495876  31.3261330
   6.2747807  19.7580775  31.2094604   5.5103689  19.5906957  31.2533010
   2.8158753  26.6129745  23.2283461   2.5959048  26.3227100  24.0210128
   2.5953275  25.9544700  22.7001373   2.7506347  26.4729453  23.2672369
   1.7275700  18.7003062  25.4939162   1.4388949  18.0740533  26.0284890
   2.5959048  18.6423349  25.5603843   1.8135952  18.5990606  25.5830117
  12.5153598  13.8437845  25.8121144  12.1718364  13.1228180  26.1628394
  12.6146641  13.6351696  24.9699503  12.4795641  13.7062048  25.7392824
   4.9826709  27.9859135  22.0114153   5.6350767  27.4535577  22.2405179
   4.2852318  27.6327787  22.3982027   4.9757427  27.8548658  22.1026321
   1.9307974  20.3398313  21.4181527   2.6853942  20.7211352  21.6316990
   1.3378586  20.7909456  21.8728224   1.9544687  20.4627140  21.5164406
  12.9766627  20.3063549  21.3545132  13.5424660  20.9656759  21.2703675
  12.3294531  20.6513247  21.8261535  12.9645384  20.4545490  21.4117889
   4.3914641  12.2961153  36.5438740   3.5814416  12.6018933  36.4328582
   4.8689327  13.0166735  36.6591324   4.3418119  12.4475754  36.5445811
   3.2506200  21.5106874  26.7921643   2.7286954  21.6507166  27.4773508
   3.6380221  20.7517538  26.9823760   3.2309901  21.4192398  26.9222719
   9.4473205  23.2502333  20.7782212   9.2059881  22.5170194  20.3709277
   9.6274538  23.7989190  20.1248545   9.4380829  23.2224724  20.6212435
   4.6772526  18.5410893  22.1903134   4.4815308  19.1485628  21.5963437
   4.9006871  17.8478837  21.7094808   4.6807167  18.5288419  22.0319215
   3.0751056  15.4265631  22.3084002   3.7973708  15.5906789  21.8487808
   2.5959049  16.1475296  22.2023342   3.1114787  15.5563861  22.2249616
  11.0344563  11.7629430  27.6880687  10.1955664  11.7890709  27.4518950
  11.1048931  12.4100165  28.2686034  10.9212957  11.8625556  27.7389804
   9.4813842   8.6614807  22.4208303  10.1840195   8.4622555  21.9428261
   9.2158030   7.8890749  22.7277147   9.5460474   8.5177773  22.3953745
  14.9102087  16.9697417  24.9741929  14.8236062  17.1252843  25.8276708
  14.4552567  17.6135492  24.6001334  14.8305344  17.0873172  25.0449036
   8.7827903  14.2908164  23.5967488   8.5362618  14.2103915  24.4304277
   9.1113026  13.5061631  23.4030016   8.7949147  14.1634429  23.6915012
  12.6775952  20.9991523  27.3854270  12.5390311  21.6972569  27.8903012
  11.8975950  20.8440179  27.0290451  12.5419179  21.0791690  27.4080544
  11.0154037  17.2987898  33.6376651  11.0102076  16.4267715  33.6419078
  11.7215031  17.4976067  33.1646107  11.1199041  17.1991772  33.5683687
   4.7424931  17.0264882  33.0090472   4.8868306  17.6066090  32.3733582
   5.0900579  17.4041179  33.7140326   4.8152392  17.1685586  33.0189466
   6.9144848  16.2255051  30.7915603   6.1668162  16.4186065  30.3863881
   7.0686373  15.4000270  30.5539724   6.8267276  16.1320162  30.6961009
   3.8152686  25.2167654  29.8751498   3.9642249  24.6570570  29.2224903
   4.5952688  25.2959656  30.2584017   3.9526779  25.1453220  29.8348447
  14.1729325  20.3569777  18.1470769  13.7936134  19.5706915  18.1400058
  13.5095570  20.9056634  18.0042413  14.0187800  20.3214601  18.1251566
   6.3405986  25.3882297  31.1535989   6.2649657  24.7191107  31.7086777
   6.2695845  26.0900085  31.6676655   6.3186593  25.3927204  31.3112837
   7.1546625  10.1205601  31.6811007   7.6119239  10.8529576  31.8083799
   7.2302954   9.6972067  32.4398263   7.2337595  10.1662839  31.8112083
   6.9976233  23.9083296  21.9859595   7.7626124  23.6392940  21.6642259
   6.8954323  23.4233306  22.7029658   7.0957729  23.7972860  22.0439423
   5.0329003  12.1107705  28.5252831   4.2425078  11.9299165  28.8470167
   5.4289626  11.3334658  28.5083125   4.9745879  11.9695166  28.5705379
  10.4172689  19.7450135  26.2512277   9.7417691  19.5135368  26.7525664
  10.4265065  19.1371318  25.6254382  10.3191194  19.6209061  26.2328429
   7.5466833  14.5867964  33.0076330   7.4825974  15.4477921  32.8796466
   7.6864021  14.2699958  32.2071881   7.5582303  14.6668131  32.8704543
  12.4189424  22.6015268  18.4822455  12.5009261  23.4082254  18.1583906
  12.9039166  22.6211227  19.2063228  12.5026582  22.7235930  18.5409353
   6.2285927  17.2800104  27.1492533   5.8048176  17.4804603  26.4131551
   6.0530782  16.4328952  27.2616832   6.1396808  17.1848885  27.0566223
   5.7297621  28.7950617  29.6113990   6.2193551  28.0961406  29.4289655
   5.1581853  28.4974487  30.1990047   5.7182150  28.6476840  29.6715031
   1.5168372  17.7752155  22.5820505   1.6732991  17.7098958  23.4376497
   1.8568965  18.5500708  22.3699185   1.5901607  17.8801353  22.6775099
   8.0547517  17.1510039  21.4513868   8.5963062  16.6480420  21.9152489
   8.3694076  17.0975233  20.6403354   8.1811914  17.0689460  21.3997680
  11.9264624  21.3612686  38.5640781  12.7399489  21.0897835  38.7245913
  11.7659590  21.0620226  37.7600977  12.0234573  21.2767612  38.4686186
   6.2233966  22.5427390  18.7353896   6.2926787  21.6841929  18.8746897
   7.0022422  22.7599271  18.4072921   6.3486816  22.4480254  18.7071054
   9.2036786  12.0446343  31.5036169   9.4178756  11.4057257  30.9499523
   8.5870685  12.4892167  31.0744031   9.1442115  12.0156487  31.3586600
  10.6141454  24.9665092  22.9490390  10.2221246  24.6631807  22.2313256
  10.7694526  25.8034181  22.7595344  10.5795044  25.0448928  22.8146887
  11.3675874  13.6535408  32.4419476  10.5552556  13.3461299  32.5232649
  11.8265809  13.1734409  33.0062188  11.3156259  13.5371901  32.5374070
  10.7781129  21.5315080  22.8896420  10.4195783  21.7029723  23.6660453
  10.2919840  21.9928286  22.3324419  10.6539826  21.6254051  22.9221689
   8.4629382  15.0595480  37.2248178   8.9329013  15.6837596  37.6116052
   8.5091262  14.3912455  37.7841393   8.5397257  15.0530160  37.3648250
  11.9385868  22.4218976  33.8363621  12.5765589  21.9279172  33.5026077
  11.2959960  22.3496377  33.2515848  11.9380095  22.3377985  33.7005976
  13.6642868  14.2708122  28.4029537  13.2370476  14.1834471  27.6477636
  13.0268921  14.3785898  28.9884381  13.5072475  14.2740782  28.3774978
   7.1563945   9.3783648  34.3426506   7.9837375   9.1068796  34.3985121
   7.1771791  10.1744489  34.6990324   7.2816795   9.4563402  34.4041689
  11.9940125  23.1138785  30.4768978  12.7832503  22.7627849  30.5971060
  12.1683723  23.9275173  30.2145612  12.1360406  23.1824642  30.4556846
   1.7333435  16.5247510  27.5296767   0.8921442  16.4251385  27.7375661
   1.9423443  17.2942991  27.8811087   1.6398128  16.6239554  27.6124082
  10.8473949   7.1248341  25.0385396  11.0523542   7.0570649  25.8842393
  10.5200373   7.9307163  24.9706574  10.8289197   7.2334282  25.1545051
   5.5450100  14.4528910  26.7794364   5.2413237  13.8984898  27.3804772
   4.8429521  14.6321120  26.2922399   5.3966310  14.3973692  26.7964070
   3.6068451  21.6678630  31.4866462   3.4988806  21.6780692  32.3528520
   3.8164232  22.4933411  31.2971416   3.6218562  21.7919705  31.5870554
  14.1007637   7.6780106  24.5188162  13.4881950   8.1650508  24.9041894
  14.1971811   7.0023596  25.0625813  14.0245534   7.6498414  24.6567020
   1.6242243  18.9191273  28.9488400   1.0330176  19.5600771  28.9191415
   2.3863267  19.3428890  28.9219699   1.6490504  19.0767111  28.9403547
   3.6686216  10.7459965  34.1828444   3.2771781  10.0993312  34.6184222
   3.8372078  11.3371401  34.8022700   3.6357126  10.7374233  34.3391150
  17.7432665  18.7497042  29.9465678  17.8015788  19.1983691  30.6925654
  17.1099132  19.1595855  29.5095758  17.6583960  18.8770777  29.9918226
  11.3831759  24.3700584  26.3820424  11.1851448  24.8591399  25.6876635
  10.7619470  24.5741826  26.9604558  11.2619324  24.4717122  26.3643647
   5.4439738  16.1385481  20.7230668   6.1881783  16.5259757  20.9613618
   5.5900434  15.2942906  20.8871156   5.5750323  16.0715954  20.7824638
   8.4317613  11.7110954  26.6224588   7.9577568  11.1852716  27.1329899
   8.8035749  11.1640427  26.0539449   8.4167502  11.5526951  26.6139735
  14.6954344  16.7713330  28.0331368  14.4552567  15.9319745  28.0373795
  15.1746351  16.8513497  28.7572142  14.7306528  16.6594730  28.1406171
  16.6959531  13.5514787  25.9860627  16.4569301  13.5110621  25.1481412
  16.8593432  14.3985939  26.1126348  16.6849834  13.6706872  25.8814109
  13.3005561  17.9364737  31.9165672  14.0239760  17.4837263  31.7376692
  13.0355523  18.2169402  31.1338000  13.3686834  17.9115705  31.7744388
   2.1692430  12.5324910  28.6518552   1.5445500  12.5443302  28.0444504
   1.8338024  13.0085085  29.3009792   2.0277921  12.6043427  28.6575120
   9.9138196  21.1751073  18.8159999  10.6372394  21.6409186  18.6724572
   9.4738787  21.2424682  18.0657596   9.9553888  21.2534909  18.6844780
   9.0824351  18.0348615  30.0660688   8.4681344  17.4906665  30.3609323
   9.5991636  17.5212851  29.5866504   9.0680013  17.8785024  30.0384916
   8.3220648  19.1052885  27.8004986   7.8948256  18.4802603  27.3670422
   8.3145592  18.8227807  28.6263993   8.2579789  18.9705665  27.8584814
   1.4383175  14.1418058  30.8693420   1.5976662  13.3861382  31.2745142
   1.2576069  14.6908997  31.5234158   1.4348534  14.1111872  31.0256126
   9.3803478   6.3079293  31.4244210   8.8844039   6.5042968  30.7335776
  10.1372540   6.7071962  31.2533011   9.4190303   6.3957027  31.2964346
   6.6506358   9.9821639  28.0147520   6.6748845   9.4481752  27.3260300
   6.9017831   9.4738948  28.6773111   6.6916276   9.8282543  28.0112165
   5.1137293  18.2753198  35.4973559   4.2632923  18.4124912  35.6331204
   5.2765420  17.5416976  35.9421261   5.0121156  18.1867299  35.5829158
   4.3522043  15.2252967  29.6927164   3.5213973  15.3926785  29.4862412
   4.2973560  14.8488918  30.4776049   4.2211458  15.1942699  29.7775692
  15.7340875  16.8991147  30.4196222  16.3258715  17.5388398  30.4514420
  16.1699870  16.2014184  30.7088289  15.8859306  16.8909498  30.4677055
   7.5634265  21.3208520  31.0454116   7.0559356  21.8744367  31.4894747
   7.2660911  21.3816810  30.2272891   7.4439150  21.4114831  30.9902573
   9.7296447   9.6861839  29.8878779  10.1551519   9.2334366  29.2762306
   9.1153440   9.1321910  30.1643567   9.7025093   9.5375816  29.8383804
  10.1742045  25.2371777  18.9758060   9.4571355  25.0632640  18.5105297
  10.8248783  25.0024350  18.4433546  10.1643896  25.1767570  18.8287278
  12.7590016  14.1136366  22.7199365  12.0881206  14.6566068  22.5912430
  13.4529767  14.5831221  22.4781060  12.7618884  14.2634637  22.6654892
   6.8076750  26.2533078  27.9511123   6.5842405  25.4951907  28.3195149
   6.3186594  26.2831099  27.2291563   6.7020199  26.1455302  27.8987864
  12.9218144  10.5692250  25.6289738  13.2745754  10.1421973  26.3035537
  12.0632945  10.4843093  25.7590814  12.8467589  10.4936990  25.7484748
   1.6201829  13.1999769  23.6872584   0.9013818  13.6163902  23.9545448
   1.9914191  13.7654008  23.1364223   1.5693761  13.3449051  23.6455391
  10.9201410  13.8327618  29.5774580  10.8999337  13.6510913  30.4309359
  10.9680610  14.7039637  29.5534164  10.9236051  13.9344156  29.6997875
   8.8647740  20.4214810  35.5023057   8.8243594  19.7764487  34.9168213
   9.6771058  20.3651428  35.8148469   8.9790893  20.3173777  35.4620006
   5.4555207  26.4733536  25.4048208   5.0415606  25.8107666  25.0152049
   6.1402581  26.6211395  24.8843902   5.4953579  26.3974194  25.2704705
   8.8220501  25.6323621  26.1571824   8.4236785  25.7425892  25.3892645
   8.2071721  25.8405688  26.7398384   8.6719391  25.6797189  26.1303124
  14.3542204   5.6910661  26.5574050  13.8473069   4.9839801  26.4895228
  15.1509638   5.3603850  26.6875127  14.3969443   5.5383813  26.5673045
  10.2706220  12.1977274  22.4547714  10.0419913  12.2209975  21.6126072
  10.5304296  11.3734741  22.5742725  10.2752408  12.0793354  22.3472912
   4.5525448  14.0511747  32.0572814   4.0404351  13.4432930  32.4157846
   4.3804944  14.7668339  32.5246790   4.4515085  14.0675046  32.1789038
   3.3250982  10.7353820  23.7501910   3.8008349  11.0970900  23.1152091
   2.8239582  11.3910288  24.0302053   3.3216341  10.8848009  23.6978651
  16.5562344  20.2075588  19.5414915  16.9395950  20.9566944  19.7713012
  15.7606457  20.4541408  19.2826904  16.4956126  20.3545282  19.5372488
   8.4294519  11.9735991  34.4975070   8.9865949  11.7449801  33.8653535
   8.1055584  12.7341657  34.2210282   8.4640929  12.0519828  34.3631567
   6.1477636  15.0603645  35.4627077   6.8988963  15.3755322  35.7766631
   6.3400212  14.8582816  34.6360999   6.2869050  15.0771026  35.3870473
  12.9962926  11.1877211  22.7050873  12.9957153  11.0325868  23.5635149
  12.7919106  12.0340198  22.6492258  12.9662704  11.2897832  22.8238812
  10.7203778  15.8674713  26.3587079  11.2157443  15.1497708  26.3191100
   9.9103554  15.5645510  26.2441566  10.6747671  15.7172359  26.3360805
   6.1662390  19.7172526  18.5084084   5.3573712  19.3939200  18.4617393
   6.6737299  19.0105748  18.4412332   6.1212056  19.5653842  18.4914378
  12.7855597  18.6178400  29.0464208  13.2110669  18.0952822  28.4934633
  12.4212517  19.2159238  28.5252831  12.7942200  18.6288627  28.8873218
   2.4209677  26.9142618  27.8061554   2.7356236  27.7279006  27.8139335
   2.8303090  26.5292836  28.4743713   2.5277775  26.9771320  27.9065645
   9.3734196  22.3312665  25.3765366   9.8445375  23.0452927  25.5455351
   9.7094375  21.7311415  25.9125235   9.4929311  22.3484129  25.4797742
  11.4611181  23.9413978  37.5557438  11.5708147  23.1522539  37.9114185
  11.7902078  23.8519914  36.7531776  11.5263587  23.8119831  37.4899828
  12.8202007  10.1915953  29.5244251  12.2364996  10.6925160  29.1121818
  13.1406301   9.6845509  28.8908574  12.7815182  10.1907788  29.3702758
   9.5766469  23.1281671  28.6702399  10.3964843  22.9844637  28.9318695
   9.2960547  23.7527870  29.2118837   9.6563212  23.1992023  28.7890339
  19.2479804  29.8722174  26.3898206  18.3917700  30.0330672  26.4407323
  19.2947458  29.0014238  26.4103267  19.1278916  29.7672976  26.4004272
  13.6320944  39.4084892  22.1535438  12.8803844  39.0300430  21.9251483
  14.0806956  39.4403326  21.4054248  13.5870611  39.3570499  22.0092940
  19.0845904  39.8310261  17.5820985  18.7497272  40.5087183  17.1465207
  19.5972774  39.4415573  16.9937857  19.1111485  39.8734840  17.4307776
  18.6250195  41.7824530  23.5232096  19.0089575  42.3511429  22.9836872
  18.5609336  41.0574040  23.0437913  18.6723622  41.7599994  23.3725959
  15.2105700  39.4203284  24.4198210  15.3116063  38.6103638  24.7295338
  14.6147445  39.3260231  23.7897889  15.1378239  39.2868312  24.3724449
  23.8696694  33.3598825  19.9063586  23.7536220  34.1106511  20.3355724
  24.6652581  33.1022778  20.1559673  23.9701283  33.4333672  20.0067677
  15.0506440  44.3380873  25.8213066  15.6943895  44.7794037  26.2109225
  15.3762695  43.5334299  25.7343325  15.1938268  44.2846068  25.8658544
   8.4070744  35.4423571  24.0450544   8.1720929  34.6091223  23.9382813
   8.5456385  35.7228236  23.2311745   8.3926407  35.3607074  23.9092899
  10.7060832  27.6109301  26.9434852  10.0865864  27.0201949  26.7744866
  10.6044696  28.2020737  26.3099175  10.5998507  27.6113384  26.8239841
  15.7527019  37.3492848  21.1932928  16.0742861  37.8898055  20.5894236
  16.3999116  36.7789620  21.3255218  15.8953075  37.3452023  21.1239963
  17.8028728  29.3508843  21.2767315  18.5008892  29.5296971  21.7688778
  18.1181060  28.8279182  20.6537704  17.9524065  29.3002615  21.2569325
  10.4329965  31.1561583  29.1878421  10.3088662  31.7424029  29.8228239
  11.0848249  30.6621779  29.4890696  10.5103614  31.1700387  29.3264350
  17.9916663  35.7379288  21.2647106  18.4310298  35.1296389  21.7101879
  17.8421326  35.3586661  20.4932571  18.0338129  35.5917759  21.2166274
  15.4588306  34.3323300  28.4665932  16.1037308  33.8395743  28.1476880
  15.6990083  34.4748087  29.2932010  15.5898891  34.2800742  28.5415465
  17.9974397  37.1778206  28.1172824  18.2797640  36.3829612  27.8959580
  18.7260558  37.6558793  28.1377885  18.1463961  37.1312803  28.0875839
  15.9755591  24.7201240  25.3588589  15.6458921  25.1712383  24.6892288
  15.3000593  24.6417403  25.9061596  15.8266027  24.7752375  25.3411813
  21.5926000  34.0906469  18.2177875  21.5077295  34.9467436  18.3627444
  22.0810383  33.8150793  18.8860035  21.6514897  34.1763791  18.3379957
  23.1831999  20.7086763  23.6038200  22.8685440  21.3990241  24.0358622
  22.6658941  20.6531545  22.9023701  23.0596469  20.8021651  23.5635149
  22.5244433  30.7091264  19.7175611  21.9955904  30.9250897  20.3772917
  23.0469453  31.4027402  19.6376580  22.5232886  30.8434400  19.8031210
  14.4144041  34.6054480  18.5183079  13.8301256  35.1104512  18.9248942
  14.0114136  34.3796867  17.7779671  14.2683344  34.6462729  18.4688104
   9.9688069  40.3209241  25.3206750   9.4855647  41.0459731  25.2966334
  10.7811387  40.6185372  25.4316908  10.0178817  40.4711595  25.3334029
  16.0402223  39.1141422  27.9256565  15.5229165  38.7548837  27.3217873
  16.7376614  38.5903597  27.9362631  16.0667804  38.9839110  27.8386823
  18.8721255  30.8520132  16.9951999  19.1117259  31.0598116  16.1827342
  19.1937096  30.0477641  17.1040944  18.9558413  30.7634234  16.8912552
  14.1811545  22.7813528  20.8411537  14.9357513  23.1491845  20.6028587
  14.0039080  23.1553083  21.6090717  14.2666024  22.8911716  20.9196426
  12.8232266  40.8365417  25.4727030  13.5252846  40.3217406  25.5299787
  12.7429749  41.1639569  26.2773905  12.9156027  40.8079644  25.5999822
  13.8711173  31.0741004  34.6007445  14.0431677  30.9646899  35.4492726
  14.4080530  31.7195410  34.3638637  13.9756177  31.1533006  34.6912542
  12.5368610  25.1883847  17.5389650  12.3544183  25.4055728  16.7130643
  13.3994223  25.3022860  17.5948265  12.6373199  25.2373745  17.4244137
  12.1483042  37.0271769  24.9812638  12.9871941  37.2594702  25.0286400
  12.1794811  36.1576081  24.9119673  12.2764759  36.9328716  24.9777283
  12.7735745  37.4472645  29.2825944  13.3133970  37.3043776  29.9529316
  12.0905691  37.8469395  29.6509970  12.7527899  37.4852316  29.4360365
  18.2168329  22.1910258  20.5738674  18.9454489  22.0126213  20.1276830
  18.3063222  23.0328338  20.7845852  18.3374991  22.2894136  20.5392192
   8.1772890  33.6672935  29.4360365   7.9111305  32.8512052  29.5951355
   8.1911454  33.7126091  28.5655881   8.1397612  33.5529840  29.3313847
  12.0830637  28.4658020  16.0512123  11.3688814  28.1796199  16.4634556
  12.5674606  28.8054646  16.6918511  12.0490000  28.4739669  16.2067758
  12.9271496  27.2051314  32.0827373  12.2343293  26.7348293  32.3288104
  13.5431824  26.9789618  32.6569080  12.9156026  27.1018445  32.2036525
  19.2577955  36.9687974  16.4273931  19.6729103  36.6372998  15.7358427
  18.4269884  36.7356876  16.2994068  19.1965964  36.8859230  16.3064779
   8.5866304  34.4531715  26.7172109   8.4041877  34.4278601  25.8644402
   9.3215972  34.9230653  26.7561018   8.6680367  34.5193077  26.5970028
  11.6512055  31.1716718  33.2254218  12.3752028  31.1569748  33.7119113
  11.7528192  31.8812073  32.7276186  11.7730264  31.2741421  33.2233005
  26.4856434  33.5284891  21.6974601  26.8164652  34.0612531  21.0914696
  27.0589523  33.5823778  22.3536552  26.6190114  33.6154460  21.7052382
  19.0257005  34.6515802  38.0903165  18.2329985  34.9659314  38.2755785
  19.1405932  34.8667271  37.2523950  18.9252415  34.7299639  37.9941500
  21.6988324  31.3749793  22.3798181  21.7935178  32.1139087  22.8337806
  21.0747167  30.9467269  22.8132745  21.6197354  31.4211114  22.5106328
   8.5537214  31.3325215  26.8671176   9.1310717  31.1961666  27.5063421
   7.8551276  30.8761000  27.1216760   8.5358235  31.2447482  26.9993466
  21.9511345  33.2198533  15.6135133  21.8691507  33.2900720  16.4790120
  22.5891065  33.7828277  15.4218873  22.0331182  33.3137504  15.7125082
  15.3104516  32.9859271  25.0809659  15.0523760  32.1531006  25.0540959
  15.3652999  33.2116884  24.2402159  15.2804294  32.8957042  24.9529796
  20.3905566  25.0887722  25.1813752  19.6861893  24.5996907  25.3397671
  20.4390541  25.1010196  24.3102196  20.2935618  25.0177370  25.0753092
  14.2839228  30.5397034  25.5674554  13.7088819  30.6989202  26.2038515
  13.9074905  29.9032443  25.1043004  14.1442041  30.4694847  25.5929112
  17.9512517  29.0120383  30.4266932  17.5626950  28.5874601  29.7719123
  17.2867215  29.2602533  30.9343959  17.7959445  28.9859104  30.4054800
   4.0296047  30.1837108  23.5818994   4.1156299  29.8068977  24.3632524
   4.6571845  29.8097554  23.1038953   4.1352598  30.0722591  23.6264472
  19.0551455  33.2418987  18.6243739  19.8692094  33.5333880  18.5126511
  18.9910596  32.5878850  18.0502032  19.1654194  33.1884182  18.5232577
  14.9259363  36.7140505  23.7516051  15.5633310  36.4752252  24.2967845
  15.3514435  36.9177664  23.0169212  15.0835530  36.7091515  23.7233209
   9.6172006  38.9528841  27.6350355   9.6576151  39.2243693  26.8070135
  10.1766530  39.4770750  28.0508143   9.7055352  39.0704597  27.5742243
  15.5662178  31.9342795  18.0890941  15.9507331  31.7150501  18.8407486
  15.3173799  32.7605740  18.2192017  15.5864251  32.0240941  18.2192017
  15.7330719  25.2149210  37.8053525  15.4184160  25.9848773  37.5423088
  15.4120651  24.6519466  37.2205752  15.6389638  25.2459479  37.6794875
  17.3080835  37.1912928  25.4309838  17.3819844  37.0288099  26.2851688
  18.1250342  37.3803117  25.1870319  17.4397194  37.1949670  25.5207863
  11.0686592  37.5370790  22.4604281  10.2424710  37.7832528  22.3338560
  11.1298583  37.4582871  23.3266339  10.9560759  37.5615739  22.5693226
  13.2862616  23.6039731  23.4199721  12.4185041  23.6762331  23.4857330
  13.5737820  24.4061810  23.6087696  13.2002364  23.7333878  23.4574488
  15.8485421  40.1547671  20.1623311  16.1383719  39.7636652  19.4382538
  16.5788902  40.3364376  20.6028586  15.9992305  40.1241484  20.1206118
  16.4380166  34.9565417  31.2476441  15.9391860  35.6681184  31.3261330
  17.2480391  35.2766083  31.2094604  16.4836273  35.1092265  31.2533010
  13.7891337  42.1315053  23.2283461  13.5691632  41.8412408  24.0210128
  13.5685859  41.4730008  22.7001373  13.7238931  41.9914761  23.2672369
  12.7008284  34.2188370  25.4939162  12.4121532  33.5925841  26.0284890
  13.5691632  34.1608657  25.5603843  12.7868536  34.1175914  25.5830117
  15.9559292  43.5044443  22.0114153  16.6083350  42.9720885  22.2405179
  15.2584901  43.1513095  22.3982027  15.9490010  43.3733966  22.1026321
  12.9040557  35.8583621  21.4181527  13.6586525  36.2396660  21.6316990
  12.3111170  36.3094764  21.8728224  12.9277271  35.9812448  21.5164406
  23.9499211  35.8248857  21.3545132  24.5157243  36.4842067  21.2703675
  23.3027114  36.1698555  21.8261535  23.9377967  35.9730798  21.4117889
  15.3647224  27.8146461  36.5438740  14.5547000  28.1204241  36.4328582
  15.8421911  28.5352043  36.6591324  15.3150703  27.9661062  36.5445811
  14.2238784  37.0292182  26.7921643  13.7019537  37.1692474  27.4773508
  14.6112804  36.2702846  26.9823760  14.2042485  36.9377706  26.9222719
  11.2129968  27.0797991  20.8616598  10.9254764  26.7099261  20.1248545
  11.9000436  27.5492846  20.6000302  11.2718865  27.0944960  20.7131673
  20.4205789  38.7687641  20.7782212  20.1792465  38.0355502  20.3709277
  20.6007122  39.3174498  20.1248545  20.4113413  38.7410032  20.6212435
  15.6505109  34.0596201  22.1903134  15.4547892  34.6670935  21.5963437
  15.8739455  33.3664145  21.7094808  15.6539750  34.0473726  22.0319215
  14.0483639  30.9450939  22.3084002  14.7706291  31.1092097  21.8487808
  13.5691632  31.6660604  22.2023342  14.0847370  31.0749168  22.2249616
  11.6991256  33.3509011  31.4138142  12.2112353  33.6293265  30.7646902
  11.4127599  34.0898305  31.7800955  11.7326119  33.5011365  31.3728020
  20.4546425  24.1800115  22.4208303  21.1572778  23.9807863  21.9428261
  20.1890614  23.4076057  22.7277147  20.5193058  24.0363081  22.3953745
   8.7858162  27.8579203  21.7101879   8.8874299  28.6605365  22.0382854
   9.5814049  27.6566539  21.4124959   8.9186068  27.9465102  21.7137234
  15.2174982  25.4435400  31.4739184  15.0258179  25.4590534  32.3238607
  16.0673577  25.6399074  31.4505839  15.3150703  25.4749751  31.5962478
   9.6021895  27.9726381  29.4523000   9.4607386  27.1210322  29.5767508
   9.8862458  28.0155042  28.6285206   9.6229741  27.8526131  29.3490624
  19.7560487  29.8093472  23.5967488  19.5095201  29.7289222  24.4304277
  20.0845610  29.0246939  23.4030016  19.7681730  29.6819737  23.6915012
  15.7157514  32.5450190  33.0090472  15.8600890  33.1251398  32.3733582
  16.0633163  32.9226487  33.7140326  15.7884976  32.6870894  33.0189466
  14.7885269  40.7352962  29.8751498  14.9374833  40.1755878  29.2224903
  15.5685271  40.8144964  30.2584017  14.9259363  40.6638527  29.8348447
  25.1461909  35.8755085  18.1470769  24.7668717  35.0892223  18.1400058
  24.4828154  36.4241942  18.0042413  24.9920383  35.8399909  18.1251566
  18.1279209  25.6390909  31.6811007  18.5851823  26.3714884  31.8083799
  18.2035537  25.2157374  32.4398263  18.2070178  25.6848147  31.8112083
  10.3712200  25.8856729  32.7700451   9.8354389  25.2737087  33.0861218
  10.4329965  26.4604865  33.4234117  10.3007832  25.8803657  32.9135877
  22.6006535  18.8180784  25.5504850  22.7190103  19.2757248  24.8172152
  22.4268710  18.0126046  25.2641067  22.5925705  18.7674557  25.4005783
  17.9708817  39.4268604  21.9859595  18.7358708  39.1578247  21.6642259
  17.8686907  38.9418614  22.7029658  18.0690312  39.3158168  22.0439423
  16.0061586  27.6293013  28.5252831  15.2157661  27.4484473  28.8470167
  16.4022209  26.8519966  28.5083125  15.9478463  27.4880474  28.5705379
  20.4927477  36.4580787  13.9659544  21.2600462  36.5180912  13.5565396
  20.0458786  35.8861229  13.4815863  20.5400905  36.3817363  13.8337255
  21.3905273  35.2635443  26.2512277  20.7150275  35.0320676  26.7525664
  21.3997649  34.6556626  25.6254382  21.2923777  35.1394369  26.2328429
  18.5199417  30.1053272  33.0076330  18.4558558  30.9663229  32.8796466
  18.6596605  29.7885265  32.2071881  18.5314887  30.1853439  32.8704543
  23.3922007  38.1200576  18.4822455  23.4741845  38.9267562  18.1583906
  23.8771750  38.1396535  19.2063228  23.4759165  38.2421238  18.5409353
  17.2018511  32.7985412  27.1492533  16.7780760  32.9989911  26.4131551
  17.0263366  31.9514260  27.2616832  17.1129391  32.7034193  27.0566223
  16.7030204  44.3135925  29.6113990  17.1926134  43.6146714  29.4289655
  16.1314436  44.0159795  30.1990047  16.6914734  44.1662148  29.6715031
  12.4900956  33.2937463  22.5820505  12.6465575  33.2284266  23.4376497
  12.8301549  34.0686016  22.3699185  12.5634190  33.3986661  22.6775099
  19.0280100  32.6695347  21.4513868  19.5695646  32.1665728  21.9152489
  19.3426659  32.6160541  20.6403354  19.1544497  32.5874768  21.3997680
  17.1966550  38.0612698  18.7353896  17.2659370  37.2027237  18.8746897
  17.9755005  38.2784579  18.4072921  17.3219400  37.9665562  18.7071054
  21.5874038  40.4850399  22.9490390  21.1953829  40.1817115  22.2313256
  21.7427110  41.3219489  22.7595344  21.5527627  40.5634236  22.8146887
   9.0635217  30.4772414  22.8981272   9.4434182  30.8956958  22.2341540
   8.4890582  31.0585869  23.2050116   9.0346542  30.6250272  22.8458013
  21.7513712  37.0500388  22.8896420  21.3928367  37.2215031  23.6660453
  21.2652423  37.5113594  22.3324419  21.6272409  37.1439359  22.9221689
  19.5684098  20.6731587  26.4923512  18.6977656  20.6470308  26.4456821
  19.8224440  20.5008779  25.6749357  19.4777658  20.6441731  26.3643648
  16.5402078  32.7299554  15.4296655  16.8294603  33.5064436  15.7040229
  16.6273877  32.2188285  16.1311154  16.5956334  32.7691472  15.5739153
  19.4361965  30.5780788  37.2248178  19.9061596  31.2022904  37.6116052
  19.4823845  29.9097763  37.7841393  19.5129841  30.5715468  37.3648250
  16.5933239  22.6837815  27.9496982  16.0771727  21.9918007  28.0748561
  16.0327168  23.3508592  27.8959581  16.4339752  22.6801073  27.9603048
  18.6625472  23.2230775  29.7789835  18.2757225  23.2479807  30.5603365
  18.1758410  22.6572454  29.3264351  18.5337981  23.1426526  29.8277738
  18.3282614  20.1097761  32.0700095  18.9575732  20.6458061  31.7921165
  18.4968477  20.0175120  32.9213660  18.4460409  20.1759123  32.1548623
  18.1296529  24.8968955  34.3426506  18.9569958  24.6254104  34.3985121
  18.1504375  25.6929797  34.6990324  18.2549379  24.9748710  34.4041689
  12.7066019  32.0432818  27.5296767  11.8654025  31.9436692  27.7375661
  12.9156027  32.8128299  27.8811087  12.6130711  32.1424862  27.6124082
  10.1841586  29.6652355  25.3581517   9.7898283  29.7395367  24.5831627
   9.6281702  30.0510302  25.9089879  10.0444398  29.7334130  25.3249177
  21.8206532  22.6433649  25.0385396  22.0256126  22.5755957  25.8842393
  21.4932956  23.4492470  24.9706574  21.8021780  22.7519590  25.1545051
  16.5182684  29.9714217  26.7794364  16.2145821  29.4170206  27.3804772
  15.8162104  30.1506427  26.2922399  16.3698893  29.9159000  26.7964070
  15.5748781  27.2814737  21.3439066  15.8508515  26.5633650  20.9316634
  16.1747450  27.8799657  21.1360172  15.7042045  27.2635108  21.2519827
  14.5801035  37.1863938  31.4866462  14.4721389  37.1966000  32.3528520
  14.7896816  38.0118719  31.2971416  14.5951146  37.3105013  31.5870554
  25.0740220  23.1965414  24.5188162  24.4614534  23.6835816  24.9041894
  25.1704395  22.5208904  25.0625813  24.9978118  23.1683722  24.6567020
  19.0759301  24.9528255  19.6185661  19.5303048  25.1238815  20.3433506
  19.5499347  24.3396365  19.2183437  19.2127621  24.8879140  19.6659423
  12.5974827  34.4376581  28.9488400  12.0062760  35.0786079  28.9191415
  13.3595850  34.8614198  28.9219699  12.6223087  34.5952419  28.9403547
  12.9935449  25.5978578  29.6156417  13.4536931  25.6717508  30.3531541
  13.0391556  26.3959832  29.2656239  13.0686005  25.7272725  29.6729174
  14.6418799  26.2645273  34.1828444  14.2504364  25.6178620  34.6184222
  14.8104662  26.8556708  34.8022700  14.6089709  26.2559541  34.3391150
  22.3564343  39.8885892  26.3820424  22.1584031  40.3776707  25.6876635
  21.7352054  40.0927134  26.9604558  22.2351907  39.9902430  26.3643647
  16.4172321  31.6570789  20.7230668  17.1614366  32.0445065  20.9613618
  16.5633017  30.8128214  20.8871156  16.5482906  31.5901262  20.7824638
  18.3351897  23.4521048  25.7562530  17.4887942  23.6243856  25.6303880
  18.3323029  22.6470392  26.0928358  18.2099047  23.3582077  25.7873657
  19.4050197  27.2296262  26.6224588  18.9310151  26.7038024  27.1329899
  19.7768333  26.6825735  26.0539449  19.3900086  27.0712259  26.6139735
   9.7823227  29.2267769  31.9908134  10.6448840  29.1263478  31.9045463
   9.4515010  28.6462478  31.4293706   9.8608424  29.1259396  31.8953539
  21.3333697  28.1232817  19.6850342  20.8056715  28.2061561  18.9956050
  21.7929405  28.8650688  19.6814986  21.3235547  28.2453479  19.5825037
  13.1425013  28.0510218  28.6518552  12.5178083  28.0628610  28.0444504
  12.8070608  28.5270393  29.3009792  13.0010505  28.1228735  28.6575120
  13.3266762  26.3935336  14.7091237  12.9779566  27.0455062  15.1722786
  12.8463208  26.3792450  13.9815108  13.2037006  26.4878390  14.6702328
   9.8550689  36.1110678  30.0922316   9.3250613  35.4203117  30.1417291
  10.1275782  36.1020863  29.2635025   9.8175411  36.0077810  29.9769732
  19.2953231  34.6238193  27.8004986  18.8680839  33.9987911  27.3670422
  19.2878176  34.3413115  28.6263993  19.2312373  34.4890973  27.8584814
  12.4115759  29.6603366  30.8693420  12.5709245  28.9046690  31.2745142
  12.2308652  30.2094305  31.5234158  12.4081117  29.6297180  31.0256126
  20.3536061  21.8264601  31.4244210  19.8576623  22.0228276  30.7335776
  21.1105124  22.2257270  31.2533011  20.3922886  21.9142335  31.2964346
  17.6238941  25.5006947  28.0147520  17.6481428  24.9667060  27.3260300
  17.8750415  24.9924256  28.6773111  17.6648860  25.3467851  28.0112165
   5.1346531  32.7838442  27.4490664   5.0289980  32.7385287  26.5842748
   4.3846751  33.1292223  27.7304949   5.0082134  32.8279350  27.3627994
  13.9040263  24.2277766  27.3953265  13.9438635  24.7286972  28.1087972
  13.0789928  24.3188159  27.1259188  13.7879789  24.3159582  27.4603803
  16.0869876  33.7938505  35.4973559  15.2365507  33.9310220  35.6331204
  16.2498004  33.0602284  35.9421261  15.9853740  33.7052607  35.5829158
  15.3254627  30.7438275  29.6927164  14.4946556  30.9112093  29.4862412
  15.2706144  30.3674226  30.4776049  15.1944042  30.7128007  29.7775692
  13.1338410  24.2347168  35.3283574  13.7591113  23.6909301  35.6013007
  12.6788890  23.7542086  34.7591365  13.1586671  24.0836650  35.2845168
  13.6990671  29.0193867  20.2217281  13.8393632  29.5166331  20.9245923
  14.1973203  28.3180161  20.3631495  13.7931751  28.9895846  20.3468860
  13.7290893  29.8860978  17.5509858  14.3635972  30.4821403  17.4859320
  13.8116504  29.5864436  18.3655728  13.8347444  29.9301886  17.6612945
  15.3069876  25.8174953  17.5255300  15.6285717  25.3378036  16.8714562
  15.5696820  26.6274599  17.3346112  15.3935901  25.8664851  17.4010792
  18.5366849  36.8393828  31.0454116  18.0291940  37.3929675  31.4894747
  18.2393495  36.9002118  30.2272891  18.4171733  36.9300139  30.9902573
  10.2343881  32.0828819  20.8199404  10.7436110  32.6793326  21.2010710
  10.7078153  31.8154792  20.1375824  10.3787256  32.1314634  20.7753927
  21.1474629  40.7557085  18.9758060  20.4303939  40.5817948  18.5105297
  21.7981366  40.5209658  18.4433546  21.1376479  40.6952878  18.8287278
  19.1423254  21.6762247  23.2969356  18.4991572  21.5259893  23.8654495
  18.8022661  21.4304592  22.5318461  18.9968331  21.6174370  23.2672371
  17.7809334  41.7718386  27.9511123  17.5574988  41.0137215  28.3195149
  17.2919177  41.8016407  27.2291563  17.6752783  41.6640610  27.8987864
  23.8950728  26.0877558  25.6289738  24.2478338  25.6607280  26.3035537
  23.0365529  26.0028401  25.7590814  23.8200172  26.0122298  25.7484748
  12.5934413  28.7185077  23.6872584  11.8746402  29.1349210  23.9545448
  12.9646775  29.2839316  23.1364223  12.5426344  28.8634359  23.6455391
  16.4287791  41.9918844  25.4048208  16.0148189  41.3292974  25.0152049
  17.1135165  42.1396703  24.8843902  16.4686162  41.9159502  25.2704705
  19.7953085  41.1508929  26.1571824  19.3969368  41.2611200  25.3892645
  19.1804304  41.3590996  26.7398384  19.6451974  41.1982497  26.1303124
  18.3680987  27.7583077  19.0245964  17.7745826  28.0800074  18.4730531
  18.4056265  26.9124173  18.8167070  18.2855376  27.6807405  18.9128735
  25.3274788  21.2095969  26.5574050  24.8205652  20.5025109  26.4895228
  26.1242221  20.8789158  26.6875127  25.3702027  21.0569121  26.5673045
  21.2438803  27.7162582  22.4547714  21.0152496  27.7395283  21.6126072
  21.5036880  26.8920049  22.5742725  21.2484992  27.5978662  22.3472912
  15.5258032  29.5697055  32.0572814  15.0136935  28.9618238  32.4157846
  15.3537528  30.2853647  32.5246790  15.4247669  29.5860354  32.1789038
  10.3723747  28.0134630  34.7075176  10.2026337  28.6736005  34.1623383
   9.9289696  28.2241191  35.4287665  10.2823080  28.1420612  34.7336806
  14.2983566  26.2539128  23.7501910  14.7740932  26.6156208  23.1152091
  13.7972166  26.9095596  24.0302053  14.2948925  26.4033317  23.6978651
  27.5294928  35.7260896  19.5414915  27.9128533  36.4752252  19.7713012
  26.7339041  35.9726716  19.2826904  27.4688710  35.8730590  19.5372488
  19.4027102  27.4921299  34.4975070  19.9598532  27.2635109  33.8653535
  19.0788167  28.2526965  34.2210282  19.4373512  27.5705136  34.3631567
   7.2725811  30.9181496  29.9663666   6.7252531  30.2482141  30.0844534
   8.0618189  30.5511343  30.0307133   7.3077995  30.7646482  29.9932367
  17.1210220  30.5788953  35.4627077  17.8721547  30.8940629  35.7766631
  17.3132796  30.3768124  34.6360999  17.2601634  30.5956334  35.3870473
  16.3410219  28.3980328  17.1175294  16.7209184  28.4159957  16.3326409
  15.6002815  28.8434317  16.9966141  16.2879057  28.4662102  16.9838862
  23.9695510  26.7062519  22.7050873  23.9689736  26.5511175  23.5635149
  23.7651690  27.5525506  22.6492258  23.9395288  26.8083140  22.8238812
   6.0312781  30.1302303  27.1209689   5.8534542  29.6778912  27.8464605
   5.7431803  30.9328465  27.3048167   5.9625734  30.1824861  27.2553192
  17.1394973  35.2357834  18.5084084  16.3306296  34.9124508  18.4617393
  17.6469882  34.5291056  18.4412332  17.0944640  35.0839150  18.4914378
   7.7685250  32.6630027  24.2331448   6.9030770  32.6515718  24.1214219
   7.8684066  32.4760250  25.0802587   7.6559417  32.6336088  24.3420393
  13.3942260  42.4327926  27.8061554  13.7088819  43.2464314  27.8139335
  13.8035674  42.0478144  28.4743713  13.5010358  42.4956628  27.9065645
  20.3466780  37.8497972  25.3765366  20.8177958  38.5638235  25.5455351
  20.6826959  37.2496723  25.9125235  20.4661895  37.8669437  25.4797742
  17.2636275  22.6225443  32.3323460  17.3964181  21.8256436  32.6604436
  17.6481428  23.1491846  32.9121736  17.3392604  22.5825360  32.4666963
  20.3368630  19.5455769  28.9304554  19.5314594  19.4353499  29.2472392
  20.2075366  19.6468225  28.0734419  20.1988763  19.5439439  28.8512594
  16.3329390  24.6241856  19.8002925  17.1545084  24.7940169  19.5584620
  15.8699041  24.7789117  19.0769223  16.3860552  24.6723589  19.6574570
  14.9224722  22.6184618  30.5801354  15.4669135  22.2775745  31.1705696
  14.9761657  23.4770080  30.7222639  15.0113841  22.6939877  30.6883228
  10.7355281  36.3801034  27.4540162  11.3400138  36.3396868  26.8253983
  10.5282593  37.2272186  27.4844218  10.7944178  36.4989037  27.3656279
   5.9706563  35.3635652  27.3239085   5.8730841  34.5531923  27.6329142
   6.7535432  35.3427445  26.9385353   6.0722699  35.2402742  27.3125948
  37.0212703  46.3031831  21.6345276  36.9906707  47.1576468  21.8063545
  37.6194052  46.0027124  22.1931419  37.1049861  46.3848328  21.7420078
  30.2212388  45.3907482  26.3898206  29.3650283  45.5515980  26.4407323
  30.2680042  44.5199546  26.4103267  30.1011499  45.2858284  26.4004272
  24.6053528  54.9270200  22.1535438  23.8536427  54.5485738  21.9251483
  25.0539539  54.9588634  21.4054248  24.5603194  54.8755807  22.0092940
  30.0578487  55.3495569  17.5820985  29.7229856  56.0272491  17.1465207
  30.5705358  54.9600881  16.9937857  30.0844069  55.3920148  17.4307776
  29.5982779  57.3009838  23.5232096  29.9822158  57.8696737  22.9836872
  29.5341920  56.5759348  23.0437913  29.6456206  57.2785302  23.3725959
  33.0664209  47.4499526  29.0329858  33.6120169  48.1284613  29.0923828
  33.0081085  47.3086987  28.1731439  33.1380123  47.5291528  28.9141918
  26.1838284  54.9388592  24.4198210  26.2848647  54.1288946  24.7295338
  25.5880029  54.8445538  23.7897889  26.1110822  54.8053620  24.3724449
  34.8429278  48.8784133  19.9063586  34.7268803  49.6291819  20.3355724
  35.6385164  48.6208086  20.1559673  34.9433867  48.9518980  20.0067677
  26.0239023  59.8566181  25.8213066  26.6676479  60.2979345  26.2109225
  26.3495279  59.0519607  25.7343325  26.1670852  59.8031376  25.8658544
  19.3803328  50.9608879  24.0450544  19.1453512  50.1276531  23.9382813
  19.5188969  51.2413544  23.2311745  19.3658991  50.8792382  23.9092899
  21.6793416  43.1294609  26.9434852  21.0598447  42.5387256  26.7744866
  21.5777279  43.7206044  26.3099175  21.5731091  43.1298692  26.8239841
  26.7259603  52.8678156  21.1932928  27.0475444  53.4083363  20.5894236
  27.3731700  52.2974927  21.3255218  26.8685658  52.8637331  21.1239963
  28.7761311  44.8694151  21.2767315  29.4741476  45.0482279  21.7688778
  29.0913644  44.3464490  20.6537704  28.9256648  44.8187923  21.2569325
  28.9649247  51.2564596  21.2647106  29.4042882  50.6481697  21.7101879
  28.8153909  50.8771969  20.4932571  29.0070712  51.1103067  21.2166274
  26.4320890  49.8508608  28.4665932  27.0769892  49.3581051  28.1476880
  26.6722667  49.9933394  29.2932010  26.5631475  49.7986050  28.5415465
  28.9706981  52.6963514  28.1172824  29.2530224  51.9014919  27.8959580
  29.6993141  53.1744101  28.1377885  29.1196545  52.6498111  28.0875839
  26.9488175  40.2386548  25.3588589  26.6191505  40.6897691  24.6892288
  26.2733177  40.1602711  25.9061596  26.7998611  40.2937683  25.3411813
  32.5658583  49.6091777  18.2177875  32.4809878  50.4652744  18.3627444
  33.0542966  49.3336101  18.8860035  32.6247480  49.6949099  18.3379957
  33.4977016  46.2276572  19.7175611  32.9688488  46.4436205  20.3772917
  34.0202036  46.9212710  19.6376580  33.4965469  46.3619708  19.8031210
  25.3876624  50.1239788  18.5183079  24.8033839  50.6289820  18.9248942
  24.9846719  49.8982175  17.7779671  25.2415928  50.1648037  18.4688104
  20.9420653  55.8394549  25.3206750  20.4588231  56.5645039  25.2966334
  21.7543971  56.1370679  25.4316908  20.9911400  55.9896903  25.3334029
  27.0134807  54.6326730  27.9256565  26.4961748  54.2734145  27.3217873
  27.7109198  54.1088905  27.9362631  27.0400388  54.5024418  27.8386823
  29.8453839  46.3705440  16.9951999  30.0849842  46.5783424  16.1827342
  30.1669680  45.5662949  17.1040944  29.9290996  46.2819542  16.8912552
  25.1544129  38.2998836  20.8411537  25.9090097  38.6677153  20.6028587
  24.9771663  38.6738390  21.6090717  25.2398607  38.4097024  20.9196426
  23.7964850  56.3550725  25.4727030  24.4985429  55.8402714  25.5299787
  23.7162333  56.6824877  26.2773905  23.8888610  56.3264952  25.5999822
  23.5101193  40.7069155  17.5389650  23.3276767  40.9241036  16.7130643
  24.3726806  40.8208168  17.5948265  23.6105783  40.7559053  17.4244137
  23.1215625  52.5457077  24.9812638  23.9604525  52.7780010  25.0286400
  23.1527395  51.6761389  24.9119673  23.2497343  52.4514024  24.9777283
  23.7468328  52.9657953  29.2825944  24.2866553  52.8229084  29.9529316
  23.0638275  53.3654703  29.6509970  23.7260482  53.0037623  29.4360365
  29.1900913  37.7095566  20.5738674  29.9187073  37.5311521  20.1276830
  29.2795806  38.5513646  20.7845852  29.3107575  37.8079444  20.5392192
  19.1505473  49.1858243  29.4360365  18.8843889  48.3697360  29.5951355
  19.1644038  49.2311399  28.5655881  19.1130196  49.0715148  29.3313847
  23.0563220  43.9843328  16.0512123  22.3421398  43.6981507  16.4634556
  23.5407189  44.3239954  16.6918511  23.0222584  43.9924977  16.2067758
  30.2310538  52.4873282  16.4273931  30.6461687  52.1558306  15.7358427
  29.4002468  52.2542184  16.2994068  30.1698547  52.4044538  16.3064779
  19.5598887  49.9717023  26.7172109  19.3774460  49.9463909  25.8644402
  20.2948556  50.4415961  26.7561018  19.6412951  50.0378385  26.5970028
  22.6244639  46.6902026  33.2254218  23.3484611  46.6755056  33.7119113
  22.7260775  47.3997381  32.7276186  22.7462848  46.7926729  33.2233005
  32.6720907  46.8935101  22.3798181  32.7667762  47.6324395  22.8337806
  32.0479751  46.4652577  22.8132745  32.5929937  46.9396422  22.5106328
  19.5269797  46.8510523  26.8671176  20.1043300  46.7146974  27.5063421
  18.8283859  46.3946308  27.1216760  19.5090819  46.7632790  26.9993466
  32.9243929  48.7383841  15.6135133  32.8424091  48.8086028  16.4790120
  33.5623649  49.3013585  15.4218873  33.0063766  48.8322812  15.7125082
  26.2837100  48.5044579  25.0809659  26.0256344  47.6716314  25.0540959
  26.3385582  48.7302192  24.2402159  26.2536878  48.4142350  24.9529796
  31.3638150  40.6073030  25.1813752  30.6594477  40.1182215  25.3397671
  31.4123124  40.6195504  24.3102196  31.2668201  40.5362678  25.0753092
  25.2571812  46.0582342  25.5674554  24.6821403  46.2174510  26.2038515
  24.8807488  45.4217751  25.1043004  25.1174624  45.9880154  25.5929112
  28.9245100  44.5305691  30.4266932  28.5359533  44.1059909  29.7719123
  28.2599799  44.7787840  30.9343959  28.7692028  44.5044412  30.4054800
  38.5668370  44.2880695  23.2014762  38.3104934  43.4760637  23.0112645
  39.4097684  44.2958263  22.9744950  38.6534395  44.1692693  23.1399579
  15.0028631  45.7022416  23.5818994  15.0888883  45.3254285  24.3632524
  15.6304428  45.3282862  23.1038953  15.1085182  45.5907898  23.6264472
  32.7471462  38.2280320  27.9390917  33.1281974  37.5458491  28.3258791
  31.9434746  37.9389922  27.7566581  32.6847924  38.0847368  27.9694972
  30.0284039  48.7604295  18.6243739  30.8424678  49.0519188  18.5126511
  29.9643180  48.1064158  18.0502032  30.1386778  48.7069490  18.5232577
  25.8991947  52.2325813  23.7516051  26.5365894  51.9937560  24.2967845
  26.3247019  52.4362972  23.0169212  26.0568113  52.2276823  23.7233209
  20.5904589  54.4714149  27.6350355  20.6308735  54.7429000  26.8070135
  21.1499113  54.9956057  28.0508143  20.6787935  54.5889904  27.5742243
  26.5394762  47.4528103  18.0890941  26.9239915  47.2335809  18.8407486
  26.2906382  48.2791048  18.2192017  26.5596835  47.5426249  18.2192017
  28.2813419  52.7098235  25.4309838  28.3552427  52.5473407  26.2851688
  29.0982925  52.8988425  25.1870319  28.4129778  52.7134978  25.5207863
  22.0419176  53.0556098  22.4604281  21.2157293  53.3017835  22.3338560
  22.1031167  52.9768179  23.3266339  21.9293343  53.0801047  22.5693226
  24.2595199  39.1225039  23.4199721  23.3917625  39.1947639  23.4857330
  24.5470404  39.9247118  23.6087696  24.1734947  39.2519186  23.4574488
  26.8218005  55.6732979  20.1623311  27.1116303  55.2821960  19.4382538
  27.5521485  55.8549683  20.6028586  26.9724889  55.6426792  20.1206118
  24.7623920  57.6500361  23.2283461  24.5424216  57.3597716  24.0210128
  24.5418442  56.9915316  22.7001373  24.6971514  57.5100069  23.2672369
  23.6740867  49.7373677  25.4939162  23.3854116  49.1111149  26.0284890
  24.5424215  49.6793965  25.5603843  23.7601119  49.6361222  25.5830117
  26.9291876  59.0229751  22.0114153  27.5815934  58.4906193  22.2405179
  26.2317485  58.6698403  22.3982027  26.9222594  58.8919274  22.1026321
  23.8773141  51.3768929  21.4181527  24.6319109  51.7581968  21.6316990
  23.2843753  51.8280072  21.8728224  23.9009854  51.4997756  21.5164406
  34.9231794  51.3434165  21.3545132  35.4889827  52.0027375  21.2703675
  34.2759698  51.6883863  21.8261535  34.9110551  51.4916106  21.4117889
  25.1971367  52.5477490  26.7921643  24.6752121  52.6877782  27.4773508
  25.5845388  51.7888154  26.9823760  25.1775068  52.4563014  26.9222719
  22.1862551  42.5983299  20.8616598  21.8987347  42.2284569  20.1248545
  22.8733020  43.0678154  20.6000302  22.2451449  42.6130268  20.7131673
  31.3938372  54.2872949  20.7782212  31.1525048  53.5540810  20.3709277
  31.5739705  54.8359806  20.1248545  31.3845996  54.2595340  20.6212435
  26.6237693  49.5781509  22.1903134  26.4280476  50.1856243  21.5963437
  26.8472039  48.8849453  21.7094808  26.6272334  49.5659034  22.0319215
  25.0216223  46.4636247  22.3084002  25.7438875  46.6277405  21.8487808
  24.5424216  47.1845912  22.2023342  25.0579954  46.5934476  22.2249616
  32.9809731  42.8000046  27.6880687  32.1420831  42.8261324  27.4518950
  33.0514098  43.4470781  28.2686034  32.8678124  42.8996171  27.7389804
  22.6723840  48.8694319  31.4138142  23.1844937  49.1478572  30.7646902
  22.3860182  49.6083613  31.7800955  22.7058703  49.0196673  31.3728020
  31.4279009  39.6985423  22.4208303  32.1305362  39.4993171  21.9428261
  31.1623198  38.9261365  22.7277147  31.4925641  39.5548389  22.3953745
  19.7590746  43.3764511  21.7101879  19.8606882  44.1790672  22.0382854
  20.5546633  43.1751847  21.4124959  19.8918652  43.4650410  21.7137234
  30.7293071  45.3278779  23.5967488  30.4827785  45.2474530  24.4304277
  31.0578194  44.5432247  23.4030016  30.7414314  45.2005045  23.6915012
  34.6241119  52.0362139  27.3854270  34.4855479  52.7343185  27.8903012
  33.8441117  51.8810795  27.0290451  34.4884346  52.1162305  27.4080544
  25.7617853  56.2538270  29.8751498  25.9107417  55.6941186  29.2224903
  26.5417855  56.3330272  30.2584017  25.8991946  56.1823835  29.8348447
  36.1194492  51.3940393  18.1470769  35.7401301  50.6077531  18.1400058
  35.4560738  51.9427250  18.0042413  35.9652967  51.3585217  18.1251566
  28.2871153  56.4252913  31.1535989  28.2114825  55.7561723  31.7086777
  28.2161013  57.1270701  31.6676655  28.2651760  56.4297820  31.3112837
  28.9441400  54.9453912  21.9859595  29.7091291  54.6763555  21.6642259
  28.8419490  54.4603922  22.7029658  29.0422896  54.8343476  22.0439423
  26.9794170  43.1478321  28.5252831  26.1890245  42.9669781  28.8470167
  27.3754793  42.3705274  28.5083125  26.9211046  43.0065782  28.5705379
  31.4660061  51.9766095  13.9659544  32.2333046  52.0366220  13.5565396
  31.0191370  51.4046537  13.4815863  31.5133488  51.9002671  13.8337255
  32.3637856  50.7820751  26.2512277  31.6882858  50.5505983  26.7525664
  32.3730232  50.1741934  25.6254382  32.2656361  50.6579676  26.2328429
  34.3654591  53.6385884  18.4822455  34.4474428  54.4452870  18.1583906
  34.8504333  53.6581843  19.2063228  34.4491749  53.7606546  18.5409353
  28.1751094  48.3170720  27.1492533  27.7513343  48.5175219  26.4131551
  27.9995949  47.4699568  27.2616832  28.0861975  48.2219501  27.0566223
  27.6762788  59.8321233  29.6113990  28.1658718  59.1332022  29.4289655
  27.1047020  59.5345103  30.1990047  27.6647318  59.6847456  29.6715031
  23.4633539  48.8122771  22.5820505  23.6198158  48.7469574  23.4376497
  23.8034132  49.5871324  22.3699185  23.5366774  48.9171969  22.6775099
  30.0012684  48.1880655  21.4513868  30.5428229  47.6851036  21.9152489
  30.3159243  48.1345849  20.6403354  30.1277081  48.1060075  21.3997680
  28.1699134  53.5798006  18.7353896  28.2391954  52.7212545  18.8746897
  28.9487589  53.7969887  18.4072921  28.2951984  53.4850870  18.7071054
  32.5606621  56.0035707  22.9490390  32.1686413  55.7002423  22.2313256
  32.7159693  56.8404797  22.7595344  32.5260211  56.0819544  22.8146887
  20.0367801  45.9957721  22.8981272  20.4166766  46.4142266  22.2341540
  19.4623166  46.5771177  23.2050116  20.0079126  46.1435580  22.8458013
  32.7246296  52.5685696  22.8896420  32.3660951  52.7400339  23.6660453
  32.2385007  53.0298902  22.3324419  32.6004993  52.6624667  22.9221689
  27.5134661  48.2484862  15.4296655  27.8027186  49.0249744  15.7040229
  27.6006460  47.7373593  16.1311154  27.5688918  48.2876780  15.5739153
  23.6798602  47.5618126  27.5296767  22.8386609  47.4622000  27.7375661
  23.8888610  48.3313606  27.8811087  23.5863295  47.6610170  27.6124082
  21.1574169  45.1837663  25.3581517  20.7630867  45.2580675  24.5831627
  20.6014286  45.5695610  25.9089879  21.0176982  45.2519438  25.3249177
  27.4915267  45.4899525  26.7794364  27.1878405  44.9355514  27.3804772
  26.7894688  45.6691735  26.2922399  27.3431477  45.4344308  26.7964070
  26.5481364  42.8000045  21.3439066  26.8241099  42.0818958  20.9316634
  27.1480034  43.3984965  21.1360172  26.6774629  42.7820416  21.2519827
  25.5533618  52.7049246  31.4866462  25.4453973  52.7151308  32.3528520
  25.7629400  53.5304027  31.2971416  25.5683729  52.8290321  31.5870554
  36.0472804  38.7150721  24.5188162  35.4347117  39.2021124  24.9041894
  36.1436979  38.0394212  25.0625813  35.9710701  38.6869030  24.6567020
  30.0491885  40.4713563  19.6185661  30.5035631  40.6424123  20.3433506
  30.5231930  39.8581673  19.2183437  30.1860205  40.4064448  19.6659423
  23.5707410  49.9561889  28.9488400  22.9795343  50.5971387  28.9191415
  24.3328434  50.3799506  28.9219699  23.5955671  50.1137727  28.9403547
  27.3904905  47.1756097  20.7230668  28.1346950  47.5630373  20.9613618
  27.5365601  46.3313522  20.8871156  27.5215490  47.1086570  20.7824638
  30.3782781  42.7481570  26.6224588  29.9042735  42.2223332  27.1329899
  30.7500916  42.2011043  26.0539449  30.3632670  42.5897567  26.6139735
  32.3066280  43.6418125  19.6850342  31.7789299  43.7246869  18.9956050
  32.7661988  44.3835996  19.6814986  32.2968131  43.7638787  19.5825037
  24.1157597  43.5695526  28.6518552  23.4910667  43.5813918  28.0444504
  23.7803192  44.0455701  29.3009792  23.9743089  43.6414043  28.6575120
  24.2999345  41.9120644  14.7091237  23.9512150  42.5640370  15.1722786
  23.8195791  41.8977757  13.9815108  24.1769589  42.0063698  14.6702328
  20.8283272  51.6295986  30.0922316  20.2983197  50.9388425  30.1417291
  21.1008366  51.6206171  29.2635025  20.7907995  51.5263118  29.9769732
  31.8603363  52.2121688  18.8159999  32.5837562  52.6779801  18.6724572
  31.4203954  52.2795298  18.0657596  31.9019055  52.2905525  18.6844780
  31.0289518  49.0719231  30.0660688  30.4146511  48.5277281  30.3609323
  31.5456803  48.5583467  29.5866504  31.0145180  48.9155640  30.0384916
  30.2685815  50.1423501  27.8004986  29.8413423  49.5173219  27.3670422
  30.2610759  49.8598423  28.6263993  30.2044956  50.0076281  27.8584814
  23.3848342  45.1788674  30.8693420  23.5441829  44.4231998  31.2745142
  23.2041236  45.7279613  31.5234158  23.3813701  45.1482487  31.0256126
  28.5971525  41.0192255  28.0147520  28.6214012  40.4852368  27.3260300
  28.8482998  40.5109564  28.6773111  28.6381443  40.8653159  28.0112165
  16.1079114  48.3023750  27.4490664  16.0022564  48.2570595  26.5842748
  15.3579334  48.6477531  27.7304949  15.9814717  48.3464658  27.3627994
  24.8772847  39.7463073  27.3953265  24.9171218  40.2472280  28.1087972
  24.0522512  39.8373467  27.1259188  24.7612373  39.8344890  27.4603803
  26.2987210  46.2623583  29.6927164  25.4679140  46.4297401  29.4862412
  26.2438727  45.8859534  30.4776049  26.1676625  46.2313315  29.7775692
  24.6723254  44.5379175  20.2217281  24.8126215  45.0351639  20.9245923
  25.1705787  43.8365469  20.3631495  24.7664335  44.5081154  20.3468860
  24.7023476  45.4046286  17.5509858  25.3368556  46.0006711  17.4859320
  24.7849087  45.1049743  18.3655728  24.8080027  45.4487194  17.6612945
  26.2802459  41.3360261  17.5255300  26.6018300  40.8563344  16.8714562
  26.5429403  42.1459907  17.3346112  26.3668485  41.3850159  17.4010792
  21.2076464  47.6014127  20.8199404  21.7168694  48.1978634  21.2010710
  21.6810737  47.3340100  20.1375824  21.3519840  47.6499942  20.7753927
  32.1207212  56.2742393  18.9758060  31.4036522  56.1003256  18.5105297
  32.7713950  56.0394966  18.4433546  32.1109063  56.2138186  18.8287278
  34.7055184  45.1506982  22.7199365  34.0346374  45.6936684  22.5912430
  35.3994934  45.6201837  22.4781060  34.7084051  45.3005253  22.6654892
  28.7541917  57.2903694  27.9511123  28.5307572  56.5322523  28.3195149
  28.2651761  57.3201715  27.2291563  28.6485366  57.1825918  27.8987864
  34.8683311  41.6062865  25.6289738  35.2210921  41.1792588  26.3035537
  34.0098113  41.5213709  25.7590814  34.7932756  41.5307606  25.7484748
  23.5666996  44.2370385  23.6872584  22.8478985  44.6534518  23.9545448
  23.9379358  44.8024624  23.1364223  23.5158928  44.3819667  23.6455391
  27.4020374  57.5104152  25.4048208  26.9880773  56.8478282  25.0152049
  28.0867749  57.6582011  24.8843902  27.4418746  57.4344810  25.2704705
  30.7685668  56.6694237  26.1571824  30.3701952  56.7796508  25.3892645
  30.1536888  56.8776304  26.7398384  30.6184558  56.7167805  26.1303124
  29.3413570  43.2768385  19.0245964  28.7478410  43.5985382  18.4730531
  29.3788848  42.4309480  18.8167070  29.2587960  43.1992713  18.9128735
  32.2171387  43.2347890  22.4547714  31.9885080  43.2580591  21.6126072
  32.4769463  42.4105357  22.5742725  32.2217575  43.1163969  22.3472912
  25.2716150  41.7724436  23.7501910  25.7473516  42.1341516  23.1152091
  24.7704749  42.4280903  24.0302053  25.2681509  41.9218625  23.6978651
  18.2458395  46.4366803  29.9663666  17.6985114  45.7667449  30.0844534
  19.0350773  46.0696651  30.0307133  18.2810578  46.2831790  29.9932367
  27.3142803  43.9165636  17.1175294  27.6941768  43.9345265  16.3326409
  26.5735399  44.3619624  16.9966141  27.2611640  43.9847410  16.9838862
  34.9428093  42.2247827  22.7050873  34.9422320  42.0696483  23.5635149
  34.7384273  43.0710814  22.6492258  34.9127871  42.3268448  22.8238812
  17.0045364  45.6487611  27.1209689  16.8267125  45.1964220  27.8464605
  16.7164386  46.4513773  27.3048167  16.9358317  45.7010169  27.2553192
  28.1127557  50.7543142  18.5084084  27.3038880  50.4309815  18.4617393
  28.6202466  50.0476364  18.4412332  28.0677224  50.6024458  18.4914378
  18.7417834  48.1815335  24.2331448  17.8763354  48.1701025  24.1214219
  18.8416650  47.9945558  25.0802587  18.6292001  48.1521396  24.3420393
  24.3674844  57.9513234  27.8061554  24.6821403  58.7649622  27.8139335
  24.7768257  57.5663452  28.4743713  24.4742942  58.0141936  27.9065645
  31.3199364  53.3683280  25.3765366  31.7910542  54.0823543  25.5455351
  31.6559542  52.7682031  25.9125235  31.4394479  53.3854745  25.4797742
  27.3061973  40.1427164  19.8002925  28.1277668  40.3125477  19.5584620
  26.8431624  40.2974425  19.0769223  27.3593136  40.1908897  19.6574570
  21.7087864  51.8986342  27.4540162  22.3132721  51.8582176  26.8253983
  21.5015177  52.7457494  27.4844218  21.7676761  52.0174345  27.3656279
  16.9439146  50.8820960  27.3239085  16.8463424  50.0717231  27.6329142
  17.7268016  50.8612753  26.9385353  17.0455283  50.7588050  27.3125948
  35.5786111  70.4455508  22.1535438  34.8269011  70.0671046  21.9251483
  36.0272123  70.4773941  21.4054248  35.5335778  70.3941115  22.0092940
  44.5038688  67.1779316  35.9958662  45.2105455  66.6831346  36.1245597
  44.6926623  67.6188397  35.2661320  44.6366594  67.1697666  35.9067708
  41.0311071  70.8680877  17.5820985  40.6962440  71.5457799  17.1465207
  41.5437941  70.4786189  16.9937857  41.0576652  70.9105456  17.4307776
  40.5715362  72.8195146  23.5232096  40.9554742  73.3882045  22.9836872
  40.5074504  72.0944656  23.0437913  40.6188790  72.7970609  23.3725959
  44.0396792  62.9684834  29.0329858  44.5852753  63.6469920  29.0923828
  43.9813669  62.8272295  28.1731439  44.1112707  63.0476836  28.9141918
  37.1570867  70.4573900  24.4198210  37.2581230  69.6474254  24.7295338
  36.5612613  70.3630846  23.7897889  37.0843406  70.3238928  24.3724449
  36.9971607  75.3751489  25.8213066  37.6409062  75.8164653  26.2109225
  37.3227862  74.5704915  25.7343325  37.1403436  75.3216684  25.8658544
  30.3535912  66.4794187  24.0450544  30.1186096  65.6461839  23.9382813
  30.4921552  66.7598852  23.2311745  30.3391574  66.3977690  23.9092899
  37.6992187  68.3863464  21.1932928  38.0208028  68.9268671  20.5894236
  38.3464283  67.8160235  21.3255218  37.8418242  68.3822639  21.1239963
  39.7493895  60.3879459  21.2767315  40.4474059  60.5667586  21.7688778
  40.0646227  59.8649798  20.6537704  39.8989232  60.3373231  21.2569325
  39.9381830  66.7749904  21.2647106  40.3775466  66.1667004  21.7101879
  39.7886493  66.3957277  20.4932571  39.9803296  66.6288375  21.2166274
  39.9439564  68.2148822  28.1172824  40.2262807  67.4200227  27.8959580
  40.6725725  68.6929409  28.1377885  40.0929128  68.1683419  28.0875839
  43.5391167  65.1277085  18.2177875  43.4542462  65.9838052  18.3627444
  44.0275550  64.8521409  18.8860035  43.5980064  65.2134407  18.3379957
  44.4709600  61.7461879  19.7175611  43.9421071  61.9621513  20.3772917
  44.9934620  62.4398018  19.6376580  44.4698053  61.8805016  19.8031210
  49.9257653  67.3208184  25.0908655  49.0955356  67.5318828  25.2542072
  49.8766905  66.4945238  24.8150939  49.7964388  67.2297790  25.0746020
  36.3609208  65.6425096  18.5183079  35.7766423  66.1475128  18.9248942
  35.9579303  65.4167483  17.7779671  36.2148511  65.6833345  18.4688104
  31.9153236  71.3579857  25.3206750  31.4320815  72.0830347  25.2966334
  32.7276555  71.6555987  25.4316908  31.9643984  71.5082211  25.3334029
  37.9867390  70.1512038  27.9256565  37.4694332  69.7919453  27.3217873
  38.6841782  69.6274212  27.9362631  38.0132971  70.0209726  27.8386823
  41.6430982  70.6006852  33.8872738  41.7314328  70.4132993  34.7350948
  42.0720695  69.9544282  33.4877584  41.7193085  70.4769860  33.9544489
  39.2101442  69.8838012  32.8690400  38.6472277  69.4710622  33.3930061
  39.9722466  69.8090918  33.2883543  39.2395891  69.8115413  33.0083400
  40.8186422  61.8890748  16.9951999  41.0582426  62.0968732  16.1827342
  41.1402263  61.0848257  17.1040944  40.9023580  61.8004849  16.8912552
  36.1276712  53.8184144  20.8411537  36.8822680  54.1862461  20.6028587
  35.9504247  54.1923698  21.6090717  36.2131191  53.9282332  20.9196426
  34.7697434  71.8736033  25.4727030  35.4718013  71.3588022  25.5299787
  34.6894917  72.2010185  26.2773905  34.8621194  71.8450259  25.5999822
  34.4833777  56.2254463  17.5389650  34.3009350  56.4426344  16.7130643
  35.3459390  56.3393476  17.5948265  34.5838366  56.2744361  17.4244137
  34.0948209  68.0642385  24.9812638  34.9337108  68.2965318  25.0286400
  34.1259978  67.1946697  24.9119673  34.2229927  67.9699332  24.9777283
  34.7200912  68.4843260  29.2825944  35.2599137  68.3414391  29.9529316
  34.0370858  68.8840011  29.6509970  34.6993066  68.5222931  29.4360365
  44.1441797  64.1634261  24.4770968  44.8999312  64.5965775  24.5159877
  44.2504121  63.5139031  25.0505604  44.2711967  64.1311745  24.5668993
  47.1821968  67.9907538  25.2273371  46.7457200  67.9944281  25.9832342
  46.8484883  68.6713037  24.7952948  47.0684588  68.0919994  25.2754203
  41.7551042  70.0315871  36.5516521  42.5391458  70.1446719  36.9172263
  41.5547636  69.2057008  36.7475207  41.8417067  69.9262591  36.6350907
  34.0295804  59.5028636  16.0512123  33.3153981  59.2166815  16.4634556
  34.5139773  59.8425261  16.6918511  33.9955167  59.5110285  16.2067758
  41.9121435  71.9425973  30.1982977  41.1136681  71.7025473  30.4556845
  42.3607446  71.9940366  30.9450024  41.8596046  71.9148364  30.3467901
  41.2043122  68.0058590  16.4273931  41.6194270  67.6743613  15.7358427
  40.3735052  67.7727492  16.2994068  41.1431131  67.9229846  16.3064779
  30.5331471  65.4902331  26.7172109  30.3507044  65.4649217  25.8644402
  31.2681140  65.9601268  26.7561018  30.6145535  65.5563693  26.5970028
  46.6031145  65.7253841  23.8604997  46.8386734  65.8699040  23.0331848
  46.7520709  66.4896249  24.2536511  46.6596948  65.8592895  23.7968601
  48.4321602  64.5655507  21.6974601  48.7629819  65.0983147  21.0914696
  49.0054690  64.6194394  22.3536552  48.5655281  64.6525075  21.7052382
  40.9722172  65.6886418  38.0903165  40.1795153  66.0029930  38.2755785
  41.0871099  65.9037887  37.2523950  40.8717582  65.7670255  37.9941500
  43.6453491  62.4120409  22.3798181  43.7400345  63.1509703  22.8337806
  43.0212334  61.9837885  22.8132745  43.5662521  62.4581730  22.5106328
  41.9005965  65.5906622  33.0288462  42.4744826  64.9533866  33.1837026
  41.8220768  65.5910704  32.1598119  41.9739199  65.4971733  32.9234873
  43.8976512  64.2569149  15.6135133  43.8156675  64.3271336  16.4790120
  44.5356233  64.8198893  15.4218873  43.9796349  64.3508120  15.7125082
  37.2569683  64.0229887  25.0809659  36.9988928  63.1901622  25.0540959
  37.3118166  64.2487500  24.2402159  37.2269461  63.9327658  24.9529796
  36.2304395  61.5767649  25.5674554  35.6553987  61.7359818  26.2038515
  35.8540072  60.9403059  25.1043004  36.0907208  61.5065462  25.5929112
  25.9761214  61.2207724  23.5818994  26.0621466  60.8439593  24.3632524
  26.6037012  60.8468170  23.1038953  26.0817765  61.1093206  23.6264472
  41.0016622  64.2789603  18.6243739  41.8157261  64.5704496  18.5126511
  40.9375764  63.6249466  18.0502032  41.1119361  64.2254798  18.5232577
  47.2226112  66.9615599  33.0373315  46.9864750  66.1303664  32.9185376
  47.8669341  66.9101207  33.6228159  47.2820783  66.8313287  33.1059208
  36.8724531  67.7511121  23.7516051  37.5098477  67.5122868  24.2967845
  37.2979602  67.9548280  23.0169212  37.0300697  67.7462131  23.7233209
  31.5637173  69.9899457  27.6350355  31.6041318  70.2614308  26.8070135
  32.1231697  70.5141365  28.0508143  31.6520519  70.1075212  27.5742243
  37.5127346  62.9713411  18.0890941  37.8972498  62.7521117  18.8407486
  37.2638966  63.7976356  18.2192017  37.5329418  63.0611557  18.2192017
  39.2546003  68.2283543  25.4309838  39.3285011  68.0658715  26.2851688
  40.0715509  68.4173733  25.1870319  39.3862361  68.2320286  25.5207863
  33.0151759  68.5741406  22.4604281  32.1889877  68.8203143  22.3338560
  33.0763750  68.4953487  23.3266339  32.9025926  68.5986355  22.5693226
  37.7950588  71.1918286  20.1623311  38.0848887  70.8007268  19.4382538
  38.5254069  71.3734991  20.6028586  37.9457472  71.1612100  20.1206118
  38.3845333  65.9936032  31.2476441  37.8857027  66.7051800  31.3261330
  39.1945558  66.3136699  31.2094604  38.4301440  66.1462881  31.2533010
  35.7356504  73.1685669  23.2283461  35.5156799  72.8783024  24.0210128
  35.5151026  72.5100624  22.7001373  35.6704098  73.0285377  23.2672369
  34.6473451  65.2558985  25.4939162  34.3586700  64.6296457  26.0284890
  35.5156799  65.1979273  25.5603843  34.7333703  65.1546530  25.5830117
  37.9024460  74.5415059  22.0114153  38.5548518  74.0091501  22.2405179
  37.2050068  74.1883711  22.3982027  37.8955177  74.4104582  22.1026321
  34.8505724  66.8954236  21.4181527  35.6051692  67.2767275  21.6316990
  34.2576337  67.3465380  21.8728224  34.8742438  67.0183064  21.5164406
  45.8964378  66.8619473  21.3545132  46.4622411  67.5212683  21.2703675
  45.2492281  67.2069171  21.8261535  45.8843134  67.0101414  21.4117889
  36.1703951  68.0662798  26.7921643  35.6484704  68.2063089  27.4773508
  36.5577971  67.3073462  26.9823760  36.1507652  67.9748322  26.9222719
  33.1595135  58.1168607  20.8616598  32.8719931  57.7469877  20.1248545
  33.8465603  58.5863462  20.6000302  33.2184032  58.1315576  20.7131673
  42.3670956  69.8058257  20.7782212  42.1257632  69.0726118  20.3709277
  42.5472289  70.3545114  20.1248545  42.3578580  69.7780648  20.6212435
  37.5970277  65.0966817  22.1903134  37.4013059  65.7041551  21.5963437
  37.8204622  64.4034761  21.7094808  37.6004918  65.0844342  22.0319215
  35.9948807  61.9821555  22.3084002  36.7171459  62.1462713  21.8487808
  35.5156799  62.7031220  22.2023342  36.0312537  62.1119784  22.2249616
  30.7323330  58.8949819  21.7101879  30.8339466  59.6975980  22.0382854
  31.5279216  58.6937155  21.4124959  30.8651235  58.9835718  21.7137234
  41.7025654  60.8464087  23.5967488  41.4560368  60.7659838  24.4304277
  42.0310777  60.0617555  23.4030016  41.7146898  60.7190353  23.6915012
  45.5973703  67.5547447  27.3854270  45.4588062  68.2528493  27.8903012
  44.8173701  67.3996103  27.0290451  45.4616930  67.6347613  27.4080544
  43.9351788  63.8543822  33.6376651  43.9299827  62.9823639  33.6419078
  44.6412782  64.0531991  33.1646107  44.0396792  63.7547696  33.5683687
  36.7350436  71.7723578  29.8751498  36.8840000  71.2126494  29.2224903
  37.5150438  71.8515580  30.2584017  36.8724530  71.7009143  29.8348447
  47.0927076  66.9125701  18.1470769  46.7133884  66.1262838  18.1400058
  46.4293321  67.4612558  18.0042413  46.9385551  66.8770525  18.1251566
  39.2603737  71.9438221  31.1535989  39.1847408  71.2747031  31.7086777
  39.1893596  72.6456009  31.6676655  39.2384344  71.9483128  31.3112837
  39.9173984  70.4639220  21.9859595  40.6823875  70.1948863  21.6642259
  39.8152074  69.9789230  22.7029658  40.0155479  70.3528784  22.0439423
  42.4392644  67.4951403  13.9659544  43.2065630  67.5551528  13.5565396
  41.9923953  66.9231845  13.4815863  42.4866072  67.4187979  13.8337255
  43.3370440  66.3006059  26.2512277  42.6615442  66.0691291  26.7525664
  43.3462816  65.6927242  25.6254382  43.2388945  66.1764984  26.2328429
  45.3387175  69.1571192  18.4822455  45.4207012  69.9638178  18.1583906
  45.8236917  69.1767151  19.2063228  45.4224332  69.2791854  18.5409353
  39.1483678  63.8356027  27.1492533  38.7245927  64.0360527  26.4131551
  38.9728533  62.9884875  27.2616832  39.0594558  63.7404809  27.0566223
  38.6495371  75.3506540  29.6113990  39.1391302  74.6517330  29.4289655
  38.0779604  75.0530410  30.1990047  38.6379901  75.2032764  29.6715031
  34.4366123  64.3308079  22.5820505  34.5930742  64.2654882  23.4376497
  34.7766716  65.1056631  22.3699185  34.5099358  64.4357277  22.6775099
  40.9745267  63.7065962  21.4513868  41.5160813  63.2036344  21.9152489
  41.2891826  63.6531157  20.6403354  41.1009664  63.6245383  21.3997680
  44.8462375  67.9168610  38.5640781  45.6597240  67.6453759  38.7245913
  44.6857341  67.6176150  37.7600977  44.9432323  67.8323536  38.4686186
  39.1431717  69.0983314  18.7353896  39.2124537  68.2397852  18.8746897
  39.9220172  69.3155195  18.4072921  39.2684567  69.0036178  18.7071054
  43.5339205  71.5221015  22.9490390  43.1418996  71.2187730  22.2313256
  43.6892277  72.3590105  22.7595344  43.4992795  71.6004852  22.8146887
  31.0100384  61.5143029  22.8981272  31.3899349  61.9327574  22.2341540
  30.4355749  62.0956485  23.2050116  30.9811709  61.6620888  22.8458013
  43.6978879  68.0871004  22.8896420  43.3393534  68.2585647  23.6660453
  43.2117590  68.5484210  22.3324419  43.5737576  68.1809975  22.9221689
  38.4867245  63.7670170  15.4296655  38.7759770  64.5435052  15.7040229
  38.5739044  63.2558901  16.1311154  38.5421501  63.8062088  15.5739153
  44.8583619  68.9774900  33.8363621  45.4963339  68.4835096  33.5026077
  44.2157710  68.9052301  33.2515848  44.8577845  68.8933909  33.7005976
  44.9137875  69.6694708  30.4768978  45.7030254  69.3183773  30.5971060
  45.0881473  70.4831097  30.2145612  45.0558157  69.7380566  30.4556846
  32.1306753  60.7022971  25.3581517  31.7363451  60.7765983  24.5831627
  31.5746870  61.0880917  25.9089879  31.9909565  60.7704746  25.3249177
  37.5213948  58.3185353  21.3439066  37.7973682  57.6004266  20.9316634
  38.1212617  58.9170273  21.1360172  37.6507212  58.3005724  21.2519827
  36.5266202  68.2234554  31.4866462  36.4186557  68.2336616  32.3528520
  36.7361983  69.0489334  31.2971416  36.5416313  68.3475629  31.5870554
  44.3029510  70.9256508  26.3820424  44.1049199  71.4147322  25.6876635
  43.6817221  71.1297750  26.9604558  44.1817074  71.0273046  26.3643647
  38.3637488  62.6941405  20.7230668  39.1079533  63.0815681  20.9613618
  38.5098184  61.8498830  20.8871156  38.4948073  62.6271878  20.7824638
  46.2203312  64.4920660  31.9165672  46.9437511  64.0393187  31.7376692
  45.9553274  64.7725326  31.1338000  46.2884585  64.4671629  31.7744388
  35.2731929  57.4305952  14.7091237  34.9244733  58.0825678  15.1722786
  34.7928375  57.4163065  13.9815108  35.1502173  57.5249006  14.6702328
  42.8335946  67.7306996  18.8159999  43.5570145  68.1965109  18.6724572
  42.3936537  67.7980606  18.0657596  42.8751639  67.8090833  18.6844780
  42.0022101  64.5904539  30.0660688  41.3879094  64.0462589  30.3609323
  42.5189386  64.0768775  29.5866504  41.9877764  64.4340948  30.0384916
  41.2418399  65.6608809  27.8004986  40.8146007  65.0358527  27.3670422
  41.2343343  65.3783730  28.6263993  41.1777540  65.5261589  27.8584814
  27.0811698  63.8209058  27.4490664  26.9755147  63.7755902  26.5842748
  26.3311918  64.1662839  27.7304949  26.9547301  63.8649966  27.3627994
  38.0335043  64.8309121  35.4973559  37.1830674  64.9680836  35.6331204
  38.1963171  64.0972900  35.9421261  37.9318907  64.7423223  35.5829158
  35.6455838  60.0564483  20.2217281  35.7858799  60.5536947  20.9245923
  36.1438370  59.3550777  20.3631495  35.7396919  60.0266462  20.3468860
  35.6756060  60.9231594  17.5509858  36.3101140  61.5192019  17.4859320
  35.7581671  60.6235051  18.3655728  35.7812611  60.9672502  17.6612945
  37.2535043  56.8545569  17.5255300  37.5750884  56.3748652  16.8714562
  37.5161987  57.6645215  17.3346112  37.3401068  56.9035467  17.4010792
  40.4832016  67.8764444  31.0454116  39.9757107  68.4300290  31.4894747
  40.1858662  67.9372733  30.2272891  40.3636901  67.9670755  30.9902573
  32.1809048  63.1199435  20.8199404  32.6901277  63.7163942  21.2010710
  32.6543320  62.8525408  20.1375824  32.3252424  63.1685250  20.7753927
  43.0939796  71.7927701  18.9758060  42.3769106  71.6188563  18.5105297
  43.7446534  71.5580274  18.4433546  43.0841646  71.7323494  18.8287278
  39.7274501  72.8089002  27.9511123  39.5040155  72.0507831  28.3195149
  39.2384344  72.8387023  27.2291563  39.6217950  72.7011226  27.8987864
  34.5399580  59.7555693  23.6872584  33.8211569  60.1719826  23.9545448
  34.9111942  60.3209932  23.1364223  34.4891511  59.9004975  23.6455391
  41.7845490  66.9770734  35.5023057  41.7441345  66.3320411  34.9168213
  42.5968809  66.9207351  35.8148469  41.8988644  66.8729701  35.4620006
  38.3752958  73.0289460  25.4048208  37.9613357  72.3663590  25.0152049
  39.0600332  73.1767319  24.8843902  38.4151330  72.9530118  25.2704705
  41.7418252  72.1879545  26.1571824  41.3434535  72.2981815  25.3892645
  41.1269472  72.3961611  26.7398384  41.5917141  72.2353113  26.1303124
  40.3146154  58.7953693  19.0245964  39.7210993  59.1170689  18.4730531
  40.3521432  57.9494788  18.8167070  40.2320543  58.7178021  18.9128735
  49.4760095  66.7631512  19.5414915  49.8593700  67.5122868  19.7713012
  48.6804208  67.0097332  19.2826904  49.4153877  66.9101206  19.5372488
  29.2190978  61.9552111  29.9663666  28.6717698  61.2852757  30.0844534
  30.0083356  61.5881959  30.0307133  29.2543162  61.8017098  29.9932367
  38.2875386  59.4350944  17.1175294  38.6674351  59.4530573  16.3326409
  37.5467982  59.8804932  16.9966141  38.2344224  59.5032718  16.9838862
  27.9777948  61.1672919  27.1209689  27.7999709  60.7149528  27.8464605
  27.6896970  61.9699081  27.3048167  27.9090901  61.2195477  27.2553192
  43.6401529  62.4230637  26.3587079  44.1355194  61.7053632  26.3191100
  42.8301305  62.1201434  26.2441566  43.5945422  62.2728283  26.3360805
  39.0860140  66.2728450  18.5084084  38.2771463  65.9495123  18.4617393
  39.5935049  65.5661672  18.4412332  39.0409807  66.1209766  18.4914378
  29.7150418  63.7000643  24.2331448  28.8495937  63.6886333  24.1214219
  29.8149234  63.5130866  25.0802587  29.6024585  63.6706704  24.3420393
  35.3407428  73.4698542  27.8061554  35.6553986  74.2834930  27.8139335
  35.7500841  73.0848760  28.4743713  35.4475526  73.5327244  27.9065645
  42.2931947  68.8868588  25.3765366  42.7643125  69.6008851  25.5455351
  42.6292126  68.2867338  25.9125235  42.4127062  68.9040053  25.4797742
  44.3808932  70.4969902  37.5557438  44.4905897  69.7078462  37.9114185
  44.7099828  70.4075838  36.7531776  44.4461338  70.3675755  37.4899828
  42.9305894  68.6786522  32.1393058  42.3826839  68.0544406  31.8713124
  43.3918922  68.8680795  31.4237138  42.9173103  68.6145573  31.9943489
  38.2794557  55.6612472  19.8002925  39.1010251  55.8310785  19.5584620
  37.8164208  55.8159733  19.0769223  38.3325719  55.7094205  19.6574570
  32.6820448  67.4171650  27.4540162  33.2865305  67.3767484  26.8253983
  32.4747760  68.2642802  27.4844218  32.7409345  67.5359653  27.3656279
  42.4964220  69.6837595  28.6702399  43.3162594  69.5400561  28.9318695
  42.2158297  70.3083794  29.2118837  42.5760963  69.7547947  28.7890339
  27.9171730  66.4006268  27.3239085  27.8196008  65.5902539  27.6329142
  28.7000600  66.3798061  26.9385353  28.0187866  66.2773358  27.3125948
  58.9677870  77.3402447  21.6345276  58.9371875  78.1947084  21.8063545
  59.5659219  77.0397739  22.1931419  59.0515028  77.4218943  21.7420078
  52.1677555  76.4278098  26.3898206  51.3115451  76.5886596  26.4407323
  52.2145209  75.5570162  26.4103267  52.0476666  76.3228900  26.4004272
  55.4771272  82.6964624  35.9958662  56.1838039  82.2016654  36.1245597
  55.6659207  83.1373705  35.2661320  55.6099177  82.6882974  35.9067708
  55.0129376  78.4870142  29.0329858  55.5585336  79.1655228  29.0923828
  54.9546252  78.3457603  28.1731439  55.0845290  78.5662144  28.9141918
  43.6258583  74.1665225  26.9434852  43.0063614  73.5757872  26.7744866
  43.5242446  74.7576660  26.3099175  43.5196258  74.1669308  26.8239841
  50.7226478  75.9064767  21.2767315  51.4206643  76.0852894  21.7688778
  51.0378811  75.3835106  20.6537704  50.8721815  75.8558539  21.2569325
  43.3527716  77.7117507  29.1878421  43.2286413  78.2979952  29.8228239
  44.0046000  77.2177703  29.4890696  43.4301365  77.7256311  29.3264350
  48.3786057  80.8879224  28.4665932  49.0235059  80.3951667  28.1476880
  48.6187834  81.0304010  29.2932010  48.5096642  80.8356666  28.5415465
  50.9172148  83.7334130  28.1172824  51.1995391  82.9385535  27.8959580
  51.6458308  84.2114717  28.1377885  51.0661712  83.6868727  28.0875839
  48.8953342  71.2757164  25.3588589  48.5656672  71.7268307  24.6892288
  48.2198344  71.1973327  25.9061596  48.7463778  71.3308299  25.3411813
  56.1029750  67.2642686  23.6038200  55.7883191  67.9546165  24.0358622
  55.5856691  67.2087469  22.9023701  55.9794220  67.3577575  23.5635149
  47.1009296  69.3369452  20.8411537  47.8555264  69.7047769  20.6028587
  46.9236831  69.7109006  21.6090717  47.1863774  69.4467640  20.9196426
  60.3944195  75.4863892  28.8859076  59.5572616  75.5566080  29.1206671
  60.3632426  75.4888387  28.0133379  60.2662477  75.4974120  28.7918624
  46.7908924  77.6296928  34.6007445  46.9629427  77.5202823  35.4492726
  47.3278281  78.2751334  34.3638637  46.8953928  77.7088930  34.6912542
  45.4566361  71.7439771  17.5389650  45.2741934  71.9611652  16.7130643
  46.3191974  71.8578784  17.5948265  45.5570950  71.7929669  17.4244137
  51.1366080  68.7466182  20.5738674  51.8652240  68.5682137  20.1276830
  51.2260973  69.5884261  20.7845852  51.2572742  68.8450060  20.5392192
  55.1174380  79.6819569  24.4770968  55.8731895  80.1151083  24.5159877
  55.2236705  79.0324339  25.0505604  55.2444551  79.6497053  24.5668993
  41.0970641  80.2228859  29.4360365  40.8309056  79.4067976  29.5951355
  41.1109205  80.2682015  28.5655881  41.0595363  80.1085764  29.3313847
  58.0752034  70.5506674  27.4702799  58.7177943  70.6204779  28.0564714
  58.3275055  69.8835897  26.9682341  58.2074167  70.4633023  27.4830078
  45.0028388  75.0213944  16.0512123  44.2886565  74.7352123  16.4634556
  45.4872356  75.3610569  16.6918511  44.9687751  75.0295593  16.2067758
  45.8469247  73.7607237  32.0827373  45.1541044  73.2904217  32.3288104
  46.4629574  73.5345542  32.6569080  45.8353777  73.6574369  32.2036525
  41.5064054  81.0087639  26.7172109  41.3239628  80.9834525  25.8644402
  42.2413723  81.4786576  26.7561018  41.5878118  81.0749001  26.5970028
  44.5709806  77.7272641  33.2254218  45.2949778  77.7125672  33.7119113
  44.6725942  78.4367997  32.7276186  44.6928015  77.8297345  33.2233005
  51.9454755  81.2071726  38.0903165  51.1527736  81.5215238  38.2755785
  52.0603683  81.4223194  37.2523950  51.8450166  81.2855563  37.9941500
  54.6186074  77.9305717  22.3798181  54.7132929  78.6695011  22.8337806
  53.9944918  77.5023193  22.8132745  54.5395104  77.9767038  22.5106328
  52.8738548  81.1091930  33.0288462  53.4477410  80.4719174  33.1837026
  52.7953352  81.1096012  32.1598119  52.9471783  81.0157041  32.9234873
  41.4734965  77.8881139  26.8671176  42.0508467  77.7517590  27.5063421
  40.7749026  77.4316923  27.1216760  41.4555986  77.8003405  26.9993466
  48.2302267  79.5415195  25.0809659  47.9721511  78.7086930  25.0540959
  48.2850750  79.7672808  24.2402159  48.2002045  79.4512966  24.9529796
  53.3103317  71.6443646  25.1813752  52.6059644  71.1552831  25.3397671
  53.3588291  71.6566120  24.3102196  53.2133369  71.5733294  25.0753092
  47.2036979  77.0952957  25.5674554  46.6286570  77.2545126  26.2038515
  46.8272655  76.4588366  25.1043004  47.0639791  77.0250770  25.5929112
  50.8710268  75.5676307  30.4266932  50.4824700  75.1430524  29.7719123
  50.2064966  75.8158456  30.9343959  50.7157195  75.5415028  30.4054800
  60.5133537  75.3251311  23.2014762  60.2570102  74.5131253  23.0112645
  61.3562851  75.3328879  22.9744950  60.5999562  75.2063309  23.1399579
  36.9493798  76.7393032  23.5818994  37.0354050  76.3624900  24.3632524
  37.5769595  76.3653478  23.1038953  37.0550349  76.6278514  23.6264472
  54.6936629  69.2650935  27.9390917  55.0747141  68.5829107  28.3258791
  53.8899913  68.9760538  27.7566581  54.6313091  69.1217984  27.9694972
  47.8457114  83.2696429  23.7516051  48.4831061  83.0308176  24.2967845
  48.2712186  83.4733588  23.0169212  48.0033280  83.2647439  23.7233209
  48.4859929  78.4898718  18.0890941  48.8705082  78.2706425  18.8407486
  48.2371549  79.3161664  18.2192017  48.5062002  78.5796865  18.2192017
  48.6528470  71.7705134  37.8053525  48.3381911  72.5404696  37.5423088
  48.3318402  71.2075390  37.2205752  48.5587389  71.8015402  37.6794875
  50.2278586  83.7468851  25.4309838  50.3017594  83.5844023  26.2851688
  51.0448092  83.9359041  25.1870319  50.3594945  83.7505594  25.5207863
  46.2060367  70.1595655  23.4199721  45.3382792  70.2318255  23.4857330
  46.4935571  70.9617734  23.6087696  46.1200115  70.2889802  23.4574488
  55.3293255  70.3073515  31.7511043  56.0746847  70.1183325  31.3374469
  54.9130560  70.8331752  31.1924899  55.3778230  70.3575660  31.6075616
  62.7055526  77.6782743  26.7016548  63.2563448  77.0450812  26.9413640
  62.6899641  78.2098136  27.3932052  62.7840722  77.6631691  26.8395406
  49.3577917  81.5121340  31.2476441  48.8589611  82.2237108  31.3261330
  50.1678141  81.8322007  31.2094604  49.4034024  81.6648189  31.2533010
  45.6206035  80.7744293  25.4939162  45.3319283  80.1481765  26.0284890
  46.4889383  80.7164581  25.5603843  45.7066286  80.6731838  25.5830117
  56.4083932  75.9179077  25.8121144  56.0648698  75.1969412  26.1628394
  56.5076975  75.7092928  24.9699503  56.3725975  75.7803280  25.7392824
  45.8238308  82.4139544  21.4181527  46.5784276  82.7952583  21.6316990
  45.2308921  82.8650688  21.8728224  45.8475022  82.5368372  21.5164406
  48.2844975  74.3702385  36.5438740  47.4744751  74.6760164  36.4328582
  48.7619662  75.0907967  36.6591324  48.2348454  74.5216986  36.5445811
  44.1327719  73.6353914  20.8616598  43.8452514  73.2655185  20.1248545
  44.8198187  74.1048770  20.6000302  44.1916616  73.6500884  20.7131673
  48.5702860  80.6152125  22.1903134  48.3745643  81.2226859  21.5963437
  48.7937206  79.9220069  21.7094808  48.5737501  80.6029650  22.0319215
  46.9681390  77.5006863  22.3084002  47.6904042  77.6648021  21.8487808
  46.4889383  78.2216527  22.2023342  47.0045121  77.6305092  22.2249616
  54.9274898  73.8370661  27.6880687  54.0885998  73.8631940  27.4518950
  54.9979265  74.4841397  28.2686034  54.8143291  73.9366787  27.7389804
  44.6189007  79.9064935  31.4138142  45.1310104  80.1849188  30.7646902
  44.3325349  80.6454229  31.7800955  44.6523870  80.0567289  31.3728020
  53.3744176  70.7356038  22.4208303  54.0770529  70.5363787  21.9428261
  53.1088365  69.9631981  22.7277147  53.4390808  70.5919004  22.3953745
  58.8032422  79.0438648  24.9741929  58.7166396  79.1994074  25.8276708
  58.3482902  79.6876724  24.6001334  58.7235678  79.1614403  25.0449036
  41.7055913  74.4135127  21.7101879  41.8072050  75.2161288  22.0382854
  42.5011800  74.2122463  21.4124959  41.8383819  74.5021026  21.7137234
  48.1372732  71.9991324  31.4739184  47.9455929  72.0146458  32.3238607
  48.9871328  72.1954998  31.4505839  48.2348454  72.0305675  31.5962478
  42.5219645  74.5282305  29.4523000  42.3805137  73.6766246  29.5767508
  42.8060209  74.5710966  28.6285206  42.5427491  74.4082055  29.3490624
  52.6758238  76.3649395  23.5967488  52.4292952  76.2845146  24.4304277
  53.0043361  75.5802863  23.4030016  52.6879481  76.2375661  23.6915012
  54.9084372  79.3729130  33.6376651  54.9032410  78.5008947  33.6419078
  55.6145365  79.5717299  33.1646107  55.0129376  79.2733004  33.5683687
  48.6355265  79.1006114  33.0090472  48.7798641  79.6807322  32.3733582
  48.9830913  79.4782411  33.7140326  48.7082726  79.2426818  33.0189466
  50.8075182  78.2996282  30.7915603  50.0598496  78.4927297  30.3863881
  50.9616708  77.4741502  30.5539724  50.7197610  78.2061394  30.6961009
  51.0476959  72.1946833  31.6811007  51.5049573  72.9270807  31.8083799
  51.1233288  71.7713298  32.4398263  51.1267929  72.2404071  31.8112083
  43.2909951  72.4412653  32.7700451  42.7552140  71.8293011  33.0861218
  43.3527715  73.0160789  33.4234117  43.2205583  72.4359580  32.9135877
  55.5204285  65.3736708  25.5504850  55.6387853  65.8313172  24.8172152
  55.3466461  64.5681969  25.2641067  55.5123456  65.3230480  25.4005783
  48.9259337  74.1848937  28.5252831  48.1355412  74.0040397  28.8470167
  49.3219960  73.4075889  28.5083125  48.8676213  74.0436398  28.5705379
  54.3103024  81.8191367  26.2512277  53.6348025  81.5876599  26.7525664
  54.3195400  81.2112550  25.6254382  54.2121528  81.6950292  26.2328429
  51.4397168  76.6609196  33.0076330  51.3756309  77.5219153  32.8796466
  51.5794355  76.3441189  32.2071881  51.4512638  76.7409363  32.8704543
  50.1216261  79.3541335  27.1492533  49.6978511  79.5545834  26.4131551
  49.9461117  78.5070183  27.2616832  50.0327142  79.2590117  27.0566223
  45.4098706  79.8493387  22.5820505  45.5663326  79.7840190  23.4376497
  45.7499299  80.6241939  22.3699185  45.4831941  79.9542585  22.6775099
  51.9477851  79.2251270  21.4513868  52.4893396  78.7221652  21.9152489
  52.2624410  79.1716465  20.6403354  52.0742248  79.1430691  21.3997680
  53.0967120  74.1187575  31.5036169  53.3109090  73.4798489  30.9499523
  52.4801020  74.5633399  31.0744031  53.0372450  74.0897719  31.3586600
  41.9832968  77.0328337  22.8981272  42.3631933  77.4512882  22.2341540
  41.4088333  77.6141793  23.2050116  41.9544293  77.1806196  22.8458013
  55.2606208  75.7276640  32.4419476  54.4482890  75.4202530  32.5232649
  55.7196143  75.2475640  33.0062188  55.2086593  75.6113132  32.5374070
  52.3559716  77.1336712  37.2248178  52.8259347  77.7578828  37.6116052
  52.4021596  76.4653687  37.7841393  52.4327592  77.1271392  37.3648250
  49.5130990  69.2393739  27.9496982  48.9969478  68.5473930  28.0748561
  48.9524918  69.9064516  27.8959581  49.3537503  69.2356997  27.9603048
  51.5823223  69.7786699  29.7789835  51.1954976  69.8035731  30.5603365
  51.0956160  69.2128378  29.3264351  51.4535732  69.6982450  29.8277738
  57.5573202  76.3449354  28.4029537  57.1300811  76.2575703  27.6477636
  56.9199255  76.4527130  28.9884381  57.4002810  76.3482014  28.3774978
  51.0494280  71.4524879  34.3426506  51.8767709  71.1810028  34.3985121
  51.0702126  72.2485721  34.6990324  51.1747130  71.5304633  34.4041689
  45.6263769  78.5988742  27.5296767  44.7851776  78.4992616  27.7375661
  45.8353777  79.3684222  27.8811087  45.5328462  78.6980785  27.6124082
  43.1039336  76.2208279  25.3581517  42.7096034  76.2951291  24.5831627
  42.5479453  76.6066225  25.9089879  42.9642149  76.2890054  25.3249177
  49.4380434  76.5270141  26.7794364  49.1343572  75.9726130  27.3804772
  48.7359855  76.7062351  26.2922399  49.2896644  76.4714924  26.7964070
  48.4946531  73.8370661  21.3439066  48.7706266  73.1189574  20.9316634
  49.0945201  74.4355581  21.1360172  48.6239796  73.8191032  21.2519827
  57.9937971  69.7521337  24.5188162  57.3812284  70.2391739  24.9041894
  58.0902146  69.0764828  25.0625813  57.9175869  69.7239646  24.6567020
  51.9957052  71.5084178  19.6185661  52.4500798  71.6794739  20.3433506
  52.4697098  70.8952289  19.2183437  52.1325372  71.4435064  19.6659423
  45.5172577  80.9932504  28.9488400  44.9260511  81.6342003  28.9191415
  46.2793601  81.4170122  28.9219699  45.5420838  81.1508343  28.9403547
  45.9133200  72.1534502  29.6156417  46.3734682  72.2273432  30.3531541
  45.9589307  72.9515756  29.2656239  45.9883755  72.2828649  29.6729174
  47.5616550  72.8201197  34.1828444  47.1702115  72.1734544  34.6184222
  47.7302413  73.4112632  34.8022700  47.5287460  72.8115465  34.3391150
  49.3370072  78.2126713  20.7230668  50.0812117  78.6000989  20.9613618
  49.4830768  77.3684138  20.8871156  49.4680657  78.1457186  20.7824638
  51.2549647  70.0076972  25.7562530  50.4085692  70.1799779  25.6303880
  51.2520780  69.2026315  26.0928358  51.1296797  69.9138001  25.7873657
  52.3247948  73.7852186  26.6224588  51.8507902  73.2593948  27.1329899
  52.6966084  73.2381659  26.0539449  52.3097837  73.6268183  26.6139735
  42.7020978  75.7823693  31.9908134  43.5646591  75.6819402  31.9045463
  42.3712761  75.2018402  31.4293706  42.7806174  75.6815320  31.8953539
  58.5884678  78.8454562  28.0331368  58.3482901  78.0060977  28.0373795
  59.0676685  78.9254728  28.7572142  58.6236862  78.7335961  28.1406171
  54.2531447  74.6788741  19.6850342  53.7254466  74.7617485  18.9956050
  54.7127156  75.4206612  19.6814986  54.2433298  74.8009403  19.5825037
  60.5889865  75.6256019  25.9860627  60.3499635  75.5851853  25.1481412
  60.7523767  76.4727171  26.1126348  60.5780169  75.7448104  25.8814109
  57.1935895  80.0105968  31.9165672  57.9170094  79.5578495  31.7376692
  56.9285858  80.2910634  31.1338000  57.2617169  79.9856937  31.7744388
  46.0622764  74.6066142  28.6518552  45.4375834  74.6184534  28.0444504
  45.7268359  75.0826317  29.3009792  45.9208256  74.6784659  28.6575120
  46.2464513  72.9491260  14.7091237  45.8977317  73.6010985  15.1722786
  45.7660958  72.9348373  13.9815108  46.1234756  73.0434314  14.6702328
  52.9754685  80.1089846  30.0660688  52.3611678  79.5647897  30.3609323
  53.4921970  79.5954083  29.5866504  52.9610347  79.9526256  30.0384916
  52.2150982  81.1794117  27.8004986  51.7878590  80.5543835  27.3670422
  52.2075927  80.8969038  28.6263993  52.1510123  81.0446897  27.8584814
  45.3313509  76.2159290  30.8693420  45.4906996  75.4602614  31.2745142
  45.1506403  76.7650229  31.5234158  45.3278868  76.1853103  31.0256126
  53.2733812  68.3820525  31.4244210  52.7774373  68.5784199  30.7335776
  54.0302874  68.7813193  31.2533011  53.3120637  68.4698259  31.2964346
  50.5436692  72.0562871  28.0147520  50.5679179  71.5222983  27.3260300
  50.7948165  71.5480180  28.6773111  50.5846610  71.9023775  28.0112165
  38.0544282  79.3394366  27.4490664  37.9487731  79.2941210  26.5842748
  37.3044502  79.6848147  27.7304949  37.9279885  79.3835274  27.3627994
  46.8238014  70.7833689  27.3953265  46.8636386  71.2842896  28.1087972
  45.9987679  70.8744083  27.1259188  46.7077540  70.8715506  27.4603803
  49.0067627  80.3494429  35.4973559  48.1563257  80.4866144  35.6331204
  49.1695755  79.6158208  35.9421261  48.9051490  80.2608530  35.5829158
  48.2452377  77.2994199  29.6927164  47.4144307  77.4668017  29.4862412
  48.1903895  76.9230150  30.4776049  48.1141792  77.2683930  29.7775692
  46.0536161  70.7903092  35.3283574  46.6788864  70.2465225  35.6013007
  45.5986641  70.3098010  34.7591365  46.0784421  70.6392573  35.2845168
  46.6188421  75.5749791  20.2217281  46.7591382  76.0722255  20.9245923
  47.1170954  74.8736085  20.3631495  46.7129502  75.5451769  20.3468860
  46.6488644  76.4416902  17.5509858  47.2833723  77.0377327  17.4859320
  46.7314254  76.1420359  18.3655728  46.7545195  76.4857810  17.6612945
  59.6271209  78.9732379  30.4196222  60.2189050  79.6129630  30.4514420
  60.0630204  78.2755416  30.7088289  59.7789641  78.9650729  30.4677055
  48.2267626  72.3730877  17.5255300  48.5483468  71.8933960  16.8714562
  48.4894570  73.1830523  17.3346112  48.3133652  72.4220775  17.4010792
  53.6226781  71.7603071  29.8878779  54.0481853  71.3075597  29.2762306
  53.0083775  71.2063142  30.1643567  53.5955427  71.6117047  29.8383804
  43.1541632  78.6384742  20.8199404  43.6633861  79.2349250  21.2010710
  43.6275904  78.3710716  20.1375824  43.2985007  78.6870558  20.7753927
  52.0621004  68.2318171  23.2969356  51.4189322  68.0815817  23.8654495
  51.7220411  67.9860516  22.5318461  51.9166082  68.1730293  23.2672371
  56.6520351  76.1877598  22.7199365  55.9811541  76.7307300  22.5912430
  57.3460101  76.6572453  22.4781060  56.6549218  76.3375869  22.6654892
  56.8148478  72.6433481  25.6289738  57.1676088  72.2163204  26.3035537
  55.9563280  72.5584325  25.7590814  56.7397923  72.5678222  25.7484748
  45.5132163  75.2741001  23.6872584  44.7944152  75.6905134  23.9545448
  45.8844526  75.8395240  23.1364223  45.4624095  75.4190282  23.6455391
  54.8131744  75.9068850  29.5774580  54.7929671  75.7252145  30.4309359
  54.8610945  76.7780868  29.5534164  54.8166385  76.0085388  29.6997875
  52.7578074  82.4956042  35.5023057  52.7173929  81.8505719  34.9168213
  53.5701392  82.4392659  35.8148469  52.8721227  82.3915009  35.4620006
  51.2878738  74.3139001  19.0245964  50.6943577  74.6355997  18.4730531
  51.3254015  73.4680096  18.8167070  51.2053127  74.2363329  18.9128735
  58.2472538  67.7651893  26.5574050  57.7403403  67.0581033  26.4895228
  59.0439972  67.4345082  26.6875127  58.2899778  67.6125045  26.5673045
  54.1636554  74.2718505  22.4547714  53.9350247  74.2951207  21.6126072
  54.4234630  73.4475972  22.5742725  54.1682742  74.1534585  22.3472912
  48.4455783  76.1252978  32.0572814  47.9334686  75.5174161  32.4157846
  48.2735279  76.8409571  32.5246790  48.3445420  76.1416278  32.1789038
  43.2921497  74.5690554  34.7075176  43.1224088  75.2291929  34.1623383
  42.8487447  74.7797115  35.4287665  43.2020831  74.6976536  34.7336806
  47.2181317  72.8095052  23.7501910  47.6938683  73.1712132  23.1152091
  46.7169916  73.4651519  24.0302053  47.2146676  72.9589240  23.6978651
  52.3224853  74.0477223  34.4975070  52.8796283  73.8191033  33.8653535
  51.9985918  74.8082889  34.2210282  52.3571263  74.1261060  34.3631567
  40.1923562  77.4737419  29.9663666  39.6450281  76.8038065  30.0844534
  40.9815940  77.1067267  30.0307133  40.2275746  77.3202406  29.9932367
  50.0407970  77.1344876  35.4627077  50.7919297  77.4496553  35.7766631
  50.2330547  76.9324047  34.6360999  50.1799384  77.1512258  35.3870473
  49.2607970  74.9536251  17.1175294  49.6406935  74.9715881  16.3326409
  48.5200566  75.3990240  16.9966141  49.2076808  75.0218026  16.9838862
  56.8893260  73.2618443  22.7050873  56.8887487  73.1067099  23.5635149
  56.6849440  74.1081430  22.6492258  56.8593038  73.3639063  22.8238812
  38.9510531  76.6858227  27.1209689  38.7732292  76.2334836  27.8464605
  38.6629553  77.4884389  27.3048167  38.8823485  76.7380785  27.2553192
  54.6134112  77.9415944  26.3587079  55.1087778  77.2238940  26.3191100
  53.8033888  77.6386742  26.2441566  54.5678006  77.7913591  26.3360805
  40.6883001  79.2185951  24.2331448  39.8228521  79.2071641  24.1214219
  40.7881817  79.0316174  25.0802587  40.5757168  79.1892012  24.3420393
  56.6785931  80.6919632  29.0464208  57.1041003  80.1694054  28.4934633
  56.3142851  81.2900469  28.5252831  56.6872534  80.7029859  28.8873218
  53.2664531  84.4053896  25.3765366  53.7375709  85.1194159  25.5455351
  53.6024709  83.8052646  25.9125235  53.3859646  84.4225361  25.4797742
  50.1834026  69.1781367  32.3323460  50.3161931  68.3812360  32.6604436
  50.5679178  69.7047770  32.9121736  50.2590355  69.1381284  32.4666963
  53.9038477  84.1971830  32.1393058  53.3559423  83.5729714  31.8713124
  54.3651506  84.3866102  31.4237138  53.8905687  84.1330881  31.9943489
  56.7132341  72.2657185  29.5244251  56.1295330  72.7666391  29.1121818
  57.0336635  71.7586741  28.8908574  56.6745517  72.2649020  29.3702758
  49.2527141  71.1797780  19.8002925  50.0742835  71.3496093  19.5584620
  48.7896791  71.3345041  19.0769223  49.3058303  71.2279513  19.6574570
  47.8422472  69.1740542  30.5801354  48.3866885  68.8331669  31.1705696
  47.8959408  70.0326003  30.7222639  47.9311592  69.2495801  30.6883228
  22.2524345  13.0786831  22.9298709  22.9591112  12.5838862  23.0585644
  22.4412280  13.5195912  22.2001367  22.3852250  13.0705181  22.8407755
  19.3916639  16.5014367  20.8212784  19.4799985  16.3140508  21.6690995
  19.8206352  15.8551797  20.4217631  19.4678741  16.3777375  20.8884536
  16.9587099  15.7845527  19.8030447  16.3957934  15.3718137  20.3270108
  17.7208122  15.7098433  20.2223590  16.9881548  15.7122928  19.9423447
  13.5661997   8.0119135  21.5347492  13.7382501   7.9025030  22.3832773
  14.1031354   8.6573541  21.2978684  13.6707001   8.0911137  21.6252589
  19.5036698  15.9323386  23.4856568  20.2877115  16.0454234  23.8512310
  19.3033293  15.1064524  23.6815254  19.5902724  15.8270106  23.5690954
  19.6607092  17.8433489  17.1323024  18.8622337  17.6032989  17.3896892
  20.1093103  17.8947881  17.8790071  19.6081703  17.8155880  17.2807948
  18.7207829  11.5893933  25.0243212  17.9280809  11.9037445  25.2095831
  18.8356756  11.8045402  24.1863996  18.6203239  11.6677770  24.9281547
  19.6491621  11.4914137  19.9628508  20.2230483  10.8541381  20.1177072
  19.5706425  11.4918220  19.0938166  19.7224856  11.3979249  19.8574919
  24.9711769  12.8623115  19.9713362  24.7350407  12.0311180  19.8525422
  25.6154998  12.8108722  20.5568206  25.0306440  12.7320803  20.0399255
  25.9948190  12.6467564  16.0341656  25.6894007  13.3795620  16.3954972
  25.2754406  12.2405493  15.7534442  25.8435532  12.6949297  16.0454793
  31.6949982   9.2860564  15.3610000  31.6274482   9.3056523  14.4912587
  31.6805644  10.1290891  15.5865671  31.6828738   9.4134299  15.2662477
  16.1330990  11.8943548  18.1816488  15.6342684  12.6059315  18.2601377
  16.9431214  12.2144214  18.1434651  16.1787097  12.0470396  18.1873057
  15.0598048   4.7524592  23.4778787  14.2497824   5.0582372  23.3668629
  15.5372735   5.4730174  23.5931371  15.0101527   4.9039193  23.4785858
  21.6837445   9.7551337  20.5716698  21.6785483   8.8831154  20.5759125
  22.3898439   9.9539507  20.0986154  21.7882449   9.6555212  20.5023734
  14.4836093  17.6731093  16.8091545  14.6325657  17.1134009  16.1564950
  15.2636095  17.7523095  17.1924064  14.6210187  17.6016659  16.7688494
  17.0089394  17.8445736  18.0876036  16.9333065  17.1754547  18.6426824
  16.9379253  18.5463524  18.6016702  16.9870001  17.8490643  18.2452884
  16.3981028  21.2514056  16.5454037  16.8876958  20.5524845  16.3629701
  15.8265260  20.9537926  17.1330094  16.3865558  21.1040279  16.6055078
  22.5948032  13.8176125  25.4980827  23.4082897  13.5461274  25.6585960
  22.4342998  13.5183665  24.6941023  22.6917980  13.7331051  25.4026233
  22.0359282   6.1098847  19.3759523  21.2235963   5.8024738  19.4572696
  22.4949216   5.6297848  19.9402235  21.9839666   5.9935340  19.4714117
  19.1312789   7.5158919  24.1588225  19.6012420   8.1401035  24.5456099
  19.1774669   6.8475894  24.7181440  19.2080665   7.5093599  24.2988297
  22.6069276  14.8782415  20.7703668  23.2448996  14.3842611  20.4366124
  21.9643367  14.8059816  20.1855895  22.6063502  14.7941424  20.6346023
  22.6623532  15.5702224  17.4109025  23.4515910  15.2191288  17.5311106
  22.8367130  16.3838612  17.1485659  22.8043814  15.6388081  17.3896893
  14.2751858  14.1242069  18.4206509  14.1672213  14.1344131  19.2868567
  14.4847640  14.9496850  18.2311463  14.2901970  14.2483144  18.5210601
  28.4116072  11.2060481  16.8805725  28.4699196  11.6547130  17.6265701
  27.7782540  11.6159294  16.4435805  28.3267367  11.3334216  16.9258273
  22.0515167  16.8264023  13.3160471  21.8534855  17.3154838  12.6216682
  21.4302878  17.0305265  13.8944604  21.9302731  16.9280562  13.2983694
  23.9688969  10.3928176  18.8505719  24.6923168   9.9400702  18.6716739
  23.7038931  10.6732841  18.0678047  24.0370242  10.3679144  18.7084435
  15.7820700  10.7316637  22.4313606  14.9316331  10.8688351  22.5671251
  15.9448828   9.9980415  22.8761308  15.6804564  10.6430738  22.5169205
  26.4024283   9.3554586  17.3536269  26.9942123   9.9951837  17.3854467
  26.8383277   8.6577623  17.6428336  26.5542714   9.3472937  17.4017102
  18.2317672  13.7771959  17.9794163  17.7242764  14.3307806  18.4234793
  17.9344319  13.8380249  17.1612937  18.1122557  13.8678270  17.9242620
  17.4760158  18.7096517  14.8851170  17.2525812  17.9515346  15.2535196
  16.9870001  18.7394538  14.1631610  17.3703607  18.6018742  14.8327911
  19.5331147  12.8778249  22.4363104  19.4927002  12.2327926  21.8508259
  20.3454465  12.8214867  22.7488516  19.6474301  12.7737216  22.3960053
  19.0977926   4.4299430  21.4315117  19.6549356   4.2013240  20.7993582
  18.7738991   5.1905096  21.1550329  19.1324336   4.5083267  21.2971614
  16.8161043   7.5167084  22.3967124  17.5672370   7.8318761  22.7106678
  17.0083620   7.3146255  21.5701046  16.9552458   7.5334466  22.3210520
  23.4539005  11.0741839  15.9804255  23.8794076  10.5516261  15.4274680
  23.0895924  11.6722677  15.4592878  23.4625607  11.0852066  15.8213265
  13.0893084  19.3706057  14.7401600  13.4039643  20.1842445  14.7479382
  13.4986498  18.9856276  15.4083760  13.1961182  19.4334759  14.8405692
  22.1294589  16.3977417  24.4897485  22.2391554  15.6085978  24.8454232
  22.4585485  16.3083353  23.6871823  22.1946994  16.2683270  24.4239875
  20.6791550  14.5794038  19.0733105  20.1312496  13.9551921  18.8053170
  21.1404579  14.7688310  18.3577184  20.6658760  14.5153088  18.9283536
  20.2449877  15.5845110  15.6042446  21.0648250  15.4408077  15.8658741
  19.9643954  16.2091309  16.1458884  20.3246620  15.6555463  15.7230386
  36.7163527  23.2409962   8.5685323  36.6857531  24.0954599   8.7403592
  37.3144876  22.9405255   9.1271466  36.8000685  23.3226459   8.6760125
  29.9163212  22.3285613  13.3238253  29.0601107  22.4894111  13.3747370
  29.9630866  21.4577677  13.3443314  29.7962323  22.2236415  13.3344319
  24.3004352  31.8648331   9.0875485  23.5487251  31.4863869   8.8591530
  24.7490363  31.8966765   8.3394295  24.2554018  31.8133938   8.9432987
  29.7529311  32.2873701   4.5161032  29.4180680  32.9650622   4.0805254
  30.2656182  31.8979012   3.9277903  29.7794893  32.3298279   4.3647823
  29.2933603  34.2387969  10.4572143  29.6772982  34.8074868   9.9176919
  29.2292744  33.5137480   9.9777959  29.3407030  34.2163433  10.3066006
  32.7615033  24.3877657  15.9669905  33.3070993  25.0662744  16.0263874
  32.7031909  24.2465118  15.1071486  32.8330947  24.4669659  15.8481965
  25.8789108  31.8766723  11.3538257  25.9799471  31.0667077  11.6635385
  25.2830853  31.7823670  10.7237936  25.8061646  31.7431751  11.3064496
  34.5380101  25.8162264   6.8403632  34.4219627  26.5669950   7.2695771
  35.3335988  25.5586218   7.0899720  34.6384691  25.8897111   6.9407724
  25.7189847  36.7944312  12.7553113  26.3627303  37.2357476  13.1449272
  26.0446103  35.9897739  12.6683372  25.8621676  36.7409507  12.7998590
  19.0754152  27.8987010  10.9790591  18.8404336  27.0654662  10.8722860
  19.2139793  28.1791675  10.1651792  19.0609814  27.8170513  10.8432946
  21.3744239  20.0672740  13.8774898  20.7549271  19.4765388  13.7084913
  21.2728103  20.6584176  13.2439222  21.2681915  20.0676823  13.7579888
  26.4210427  29.8056287   8.1272975  26.7426268  30.3461495   7.5234283
  27.0682524  29.2353059   8.2595265  26.5636482  29.8015462   8.0580010
  28.4712135  21.8072282   8.2107362  29.1692300  21.9860410   8.7028825
  28.7864468  21.2842622   7.5877751  28.6207472  21.7566054   8.1909372
  21.1013372  23.6125022  16.1218467  20.9772069  24.1987468  16.7568286
  21.7531657  23.1185218  16.4230742  21.1787022  23.6263827  16.2604397
  28.6600070  28.1942727   8.1987153  29.0993706  27.5859828   8.6441926
  28.5104733  27.8150101   7.4272618  28.7021536  28.0481198   8.1506320
  26.1271713  26.7886739  15.4005979  26.7720716  26.2959182  15.0816927
  26.3673490  26.9311526  16.2272057  26.2582299  26.7364181  15.4755512
  28.6657805  29.6341645  15.0512871  28.9481048  28.8393051  14.8299627
  29.3943965  30.1122232  15.0717932  28.8147369  29.5876242  15.0215886
  26.6438999  17.1764679  12.2928636  26.3142329  17.6275822  11.6232335
  25.9684000  17.0980842  12.8401643  26.4949435  17.2315814  12.2751859
  32.2609407  26.5469909   5.1517922  32.1760702  27.4030875   5.2967491
  32.7493790  26.2714233   5.8200081  32.3198304  26.6327230   5.2720004
  33.8515406  13.1650202  10.5378247  33.5368847  13.8553680  10.9698669
  33.3342348  13.1094984   9.8363748  33.7279877  13.2585090  10.4975196
  33.1927840  23.1654703   6.6515657  32.6639312  23.3814336   7.3112964
  33.7152860  23.8590841   6.5716627  33.1916293  23.2997840   6.7371257
  38.6475893  28.7401007  12.0248702  37.8173596  28.9511651  12.1882118
  38.5985145  27.9138062  11.7490985  38.5182629  28.6490613  12.0086067
  20.6371477  32.7772681  12.2546797  20.1539055  33.5023170  12.2306381
  21.4494795  33.0748811  12.3656955  20.6862224  32.9275034  12.2674076
  26.7085631  31.5704861  14.8596611  26.1912572  31.2112276  14.2557919
  27.4060022  31.0467036  14.8702678  26.7351212  31.4402549  14.7726870
  27.9319682  31.3030835  19.8030447  27.3690517  30.8903445  20.3270108
  28.6940706  31.2283741  20.2223590  27.9614131  31.2308236  19.9423447
  23.4915674  33.2928857  12.4067077  24.1936253  32.7780846  12.4639833
  23.4113157  33.6203008  13.2113952  23.5839434  33.2643083  12.5339869
  38.1429851  21.3871408  15.8199123  37.3058273  21.4573595  16.0546718
  38.1118082  21.3895903  14.9473426  38.0148134  21.3981635  15.7258671
  24.5394580  23.5304443  21.5347492  24.7115084  23.4210338  22.3832773
  25.0763938  24.1758849  21.2978684  24.6439584  23.6096445  21.6252589
  22.8166449  29.4835208  11.9152685  23.6555349  29.7158141  11.9626446
  22.8478219  28.6139520  11.8459720  22.9448167  29.3892155  11.9117329
  23.4419152  29.9036084  16.2165990  23.9817377  29.7607215  16.8869363
  22.7589099  30.3032834  16.5850017  23.4211306  29.9415755  16.3700412
  32.8660037  25.5827084  11.4111015  33.6217552  26.0158599  11.4499923
  32.9722362  24.9331854  11.9845651  32.9930208  25.5504568  11.5009040
  35.9040208  29.4100362  12.1613418  35.4675440  29.4137104  12.9172389
  35.5703124  30.0905861  11.7292995  35.7902828  29.5112817  12.2094250
  18.8456297  26.1236374  16.3700412  18.5794713  25.3075491  16.5291402
  18.8594862  26.1689530  15.4995927  18.8081020  26.0093279  16.2653894
  35.8237691  16.4514189  14.4042846  36.4663600  16.5212294  14.9904761
  36.0760712  15.7843412  13.9022388  35.9559823  16.3640538  14.4170125
  23.5954904  19.6614753  19.0167420  22.9026701  19.1911732  19.2628151
  24.2115231  19.4353057  19.5909127  23.5839434  19.5581885  19.1376572
  30.6339675  33.3618796  17.1323024  29.8354921  33.1218297  17.3896892
  31.0825687  33.4133189  17.8790071  30.5814287  33.3341188  17.2807948
  39.0384555  26.1281281  11.0533055  39.7000989  25.5671950  10.9528963
  38.3975967  25.6333312  11.3785746  39.0413422  25.9717690  11.0865395
  29.9261362  29.4251413   3.3613978  30.3412511  29.0936437   2.6698474
  29.0953292  29.1920315   3.2334115  29.8649371  29.3422669   3.2404826
  19.2549711  26.9095154  13.6512156  19.0725284  26.8842040  12.7984448
  19.9899380  27.3794092  13.6901065  19.3363775  26.9756516  13.5310075
  35.3249385  27.1446664  10.7945044  35.5604974  27.2891863   9.9671894
  35.4738949  27.9089072  11.1876557  35.3815189  27.2785718  10.7308648
  22.3195463  23.6280157  20.1594265  23.0435435  23.6133187  20.6459159
  22.4211599  24.3375512  19.6616233  22.4413672  23.7304860  20.1573052
  37.1539842  25.9848330   8.6314647  37.4848059  26.5175970   8.0254742
  37.7272930  26.0387218   9.2876598  37.2873521  26.0717899   8.6392429
  32.3671731  23.8313233   9.3138228  32.4618586  24.5702527   9.7677853
  31.7430575  23.4030708   9.7472792  32.2880761  23.8774553   9.4446375
  30.6224205  27.0099445  19.9628508  31.1963067  26.3726689  20.1177072
  30.5439009  27.0103528  19.0938166  30.6957440  26.9164557  19.8574919
  19.2220621  23.7888655  13.8011223  19.7994124  23.6525105  14.4403468
  18.5234683  23.3324439  14.0556807  19.2041643  23.7010921  13.9333512
  25.9787924  25.4422710  12.0149706  25.7207168  24.6094445  11.9881005
  26.0336406  25.6680323  11.1742206  25.9487701  25.3520481  11.8869843
  31.0588974  17.5451161  12.1153799  30.3545300  17.0560346  12.2737718
  31.1073948  17.5573635  11.2442243  30.9619025  17.4740809  12.0093138
  24.9522636  22.9960473  12.5014601  24.3772227  23.1552641  13.1378562
  24.5758312  22.3595882  12.0383051  24.8125448  22.9258286  12.5269159
  28.6195924  21.4683822  17.3606979  28.2310357  21.0438040  16.7059170
  27.9550623  21.7165972  17.8684006  28.4642852  21.4422543  17.3394847
  38.2619194  21.2258827  10.1354809  38.0055758  20.4138768   9.9452692
  39.1048507  21.2336394   9.9084996  38.3485219  21.1070824  10.0739626
  32.4422286  15.1658451  14.8730963  32.8232798  14.4836622  15.2598838
  31.6385570  14.8768053  14.6906628  32.3798748  15.0225499  14.9035019
  29.7234863  25.6982427   5.5583786  30.5375501  25.9897319   5.4466557
  29.6594004  25.0442289   4.9842079  29.8337602  25.6447621   5.4572623
  25.5942771  29.1703944  10.6856098  26.2316718  28.9315692  11.2307892
  26.0197842  29.3741103   9.9509259  25.7518937  29.1654954  10.6573255
  20.2855413  31.4092281  14.5690402  20.3259559  31.6807132  13.7410182
  20.8449937  31.9334189  14.9848190  20.3738759  31.5268036  14.5082290
  26.4014126  17.6712649  24.7393572  26.0867567  18.4412212  24.4763134
  26.0804059  17.1082905  24.1545799  26.3073045  17.7022918  24.6134922
  36.9680773  28.1652871  16.0341656  36.6626590  28.8980928  16.3954972
  36.2486989  27.7590801  15.7534442  36.8168116  28.2134604  16.0454793
  27.9764243  29.6476367  12.3649884  28.0503251  29.4851539  13.2191734
  28.7933749  29.8366556  12.1210366  28.1080601  29.6513109  12.4547910
  42.6682566  24.8045872  15.3610000  42.6007066  24.8241831  14.4912587
  42.6538228  25.6476199  15.5865671  42.6561322  24.9319607  15.2662477
  21.7370000  29.9934229   9.3944328  20.9108117  30.2395967   9.2678607
  21.7981991  29.9146310  10.2606386  21.6244167  30.0179178   9.5033272
  33.0778912  16.2081030  18.6851090  33.8232504  16.0190840  18.2714515
  32.6616217  16.7339268  18.1264946  33.1263886  16.2583175  18.5415663
  26.5168829  32.6111110   7.0963358  26.8067127  32.2200091   6.3722584
  27.2472309  32.7927815   7.5368633  26.6675713  32.5804923   7.0546165
  40.4541183  23.5790258  13.6356595  41.0049104  22.9458327  13.8753687
  40.4385298  24.1105651  14.3272099  40.5326379  23.5639207  13.7735453
  27.1063574  27.4128856  18.1816488  26.6075267  28.1244623  18.2601377
  27.9163798  27.7329522  18.1434651  27.1519680  27.5655704  18.1873057
  24.4574744  34.5878492  10.1623508  24.2375040  34.2975847  10.9550175
  24.2369266  33.9293447   9.6341420  24.3922338  34.4478201  10.2012416
  23.3691691  26.6751809  12.4279209  23.0804940  26.0489280  12.9624936
  24.2375039  26.6172096  12.4943890  23.4551943  26.5739353  12.5170164
  34.1569589  21.8186592  12.7461191  33.8134355  21.0976927  13.0968441
  34.2562632  21.6100443  11.9039549  34.1211632  21.6810795  12.6732871
  26.6242700  35.9607882   8.9454200  27.2766758  35.4284324   9.1745226
  25.9268309  35.6076534   9.3322074  26.6173418  35.8297405   9.0366368
  23.5723965  28.3147060   8.3521574  24.3269933  28.6960099   8.5657037
  22.9794577  28.7658203   8.8068271  23.5960678  28.4375887   8.4504453
  34.6182618  28.2812296   8.2885179  35.1840651  28.9405506   8.2043722
  33.9710522  28.6261994   8.7601581  34.6061375  28.4294237   8.3457936
  26.0330632  20.2709900  23.4778787  25.2230407  20.5767680  23.3668629
  26.5105318  20.9915482  23.5931371  25.9834111  20.4224501  23.4785858
  24.8922191  29.4855621  13.7261690  24.3702945  29.6255913  14.4113554
  25.2796212  28.7266285  13.9163807  24.8725892  29.3941145  13.8562766
  31.0889196  31.2251080   7.7122258  30.8475872  30.4918941   7.3049323
  31.2690529  31.7737937   7.0588592  31.0796820  31.1973471   7.5552481
  26.3188517  26.5159640   9.1243181  26.1231300  27.1234375   8.5303484
  26.5422863  25.8227584   8.6434855  26.3223158  26.5037166   8.9659261
  24.7167047  23.4014378   9.2424049  25.4389699  23.5655536   8.7827855
  24.2375040  24.1224043   9.1363389  24.7530778  23.5312608   9.1589663
  32.6760555  19.7378177  14.6220734  31.8371655  19.7639456  14.3858997
  32.7464922  20.3848912  15.2026081  32.5628948  19.8374303  14.6729851
  22.3674664  25.8072450  18.3478189  22.8795761  26.0856704  17.6986949
  22.0811006  26.5461744  18.7141002  22.4009527  25.9574804  18.3068067
  31.1229833  16.6363554   9.3548350  31.8256186  16.4371302   8.8768308
  30.8574022  15.8639496   9.6617193  31.1876465  16.4926520   9.3293791
  36.5518078  24.9446164  11.9081976  36.4652053  25.1001590  12.7616755
  36.0968558  25.5884239  11.5341381  36.4721335  25.0621919  11.9789083
  25.8858389  17.8998839  18.4079231  25.6941586  17.9153973  19.2578654
  26.7356985  18.0962513  18.3845885  25.9834111  17.9313190  18.5302525
  20.2705302  20.4289820  16.3863047  20.1290794  19.5773761  16.5107555
  20.5545865  20.4718481  15.5625253  20.2913148  20.3089570  16.2830671
  30.4243894  22.2656911  10.5307535  30.1778609  22.1852662  11.3644324
  30.7529018  21.4810378  10.3370063  30.4365138  22.1383176  10.6255058
  34.3191943  28.9740270  14.3194316  34.1806303  29.6721316  14.8243059
  33.5391941  28.8188926  13.9630498  34.1835170  29.0540437  14.3420591
  26.3840922  25.0013629  19.9430518  26.5284297  25.5814837  19.3073628
  26.7316570  25.3789926  20.6480373  26.4568383  25.1434333  19.9529513
  28.5560839  24.2003798  17.7255650  27.8084153  24.3934812  17.3203928
  28.7102364  23.3749017  17.4879771  28.4683267  24.1068909  17.6301056
  25.4568677  33.1916401  16.8091545  25.6058240  32.6319317  16.1564950
  26.2368679  33.2708403  17.1924064  25.5942770  33.1201967  16.7688494
  35.8145316  28.3318524   5.0810816  35.4352125  27.5455662   5.0740105
  35.1511562  28.8805381   4.9382460  35.6603791  28.2963348   5.0591613
  27.9821977  33.3631044  18.0876036  27.9065648  32.6939855  18.6426824
  27.9111836  34.0648832  18.6016702  27.9602584  33.3675951  18.2452884
  28.7962616  18.0954348  18.6151054  29.2535230  18.8278323  18.7423846
  28.8718945  17.6720814  19.3738309  28.8753586  18.1411586  18.7452130
  21.0395607  18.3420168  19.7040497  20.5037797  17.7300526  20.0201265
  21.1013372  18.9168304  20.3574164  20.9691240  18.3367096  19.8475924
  33.2689942  11.2744224  12.4844897  33.3873510  11.7320687  11.7512199
  33.0952118  10.4689485  12.1981114  33.2609113  11.2237996  12.3345830
  28.6392224  31.8832043   8.9199642  29.4042115  31.6141687   8.5982306
  28.5370314  31.3982053   9.6369705  28.7373720  31.7721607   8.9779470
  26.6744994  20.0856452  15.4592878  25.8841069  19.9047912  15.7810213
  27.0705617  19.3083405  15.4423172  26.6161870  19.9443913  15.5045426
  32.0588680  27.7198882  13.1852324  31.3833682  27.4884115  13.6865711
  32.0681056  27.1120065  12.5594429  31.9607185  27.5957808  13.1668476
  29.1882824  22.5616711  19.9416377  29.1241966  23.4226668  19.8136513
  29.3280012  22.2448705  19.1411928  29.1998294  22.6416878  19.8044589
  34.0605415  30.5764015   5.4162502  34.1425252  31.3831001   5.0923952
  34.5455157  30.5959974   6.1403275  34.1442573  30.6984677   5.4749400
  27.8701918  25.2548851  14.0832579  27.4464167  25.4553350  13.3471598
  27.6946773  24.4077699  14.1956879  27.7812799  25.1597632  13.9906270
  27.3713612  36.7699364  16.5454037  27.8609542  36.0710153  16.3629701
  26.7997844  36.4723234  17.1330094  27.3598142  36.6225587  16.6055078
  23.1584363  25.7500902   9.5160552  23.3148982  25.6847705  10.3716544
  23.4984956  26.5249455   9.3039232  23.2317598  25.8550100   9.6115146
  29.6963508  25.1258786   8.3853915  30.2379053  24.6229167   8.8492536
  30.0110067  25.0723980   7.5743400  29.8227905  25.0438207   8.3337727
  27.8649957  30.5176137   5.6693943  27.9342778  29.6590676   5.8086944
  28.6438413  30.7348018   5.3412968  27.9902808  30.4229001   5.6411101
  30.8452777  20.0195090  18.4376216  31.0594747  19.3806004  17.8839570
  30.2286676  20.4640914  18.0084077  30.7858106  19.9905234  18.2926647
  32.2557445  32.9413839   9.8830437  31.8637237  32.6380554   9.1653303
  32.4110517  33.7782929   9.6935390  32.2211035  33.0197675   9.7486934
  33.0091865  21.6284155  19.3759523  32.1968547  21.3210046  19.4572696
  33.4681800  21.1483156  19.9402235  32.9572250  21.5120648  19.4714117
  32.4197120  29.5063827   9.8236467  32.0611775  29.6778470  10.6000500
  31.9335831  29.9677033   9.2664466  32.2955817  29.6002798   9.8561736
  30.2367506  13.1295026  13.4263559  29.3661064  13.1033747  13.3796868
  30.4907847  12.9572218  12.6089404  30.1461066  13.1005170  13.2983695
  27.2616646  15.1401254  14.8837029  26.7455135  14.4481446  15.0088608
  26.7010575  15.8072031  14.8299628  27.1023160  15.1364512  14.8943095
  29.3308880  15.6794214  16.7129881  28.9440633  15.7043246  17.4943411
  28.8441817  15.1135893  16.2604398  29.2021389  15.5989965  16.7617785
  35.3058859  22.2456869  15.3369584  34.8786467  22.1583218  14.5817683
  34.6684912  22.3534645  15.9224428  35.1488467  22.2489529  15.3115025
  28.9966021  12.5661200  19.0040141  29.6259139  13.1021500  18.7261212
  29.1651884  12.4738559  19.8553707  29.1143816  12.6322562  19.0888669
  28.7979936  17.3532395  21.2766553  29.6253366  17.0817543  21.3325167
  28.8187782  18.1493236  21.6330371  28.9232786  17.4312149  21.3381736
  33.6356116  31.0887532  17.4109025  34.4248494  30.7376596  17.5311106
  33.8099714  31.9023920  17.1485659  33.7776397  31.1573389  17.3896893
  23.3749426  24.4996257  14.4636814  22.5337433  24.4000132  14.6715707
  23.5839434  25.2691738  14.8151134  23.2814119  24.5988301  14.5464129
  20.8524993  22.1215794  12.2921564  20.4581691  22.1958806  11.5171674
  20.2965110  22.5073741  12.8429926  20.7127806  22.1897569  12.2589224
  32.4889940  15.0997088  11.9725443  32.6939533  15.0319396  12.8182440
  32.1616364  15.9055910  11.9046621  32.4705188  15.2083029  12.0885098
  27.1866091  22.4277657  13.7134411  26.8829229  21.8733645  14.3144819
  26.4845512  22.6069867  13.2262445  27.0382301  22.3722439  13.7304117
  25.2484442  29.6427377  18.4206509  25.1404797  29.6529439  19.2868567
  25.4580224  30.4682158  18.2311463  25.2634553  29.7668452  18.5210601
  35.7423628  15.6528853  11.4528209  35.1297941  16.1399255  11.8381940
  35.8387803  14.9772343  11.9965860  35.6661525  15.6247161  11.5907067
  23.2658234  26.8940020  15.8828447  22.6746167  27.5349518  15.8531462
  24.0279258  27.3177637  15.8559746  23.2906495  27.0515858  15.8743594
  23.6618857  18.0542017  16.5496464  24.1220338  18.1280947  17.2871588
  23.7074964  18.8523271  16.1996285  23.7369412  18.1836164  16.6069221
  25.3102207  18.7208712  21.1168491  24.9187772  18.0742059  21.5524269
  25.4788069  19.3120148  21.7362747  25.2773117  18.7122980  21.2731197
  39.3848656  26.7245789  16.8805725  39.4431779  27.1732438  17.6265701
  38.7515123  27.1344602  16.4435805  39.2999951  26.8519524  16.9258273
  33.0247750  32.3449331  13.3160471  32.8267439  32.8340146  12.6216682
  32.4035461  32.5490573  13.8944604  32.9035315  32.4465870  13.2983694
  27.0855729  24.1134228   7.6570715  27.8297774  24.5008504   7.8953665
  27.2316425  23.2691653   7.8211203  27.2166314  24.0464701   7.7164685
  30.0733605  19.6859701  13.5564635  29.5993559  19.1601463  14.0669945
  30.4451740  19.1389174  12.9879496  30.0583493  19.5275698  13.5479782
  20.4506635  21.6831208  18.9248180  21.3132248  21.5826917  18.8385510
  20.1198418  21.1025917  18.3633752  20.5291831  21.5822835  18.8293586
  36.3370335  24.7462077  14.9671415  36.0968558  23.9068492  14.9713842
  36.8162342  24.8262244  15.6912189  36.3722519  24.6343477  15.0746217
  38.3375522  21.5263534  12.9200674  38.0985292  21.4859368  12.0821459
  38.5009423  22.3734686  13.0466395  38.3265826  21.6455619  12.8154156
  34.9421552  25.9113484  18.8505719  35.6655751  25.4586010  18.6716739
  34.6771515  26.1918149  18.0678047  35.0102826  25.8864452  18.7084435
  23.8108421  20.5073657  15.5858599  23.1861491  20.5192049  14.9784551
  23.4754016  20.9833832  16.2349839  23.6693912  20.5792174  15.5915167
  20.5234096  28.5674117  17.0262363  19.9934021  27.8766556  17.0757338
  20.7959190  28.5584303  16.1975071  20.4858819  28.4641249  16.9109779
  31.5554187  29.1499820   5.7500045  32.2788386  29.6157933   5.6064619
  31.1154778  29.2173429   4.9997642  31.5969879  29.2283656   5.6184827
  30.7240342  26.0097362  17.0000734  30.1097335  25.4655412  17.2949370
  31.2407627  25.4961598  16.5206551  30.7096004  25.8533771  16.9724963
  29.9636639  27.0801632  14.7345033  29.5364247  26.4551350  14.3010468
  29.9561583  26.7976554  15.5604040  29.8995780  26.9454412  14.7924861
  23.0799166  22.1166805  17.8033467  23.2392653  21.3610129  18.2085189
  22.8992060  22.6657744  18.4574205  23.0764525  22.0860619  17.9596173
  31.0219469  14.2828040  18.3584257  30.5260030  14.4791715  17.6675823
  31.7788531  14.6820709  18.1873058  31.0606294  14.3705774  18.2304393
  28.2922349  17.9570386  14.9487567  28.3164836  17.4230499  14.2600347
  28.5433822  17.4487695  15.6113158  28.3332267  17.8031290  14.9452212
  15.8029938  25.2401881  14.3830711  15.6973388  25.1948726  13.5182795
  15.0530158  25.5855662  14.6644996  15.6765541  25.2842789  14.2968041
  24.5723671  16.6841205  14.3293311  24.6122042  17.1850411  15.0428019
  23.7473335  16.7751598  14.0599234  24.4563197  16.7723021  14.3943850
  26.7553284  26.2501945  22.4313606  25.9048914  26.3873659  22.5671251
  26.9181411  25.5165723  22.8761308  26.6537147  26.1616046  22.5169205
  25.9938034  23.2001714  16.6267210  25.1629964  23.3675532  16.4202458
  25.9389551  22.8237665  17.4116096  25.8627449  23.1691446  16.7115738
  23.8021817  16.6910607  22.2623621  24.4274521  16.1472740  22.5353053
  23.3472297  16.2105525  21.6931411  23.8270078  16.5400089  22.2185215
  37.3756866  24.8739894  17.3536269  37.9674706  25.5137145  17.3854467
  37.8115861  24.1762931  17.6428336  37.5275297  24.8658245  17.4017102
  29.2050256  29.2957267  17.9794163  28.6975347  29.8493114  18.4234793
  28.9076902  29.3565557  17.1612937  29.0855141  29.3863578  17.9242620
  31.3712438  17.6610586  16.8218826  31.7967510  17.2083113  16.2102352
  30.7569431  17.1070657  17.0983613  31.3441084  17.5124563  16.7723851
  31.8158036  33.2120524   5.9098106  31.0987346  33.0381387   5.4445344
  32.4664774  32.9773097   5.3773592  31.8059887  33.1516317   5.7627324
  34.4006008  22.0885113   9.6539412  33.7297197  22.6314815   9.5252477
  35.0945758  22.5579968   9.4121106  34.4034875  22.2383384   9.5994939
  28.4492741  34.2281825  14.8851170  28.2258396  33.4700654  15.2535196
  27.9602585  34.2579846  14.1631610  28.3436190  34.1204050  14.8327911
  34.5634135  18.5440997  12.5629785  34.9161745  18.1170720  13.2375584
  33.7048937  18.4591840  12.6930861  34.4883580  18.4685737  12.6824795
  23.2617820  21.1748516  10.6212631  22.5429809  21.5912649  10.8885495
  23.6330182  21.7402755  10.0704269  23.2109752  21.3197798  10.5795438
  32.5617401  21.8076365  16.5114627  32.5415328  21.6259660  17.3649406
  32.6096602  22.6788384  16.4874211  32.5652042  21.9092903  16.6337922
  30.5063731  28.3963557  22.4363104  30.4659586  27.7513234  21.8508259
  31.3187049  28.3400175  22.7488516  30.6206884  28.2922524  22.3960053
  27.0971198  34.4482283  12.3388255  26.6831597  33.7856413  11.9492096
  27.7818573  34.5960142  11.8183949  27.1369570  34.3722941  12.2044752
  30.4636492  33.6072368  13.0911871  30.0652776  33.7174639  12.3232691
  29.8487712  33.8154435  13.6738431  30.3135382  33.6545936  13.0643170
  35.9958195  13.6659408  13.4914097  35.4889060  12.9588548  13.4235275
  36.7925629  13.3352597  13.6215174  36.0385434  13.5132560  13.5013092
  31.9122211  20.1726021   9.3887761  31.6835904  20.1958722   8.5466119
  32.1720287  19.3483488   9.5082772  31.9168399  20.0542101   9.2812959
  26.1941439  22.0260494  18.9912861  25.6820343  21.4181677  19.3497893
  26.0220936  22.7417086  19.4586837  26.0931076  22.0423793  19.1129085
  21.0407154  20.4698069  21.6415223  20.8709744  21.1299444  21.0963430
  20.5973104  20.6804630  22.3627712  20.9506488  20.5984051  21.6676852
  24.9666973  18.7102567  10.6841957  25.4424340  19.0719647  10.0492138
  24.4655573  19.3659035  10.9642099  24.9632332  18.8596756  10.6318698
  38.1978335  28.1824335   6.4754962  38.5811941  28.9315691   6.7053059
  37.4022448  28.4290155   6.2166951  38.1372117  28.3294029   6.4712535
  30.0710510  19.9484738  21.4315117  30.6281940  19.7198548  20.7993582
  29.7471575  20.7090404  21.1550329  30.1056920  20.0268575  21.2971614
  17.9409219  23.3744935  16.9003713  17.3935938  22.7045580  17.0184581
  18.7301597  23.0074783  16.9647180  17.9761402  23.2209921  16.9272413
  27.7893627  23.0352392  22.3967124  28.5404954  23.3504069  22.7106678
  27.9816204  22.8331563  21.5701046  27.9285041  23.0519774  22.3210520
  34.6378917  19.1625958   9.6390919  34.6373144  19.0074615  10.4975196
  34.4335097  20.0088945   9.5832305  34.6078695  19.2646579   9.7578859
  16.6996188  22.5865742  14.0549736  16.5217949  22.1342351  14.7804651
  16.4115210  23.3891904  14.2388213  16.6309141  22.6388300  14.1893239
  32.3619769  23.8423460  13.2927126  32.8573435  23.1246455  13.2531146
  31.5519545  23.5394257  13.1781613  32.3163663  23.6921106  13.2700852
  27.8078381  27.6921273   5.4424131  26.9989703  27.3687947   5.3957440
  28.3153290  26.9854495   5.3752379  27.7628048  27.5402589   5.4254425
  18.4368658  25.1193466  11.1671495  17.5714177  25.1079157  11.0554266
  18.5367474  24.9323689  12.0142634  18.3242825  25.0899527  11.2760439
  34.4271588  26.5927147  15.9804255  34.8526660  26.0701569  15.4274680
  34.0628508  27.1907985  15.4592878  34.4358191  26.6037374  15.8213265
  24.0625668  34.8891365  14.7401600  24.3772227  35.7027753  14.7479382
  24.4719081  34.5041583  15.4083760  24.1693766  34.9520067  14.8405692
  31.0150188  30.3061412  12.3105412  31.4861366  31.0201674  12.4795398
  31.3510366  29.7060162  12.8465282  31.1345303  30.3232876  12.4137788
  27.9319683  15.0788882  19.2663507  28.0647588  14.2819876  19.5944483
  28.3164835  15.6055285  19.8461783  28.0076011  15.0388799  19.4007010
  31.6524134  30.0979346  19.0733105  31.1045080  29.4737229  18.8053170
  32.1137163  30.2873618  18.3577184  31.6391343  30.0338396  18.9283536
  31.0052038  12.0019208  15.8644600  30.1998001  11.8916938  16.1812439
  30.8758773  12.1031664  15.0074466  30.8672171  12.0002878  15.7852641
  34.4617998  18.1664700  16.4584297  33.8780987  18.6673907  16.0461865
  34.7822292  17.6594256  15.8248621  34.4231174  18.1656535  16.3042805
  25.5908129  15.0748057  17.5141401  26.1352542  14.7339184  18.1045743
  25.6445065  15.9333519  17.6562686  25.6797249  15.1503317  17.6223274
  21.4038688  28.8364473  14.3880209  22.0083545  28.7960307  13.7594030
  21.1966001  29.6835625  14.4184265  21.4627585  28.9552476  14.2996325
  31.2182460  31.1030418  15.6042446  32.0380834  30.9593384  15.8658741
  30.9376538  31.7276617  16.1458884  31.2979204  31.1740770  15.7230386
  16.6389970  27.8199091  14.2579132  16.5414248  27.0095362  14.5669189
  17.4218840  27.7990884  13.8725400  16.7406107  27.6966181  14.2465995
  47.6896111  38.7595270   8.5685323  47.6590115  39.6139907   8.7403592
  48.2877459  38.4590563   9.1271466  47.7733268  38.8411767   8.6760125
  40.8895795  37.8470921  13.3238253  40.0333691  38.0079419  13.3747370
  40.9363449  36.9762985  13.3443314  40.7694907  37.7421723  13.3344319
  35.2736935  47.3833639   9.0875485  34.5219835  47.0049177   8.8591530
  35.7222947  47.4152073   8.3394295  35.2286602  47.3319246   8.9432987
  40.7261895  47.8059009   4.5161032  40.3913263  48.4835930   4.0805254
  41.2388765  47.4164320   3.9277903  40.7527476  47.8483587   4.3647823
  40.2666186  49.7573277  10.4572143  40.6505566  50.3260176   9.9176919
  40.2025328  49.0322788   9.9777959  40.3139613  49.7348741  10.3066006
  43.7347616  39.9062965  15.9669905  44.2803576  40.5848052  16.0263874
  43.6764493  39.7650426  15.1071486  43.8063531  39.9854967  15.8481965
  36.8521691  47.3952031  11.3538257  36.9532054  46.5852385  11.6635385
  36.2563437  47.3008978  10.7237936  36.7794230  47.2617059  11.3064496
  45.5112685  41.3347572   6.8403632  45.3952211  42.0855258   7.2695771
  46.3068572  41.0771525   7.0899720  45.6117275  41.4082419   6.9407724
  36.6922431  52.3129620  12.7553113  37.3359886  52.7542784  13.1449272
  37.0178686  51.5083047  12.6683372  36.8354260  52.2594815  12.7998590
  30.0486736  43.4172318  10.9790591  29.8136920  42.5839970  10.8722860
  30.1872376  43.6976983  10.1651792  30.0342398  43.3355821  10.8432946
  32.3476823  35.5858048  13.8774898  31.7281855  34.9950696  13.7084913
  32.2460687  36.1769484  13.2439222  32.2414499  35.5862131  13.7579888
  37.3943011  45.3241595   8.1272975  37.7158852  45.8646803   7.5234283
  38.0415107  44.7538367   8.2595265  37.5369066  45.3200770   8.0580010
  39.4444719  37.3257590   8.2107362  40.1424883  37.5045718   8.7028825
  39.7597051  36.8027929   7.5877751  39.5940056  37.2751362   8.1909372
  32.0745956  39.1310330  16.1218467  31.9504653  39.7172776  16.7568286
  32.7264241  38.6370526  16.4230742  32.1519605  39.1449134  16.2604397
  39.6332654  43.7128035   8.1987153  40.0726290  43.1045136   8.6441926
  39.4837317  43.3335408   7.4272618  39.6754120  43.5666506   8.1506320
  37.1004297  42.3072047  15.4005979  37.7453300  41.8144490  15.0816927
  37.3406074  42.4496834  16.2272057  37.2314882  42.2549489  15.4755512
  39.6390388  45.1526953  15.0512871  39.9213631  44.3578359  14.8299627
  40.3676549  45.6307540  15.0717932  39.7879952  45.1061550  15.0215886
  37.6171582  32.6949987  12.2928636  37.2874912  33.1461130  11.6232335
  36.9416584  32.6166150  12.8401643  37.4682019  32.7501122  12.2751859
  43.2341991  42.0655216   5.1517922  43.1493286  42.9216183   5.2967491
  43.7226374  41.7899541   5.8200081  43.2930888  42.1512538   5.2720004
  44.8247990  28.6835510  10.5378247  44.5101431  29.3738988  10.9698669
  44.3074932  28.6280292   9.8363748  44.7012460  28.7770398  10.4975196
  44.1660424  38.6840011   6.6515657  43.6371895  38.8999644   7.3112964
  44.6885444  39.3776149   6.5716627  44.1648877  38.8183148   6.7371257
  49.6208477  44.2586315  12.0248702  48.7906180  44.4696959  12.1882118
  49.5717729  43.4323370  11.7490985  49.4915212  44.1675921  12.0086067
  36.0560032  42.5803227   5.4523125  35.4717247  43.0853259   5.8588989
  35.6530127  42.3545614   4.7119717  35.9099335  42.6211476   5.4028151
  31.6104060  48.2957989  12.2546797  31.1271638  49.0208478  12.2306381
  32.4227379  48.5934119  12.3656955  31.6594808  48.4460342  12.2674076
  37.6818214  47.0890169  14.8596611  37.1645156  46.7297584  14.2557919
  38.3792606  46.5652344  14.8702678  37.7083795  46.9587857  14.7726870
  38.9052266  46.8216143  19.8030447  38.3423101  46.4088753  20.3270108
  39.6673290  46.7469049  20.2223590  38.9346715  46.7493544  19.9423447
  40.5137246  38.8268879   3.9292046  40.7533250  39.0346863   3.1167389
  40.8353087  38.0226388   4.0380991  40.5974404  38.7382981   3.8252599
  35.8227536  30.7562275   7.7751584  36.5773504  31.1240592   7.5368634
  35.6455071  31.1301830   8.5430764  35.9082015  30.8660463   7.8536472
  34.4648258  48.8114164  12.4067077  35.1668837  48.2966154  12.4639833
  34.3845741  49.1388316  13.2113952  34.5572018  48.7828391  12.5339869
  49.1162435  36.9056716  15.8199123  48.2790856  36.9758903  16.0546718
  49.0850666  36.9081211  14.9473426  48.9880717  36.9166943  15.7258671
  35.5127164  39.0489751  21.5347492  35.6847668  38.9395646  22.3832773
  36.0496522  39.6944157  21.2978684  35.6172168  39.1281753  21.6252589
  34.1784601  33.1632594   4.4729697  33.9960174  33.3804475   3.6470690
  35.0410214  33.2771607   4.5288311  34.2789190  33.2122492   4.3584184
  33.7899033  45.0020516  11.9152685  34.6287932  45.2343449  11.9626446
  33.8210802  44.1324828  11.8459720  33.9180751  44.9077463  11.9117329
  34.4151736  45.4221392  16.2165990  34.9549961  45.2792523  16.8869363
  33.7321682  45.8218142  16.5850017  34.3943890  45.4601063  16.3700412
  39.8584320  30.1659005   7.5078721  40.5870481  29.9874960   7.0616877
  39.9479213  31.0077085   7.7185899  39.9790982  30.2642883   7.4732238
  43.8392621  41.1012392  11.4111015  44.5950136  41.5343907  11.4499923
  43.9454945  40.4517162  11.9845651  43.9662791  41.0689876  11.5009040
  46.8772792  44.9285670  12.1613418  46.4408024  44.9322412  12.9172389
  46.5435707  45.6091168  11.7292995  46.7635412  45.0298125  12.2094250
  29.8188881  41.6421682  16.3700412  29.5527296  40.8260799  16.5291402
  29.8327445  41.6874838  15.4995927  29.7813603  41.5278587  16.2653894
  46.7970275  31.9699497  14.4042846  47.4396183  32.0397602  14.9904761
  47.0493296  31.3028720  13.9022388  46.9292407  31.8825846  14.4170125
  33.7246628  36.4406767   2.9852170  33.0104805  36.1544946   3.3974602
  34.2090597  36.7803393   3.6258557  33.6905991  36.4488417   3.1407805
  34.5687487  35.1800061  19.0167420  33.8759284  34.7097040  19.2628151
  35.1847815  34.9538365  19.5909127  34.5572017  35.0767193  19.1376572
  41.6072259  48.8804104  17.1323024  40.8087505  48.6403604  17.3896892
  42.0558270  48.9318497  17.8790071  41.5546870  48.8526496  17.2807948
  50.0117138  41.6466589  11.0533055  50.6733572  41.0857258  10.9528963
  49.3708550  41.1518620  11.3785746  50.0146006  41.4902998  11.0865395
  40.8993946  44.9436721   3.3613978  41.3145094  44.6121745   2.6698474
  40.0685876  44.7105623   3.2334115  40.8381955  44.8607977   3.2404826
  30.2282295  42.4280462  13.6512156  30.0457868  42.4027348  12.7984448
  30.9631964  42.8979400  13.6901065  30.3096359  42.4941824  13.5310075
  46.2981969  42.6631972  10.7945044  46.5337558  42.8077171   9.9671894
  46.4471533  43.4274380  11.1876557  46.3547772  42.7971026  10.7308648
  33.2928046  39.1465465  20.1594265  34.0168019  39.1318495  20.6459159
  33.3944183  39.8560820  19.6616233  33.4146255  39.2490168  20.1573052
  48.1272426  41.5033638   8.6314647  48.4580643  42.0361278   8.0254742
  48.7005514  41.5572525   9.2876598  48.2606105  41.5903207   8.6392429
  43.3404315  39.3498540   9.3138228  43.4351169  40.0887835   9.7677853
  42.7163158  38.9216016   9.7472792  43.2613345  39.3959861   9.4446375
  41.5956789  42.5284753  19.9628508  42.1695650  41.8911997  20.1177072
  41.5171592  42.5288835  19.0938166  41.6690023  42.4349864  19.8574919
  30.1953205  39.3073963  13.8011223  30.7726708  39.1710413  14.4403468
  29.4967267  38.8509747  14.0556807  30.1774226  39.2196229  13.9333512
  43.5927336  41.1947280   2.5475180  43.5107499  41.2649467   3.4130167
  44.2307057  41.7577024   2.3558920  43.6747173  41.2886251   2.6465129
  36.9520507  40.9608018  12.0149706  36.6939751  40.1279753  11.9881005
  37.0068990  41.1865631  11.1742206  36.9220285  40.8705789  11.8869843
  42.0321557  33.0636469  12.1153799  41.3277884  32.5745654  12.2737718
  42.0806532  33.0758943  11.2442243  41.9351609  32.9926117  12.0093138
  35.9255219  38.5145781  12.5014601  35.3504811  38.6737949  13.1378562
  35.5490896  37.8781190  12.0383051  35.7858032  38.4443594  12.5269159
  39.5928508  36.9869130  17.3606979  39.2042941  36.5623348  16.7059170
  38.9283206  37.2351280  17.8684006  39.4375436  36.9607851  17.3394847
  49.2351777  36.7444135  10.1354809  48.9788342  35.9324076   9.9452692
  50.0781091  36.7521702   9.9084996  49.3217803  36.6256132  10.0739626
  25.6712038  38.1585855  10.5159041  25.7572290  37.7817724  11.2972571
  26.2987836  37.7846301  10.0379000  25.7768589  38.0471338  10.5604519
  43.4154870  30.6843759  14.8730963  43.7965381  30.0021930  15.2598838
  42.6118154  30.3953361  14.6906628  43.3531331  30.5410807  14.9035019
  40.6967446  41.2167735   5.5583786  41.5108085  41.5082627   5.4466557
  40.6326587  40.5627597   4.9842079  40.8070185  41.1632929   5.4572623
  46.9176936  43.8993731  19.9713362  46.6815574  43.0681795  19.8525422
  47.5620165  43.8479338  20.5568206  46.9771607  43.7691419  20.0399255
  36.5675354  44.6889252  10.6856098  37.2049301  44.4500999  11.2307892
  36.9930426  44.8926411   9.9509259  36.7251521  44.6840262  10.6573255
  31.2587997  46.9277588  14.5690402  31.2992142  47.1992440  13.7410182
  31.8182521  47.4519497  14.9848190  31.3471343  47.0453344  14.5082290
  37.2078170  39.9091542   5.0230988  37.5923322  39.6899248   5.7747533
  36.9589790  40.7354487   5.1532064  37.2280242  39.9989688   5.1532064
  47.9413357  43.6838179  16.0341656  47.6359174  44.4166236  16.3954972
  47.2219573  43.2776109  15.7534442  47.7900699  43.7319912  16.0454793
  38.9496826  45.1661675  12.3649884  39.0235835  45.0036846  13.2191734
  39.7666333  45.3551864  12.1210366  39.0813185  45.1698417  12.4547910
  53.6415149  40.3231180  15.3610000  53.5739649  40.3427139  14.4912587
  53.6270812  41.1661507  15.5865671  53.6293906  40.4504915  15.2662477
  32.7102583  45.5119537   9.3944328  31.8840701  45.7581275   9.2678607
  32.7714574  45.4331618  10.2606386  32.5976750  45.5364486   9.5033272
  34.9278607  31.5788478  10.3539768  34.0601032  31.6511078  10.4197377
  35.2153811  32.3810557  10.5427743  34.8418355  31.7082625  10.3914535
  44.0511496  31.7266338  18.6851090  44.7965088  31.5376148  18.2714515
  43.6348800  32.2524576  18.1264946  44.0996470  31.7768483  18.5415663
  37.4901412  48.1296418   7.0963358  37.7799711  47.7385399   6.3722584
  38.2204893  48.3113123   7.5368633  37.6408296  48.0990231   7.0546165
  51.4273767  39.0975566  13.6356595  51.9781688  38.4643635  13.8753687
  51.4117882  39.6290959  14.3272099  51.5058963  39.0824514  13.7735453
  38.0796157  42.9314164  18.1816488  37.5807851  43.6429931  18.2601377
  38.8896382  43.2514830  18.1434651  38.1252264  43.0841012  18.1873057
  35.4307328  50.1063800  10.1623508  35.2107623  49.8161155  10.9550175
  35.2101850  49.4478755   9.6341420  35.3654922  49.9663508  10.2012416
  34.3424275  42.1937117  12.4279209  34.0537524  41.5674588  12.9624936
  35.2107623  42.1357404  12.4943890  34.4284527  42.0924661  12.5170164
  45.1302173  37.3371900  12.7461191  44.7866939  36.6162235  13.0968441
  45.2295215  37.1285751  11.9039549  45.0944216  37.1996103  12.6732871
  37.5975283  51.4793190   8.9454200  38.2499341  50.9469632   9.1745226
  36.9000892  51.1261842   9.3322074  37.5906001  51.3482713   9.0366368
  34.5456548  43.8332368   8.3521574  35.3002516  44.2145407   8.5657037
  33.9527161  44.2843511   8.8068271  34.5693262  43.9561195   8.4504453
  45.5915202  43.7997604   8.2885179  46.1573234  44.4590814   8.2043722
  44.9443105  44.1447302   8.7601581  45.5793958  43.9479545   8.3457936
  37.0063215  35.7895208  23.4778787  36.1962991  36.0952988  23.3668629
  37.4837902  36.5100790  23.5931371  36.9566694  35.9409809  23.4785858
  35.8654775  45.0040929  13.7261690  35.3435528  45.1441221  14.4113554
  36.2528795  44.2451593  13.9163807  35.8458476  44.9126453  13.8562766
  32.8545959  35.0546738   7.7956644  32.5670755  34.6848008   7.0588592
  33.5416427  35.5241593   7.5340349  32.9134856  35.0693707   7.6471720
  42.0621780  46.7436388   7.7122258  41.8208456  46.0104249   7.3049323
  42.2423113  47.2923245   7.0588592  42.0529404  46.7158779   7.5552481
  37.2921101  42.0344948   9.1243181  37.0963883  42.6419683   8.5303484
  37.5155446  41.3412892   8.6434855  37.2955742  42.0222474   8.9659261
  35.6899631  38.9199686   9.2424049  36.4122282  39.0840844   8.7827855
  35.2107623  39.6409351   9.1363389  35.7263361  39.0497915   9.1589663
  43.6493138  35.2563485  14.6220734  42.8104239  35.2824764  14.3858997
  43.7197505  35.9034220  15.2026081  43.5361532  35.3559611  14.6729851
  33.3407247  41.3257758  18.3478189  33.8528344  41.6042012  17.6986949
  33.0543590  42.0647052  18.7141002  33.3742110  41.4760112  18.3068067
  42.0962416  32.1548862   9.3548350  42.7988769  31.9556610   8.8768308
  41.8306605  31.3824804   9.6617193  42.1609049  32.0111828   9.3293791
  47.5250662  40.4631471  11.9081976  47.4384636  40.6186898  12.7616755
  47.0701142  41.1069547  11.5341381  47.4453919  40.5807227  11.9789083
  30.4274154  35.8327950   8.6441925  30.5290290  36.6354112   8.9722901
  31.2230040  35.6315286   8.3465006  30.5602059  35.9213849   8.6477281
  36.8590973  33.4184147  18.4079231  36.6674170  33.4339281  19.2578654
  37.7089569  33.6147821  18.3845885  36.9566695  33.4498498  18.5302525
  31.2437886  35.9475128  16.3863047  31.1023377  35.0959069  16.5107555
  31.5278449  35.9903789  15.5625253  31.2645732  35.8274878  16.2830671
  41.3976478  37.7842219  10.5307535  41.1511192  37.7037969  11.3644324
  41.7261601  36.9995686  10.3370063  41.4097722  37.6568484  10.6255058
  45.2924527  44.4925578  14.3194316  45.1538886  45.1906624  14.8243059
  44.5124525  44.3374234  13.9630498  45.1567754  44.5725745  14.3420591
  43.6302612  40.7921953  20.5716698  43.6250650  39.9201770  20.5759125
  44.3363606  40.9910122  20.0986154  43.7347616  40.6925827  20.5023734
  37.3573505  40.5198937  19.9430518  37.5016881  41.1000145  19.3073628
  37.7049154  40.8975234  20.6480373  37.4300967  40.6619641  19.9529513
  39.5293423  39.7189106  17.7255650  38.7816737  39.9120120  17.3203928
  39.6834948  38.8934325  17.4879771  39.4415850  39.6254217  17.6301056
  36.4301260  48.7101709  16.8091545  36.5790824  48.1504625  16.1564950
  37.2101262  48.7893711  17.1924064  36.5675354  48.6387274  16.7688494
  46.7877900  43.8503832   5.0810816  46.4084708  43.0640970   5.0740105
  46.1244145  44.3990689   4.9382460  46.6336374  43.8148656   5.0591613
  38.9554561  48.8816352  18.0876036  38.8798232  48.2125162  18.6426824
  38.8844420  49.5834140  18.6016702  38.9335168  48.8861259  18.2452884
  39.7695200  33.6139656  18.6151054  40.2267814  34.3463631  18.7423846
  39.8451528  33.1906122  19.3738309  39.8486170  33.6596894  18.7452130
  32.0128191  33.8605476  19.7040497  31.4770380  33.2485834  20.0201265
  32.0745956  34.4353612  20.3574164  31.9423824  33.8552404  19.8475924
  44.2422526  26.7929531  12.4844897  44.3606094  27.2505995  11.7512199
  44.0684701  25.9874793  12.1981114  44.2341697  26.7423304  12.3345830
  39.6124808  47.4017351   8.9199642  40.3774699  47.1326994   8.5982306
  39.5102898  46.9167361   9.6369705  39.7106303  47.2906915   8.9779470
  37.6477578  35.6041760  15.4592878  36.8573652  35.4233220  15.7810213
  38.0438200  34.8268713  15.4423172  37.5894454  35.4629221  15.5045426
  42.1343468  44.4329535   0.8999591  42.9016453  44.4929659   0.4905443
  41.6874777  43.8609976   0.4155910  42.1816896  44.3566110   0.7677302
  43.0321264  43.2384190  13.1852324  42.3566266  43.0069423  13.6865711
  43.0413640  42.6305373  12.5594429  42.9339768  43.1143116  13.1668476
  40.1615408  38.0802019  19.9416377  40.0974549  38.9411976  19.8136513
  40.3012596  37.7634013  19.1411928  40.1730878  38.1602186  19.8044589
  45.0337998  46.0949323   5.4162502  45.1157836  46.9016309   5.0923952
  45.5187741  46.1145282   6.1403275  45.1175156  46.2169985   5.4749400
  38.8434502  40.7734159  14.0832579  38.4196751  40.9738658  13.3471598
  38.6679357  39.9263007  14.1956879  38.7545382  40.6782940  13.9906270
  34.1316947  41.2686210   9.5160552  34.2881566  41.2033013  10.3716544
  34.4717540  42.0434763   9.3039232  34.2050182  41.3735408   9.6115146
  40.6696091  40.6444094   8.3853915  41.2111637  40.1414475   8.8492536
  40.9842650  40.5909288   7.5743400  40.7960488  40.5623515   8.3337727
  38.8382541  46.0361445   5.6693943  38.9075361  45.1775984   5.8086944
  39.6170996  46.2533326   5.3412968  38.9635391  45.9414309   5.6411101
  41.8185361  35.5380398  18.4376216  42.0327330  34.8991312  17.8839570
  41.2019260  35.9826222  18.0084077  41.7590690  35.5090542  18.2926647
  43.2290029  48.4599146   9.8830437  42.8369820  48.1565862   9.1653303
  43.3843101  49.2968236   9.6935390  43.1943618  48.5382983   9.7486934
  30.7051208  38.4521161   9.8321319  31.0850173  38.8705705   9.1681587
  30.1306573  39.0334616  10.1390163  30.6762533  38.5999019   9.7798060
  43.9824449  37.1469463  19.3759523  43.1701130  36.8395354  19.4572696
  44.4414383  36.6668463  19.9402235  43.9304833  37.0305956  19.4714117
  43.3929703  45.0249135   9.8236467  43.0344358  45.1963778  10.6000500
  42.9068414  45.4862341   9.2664466  43.2688400  45.1188106   9.8561736
  41.2100089  28.6480334  13.4263559  40.3393647  28.6219055  13.3796868
  41.4640431  28.4757526  12.6089404  41.1193649  28.6190478  13.2983695
  38.1818069  40.7048301   2.3636702  38.4710594  41.4813183   2.6380276
  38.2689868  40.1937032   3.0651201  38.2372325  40.7440219   2.5079199
  38.2349230  30.6586562  14.8837029  37.7187718  29.9666754  15.0088608
  37.6743159  31.3257339  14.8299628  38.0755743  30.6549820  14.8943095
  40.3041463  31.1979522  16.7129881  39.9173216  31.2228554  17.4943411
  39.8174401  30.6321201  16.2604398  40.1753972  31.1175273  16.7617785
  46.2791443  37.7642177  15.3369584  45.8519051  37.6768526  14.5817683
  45.6417496  37.8719953  15.9224428  46.1221050  37.7674837  15.3115025
  39.9698605  28.0846508  19.0040141  40.5991723  28.6206808  18.7261212
  40.1384468  27.9923867  19.8553707  40.0876400  28.1507870  19.0888669
  39.7712520  32.8717703  21.2766553  40.5985949  32.6002851  21.3325167
  39.7920366  33.6678544  21.6330371  39.8965370  32.9497457  21.3381736
  44.6088699  46.6072840  17.4109025  45.3981078  46.2561904  17.5311106
  44.7832297  47.4209228  17.1485659  44.7508981  46.6758697  17.3896893
  34.3482010  40.0181565  14.4636814  33.5070016  39.9185439  14.6715707
  34.5572018  40.7877046  14.8151134  34.2546702  40.1173609  14.5464129
  31.8257577  37.6401102  12.2921564  31.4314274  37.7144114  11.5171674
  31.2697694  38.0259049  12.8429926  31.6860389  37.7082877  12.2589224
  43.4622524  30.6182396  11.9725443  43.6672117  30.5504704  12.8182440
  43.1348948  31.4241217  11.9046621  43.4437771  30.7268337  12.0885098
  38.1598675  37.9462965  13.7134411  37.8561812  37.3918953  14.3144819
  37.4578095  38.1255174  13.2262445  38.0114884  37.8907747  13.7304117
  37.2164772  35.2563484   8.2779113  37.4924506  34.5382397   7.8656681
  37.8163441  35.8548404   8.0700219  37.3458036  35.2383855   8.1859874
  36.2217026  45.1612685  18.4206509  36.1137381  45.1714747  19.2868567
  36.4312807  45.9867466  18.2311463  36.2367137  45.2853760  18.5210601
  46.7156211  31.1714161  11.4528209  46.1030525  31.6584563  11.8381940
  46.8120386  30.4957651  11.9965860  46.6394109  31.1432469  11.5907067
  40.7175292  32.9277002   6.5525708  41.1719039  33.0987562   7.2773553
  41.1915338  32.3145112   6.1523484  40.8543612  32.8627887   6.5999470
  34.2390818  42.4125328  15.8828447  33.6478751  43.0534826  15.8531462
  35.0011841  42.8362945  15.8559746  34.2639078  42.5701166  15.8743594
  34.6351440  33.5727325  16.5496464  35.0952922  33.6466255  17.2871588
  34.6807547  34.3708579  16.1996285  34.7101996  33.7021472  16.6069221
  36.2834790  34.2394020  21.1168491  35.8920355  33.5927367  21.5524269
  36.4520653  34.8305456  21.7362747  36.2505701  34.2308288  21.2731197
  50.3581239  42.2431097  16.8805725  50.4164363  42.6917746  17.6265701
  49.7247707  42.6529910  16.4435805  50.2732534  42.3704832  16.9258273
  43.9980334  47.8634639  13.3160471  43.8000023  48.3525454  12.6216682
  43.3768045  48.0675881  13.8944604  43.8767898  47.9651177  13.2983694
  38.0588312  39.6319536   7.6570715  38.8030357  40.0193812   7.8953665
  38.2049008  38.7876961   7.8211203  38.1898897  39.5650009   7.7164685
  39.9767888  31.4269795  12.6902577  39.1303933  31.5992603  12.5643926
  39.9739020  30.6219139  13.0268405  39.8515038  31.3330824  12.7213704
  41.0466188  35.2045009  13.5564635  40.5726142  34.6786771  14.0669945
  41.4184324  34.6574482  12.9879496  41.0316077  35.0461006  13.5479782
  31.4239218  37.2016516  18.9248180  32.2864831  37.1012225  18.8385510
  31.0931001  36.6211225  18.3633752  31.5024415  37.1008143  18.8293586
  47.3102919  40.2647385  14.9671415  47.0701142  39.4253800  14.9713842
  47.7894926  40.3447552  15.6912189  47.3455102  40.1528785  15.0746217
  42.9749688  36.0981564   6.6190388  42.4472706  36.1810308   5.9296097
  43.4345396  36.8399435   6.6155033  42.9651538  36.2202226   6.5165084
  49.3108106  37.0448842  12.9200674  49.0717876  37.0044676  12.0821459
  49.4742007  37.8919994  13.0466395  49.2998409  37.1640927  12.8154156
  45.9154136  41.4298791  18.8505719  46.6388335  40.9771318  18.6716739
  45.6504098  41.7103457  18.0678047  45.9835409  41.4049760  18.7084435
  34.7841004  36.0258965  15.5858599  34.1594074  36.0377357  14.9784551
  34.4486599  36.5019140  16.2349839  34.6426496  36.0977482  15.5915167
  34.9682753  34.3684084   1.6431284  34.6195557  35.0203809   2.1062833
  34.4879199  34.3541197   0.9155155  34.8452997  34.4627137   1.6042375
  31.4966680  44.0859425  17.0262363  30.9666604  43.3951864  17.0757338
  31.7691773  44.0769610  16.1975071  31.4591402  43.9826557  16.9109779
  41.6972925  41.5282670  17.0000734  41.0829918  40.9840720  17.2949370
  42.2140210  41.0146906  16.5206551  41.6828588  41.3719079  16.9724963
  40.9369222  42.5986940  14.7345033  40.5096831  41.9736658  14.3010468
  40.9294167  42.3161862  15.5604040  40.8728364  42.4639720  14.7924861
  34.0531750  37.6352113  17.8033467  34.2125236  36.8795437  18.2085189
  33.8724643  38.1843052  18.4574205  34.0497109  37.6045927  17.9596173
  41.9952053  29.8013348  18.3584257  41.4992614  29.9977023  17.6675823
  42.7521115  30.2006017  18.1873058  42.0338877  29.8891082  18.2304393
  39.2654932  33.4755694  14.9487567  39.2897419  32.9415807  14.2600347
  39.5166406  32.9673003  15.6113158  39.3064851  33.3216598  14.9452212
  26.7762522  40.7587189  14.3830711  26.6705971  40.7134034  13.5182795
  26.0262742  41.1040970  14.6644996  26.6498125  40.8028097  14.2968041
  35.5456254  32.2026513  14.3293311  35.5854626  32.7035719  15.0428019
  34.7205919  32.2936906  14.0599234  35.4295780  32.2908329  14.3943850
  37.7285867  41.7687253  22.4313606  36.8781498  41.9058967  22.5671251
  37.8913995  41.0351031  22.8761308  37.6269731  41.6801354  22.5169205
  36.9670618  38.7187022  16.6267210  36.1362547  38.8860840  16.4202458
  36.9122135  38.3422973  17.4116096  36.8360033  38.6876754  16.7115738
  35.3406662  36.9942614   7.1557328  35.4809623  37.4915078   7.8585969
  35.8389194  36.2928908   7.2971542  35.4347743  36.9644593   7.2808907
  35.3706884  37.8609725   4.4849905  36.0051963  38.4570150   4.4199367
  35.4532495  37.5613183   5.2995775  35.4763435  37.9050633   4.5952991
  48.3489450  40.3925202  17.3536269  48.9407290  41.0322453  17.3854467
  48.7848444  39.6948239  17.6428336  48.5007881  40.3843553  17.4017102
  36.9485867  33.7923700   4.4595347  37.2701708  33.3126783   3.8054609
  37.2112811  34.6023346   4.2686159  37.0351892  33.8413598   4.3350839
  40.1782840  44.8142575  17.9794163  39.6707931  45.3678422  18.4234793
  39.8809486  44.8750865  17.1612937  40.0587725  44.9048886  17.9242620
  42.3445022  33.1795894  16.8218826  42.7700093  32.7268421  16.2102352
  41.7302015  32.6255965  17.0983613  42.3173667  33.0309871  16.7723851
  31.8759872  40.0577566   7.7539451  32.3852101  40.6542073   8.1350756
  32.3494144  39.7903539   7.0715871  32.0203248  40.1063381   7.7093974
  42.7890620  48.7305832   5.9098106  42.0719930  48.5566695   5.4445344
  43.4397358  48.4958405   5.3773592  42.7792470  48.6701625   5.7627324
  40.7839245  29.6510994  10.2309403  40.1407563  29.5008640  10.7994541
  40.4438652  29.4053339   9.4658508  40.6384322  29.5923117  10.2012418
  45.3738591  37.6070421   9.6539412  44.7029781  38.1500123   9.5252477
  46.0678341  38.0765276   9.4121106  45.3767459  37.7568692   9.5994939
  39.4225325  49.7467133  14.8851170  39.1990979  48.9885962  15.2535196
  38.9335168  49.7765154  14.1631610  39.3168774  49.6389357  14.8327911
  45.5366719  34.0626305  12.5629785  45.8894329  33.6356027  13.2375584
  44.6781520  33.9777148  12.6930861  45.4616163  33.9871045  12.6824795
  34.2350404  36.6933824  10.6212631  33.5162393  37.1097957  10.8885495
  34.6062766  37.2588063  10.0704269  34.1842335  36.8383106  10.5795438
  43.5349984  37.3261673  16.5114627  43.5147912  37.1444968  17.3649406
  43.5829185  38.1973692  16.4874211  43.5384625  37.4278211  16.6337922
  41.4796314  43.9148865  22.4363104  41.4392169  43.2698542  21.8508259
  42.2919633  43.8585483  22.7488516  41.5939468  43.8107832  22.3960053
  38.0703782  49.9667591  12.3388255  37.6564180  49.3041721  11.9492096
  38.7551156  50.1145450  11.8183949  38.1102154  49.8908249  12.2044752
  41.4369076  49.1257676  13.0911871  41.0385359  49.2359947  12.3232691
  40.8220296  49.3339743  13.6738431  41.2867965  49.1731244  13.0643170
  40.0096978  35.7331824   5.9586011  39.4161817  36.0548821   5.4070578
  40.0472256  34.8872920   5.7507117  39.9271367  35.6556152   5.8468782
  46.9690779  29.1844716  13.4914097  46.4621643  28.4773856  13.4235275
  47.7658212  28.8537905  13.6215174  47.0118018  29.0317868  13.5013092
  42.8854795  35.6911329   9.3887761  42.6568488  35.7144030   8.5466119
  43.1452871  34.8668796   9.5082772  42.8900983  35.5727409   9.2812959
  37.1674023  37.5445802  18.9912861  36.6552926  36.9366985  19.3497893
  36.9953519  38.2602394  19.4586837  37.0663660  37.5609101  19.1129085
  35.9399557  34.2287875  10.6841957  36.4156923  34.5904955  10.0492138
  35.4388157  34.8844343  10.9642099  35.9364916  34.3782064  10.6318698
  49.1710919  43.7009643   6.4754962  49.5544524  44.4500999   6.7053059
  48.3755032  43.9475463   6.2166951  49.1104701  43.8479337   6.4712535
  41.0443093  35.4670046  21.4315117  41.6014524  35.2383856  20.7993582
  40.7204158  36.2275712  21.1550329  41.0789504  35.5453883  21.2971614
  28.9141802  38.8930243  16.9003713  28.3668522  38.2230888  17.0184581
  29.7034180  38.5260090  16.9647180  28.9493986  38.7395229  16.9272413
  38.7626211  38.5537700  22.3967124  39.5137538  38.8689376  22.7106678
  38.9548787  38.3516871  21.5701046  38.9017625  38.5705081  22.3210520
  37.9826210  36.3729075   4.0515341  38.3625175  36.3908704   3.2666455
  37.2418806  36.8183064   3.9306188  37.9295048  36.4410849   3.9178909
  45.6111501  34.6811266   9.6390919  45.6105727  34.5259923  10.4975196
  45.4067681  35.5274253   9.5832305  45.5811279  34.7831887   9.7578859
  27.6728772  38.1051050  14.0549736  27.4950533  37.6527659  14.7804651
  27.3847794  38.9077212  14.2388213  27.6041725  38.1573608  14.1893239
  43.3352353  39.3608768  13.2927126  43.8306018  38.6431763  13.2531146
  42.5252129  39.0579565  13.1781613  43.2896246  39.2106414  13.2700852
  38.7810964  43.2106581   5.4424131  37.9722287  42.8873255   5.3957440
  39.2885873  42.5039803   5.3752379  38.7360631  43.0587897   5.4254425
  29.4101242  40.6378774  11.1671495  28.5446761  40.6264465  11.0554266
  29.5100057  40.4508997  12.0142634  29.2975409  40.6084835  11.2760439
  45.4004172  42.1112455  15.9804255  45.8259243  41.5886877  15.4274680
  45.0361092  42.7093293  15.4592878  45.4090774  42.1222682  15.8213265
  35.0358251  50.4076673  14.7401600  35.3504810  51.2213061  14.7479382
  35.4451665  50.0226891  15.4083760  35.1426349  50.4705375  14.8405692
  41.9882771  45.8246720  12.3105412  42.4593949  46.5386982  12.4795398
  42.3242950  45.2245470  12.8465282  42.1077886  45.8418184  12.4137788
  38.9052266  30.5974190  19.2663507  39.0380172  29.8005184  19.5944483
  39.2897419  31.1240593  19.8461783  38.9808595  30.5574107  19.4007010
  42.6256717  45.6164654  19.0733105  42.0777663  44.9922537  18.8053170
  43.0869746  45.8058926  18.3577184  42.6123927  45.5523704  18.9283536
  41.9784621  27.5204516  15.8644600  41.1730585  27.4102246  16.1812439
  41.8491357  27.6216972  15.0074466  41.8404754  27.5188186  15.7852641
  45.4350582  33.6850008  16.4584297  44.8513571  34.1859215  16.0461865
  45.7554876  33.1779564  15.8248621  45.3963757  33.6841843  16.3042805
  37.9745381  32.5990603   6.7342972  38.7961075  32.7688916   6.4924667
  37.5115032  32.7537864   6.0109270  38.0276543  32.6472336   6.5914616
  36.5640713  30.5933365  17.5141401  37.1085126  30.2524492  18.1045743
  36.6177649  31.4518827  17.6562686  36.6529832  30.6688625  17.6223274
  32.3771272  44.3549781  14.3880209  32.9816129  44.3145615  13.7594030
  32.1698584  45.2020933  14.4184265  32.4360169  44.4737784  14.2996325
  42.1915044  46.6215726  15.6042446  43.0113418  46.4778692  15.8658741
  41.9109121  47.2461925  16.1458884  42.2711787  46.6926078  15.7230386
  27.6122554  43.3384399  14.2579132  27.5146832  42.5280670  14.5669189
  28.3951424  43.3176192  13.8725400  27.7138690  43.2151489  14.2465995
  58.6628694  54.2780578   8.5685323  58.6322698  55.1325215   8.7403592
  59.2610043  53.9775871   9.1271466  58.7465852  54.3597075   8.6760125
  51.8628379  53.3656229  13.3238253  51.0066274  53.5264727  13.3747370
  51.9096033  52.4948293  13.3443314  51.7427490  53.2607031  13.3344319
  46.2469519  62.9018947   9.0875485  45.4952418  62.5234485   8.8591530
  46.6955530  62.9337381   8.3394295  46.2019185  62.8504554   8.9432987
  55.1722095  59.6342755  22.9298709  55.8788863  59.1394785  23.0585644
  55.3610031  60.0751836  22.2001367  55.3050001  59.6261105  22.8407755
  54.7080200  55.4248273  15.9669905  55.2536160  56.1033360  16.0263874
  54.6497076  55.2835734  15.1071486  54.7796114  55.5040275  15.8481965
  47.8254275  62.9137339  11.3538257  47.9264638  62.1037693  11.6635385
  47.2296020  62.8194286  10.7237936  47.7526814  62.7802367  11.3064496
  47.6655014  67.8314928  12.7553113  48.3092470  68.2728092  13.1449272
  47.9911270  67.0268354  12.6683372  47.8086843  67.7780123  12.7998590
  41.0219319  58.9357626  10.9790591  40.7869504  58.1025278  10.8722860
  41.1604960  59.2162291  10.1651792  41.0074982  58.8541129  10.8432946
  43.3209407  51.1043356  13.8774898  42.7014438  50.5136004  13.7084913
  43.2193270  51.6954791  13.2439222  43.2147082  51.1047439  13.7579888
  50.4177302  52.8442898   8.2107362  51.1157467  53.0231026   8.7028825
  50.7329635  52.3213237   7.5877751  50.5672639  52.7936670   8.1909372
  43.0478540  54.6495638  16.1218467  42.9237236  55.2358083  16.7568286
  43.6996824  54.1555834  16.4230742  43.1252189  54.6634442  16.2604397
  50.6065238  59.2313343   8.1987153  51.0458873  58.6230444   8.6441926
  50.4569900  58.8520716   7.4272618  50.6486703  59.0851814   8.1506320
  48.0736881  57.8257355  15.4005979  48.7185883  57.3329798  15.0816927
  48.3138658  57.9682142  16.2272057  48.2047466  57.7734797  15.4755512
  50.6122972  60.6712261  15.0512871  50.8946215  59.8763667  14.8299627
  51.3409132  61.1492848  15.0717932  50.7612536  60.6246858  15.0215886
  48.5904166  48.2135295  12.2928636  48.2607496  48.6646438  11.6232335
  47.9149168  48.1351458  12.8401643  48.4414602  48.2686430  12.2751859
  55.7980574  44.2020818  10.5378247  55.4834015  44.8924296  10.9698669
  55.2807515  44.1465600   9.8363748  55.6745044  44.2955706  10.4975196
  60.5941060  59.7771623  12.0248702  59.7638763  59.9882267  12.1882118
  60.5450313  58.9508678  11.7490985  60.4647796  59.6861229  12.0086067
  42.5836644  63.8143296  12.2546797  42.1004222  64.5393786  12.2306381
  43.3959962  64.1119426  12.3656955  42.6327392  63.9645650  12.2674076
  48.6550798  62.6075477  14.8596611  48.1377740  62.2482892  14.2557919
  49.3525189  62.0837652  14.8702678  48.6816379  62.4773165  14.7726870
  52.3114390  63.0570291  20.8212784  52.3997736  62.8696432  21.6690995
  52.7404102  62.4107721  20.4217631  52.3876492  62.9333299  20.8884536
  49.8784850  62.3401451  19.8030447  49.3155684  61.9274061  20.3270108
  50.6405873  62.2654357  20.2223590  49.9079298  62.2678852  19.9423447
  46.7960120  46.2747583   7.7751584  47.5506088  46.6425900   7.5368634
  46.6187654  46.6487138   8.5430764  46.8814598  46.3845771   7.8536472
  45.4380841  64.3299472  12.4067077  46.1401420  63.8151461  12.4639833
  45.3578324  64.6573624  13.2113952  45.5304602  64.3013699  12.5339869
  60.0895019  52.4242024  15.8199123  59.2523440  52.4944211  16.0546718
  60.0583250  52.4266518  14.9473426  59.9613301  52.4352251  15.7258671
  45.1517185  48.6817902   4.4729697  44.9692758  48.8989783   3.6470690
  46.0142798  48.7956915   4.5288311  45.2521774  48.7307800   4.3584184
  44.7631617  60.5205824  11.9152685  45.6020516  60.7528757  11.9626446
  44.7943386  59.6510136  11.8459720  44.8913334  60.4262771  11.9117329
  45.3884320  60.9406700  16.2165990  45.9282544  60.7977831  16.8869363
  44.7054266  61.3403450  16.5850017  45.3676473  60.9786370  16.3700412
  50.8316904  45.6844313   7.5078721  51.5603064  45.5060268   7.0616877
  50.9211797  46.5262393   7.7185899  50.9523566  45.7828191   7.4732238
  54.8125204  56.6197700  11.4111015  55.5682719  57.0529215  11.4499923
  54.9187529  55.9702470  11.9845651  54.9395375  56.5875184  11.5009040
  57.8505376  60.4470977  12.1613418  57.4140607  60.4507720  12.9172389
  57.5168291  61.1276476  11.7292995  57.7367995  60.5483433  12.2094250
  40.7921465  57.1606990  16.3700412  40.5259880  56.3446107  16.5291402
  40.8060029  57.2060146  15.4995927  40.7546187  57.0463895  16.2653894
  57.7702858  47.4884805  14.4042846  58.4128767  47.5582910  14.9904761
  58.0225879  46.8214028  13.9022388  57.9024991  47.4011154  14.4170125
  44.6979212  51.9592075   2.9852170  43.9837389  51.6730254   3.3974602
  45.1823180  52.2988701   3.6258557  44.6638575  51.9673724   3.1407805
  52.5804842  64.3989412  17.1323024  51.7820088  64.1588912  17.3896892
  53.0290854  64.4503805  17.8790071  52.5279454  64.3711803  17.2807948
  60.9849722  57.1651897  11.0533055  61.6466156  56.6042566  10.9528963
  60.3441134  56.6703928  11.3785746  60.9878589  57.0088306  11.0865395
  41.2014878  57.9465770  13.6512156  41.0190451  57.9212656  12.7984448
  41.9364547  58.4164708  13.6901065  41.2828942  58.0127132  13.5310075
  57.2714552  58.1817280  10.7945044  57.5070142  58.3262479   9.9671894
  57.4204116  58.9459688  11.1876557  57.3280356  58.3156334  10.7308648
  54.3136898  54.8683848   9.3138228  54.4083753  55.6073142   9.7677853
  53.6895742  54.4401324   9.7472792  54.2345928  54.9145169   9.4446375
  52.5689372  58.0470061  19.9628508  53.1428234  57.4097305  20.1177072
  52.4904176  58.0474143  19.0938166  52.6422607  57.9535172  19.8574919
  41.1685789  54.8259270  13.8011223  41.7459291  54.6895721  14.4403468
  40.4699850  54.3695055  14.0556807  41.1506810  54.7381537  13.9333512
  47.9253091  56.4793326  12.0149706  47.6672335  55.6465061  11.9881005
  47.9801574  56.7050939  11.1742206  47.8952869  56.3891097  11.8869843
  53.0054141  48.5821777  12.1153799  52.3010468  48.0930962  12.2737718
  53.0539115  48.5944251  11.2442243  52.9084192  48.5111425  12.0093138
  46.8987803  54.0331089  12.5014601  46.3237394  54.1923257  13.1378562
  46.5223479  53.3966498  12.0383051  46.7590615  53.9628901  12.5269159
  50.5661092  52.5054438  17.3606979  50.1775524  52.0808656  16.7059170
  49.9015790  52.7536587  17.8684006  50.4108019  52.4793159  17.3394847
  60.2084361  52.2629443  10.1354809  59.9520926  51.4509384   9.9452692
  61.0513675  52.2707010   9.9084996  60.2950386  52.1441440  10.0739626
  36.6444622  53.6771163  10.5159041  36.7304874  53.3003032  11.2972571
  37.2720419  53.3031609  10.0379000  36.7501173  53.5656645  10.5604519
  54.3887453  46.2029067  14.8730963  54.7697965  45.5207238  15.2598838
  53.5850737  45.9138669  14.6906628  54.3263915  46.0596115  14.9035019
  57.8909520  59.4179039  19.9713362  57.6548157  58.5867103  19.8525422
  58.5352749  59.3664646  20.5568206  57.9504191  59.2876727  20.0399255
  47.5407938  60.2074560  10.6856098  48.1781885  59.9686307  11.2307892
  47.9663010  60.4111719   9.9509259  47.6984104  60.2025570  10.6573255
  42.2320580  62.4462896  14.5690402  42.2724726  62.7177747  13.7410182
  42.7915105  62.9704804  14.9848190  42.3203926  62.5638651  14.5082290
  48.1810753  55.4276850   5.0230988  48.5655906  55.2084556   5.7747533
  47.9322373  56.2539795   5.1532064  48.2012826  55.5174996   5.1532064
  58.9145941  59.2023487  16.0341656  58.6091758  59.9351544  16.3954972
  58.1952156  58.7961417  15.7534442  58.7633283  59.2505220  16.0454793
  49.9229410  60.6846983  12.3649884  49.9968418  60.5222154  13.2191734
  50.7398916  60.8737172  12.1210366  50.0545769  60.6883725  12.4547910
  64.6147733  55.8416488  15.3610000  64.5472233  55.8612447  14.4912587
  64.6003395  56.6846815  15.5865671  64.6026489  55.9690223  15.2662477
  43.6835167  61.0304845   9.3944328  42.8573284  61.2766583   9.2678607
  43.7447158  60.9516926  10.2606386  43.5709334  61.0549794   9.5033272
  45.9011190  47.0973786  10.3539768  45.0333616  47.1696386  10.4197377
  46.1886395  47.8995865  10.5427743  45.8150939  47.2267933  10.3914535
  55.0244079  47.2451646  18.6851090  55.7697671  47.0561456  18.2714515
  54.6081384  47.7709884  18.1264946  55.0729053  47.2953791  18.5415663
  62.4006350  54.6160874  13.6356595  62.9514272  53.9828943  13.8753687
  62.3850465  55.1476267  14.3272099  62.4791546  54.6009822  13.7735453
  49.0528741  58.4499471  18.1816488  48.5540435  59.1615239  18.2601377
  49.8628965  58.7700138  18.1434651  49.0984848  58.6026320  18.1873057
  46.4039911  65.6249108  10.1623508  46.1840207  65.3346463  10.9550175
  46.1834433  64.9664063   9.6341420  46.3387506  65.4848816  10.2012416
  45.3156859  57.7122424  12.4279209  45.0270107  57.0859896  12.9624936
  46.1840207  57.6542712  12.4943890  45.4017110  57.6109969  12.5170164
  56.1034756  52.8557208  12.7461191  55.7599522  52.1347543  13.0968441
  56.2027799  52.6471059  11.9039549  56.0676799  52.7181411  12.6732871
  45.5189132  59.3517676   8.3521574  46.2735100  59.7330715   8.5657037
  44.9259745  59.8028819   8.8068271  45.5425845  59.4746503   8.4504453
  46.8387359  60.5226237  13.7261690  46.3168112  60.6626529  14.4113554
  47.2261379  59.7636901  13.9163807  46.8191059  60.4311761  13.8562766
  43.8278543  50.5732046   7.7956644  43.5403338  50.2033316   7.0588592
  44.5149011  51.0426901   7.5340349  43.8867440  50.5879015   7.6471720
  48.2653684  57.5530256   9.1243181  48.0696467  58.1604990   8.5303484
  48.4888030  56.8598200   8.6434855  48.2688325  57.5407781   8.9659261
  46.6632214  54.4384994   9.2424049  47.3854866  54.6026152   8.7827855
  46.1840207  55.1594659   9.1363389  46.6995945  54.5683223   9.1589663
  54.6225722  50.7748793  14.6220734  53.7836822  50.8010072  14.3858997
  54.6930089  51.4219528  15.2026081  54.5094115  50.8744918  14.6729851
  53.0695000  47.6734170   9.3548350  53.7721353  47.4741918   8.8768308
  52.8039189  46.9010112   9.6617193  53.1341632  47.5297136   9.3293791
  58.4983246  55.9816779  11.9081976  58.4117220  56.1372205  12.7616755
  58.0433725  56.6254855  11.5341381  58.4186502  56.0992534  11.9789083
  41.4006737  51.3513258   8.6441925  41.5022874  52.1539420   8.9722901
  42.1962624  51.1500594   8.3465006  41.5334643  51.4399157   8.6477281
  42.2170469  51.4660436  16.3863047  42.0755961  50.6144377  16.5107555
  42.5011033  51.5089097  15.5625253  42.2378315  51.3460186  16.2830671
  52.3709062  53.3027527  10.5307535  52.1243776  53.2223277  11.3644324
  52.6994185  52.5180994  10.3370063  52.3830305  53.1753792  10.6255058
  56.2657110  60.0110886  14.3194316  56.1271470  60.7091932  14.8243059
  55.4857108  59.8559542  13.9630498  56.1300337  60.0911052  14.3420591
  54.6035196  56.3107261  20.5716698  54.5983234  55.4387078  20.5759125
  55.3096189  56.5095430  20.0986154  54.7080200  56.2111135  20.5023734
  50.5026006  55.2374413  17.7255650  49.7549320  55.4305428  17.3203928
  50.6567531  54.4119633  17.4879771  50.4148434  55.1439525  17.6301056
  47.4033844  64.2287017  16.8091545  47.5523408  63.6689933  16.1564950
  48.1833846  64.3079019  17.1924064  47.5407937  64.1572582  16.7688494
  49.9287145  64.4001660  18.0876036  49.8530816  63.7310470  18.6426824
  49.8577004  65.1019448  18.6016702  49.9067751  64.4046567  18.2452884
  50.7427783  49.1324964  18.6151054  51.2000397  49.8648939  18.7423846
  50.8184112  48.7091429  19.3738309  50.8218753  49.1782202  18.7452130
  55.2155109  42.3114839  12.4844897  55.3338677  42.7691303  11.7512199
  55.0417285  41.5060101  12.1981114  55.2074280  42.2608612  12.3345830
  48.6210161  51.1227068  15.4592878  47.8306236  50.9418528  15.7810213
  49.0170784  50.3454021  15.4423172  48.5627037  50.9814529  15.5045426
  54.0053847  58.7569498  13.1852324  53.3298849  58.5254731  13.6865711
  54.0146224  58.1490681  12.5594429  53.9072352  58.6328423  13.1668476
  51.1347991  53.5987327  19.9416377  51.0707133  54.4597284  19.8136513
  51.2745179  53.2819320  19.1411928  51.1463462  53.6787494  19.8044589
  49.8167085  56.2919467  14.0832579  49.3929334  56.4923966  13.3471598
  49.6411941  55.4448315  14.1956879  49.7277966  56.1968248  13.9906270
  49.3178779  67.8069980  16.5454037  49.8074709  67.1080769  16.3629701
  48.7463011  67.5093850  17.1330094  49.3063309  67.6596203  16.6055078
  45.1049530  56.7871518   9.5160552  45.2614149  56.7218321  10.3716544
  45.4450123  57.5620071   9.3039232  45.1782765  56.8920716   9.6115146
  51.6428675  56.1629402   8.3853915  52.1844220  55.6599783   8.8492536
  51.9575234  56.1094596   7.5743400  51.7693072  56.0808823   8.3337727
  55.5145782  60.3732049  25.4980827  56.3280648  60.1017198  25.6585960
  55.3540749  60.0739589  24.6941023  55.6115731  60.2886975  25.4026233
  52.7917944  51.0565706  18.4376216  53.0059914  50.4176620  17.8839570
  52.1751843  51.5011530  18.0084077  52.7323274  51.0275850  18.2926647
  41.6783792  53.9706468   9.8321319  42.0582757  54.3891013   9.1681587
  41.1039157  54.5519924  10.1390163  41.6495117  54.1184327   9.7798060
  54.9557032  52.6654771  19.3759523  54.1433714  52.3580662  19.4572696
  55.4146967  52.1853771  19.9402235  54.9037417  52.5491264  19.4714117
  52.1832673  44.1665642  13.4263559  51.3126231  44.1404363  13.3796868
  52.4373014  43.9942834  12.6089404  52.0926233  44.1375785  13.2983695
  49.2081813  46.1771870  14.8837029  48.6920302  45.4852062  15.0088608
  48.6475742  46.8442647  14.8299628  49.0488327  46.1735128  14.8943095
  51.2774047  46.7164830  16.7129881  50.8905800  46.7413862  17.4943411
  50.7906984  46.1506509  16.2604398  51.1486556  46.6360581  16.7617785
  55.5267026  61.4338339  20.7703668  56.1646747  60.9398535  20.4366124
  54.8841118  61.3615740  20.1855895  55.5261253  61.3497348  20.6346023
  57.2524026  53.2827485  15.3369584  56.8251634  53.1953834  14.5817683
  56.6150079  53.3905261  15.9224428  57.0953634  53.2860145  15.3115025
  50.9431189  43.6031816  19.0040141  51.5724307  44.1392116  18.7261212
  51.1117051  43.5109175  19.8553707  51.0608983  43.6693178  19.0888669
  55.5821283  62.1258148  17.4109025  56.3713661  61.7747212  17.5311106
  55.7564881  62.9394536  17.1485659  55.7241565  62.1944005  17.3896893
  45.3214593  55.5366873  14.4636814  44.4802600  55.4370747  14.6715707
  45.5304601  56.3062354  14.8151134  45.2279286  55.6358917  14.5464129
  42.7990160  53.1586410  12.2921564  42.4046858  53.2329422  11.5171674
  42.2430277  53.5444357  12.8429926  42.6592973  53.2268185  12.2589224
  54.4355107  46.1367704  11.9725443  54.6404700  46.0690012  12.8182440
  54.1081531  46.9426525  11.9046621  54.4170355  46.2453645  12.0885098
  49.1331258  53.4648272  13.7134411  48.8294396  52.9104261  14.3144819
  48.4310679  53.6440482  13.2262445  48.9847468  53.4093055  13.7304117
  48.1897355  50.7748792   8.2779113  48.4657090  50.0567705   7.8656681
  48.7896025  51.3733712   8.0700219  48.3190620  50.7569163   8.1859874
  47.1949609  60.6797993  18.4206509  47.0869964  60.6900055  19.2868567
  47.4045391  61.5052774  18.2311463  47.2099720  60.8039068  18.5210601
  57.6888795  46.6899468  11.4528209  57.0763108  47.1769871  11.8381940
  57.7852970  46.0142959  11.9965860  57.6126692  46.6617777  11.5907067
  51.6907876  48.4462310   6.5525708  52.1451622  48.6172870   7.2773553
  52.1647922  47.8330420   6.1523484  51.8276196  48.3813195   6.5999470
  45.2123401  57.9310636  15.8828447  44.6211334  58.5720134  15.8531462
  45.9744425  58.3548253  15.8559746  45.2371662  58.0886474  15.8743594
  45.6084024  49.0912633  16.5496464  46.0685506  49.1651563  17.2871588
  45.6540131  49.8893887  16.1996285  45.6834579  49.2206780  16.6069221
  61.3313823  57.7616405  16.8805725  61.3896946  58.2103054  17.6265701
  60.6980290  58.1715218  16.4435805  61.2465118  57.8890140  16.9258273
  54.9712917  63.3819947  13.3160471  54.7732606  63.8710762  12.6216682
  54.3500629  63.5861189  13.8944604  54.8500482  63.4836485  13.2983694
  49.0320896  55.1504844   7.6570715  49.7762941  55.5379120   7.8953665
  49.1781592  54.3062269   7.8211203  49.1631481  55.0835317   7.7164685
  50.9500471  46.9455103  12.6902577  50.1036516  47.1177911  12.5643926
  50.9471604  46.1404447  13.0268405  50.8247621  46.8516132  12.7213704
  52.0198772  50.7230317  13.5564635  51.5458726  50.1972079  14.0669945
  52.3916907  50.1759790  12.9879496  52.0048661  50.5646314  13.5479782
  58.2835502  55.7832693  14.9671415  58.0433725  54.9439108  14.9713842
  58.7627509  55.8632860  15.6912189  58.3187686  55.6714093  15.0746217
  53.9482271  51.6166872   6.6190388  53.4205290  51.6995616   5.9296097
  54.4077979  52.3584743   6.6155033  53.9384122  51.7387534   6.5165084
  60.2840689  52.5634150  12.9200674  60.0450459  52.5229984  12.0821459
  60.4474591  53.4105302  13.0466395  60.2730993  52.6826235  12.8154156
  56.8886719  56.9484099  18.8505719  57.6120918  56.4956626  18.6716739
  56.6236682  57.2288765  18.0678047  56.9567993  56.9235068  18.7084435
  45.7573588  51.5444273  15.5858599  45.1326658  51.5562665  14.9784551
  45.4219183  52.0204448  16.2349839  45.6159080  51.6162790  15.5915167
  45.9415336  49.8869391   1.6431284  45.5928141  50.5389117   2.1062833
  45.4611782  49.8726504   0.9155155  45.8185580  49.9812445   1.6042375
  42.4699263  59.6044733  17.0262363  41.9399188  58.9137172  17.0757338
  42.7424357  59.5954918  16.1975071  42.4323986  59.5011865  16.9109779
  52.6705509  57.0467978  17.0000734  52.0562502  56.5026028  17.2949370
  53.1872794  56.5332214  16.5206551  52.6561171  56.8904387  16.9724963
  51.9101806  58.1172248  14.7345033  51.4829414  57.4921966  14.3010468
  51.9026750  57.8347170  15.5604040  51.8460947  57.9825028  14.7924861
  45.0264333  53.1537421  17.8033467  45.1857820  52.3980745  18.2085189
  44.8457227  53.7028360  18.4574205  45.0229692  53.1231235  17.9596173
  52.9684636  45.3198656  18.3584257  52.4725197  45.5162331  17.6675823
  53.7253698  45.7191325  18.1873058  53.0071461  45.4076390  18.2304393
  50.2387516  48.9941002  14.9487567  50.2630003  48.4601115  14.2600347
  50.4898989  48.4858311  15.6113158  50.2797434  48.8401906  14.9452212
  37.7495106  56.2772497  14.3830711  37.6438555  56.2319342  13.5182795
  36.9995326  56.6226278  14.6644996  37.6230708  56.3213405  14.2968041
  46.5188838  47.7211820  14.3293311  46.5587210  48.2221027  15.0428019
  45.6938503  47.8122214  14.0599234  46.4028364  47.8093637  14.3943850
  47.9403201  54.2372330  16.6267210  47.1095131  54.4046148  16.4202458
  47.8854719  53.8608281  17.4116096  47.8092616  54.2062062  16.7115738
  46.3139245  52.5127922   7.1557328  46.4542206  53.0100386   7.8585969
  46.8121778  51.8114216   7.2971542  46.4080326  52.4829901   7.2808907
  46.3439468  53.3795033   4.4849905  46.9784547  53.9755458   4.4199367
  46.4265078  53.0798490   5.2995775  46.4496019  53.4235941   4.5952991
  59.3222033  55.9110510  17.3536269  59.9139874  56.5507761  17.3854467
  59.7581028  55.2133547  17.6428336  59.4740465  55.9028861  17.4017102
  47.9218450  49.3109008   4.4595347  48.2434292  48.8312091   3.8054609
  48.1845394  50.1208654   4.2686159  48.0084476  49.3598906   4.3350839
  51.1515423  60.3327883  17.9794163  50.6440514  60.8863729  18.4234793
  50.8542069  60.3936173  17.1612937  51.0320308  60.4234194  17.9242620
  53.3177605  48.6981202  16.8218826  53.7432677  48.2453729  16.2102352
  52.7034599  48.1441273  17.0983613  53.2906251  48.5495178  16.7723851
  42.8492455  55.5762874   7.7539451  43.3584685  56.1727381   8.1350756
  43.3226728  55.3088847   7.0715871  42.9935831  55.6248689   7.7093974
  51.7571828  45.1696302  10.2309403  51.1140146  45.0193948  10.7994541
  51.4171235  44.9238647   9.4658508  51.6116906  45.1108425  10.2012418
  56.3471175  53.1255729   9.6539412  55.6762365  53.6685431   9.5252477
  57.0410925  53.5950584   9.4121106  56.3500042  53.2754000   9.5994939
  50.3957908  65.2652441  14.8851170  50.1723563  64.5071270  15.2535196
  49.9067752  65.2950462  14.1631610  50.2901357  65.1574665  14.8327911
  56.5099302  49.5811612  12.5629785  56.8626912  49.1541335  13.2375584
  55.6514104  49.4962456  12.6930861  56.4348747  49.5056353  12.6824795
  45.2082987  52.2119132  10.6212631  44.4894976  52.6283265  10.8885495
  45.5795349  52.7773371  10.0704269  45.1574919  52.3568414  10.5795438
  54.5082568  52.8446981  16.5114627  54.4880495  52.6630276  17.3649406
  54.5561769  53.7159000  16.4874211  54.5117209  52.9463519  16.6337922
  52.4528898  59.4334173  22.4363104  52.4124753  58.7883850  21.8508259
  53.2652216  59.3770790  22.7488516  52.5672051  59.3293140  22.3960053
  49.0436365  65.4852899  12.3388255  48.6296764  64.8227029  11.9492096
  49.7283740  65.6330758  11.8183949  49.0834737  65.4093557  12.2044752
  52.4101660  64.6442984  13.0911871  52.0117943  64.7545255  12.3232691
  51.7952879  64.8525051  13.6738431  52.2600549  64.6916552  13.0643170
  50.9829562  51.2517132   5.9586011  50.3894401  51.5734129   5.4070578
  51.0204839  50.4058227   5.7507117  50.9003951  51.1741460   5.8468782
  57.9423362  44.7030024  13.4914097  57.4354227  43.9959164  13.4235275
  58.7390796  44.3723213  13.6215174  57.9850602  44.5503176  13.5013092
  53.8587378  51.2096637   9.3887761  53.6301071  51.2329338   8.5466119
  54.1185454  50.3854104   9.5082772  53.8633566  51.0912717   9.2812959
  46.9132141  49.7473183  10.6841957  47.3889507  50.1090263  10.0492138
  46.4120740  50.4029650  10.9642099  46.9097500  49.8967372  10.6318698
  52.0175677  50.9855354  21.4315117  52.5747107  50.7569164  20.7993582
  51.6936742  51.7461020  21.1550329  52.0522087  51.0639191  21.2971614
  48.9558794  51.8914383   4.0515341  49.3357759  51.9094012   3.2666455
  48.2151390  52.3368372   3.9306188  48.9027632  51.9596157   3.9178909
  56.5844084  50.1996574   9.6390919  56.5838311  50.0445230  10.4975196
  56.3800264  51.0459561   9.5832305  56.5543862  50.3017195   9.7578859
  38.6461355  53.6236358  14.0549736  38.4683116  53.1712967  14.7804651
  38.3580377  54.4262520  14.2388213  38.5774308  53.6758916  14.1893239
  54.3084936  54.8794076  13.2927126  54.8038602  54.1617071  13.2531146
  53.4984712  54.5764873  13.1781613  54.2628830  54.7291722  13.2700852
  40.3833825  56.1564082  11.1671495  39.5179345  56.1449773  11.0554266
  40.4832641  55.9694305  12.0142634  40.2707992  56.1270143  11.2760439
  56.3736755  57.6297763  15.9804255  56.7991827  57.1072185  15.4274680
  56.0093675  58.2278601  15.4592878  56.3823358  57.6407990  15.8213265
  46.0090835  65.9261981  14.7401600  46.3237394  66.7398369  14.7479382
  46.4184248  65.5412199  15.4083760  46.1158933  65.9890683  14.8405692
  52.9615355  61.3432027  12.3105412  53.4326533  62.0572290  12.4795398
  53.2975533  60.7430778  12.8465282  53.0810470  61.3603492  12.4137788
  55.0492339  62.9533341  24.4897485  55.1589305  62.1641901  24.8454232
  55.3783236  62.8639277  23.6871823  55.1144745  62.8239194  24.4239875
  53.5989301  61.1349962  19.0733105  53.0510247  60.5107845  18.8053170
  54.0602330  61.3244234  18.3577184  53.5856510  61.0709012  18.9283536
  52.9517205  43.0389824  15.8644600  52.1463169  42.9287554  16.1812439
  52.8223940  43.1402280  15.0074466  52.8137338  43.0373494  15.7852641
  56.4083165  49.2035316  16.4584297  55.8246154  49.7044523  16.0461865
  56.7287459  48.6964872  15.8248621  56.3696341  49.2027151  16.3042805
  48.9477965  48.1175911   6.7342972  49.7693659  48.2874224   6.4924667
  48.4847615  48.2723172   6.0109270  49.0009127  48.1657644   6.5914616
  47.5373296  46.1118673  17.5141401  48.0817709  45.7709800  18.1045743
  47.5910232  46.9704135  17.6562686  47.6262416  46.1873932  17.6223274
  43.3503855  59.8735089  14.3880209  43.9548713  59.8330923  13.7594030
  43.1431168  60.7206241  14.4184265  43.4092752  59.9923092  14.2996325
  53.1647627  62.1401034  15.6042446  53.9846001  61.9964000  15.8658741
  52.8841705  62.7647233  16.1458884  53.2444371  62.2111386  15.7230386
  38.5855137  58.8569707  14.2579132  38.4879415  58.0465978  14.5669189
  39.3684007  58.8361500  13.8725400  38.6871274  58.7336797  14.2465995
  54.0211123  70.1680946  16.1218467  53.8969820  70.7543391  16.7568286
  54.6729408  69.6741142  16.4230742  54.0984773  70.1819750  16.2604397
  57.4592331  70.0860367  21.5347492  57.6312835  69.9766262  22.3832773
  57.9961689  70.7314773  21.2978684  57.5637335  70.1652369  21.6252589
  56.5152655  66.2170677  19.0167420  55.8224451  65.7467656  19.2628151
  57.1312982  65.9908981  19.5909127  56.5037184  66.1137808  19.1376572
  55.2393213  70.1836081  20.1594265  55.9633186  70.1689111  20.6459159
  55.3409350  70.8931436  19.6616233  55.3611423  70.2860784  20.1573052
  62.6138163  73.6635165  25.0243212  61.8211144  73.9778677  25.2095831
  62.7287090  73.8786634  24.1863996  62.5133573  73.7419002  24.9281547
  61.5393675  68.0239746  17.3606979  61.1508108  67.5993964  16.7059170
  60.8748373  68.2721895  17.8684006  61.3840603  67.9978467  17.3394847
  59.3211877  64.2268573  24.7393572  59.0065318  64.9968136  24.4763134
  59.0001810  63.6638829  24.1545799  59.2270796  64.2578841  24.6134922
  65.9976663  62.7636954  18.6851090  66.7430255  62.5746764  18.2714515
  65.5813967  63.2895192  18.1264946  66.0461637  62.8139099  18.5415663
  58.9528382  66.8265824  23.4778787  58.1428158  67.1323604  23.3668629
  59.4303069  67.5471406  23.5931371  58.9031861  66.9780425  23.4785858
  55.2872414  72.3628374  18.3478189  55.7993511  72.6412627  17.6986949
  55.0008757  73.1017668  18.7141002  55.3207278  72.5130728  18.3068067
  58.8056140  64.4554763  18.4079231  58.6139337  64.4709897  19.2578654
  59.6554736  64.6518437  18.3845885  58.9031862  64.4869114  18.5302525
  53.1903053  66.9845744  16.3863047  53.0488545  66.1329685  16.5107555
  53.4743616  67.0274405  15.5625253  53.2110899  66.8645494  16.2830671
  59.3038672  71.5569553  19.9430518  59.4482048  72.1370761  19.3073628
  59.6514321  71.9345850  20.6480373  59.3766134  71.6990257  19.9529513
  61.7160367  64.6510272  18.6151054  62.1732981  65.3834246  18.7423846
  61.7916696  64.2276737  19.3738309  61.7951337  64.6967510  18.7452130
  53.9593358  64.8976092  19.7040497  53.4235548  64.2856450  20.0201265
  54.0211123  65.4724228  20.3574164  53.8888991  64.8923020  19.8475924
  59.5942745  66.6412376  15.4592878  58.8038820  66.4603836  15.7810213
  59.9903368  65.8639329  15.4423172  59.5359621  66.4999837  15.5045426
  62.1080575  69.1172635  19.9416377  62.0439716  69.9782592  19.8136513
  62.2477763  68.8004628  19.1411928  62.1196045  69.1972802  19.8044589
  63.7650528  66.5751014  18.4376216  63.9792497  65.9361928  17.8839570
  63.1484427  67.0196838  18.0084077  63.7055857  66.5461158  18.2926647
  65.9289616  68.1840079  19.3759523  65.1166298  67.8765970  19.4572696
  66.3879550  67.7039079  19.9402235  65.8770001  68.0676572  19.4714117
  63.0243123  69.5900151  24.1588225  63.4942755  70.2142267  24.5456099
  63.0705004  68.9217126  24.7181440  63.1010999  69.5834831  24.2988297
  60.1814397  61.6957178  14.8837029  59.6652886  61.0037370  15.0088608
  59.6208326  62.3627955  14.8299628  60.0220910  61.6920436  14.8943095
  62.2506630  62.2350138  16.7129881  61.8638384  62.2599170  17.4943411
  61.7639568  61.6691817  16.2604398  62.1219139  62.1545889  16.7617785
  61.9163772  59.1217124  19.0040141  62.5456890  59.6577424  18.7261212
  62.0849635  59.0294483  19.8553707  62.0341567  59.1878486  19.0888669
  61.7177687  63.9088318  21.2766553  62.5451116  63.6373467  21.3325167
  61.7385533  64.7049160  21.6330371  61.8430537  63.9868073  21.3381736
  56.5816608  64.6097941  16.5496464  57.0418089  64.6836871  17.2871588
  56.6272714  65.4079195  16.1996285  56.6567163  64.7392088  16.6069221
  58.2299957  65.2764636  21.1168491  57.8385522  64.6297983  21.5524269
  58.3985820  65.8676071  21.7362747  58.1970868  65.2678904  21.2731197
  53.3704385  68.2387132  18.9248180  54.2329998  68.1382841  18.8385510
  53.0396168  67.6581841  18.3633752  53.4489582  68.1378759  18.8293586
  56.7306171  67.0629581  15.5858599  56.1059242  67.0747973  14.9784551
  56.3951766  67.5389756  16.2349839  56.5891663  67.1348098  15.5915167
  55.9996917  68.6722729  17.8033467  56.1590403  67.9166053  18.2085189
  55.8189810  69.2213668  18.4574205  55.9962276  68.6416542  17.9596173
  63.9417220  60.8383964  18.3584257  63.4457781  61.0347638  17.6675823
  64.6986282  61.2376633  18.1873058  63.9804044  60.9261698  18.2304393
  57.4921422  63.2397128  14.3293311  57.5319793  63.7406335  15.0428019
  56.6671086  63.3307522  14.0599234  57.3760947  63.3278945  14.3943850
  59.6751034  72.8057868  22.4313606  58.8246665  72.9429583  22.5671251
  59.8379162  72.0721647  22.8761308  59.5734898  72.7171970  22.5169205
  56.7219568  63.2466531  22.2623621  57.3472272  62.7028664  22.5353053
  56.2670048  62.7661449  21.6931411  56.7467829  63.0956012  22.2185215
  64.2910189  64.2166510  16.8218826  64.7165261  63.7639037  16.2102352
  63.6767182  63.6626581  17.0983613  64.2638834  64.0680486  16.7723851
  63.4261481  74.9519481  22.4363104  63.3857336  74.3069158  21.8508259
  64.2384800  74.8956098  22.7488516  63.5404635  74.8478448  22.3960053
  59.1139190  68.5816418  18.9912861  58.6018093  67.9737601  19.3497893
  58.9418686  69.2973010  19.4586837  59.0128827  68.5979717  19.1129085
  53.9604905  67.0253993  21.6415223  53.7907495  67.6855368  21.0963430
  53.5170855  67.2360554  22.3627712  53.8704238  67.1539975  21.6676852
  62.9908261  66.5040662  21.4315117  63.5479691  66.2754472  20.7993582
  62.6669326  67.2646328  21.1550329  63.0254671  66.5824499  21.2971614
  50.8606969  69.9300858  16.9003713  50.3133689  69.2601504  17.0184581
  51.6499348  69.5630706  16.9647180  50.8959153  69.7765845  16.9272413
  60.7091378  69.5908316  22.3967124  61.4602705  69.9059992  22.7106678
  60.9013954  69.3887486  21.5701046  60.8482792  69.6075697  22.3210520
  49.6193939  69.1421666  14.0549736  49.4415700  68.6898275  14.7804651
  49.3312961  69.9447828  14.2388213  49.5506892  69.1944224  14.1893239
  60.8517433  61.6344806  19.2663507  60.9845339  60.8375799  19.5944483
  61.2362586  62.1611209  19.8461783  60.9273762  61.5944723  19.4007010
  63.9249788  58.5575132  15.8644600  63.1195752  58.4472862  16.1812439
  63.7956524  58.6587588  15.0074466  63.7869921  58.5558802  15.7852641
  58.5105880  61.6303981  17.5141401  59.0550293  61.2895108  18.1045743
  58.5642816  62.4889443  17.6562686  58.5994999  61.7059240  17.6223274
  43.8940336  21.0535578   9.8638756  44.6007103  20.5587609   9.9925690
  44.0828271  21.4944659   9.1341414  44.0268241  21.0453928   9.7747801
  36.3873255  29.2507752  -0.3106840  37.0310710  29.6920916   0.0789318
  36.7129510  28.4461178  -0.3976581  36.5305083  29.1972946  -0.2661363
  41.0332630  24.4763114   7.7552831  41.1215976  24.2889255   8.6031042
  41.4622343  23.8300544   7.3557678  41.1094733  24.3526122   7.8224583
  38.6003090  23.7594274   6.7370493  38.0373925  23.3466884   7.2610155
  39.3624113  23.6847180   7.1563637  38.6297539  23.6871675   6.8763494
  35.2077988  15.9867883   8.4687539  35.3798492  15.8773777   9.3172820
  35.7447346  16.6322288   8.2318731  35.3122992  16.0659884   8.5592635
  41.1452689  23.9072133  10.4196615  41.9293106  24.0202981  10.7852357
  40.9449284  23.0813271  10.6155301  41.2318715  23.8018853  10.5031001
  41.3023083  25.8182236   4.0663070  40.5038329  25.5781736   4.3236939
  41.7509094  25.8696628   4.8130118  41.2497694  25.7904627   4.2147995
  40.3623820  19.5642680  11.9583259  39.5696800  19.8786192  12.1435878
  40.4772747  19.7794149  11.1204043  40.2619230  19.6426517  11.8621593
  41.2907613  19.4662884   6.8968555  41.8646474  18.8290128   7.0517119
  41.2122416  19.4666967   6.0278213  41.3640847  19.3727996   6.7914966
  46.6127760  20.8371862   6.9053409  46.3766398  20.0059927   6.7865469
  47.2570989  20.7857469   7.4908253  46.6722431  20.7069550   6.9739302
  37.0697534  10.1276088  11.6733619  36.7550975  10.8975651  11.4103181
  36.7487466   9.5646344  11.0885846  36.9756453  10.1586357  11.5474969
  47.6364181  20.6216311   2.9681703  47.3309998  21.3544367   3.3295019
  46.9170397  20.2154240   2.6874489  47.4851523  20.6698044   2.9794840
  53.3365973  17.2609311   2.2950047  53.2690473  17.2805270   1.4252634
  53.3221636  18.1039638   2.5205718  53.3244730  17.3883046   2.2002524
  37.7746981  19.8692295   5.1156535  37.2758675  20.5808062   5.1941424
  38.5847206  20.1892961   5.0774698  37.8203088  20.0219143   5.1213104
  36.7014039  12.7273339  10.4118833  35.8913815  13.0331119  10.3008676
  37.1788726  13.4478921  10.5271417  36.6517518  12.8787940  10.4125904
  44.9875351  21.4303709   1.2534363  44.8489710  22.1284755   1.7583106
  44.2075349  21.2752366   0.8970545  44.8518578  21.5103876   1.2760637
  43.3253436  17.7300084   7.5056745  43.3201474  16.8579901   7.5099171
  44.0314430  17.9288254   7.0326201  43.4298440  17.6303959   7.4363780
  37.0524329  17.4577068   6.8770565  37.1967705  18.0378276   6.2413675
  37.3999978  17.8353365   7.5820420  37.1251791  17.5997772   6.8869560
  36.1252084  25.6479840   3.7431592  36.2741648  25.0882756   3.0904996
  36.9052086  25.7271842   4.1264111  36.2626178  25.5765406   3.7028541
  38.6505385  25.8194483   5.0216083  38.5749056  25.1503294   5.5766871
  38.5795244  26.5212271   5.5356749  38.6285992  25.8239390   5.1792931
  39.8566232  15.0180150   6.8756423  39.7925373  15.8790107   6.7476560
  39.9963420  14.7012144   6.0751975  39.8681702  15.0980317   6.7384636
  38.0397019  29.2262803   3.4794084  38.5292949  28.5273592   3.2969748
  37.4681251  28.9286673   4.0670141  38.0281549  29.0789026   3.5395124
  44.2364023  21.7924872  12.4320874  45.0498888  21.5210021  12.5926007
  44.0758989  21.4932412  11.6281070  44.3333971  21.7079798  12.3366280
  43.6775273  14.0847595   6.3099570  42.8651954  13.7773485   6.3912742
  44.1365207  13.6046595   6.8742282  43.6255657  13.9684087   6.4054164
  40.7728780  15.4907666  11.0928272  41.2428411  16.1149782  11.4796146
  40.8190660  14.8224641  11.6521487  40.8496656  15.4842346  11.2328343
  44.2485267  22.8531162   7.7043715  44.8864987  22.3591358   7.3706171
  43.6059358  22.7808563   7.1195942  44.2479493  22.7690171   7.5686070
  44.3039523  23.5450971   4.3449072  45.0931901  23.1940035   4.4651153
  44.4783121  24.3587359   4.0825705  44.4459805  23.6136828   4.3236940
  35.9167850  22.0990816   5.3546556  35.8088205  22.1092878   6.2208614
  36.1263631  22.9245597   5.1651510  35.9317961  22.2231891   5.4550647
  50.0532063  19.1809228   3.8145772  50.1115187  19.6295877   4.5605748
  49.4198531  19.5908041   3.3775852  49.9683358  19.3082963   3.8598320
  43.6931158  24.8012770   0.2500518  43.4950846  25.2903585  -0.4443271
  43.0718869  25.0054012   0.8284651  43.5718722  24.9029309   0.2323741
  45.6104960  18.3676923   5.7845766  46.3339159  17.9149449   5.6056786
  45.3454922  18.6481588   5.0018094  45.6786233  18.3427891   5.6424481
  41.3923749  18.4660801   3.9340781  40.7780742  17.9218851   4.2289416
  41.9091034  17.9525037   3.4546597  41.3779412  18.3097210   3.9065010
  37.4236691  18.7065384   9.3653653  36.5732322  18.8437098   9.5011298
  37.5864819  17.9729162   9.8101354  37.3220555  18.6179485   9.4509252
  48.0440274  17.3303333   4.2876316  48.6358114  17.9700584   4.3194514
  48.4799268  16.6326370   4.5768383  48.1958705  17.3221684   4.3357148
  39.8733664  21.7520706   4.9134210  39.3658755  22.3056553   5.3574840
  39.5760310  21.8128996   4.0952984  39.7538549  21.8427017   4.8582666
  39.1176149  26.6845264   1.8191217  38.8941803  25.9264093   2.1875243
  38.6285992  26.7143285   1.0971656  39.0119598  26.5767489   1.7667958
  41.1747138  20.8526996   9.3703150  41.1342993  20.2076673   8.7848306
  41.9870456  20.7963614   9.6828562  41.2890292  20.7485963   9.3300100
  41.1319900  26.0635807   0.0251918  40.7336183  26.1738078  -0.7427262
  40.5171119  26.2717874   0.6078478  40.9818789  26.1109376  -0.0016783
  40.7393917  12.4048178   8.3655164  41.2965347  12.1761987   7.7333629
  40.4154982  13.1653843   8.0890376  40.7740327  12.4832014   8.2311661
  38.4577035  15.4915831   9.3307171  39.2088362  15.8067508   9.6446725
  38.6499611  15.2895002   8.5041092  38.5968449  15.5083213   9.2550566
  45.0954996  19.0490586   2.9144302  45.5210067  18.5265008   2.3614727
  44.7311915  19.6471424   2.3932925  45.1041598  19.0600813   2.7553312
  34.7309075  27.3454804   1.6741647  35.0455634  28.1591192   1.6819429
  35.1402489  26.9605023   2.3423806  34.8377173  27.4083506   1.7745739
  43.7710580  24.3726164  11.4237531  43.8807545  23.5834725  11.7794279
  44.1001476  24.2832100  10.6211869  43.8362985  24.2432017  11.3579922
  42.3207541  22.5542785   6.0073152  41.7728487  21.9300668   5.7393217
  42.7820570  22.7437057   5.2917231  42.3074751  22.4901835   5.8623583
  41.8865868  23.5593858   2.5382493  42.7064241  23.4156824   2.7998788
  41.6059945  24.1840056   3.0798931  41.9662611  23.6304210   2.6570432
  51.5579203  30.3034360   0.2578300  50.7017098  30.4642859   0.3087417
  51.6046857  29.4326424   0.2783361  51.4378314  30.1985162   0.2684366
  45.9420343  39.8397078  -3.9784469  45.1903242  39.4612616  -4.2068424
  46.3906354  39.8715512  -4.7265658  45.8970009  39.7882685  -4.1226966
  54.8672919  36.5720886   9.8638756  55.5739687  36.0772917   9.9925690
  55.0560855  37.0129967   9.1341414  55.0000825  36.5639236   9.7747801
  54.4031024  32.3626404   2.9009951  54.9486984  33.0411491   2.9603921
  54.3447900  32.2213865   2.0411533  54.4746938  32.4418406   2.7822012
  47.5205099  39.8515470  -1.7121696  47.6215462  39.0415824  -1.4024568
  46.9246844  39.7572417  -2.3422018  47.4477637  39.7180498  -1.7595458
  47.3605838  44.7693059  -0.3106840  48.0043294  45.2106223   0.0789318
  47.6862094  43.9646486  -0.3976581  47.5037667  44.7158254  -0.2661363
  40.7170143  35.8735757  -2.0869362  40.4820328  35.0403409  -2.1937094
  40.8555784  36.1540423  -2.9008161  40.7025806  35.7919260  -2.2227007
  43.0160231  28.0421487   0.8114945  42.3965262  27.4514135   0.6424960
  42.9144094  28.6332923   0.1779268  42.9097906  28.0425570   0.6919935
  50.1128126  29.7821029  -4.8552592  50.8108291  29.9609157  -4.3631128
  50.4280459  29.2591369  -5.4782202  50.2623463  29.7314801  -4.8750581
  42.7429364  31.5873769   3.0558514  42.6188060  32.1736215   3.6908333
  43.3947648  31.0933965   3.3570789  42.8203013  31.6012574   3.1944444
  50.3016062  36.1691474  -4.8672800  50.7409697  35.5608575  -4.4218027
  50.1520724  35.7898848  -5.6387335  50.3437527  36.0229945  -4.9153633
  47.7687705  34.7635486   2.3346025  48.4136707  34.2707929   2.0156974
  48.0089482  34.9060273   3.1612104  47.8998290  34.7112928   2.4095559
  50.3073796  37.6090392   1.9852918  50.5897039  36.8141798   1.7639674
  51.0359956  38.0870979   2.0057979  50.4563360  37.5624989   1.9555933
  48.2854990  25.1513426  -0.7731317  47.9558320  25.6024569  -1.4427618
  47.6099992  25.0729589  -0.2258311  48.1365426  25.2064561  -0.7908094
  60.2891884  36.7149754  -1.0411251  59.4589587  36.9260398  -0.8777835
  60.2401137  35.8886809  -1.3168968  60.1598620  36.6239360  -1.0573886
  42.2787468  40.7521428  -0.8113156  41.7955046  41.4771917  -0.8353573
  43.0910786  41.0497558  -0.7002999  42.3278215  40.9023781  -0.7985877
  48.3501622  39.5453608   1.7936658  47.8328563  39.1861023   1.1897966
  49.0476013  39.0215783   1.8042724  48.3767203  39.4151296   1.7066917
  52.0065214  39.9948422   7.7552831  52.0948560  39.8074563   8.6031042
  52.4354926  39.3485852   7.3557678  52.0827316  39.8711430   7.8224583
  49.5735674  39.2779582   6.7370493  49.0106508  38.8652192   7.2610155
  50.3356697  39.2032488   7.1563637  49.6030122  39.2056983   6.8763494
  45.1331665  41.2677604  -0.6592876  45.8352244  40.7529593  -0.6020120
  45.0529148  41.5951755   0.1453999  45.2255425  41.2391830  -0.5320084
  59.7845843  29.3620155   2.7539170  58.9474264  29.4322342   2.9886765
  59.7534073  29.3644650   1.8813472  59.6564125  29.3730382   2.6598718
  46.1810572  31.5053190   8.4687539  46.3531075  31.3959085   9.3172820
  46.7179929  32.1507596   8.2318731  46.2855576  31.5845192   8.5592635
  44.4582440  37.4583956  -1.1507268  45.2971340  37.6906888  -1.1033507
  44.4894210  36.5888267  -1.2200233  44.5864158  37.3640902  -1.1542624
  45.0835143  37.8784831   3.1506037  45.6233368  37.7355962   3.8209409
  44.4005090  38.2781582   3.5190063  45.0627297  37.9164502   3.3040459
  54.5076028  33.5575831  -1.6548939  55.2633543  33.9907346  -1.6160030
  54.6138353  32.9080601  -1.0814302  54.6346199  33.5253315  -1.5650913
  57.5456199  37.3849109  -0.9046536  57.1091431  37.3885851  -0.1487564
  57.2119115  38.0654608  -1.3366958  57.4318819  37.4861564  -0.8565703
  52.1185273  39.4257441  10.4196615  52.9025690  39.5388289  10.7852357
  51.9181868  38.5998579  10.6155301  52.2051298  39.3204161  10.5031001
  40.4872289  34.0985122   3.3040459  40.2210704  33.2824238   3.4631449
  40.5010853  34.1438277   2.4335974  40.4497011  33.9842026   3.1993941
  57.4653682  24.4262936   1.3382892  58.1079591  24.4961041   1.9244808
  57.7176703  23.7592159   0.8362434  57.5975814  24.3389285   1.3510172
  45.2370895  27.6363500   5.9507466  44.5442692  27.1660480   6.1968198
  45.8531222  27.4101804   6.5249174  45.2255425  27.5330632   6.0716619
  52.2755666  41.3367543   4.0663070  51.4770912  41.0967044   4.3236939
  52.7241678  41.3881936   4.8130118  52.2230278  41.3089935   4.2147995
  60.6800546  34.1030028  -2.0126898  61.3416980  33.5420697  -2.1130990
  60.0391958  33.6082059  -1.6874207  60.6829413  33.9466438  -1.9794558
  40.8965702  34.8843901   0.5852203  40.7141275  34.8590787  -0.2675505
  41.6315371  35.3542839   0.6241112  40.9779766  34.9505263   0.4650121
  56.9665376  35.1195411  -2.2714910  57.2020966  35.2640610  -3.0988059
  57.1154940  35.8837819  -1.8783396  57.0231180  35.2534465  -2.3351306
  43.9611454  31.6028904   7.0934312  44.6851426  31.5881934   7.5799206
  44.0627590  32.3124259   6.5956280  44.0829663  31.7053607   7.0913098
  51.3356403  35.0827988  11.9583259  50.5429384  35.3971500  12.1435878
  51.4505330  35.2979457  11.1204043  51.2351814  35.1611825  11.8621593
  54.0087722  31.8061980  -3.7521726  54.1034577  32.5451274  -3.2982100
  53.3846566  31.3779455  -3.3187161  53.9296752  31.8523300  -3.6213578
  52.2640196  34.9848192   6.8968555  52.8379058  34.3475436   7.0517119
  52.1855000  34.9852275   6.0278213  52.3373431  34.8913304   6.7914966
  40.8636613  31.7637402   0.7351270  41.4410115  31.6273852   1.3743515
  40.1650674  31.3073186   0.9896854  40.8457634  31.6759668   0.8673559
  47.6203915  33.4171457  -1.0510247  47.3623159  32.5843192  -1.0778948
  47.6752398  33.6429070  -1.8917747  47.5903693  33.3269229  -1.1790111
  52.7004965  25.5199908  -0.9506155  51.9961292  25.0309093  -0.7922235
  52.7489939  25.5322382  -1.8217710  52.6035016  25.4489556  -1.0566815
  46.5938627  30.9709220  -0.5645353  46.0188218  31.1301388   0.0718608
  46.2174303  30.3344629  -1.0276902  46.4541439  30.9007033  -0.5390794
  50.2611915  29.4432569   4.2947026  49.8726348  29.0186787   3.6399217
  49.5966614  29.6914719   4.8024053  50.1058843  29.4171290   4.2734894
  54.0838277  23.1407198   1.8071010  54.4648789  22.4585369   2.1938884
  53.2801561  22.8516800   1.6246675  54.0214739  22.9974246   1.8375066
  57.5860344  36.3557170   6.9053409  57.3498981  35.5245235   6.7865469
  58.2303573  36.3042777   7.4908253  57.6455015  36.2254858   6.9739302
  47.2358762  37.1452691  -2.3803855  47.8732709  36.9064439  -1.8352062
  47.6613834  37.3489850  -3.1150694  47.3934928  37.1403701  -2.4086698
  41.9271404  39.3841028   1.5030449  41.9675550  39.6555879   0.6750228
  42.4865928  39.9082936   1.9188237  42.0154750  39.5016783   1.4422337
  48.0430117  25.6461396  11.6733619  47.7283559  26.4160959  11.4103181
  47.7220050  25.0831652  11.0885846  47.9489037  25.6771665  11.5474969
  58.6096765  36.1401619   2.9681703  58.3042582  36.8729675   3.3295019
  57.8902980  35.7339548   2.6874489  58.4584107  36.1883351   2.9794840
  49.6180234  37.6225114  -0.7010069  49.6919242  37.4600286   0.1531781
  50.4349740  37.8115303  -0.9449587  49.7496593  37.6261856  -0.6112043
  64.3098557  32.7794619   2.2950047  64.2423057  32.7990578   1.4252634
  64.2954219  33.6224946   2.5205718  64.2977313  32.9068354   2.2002524
  43.3785991  37.9682977  -3.6715625  42.5524108  38.2144714  -3.7981346
  43.4397982  37.8895057  -2.8053567  43.2660158  37.9927925  -3.5626681
  54.7194903  24.1829777   5.6191137  55.4648495  23.9939587   5.2054562
  54.3032208  24.7088015   5.0604993  54.7679877  24.2331922   5.4755710
  48.7479565  35.3877603   5.1156535  48.2491259  36.0993370   5.1941424
  49.5579789  35.7078269   5.0774698  48.7935672  35.5404451   5.1213104
  46.0990735  42.5627239  -2.9036446  45.8791031  42.2724594  -2.1109779
  45.8785257  41.9042194  -3.4318533  46.0338329  42.4226948  -2.8647537
  45.0107682  34.6500556  -0.6380744  44.7220931  34.0238027  -0.1035017
  45.8791031  34.5920843  -0.5716064  45.0967934  34.5488100  -0.5489789
  55.7985580  29.7935339  -0.3198762  55.4550346  29.0725674   0.0308488
  55.8978623  29.5849190  -1.1620404  55.7627623  29.6559542  -0.3927082
  45.2139956  36.2895807  -4.7138379  45.9685924  36.6708846  -4.5002916
  44.6210568  36.7406950  -4.2591682  45.2376669  36.4124634  -4.6155501
  47.6746623  28.2458647  10.4118833  46.8646399  28.5516427  10.3008676
  48.1521310  28.9664229  10.5271417  47.6250102  28.3973248  10.4125904
  46.5338182  37.4604368   0.6601736  46.0118936  37.6004660   1.3453601
  46.9212203  36.7015032   0.8503854  46.5141883  37.3689892   0.7902813
  47.9604508  34.4908387  -3.9416773  47.7647291  35.0983122  -4.5356470
  48.1838854  33.7976331  -4.4225099  47.9639149  34.4785913  -4.1000692
  46.3583038  31.3763125  -3.8235904  47.0805690  31.5404283  -4.2832098
  45.8791031  32.0972790  -3.9296564  46.3946769  31.5061355  -3.9070290
  54.3176546  27.7126924   1.5560781  53.4787646  27.7388203   1.3199044
  54.3880913  28.3597659   2.1366127  54.2044939  27.8123050   1.6069898
  44.0090655  33.7821197   5.2818236  44.5211752  34.0605451   4.6326995
  43.7226997  34.5210491   5.6481049  44.0425518  33.9323551   5.2408114
  58.1934069  32.9194911  -1.1577977  58.1068044  33.0750337  -0.3043199
  57.7384549  33.5632986  -1.5318572  58.1137326  33.0370666  -1.0870871
  47.5274380  25.8747586   5.3419277  47.3357577  25.8902720   6.1918701
  48.3772976  26.0711260   5.3185932  47.6250102  25.9061937   5.4642572
  41.9121293  28.4038567   3.3203094  41.7706785  27.5522508   3.4447602
  42.1961857  28.4467228   2.4965300  41.9329139  28.2838318   3.2170718
  52.0659886  30.2405658  -2.5352418  51.8194600  30.1601409  -1.7015629
  52.3945009  29.4559126  -2.7289890  52.0781129  30.1131923  -2.4404895
  55.9607934  36.9489017   1.2534363  55.8222294  37.6470063   1.7583106
  55.1807932  36.7937673   0.8970545  55.8251161  37.0289184   1.2760637
  54.2986020  33.2485392   7.5056745  54.2934058  32.3765209   7.5099171
  55.0047013  33.4473562   7.0326201  54.4031024  33.1489267   7.4363780
  48.0256913  32.9762376   6.8770565  48.1700289  33.5563584   6.2413675
  48.3732561  33.3538673   7.5820420  48.0984374  33.1183080   6.8869560
  50.1976830  32.1752545   4.6595697  49.4500144  32.3683559   4.2543975
  50.3518355  31.3497764   4.4219818  50.1099258  32.0817656   4.5641103
  47.0984668  41.1665148   3.7431592  47.2474232  40.6068064   3.0904996
  47.8784670  41.2457150   4.1264111  47.2358761  41.0950714   3.7028541
  49.6237968  41.3379791   5.0216083  49.5481640  40.6688602   5.5766871
  49.5527828  42.0397579   5.5356749  49.6018575  41.3424698   5.1792931
  50.4378607  26.0703095   5.5491100  50.8951221  26.8027070   5.6763893
  50.5134936  25.6469561   6.3078356  50.5169577  26.1160333   5.6792177
  42.6811598  26.3168915   6.6380544  42.1453788  25.7049273   6.9541311
  42.7429363  26.8917051   7.2914211  42.6107231  26.3115843   6.7815971
  48.3160985  28.0605199   2.3932924  47.5257060  27.8796659   2.7150260
  48.7121608  27.2832152   2.3763219  48.2577861  27.9192660   2.4385473
  53.7004671  35.6947629   0.1192370  53.0249673  35.4632862   0.6205757
  53.7097048  35.0868812  -0.5065525  53.6023176  35.5706555   0.1008523
  50.8298815  30.5365458   6.8756423  50.7657957  31.3975415   6.7476560
  50.9696003  30.2197452   6.0751975  50.8414285  30.6165625   6.7384636
  49.5117909  33.2297598   1.0172626  49.0880158  33.4302097   0.2811645
  49.3362764  32.3826446   1.1296926  49.4228790  33.1346379   0.9246316
  49.0129603  44.7448111   3.4794084  49.5025533  44.0458900   3.2969748
  48.4413835  44.4471981   4.0670141  49.0014133  44.5974334   3.5395124
  44.8000354  33.7249649  -3.5499401  44.9564973  33.6596452  -2.6943409
  45.1400947  34.4998202  -3.7620722  44.8733589  33.8298847  -3.4544807
  51.3379499  33.1007533  -4.6806038  51.8795044  32.5977914  -4.2167417
  51.6526058  33.0472727  -5.4916553  51.4643896  33.0186954  -4.7322226
  55.2096606  37.3110180  12.4320874  56.0231472  37.0395329  12.5926007
  55.0491573  37.0117720  11.6281070  55.3066555  37.2265106  12.3366280
  52.4868768  27.9943837   5.3716263  52.7010738  27.3554751   4.8179616
  51.8702667  28.4389661   4.9424124  52.4274097  27.9653981   5.2266694
  41.3734616  30.9084600  -3.2338634  41.7533581  31.3269145  -3.8978367
  40.7989981  31.4898055  -2.9269791  41.3445941  31.0562458  -3.2861893
  54.6507856  29.6032902   6.3099570  53.8384538  29.2958793   6.3912742
  55.1097791  29.1231903   6.8742282  54.5988241  29.4869395   6.4054164
  51.8783497  21.1043773   0.3603605  51.0077055  21.0782494   0.3136915
  52.1323838  20.9320965  -0.4570549  51.7877057  21.0753917   0.2323742
  51.7461364  31.0092974  11.0928272  52.2160995  31.6335090  11.4796146
  51.7923244  30.3409949  11.6521487  51.8229240  31.0027654  11.2328343
  48.9032637  23.1150001   1.8177076  48.3871126  22.4230193   1.9428655
  48.3426566  23.7820778   1.7639674  48.7439151  23.1113259   1.8283142
  50.9724871  23.6542961   3.6469928  50.5856624  23.6791993   4.4283458
  50.4857808  23.0884640   3.1944445  50.8437380  23.5738712   3.6957832
  55.2217850  38.3716470   7.7043715  55.8597571  37.8776666   7.3706171
  54.5791942  38.2993871   7.1195942  55.2212077  38.2875479   7.5686070
  56.9474850  30.2205616   2.2709630  56.5202458  30.1331965   1.5157730
  56.3100903  30.3283392   2.8564475  56.7904458  30.2238276   2.2455072
  50.4395927  25.3281142   8.2106600  51.2669357  25.0566290   8.2665214
  50.4603774  26.1241983   8.5670418  50.5648778  25.4060896   8.2721783
  55.2772107  39.0636279   4.3449072  56.0664485  38.7125343   4.4651153
  55.4515705  39.8772667   4.0825705  55.4192389  39.1322136   4.3236940
  45.0165417  32.4745004   1.3976860  44.1753424  32.3748879   1.6055754
  45.2255425  33.2440485   1.7491181  44.9230110  32.5737048   1.4804175
  42.4940984  30.0964541  -0.7738389  42.0997682  30.1707553  -1.5488279
  41.9381101  30.4822488  -0.2230027  42.3543797  30.1646316  -0.8070729
  54.1305931  23.0745835  -1.0934510  54.3355524  23.0068143  -0.2477513
  53.8032355  23.8804657  -1.1613333  54.1121179  23.1831776  -0.9774855
  48.8282082  30.4026404   0.6474458  48.5245220  29.8482392   1.2484866
  48.1261503  30.5818614   0.1602492  48.6798292  30.3471186   0.6644164
  46.8900433  37.6176124   5.3546556  46.7820788  37.6278186   6.2208614
  47.0996215  38.4430905   5.1651510  46.9050544  37.7417199   5.4550647
  44.9074225  34.8688767   2.8168493  44.3162158  35.5098265   2.7871508
  45.6695249  35.2926384   2.7899793  44.9322486  35.0264605   2.8083641
  45.3034848  26.0290764   3.4836511  45.7636330  26.1029694   4.2211635
  45.3490955  26.8272018   3.1336332  45.3785403  26.1584912   3.5409267
  46.9518198  26.6957459   8.0508538  46.5603763  26.0490806   8.4864316
  47.1204060  27.2868895   8.6702793  46.9189108  26.6871727   8.2071244
  61.0264647  34.6994536   3.8145772  61.0847770  35.1481185   4.5605748
  60.3931114  35.1093349   3.3775852  60.9415942  34.8268271   3.8598320
  54.6663741  40.3198078   0.2500518  54.4683430  40.8088893  -0.4443271
  54.0451452  40.5239320   0.8284651  54.5451306  40.4214617   0.2323741
  48.7271720  32.0882975  -5.4089238  49.4713765  32.4757251  -5.1706288
  48.8732416  31.2440400  -5.2448750  48.8582305  32.0213448  -5.3495268
  50.6451295  23.8833234  -0.3757377  49.7987340  24.0556042  -0.5016027
  50.6422428  23.0782578  -0.0391548  50.5198445  23.7894263  -0.3446250
  51.7149596  27.6608448   0.4904681  51.2409550  27.1350210   1.0009992
  52.0867731  27.1137921  -0.0780457  51.6999485  27.5024445   0.4819829
  42.0922626  29.6579955   5.8588227  42.9548239  29.5575664   5.7725557
  41.7614409  29.0774664   5.2973799  42.1707822  29.5571582   5.7633633
  57.9786326  32.7210824   1.9011462  57.7384549  31.8817239   1.9053888
  58.4578333  32.8010991   2.6252235  58.0138510  32.6092224   2.0086264
  59.9791513  29.5012281  -0.1459279  59.7401283  29.4608115  -0.9838494
  60.1425414  30.3483433  -0.0193558  59.9681817  29.6204366  -0.2505797
  56.5837543  33.8862231   5.7845766  57.3071742  33.4334757   5.6056786
  56.3187506  34.1666896   5.0018094  56.6518817  33.8613199   5.6424481
  45.4524412  28.4822404   2.5198645  44.8277482  28.4940796   1.9124598
  45.1170007  28.9582579   3.1689886  45.3109904  28.5540921   2.5255214
  42.1650087  36.5422864   3.9602410  41.6350012  35.8515303   4.0097384
  42.4375181  36.5333050   3.1315118  42.1274810  36.4389996   3.8449826
  52.3656333  33.9846109   3.9340781  51.7513326  33.4404159   4.2289416
  52.8823618  33.4710345   3.4546597  52.3511995  33.8282518   3.9065010
  51.6052630  35.0550379   1.6685080  51.1780238  34.4300098   1.2350515
  51.5977574  34.7725301   2.4944087  51.5411771  34.9203160   1.7264907
  44.7215157  30.0915552   4.7373514  44.8808644  29.3358876   5.1425236
  44.5408051  30.6406491   5.3914251  44.7180516  30.0609366   4.8936220
  52.6635460  22.2576787   5.2924303  52.1676021  22.4540462   4.6015870
  53.4204522  22.6569456   5.1213105  52.7022285  22.3454521   5.1644440
  49.9338340  25.9319133   1.8827614  49.9580827  25.3979246   1.1940394
  50.1849813  25.4236442   2.5453204  49.9748258  25.7780037   1.8792259
  37.4445930  33.2150628   1.3170758  37.3389379  33.1697473   0.4522842
  36.6946149  33.5604409   1.5985043  37.3181532  33.2591537   1.2308088
  46.2139662  24.6589952   1.2633358  46.2538034  25.1599158   1.9768066
  45.3889327  24.7500345   0.9939281  46.0979188  24.7471768   1.3283896
  48.3969275  34.2250692   9.3653653  47.5464905  34.3622406   9.5011298
  48.5597403  33.4914470   9.8101354  48.2953138  34.1364793   9.4509252
  47.6354025  31.1750461   3.5607257  46.8045955  31.3424279   3.3542505
  47.5805542  30.7986412   4.3456142  47.5043440  31.1440193   3.6455785
  45.4437809  24.6659354   9.1963668  46.0690512  24.1221487   9.4693100
  44.9888288  24.1854272   8.6271458  45.4686069  24.5148836   9.1525262
  59.0172857  32.8488641   4.2876316  59.6090698  33.4885892   4.3194514
  59.4531852  32.1511678   4.5768383  59.1691289  32.8406992   4.3357148
  50.8466247  37.2706014   4.9134210  50.3391338  37.8241861   5.3574840
  50.5492893  37.3314304   4.0952984  50.7271132  37.3612325   4.8582666
  53.0128429  25.6359333   3.7558873  53.4383501  25.1831860   3.1442399
  52.3985422  25.0819404   4.0323660  52.9857075  25.4873310   3.7063898
  56.0421999  30.0633860  -3.4120542  55.3713189  30.6063562  -3.5407476
  56.7361749  30.5328715  -3.6538847  56.0450866  30.2132131  -3.4665014
  50.0908732  42.2030572   1.8191217  49.8674387  41.4449401   2.1875243
  49.6018576  42.2328593   1.0971656  49.9852181  42.0952797   1.7667958
  56.2050126  26.5189744  -0.5030168  56.5577736  26.0919467   0.1715630
  55.3464928  26.4340587  -0.3729092  56.1299571  26.4434484  -0.3835158
  44.9033811  29.1497263  -2.4447322  44.1845800  29.5661396  -2.1774458
  45.2746173  29.7151502  -2.9955684  44.8525743  29.2946545  -2.4864515
  54.2033392  29.7825112   3.4454674  54.1831319  29.6008407   4.2989453
  54.2512593  30.6537131   3.4214257  54.2068033  29.8841651   3.5677969
  52.1479722  36.3712304   9.3703150  52.1075577  35.7261981   8.7848306
  52.9603040  36.3148922   9.6828562  52.2622875  36.2671271   9.3300100
  48.7387189  42.4231030  -0.7271699  48.3247588  41.7605160  -1.1167857
  49.4234564  42.5708889  -1.2476005  48.7785561  42.3471688  -0.8615202
  52.1052483  41.5821115   0.0251918  51.7068767  41.6923386  -0.7427262
  51.4903703  41.7903182   0.6078478  51.9551373  41.6294683  -0.0016783
  53.5538202  28.1474768  -3.6772192  53.3251895  28.1707469  -4.5193834
  53.8136278  27.3232235  -3.5577182  53.5584390  28.0290848  -3.7846994
  47.8357431  30.0009241   5.9252908  47.3236334  29.3930424   6.2837939
  47.6636927  30.7165833   6.3926884  47.7347068  30.0172540   6.0469132
  42.6823145  28.4446816   8.5755270  42.5125736  29.1048191   8.0303476
  42.2389095  28.6553377   9.2967759  42.5922479  28.5732798   8.6016899
  46.6082965  26.6851314  -2.3817997  47.0840331  27.0468394  -3.0167815
  46.1071564  27.3407782  -2.1017854  46.6048324  26.8345503  -2.4341256
  51.7126501  27.9233485   8.3655164  52.2697931  27.6947295   7.7333629
  51.3887566  28.6839151   8.0890376  51.7472911  28.0017322   8.2311661
  39.5825210  31.3493682   3.8343760  39.0351929  30.6794327   3.9524628
  40.3717588  30.9823530   3.8987227  39.6177393  31.1958668   3.8612460
  49.4309618  31.0101139   9.3307171  50.1820945  31.3252816   9.6446725
  49.6232195  30.8080310   8.5041092  49.5701032  31.0268521   9.2550566
  56.2794908  27.1374705  -3.4269034  56.2789135  26.9823362  -2.5684758
  56.0751088  27.9837692  -3.4827648  56.2494686  27.2395326  -3.3081094
  38.3412179  30.5614489   0.9889783  38.1633940  30.1091098   1.7144698
  38.0531201  31.3640651   1.1728260  38.2725132  30.6137047   1.1233286
  54.0035760  31.8172207   0.2267173  54.4989426  31.0995202   0.1871193
  53.1935536  31.5143005   0.1121660  53.9579654  31.6669853   0.2040899
  40.0784649  33.0942213  -1.8988458  39.2130169  33.0827904  -2.0105687
  40.1783465  32.9072436  -1.0517319  39.9658816  33.0648274  -1.7899514
  56.0687579  34.5675894   2.9144302  56.4942651  34.0450316   2.3614727
  55.7044499  35.1656732   2.3932925  56.0774182  34.5786121   2.7553312
  45.7041659  42.8640112   1.6741647  46.0188218  43.6776500   1.6819429
  46.1135072  42.4790331   2.3423806  45.8109757  42.9268814   1.7745739
  52.6566179  38.2810159  -0.7554541  53.1277357  38.9950421  -0.5864556
  52.9926357  37.6808909  -0.2194671  52.7761294  38.2981623  -0.6522165
  54.7443163  39.8911472  11.4237531  54.8540129  39.1020033  11.7794279
  55.0734060  39.8017408  10.6211869  54.8095569  39.7617325  11.3579922
  49.5735674  23.0537629   6.2003554  49.7063579  22.2568623   6.5284530
  49.9580826  23.5804032   6.7801830  49.6492002  23.0137546   6.3347057
  53.2940125  38.0728093   6.0073152  52.7461071  37.4485976   5.7393217
  53.7553154  38.2622365   5.2917231  53.2807334  38.0087143   5.8623583
  52.6468029  19.9767955   2.7984647  51.8413992  19.8665685   3.1152486
  52.5174764  20.0780411   1.9414513  52.5088162  19.9751625   2.7192688
  56.1033989  26.1413447   3.3924344  55.5196978  26.6422654   2.9801912
  56.4238283  25.6343003   2.7588667  56.0647165  26.1405282   3.2382851
  47.2324120  23.0496804   4.4481448  47.7768533  22.7087931   5.0385789
  47.2861056  23.9082266   4.5902732  47.3213240  23.1252064   4.5563321
  43.0454679  36.8113220   1.3220256  43.6499537  36.7709054   0.6934076
  42.8381992  37.6584372   1.3524312  43.1043576  36.9301223   1.2336372
  52.8598451  39.0779165   2.5382493  53.6796825  38.9342131   2.7998788
  52.5792529  39.7025364   3.0798931  52.9395195  39.1489517   2.6570432
  38.2805961  35.7947838   1.1919179  38.1830239  34.9844109   1.5009235
  39.0634831  35.7739631   0.8065447  38.3822098  35.6714928   1.1806042
  53.9892814  43.5606795   0.8114945  53.3697846  42.9699443   0.6424960
  53.8876678  44.1518231   0.1779268  53.8830490  43.5610878   0.6919935
  53.7161947  47.1059077   3.0558514  53.5920644  47.6921523   3.6908333
  54.3680232  46.6119273   3.3570789  53.7935596  47.1197882   3.1944444
  57.1543155  47.0238498   8.4687539  57.3263659  46.9144393   9.3172820
  57.6912513  47.6692904   8.2318731  57.2588159  47.1030500   8.5592635
  63.0917857  54.9442749  10.4196615  63.8758273  55.0573597  10.7852357
  62.8914451  54.1183886  10.6155301  63.1783882  54.8389469  10.5031001
  51.4604872  49.6170429   3.3040459  51.1943287  48.8009546   3.4631449
  51.4743436  49.6623585   2.4335974  51.4229594  49.5027334   3.1993941
  56.2103478  43.1548808   5.9507466  55.5175275  42.6845787   6.1968198
  56.8263806  42.9287112   6.5249174  56.1988008  43.0515940   6.0716619
  54.9344037  47.1214212   7.0934312  55.6584010  47.1067242   7.5799206
  55.0360174  47.8309567   6.5956280  55.0562246  47.2238915   7.0913098
  62.3088987  50.6013296  11.9583259  61.5161968  50.9156808  12.1435878
  62.4237914  50.8164765  11.1204043  62.2084397  50.6797133  11.8621593
  61.2344499  44.9617877   4.2947026  60.8458932  44.5372095   3.6399217
  60.5699197  45.2100027   4.8024053  61.0791427  44.9356598   4.2734894
  65.0570861  38.6592506   1.8071010  65.4381372  37.9770677   2.1938884
  64.2534145  38.3702108   1.6246675  64.9947322  38.5159554   1.8375066
  59.0162701  41.1646704  11.6733619  58.7016142  41.9346267  11.4103181
  58.6952634  40.6016960  11.0885846  58.9221620  41.1956973  11.5474969
  65.6927487  39.7015085   5.6191137  66.4381079  39.5124895   5.2054562
  65.2764791  40.2273323   5.0604993  65.7412461  39.7517230   5.4755710
  58.6479206  43.7643955  10.4118833  57.8378982  44.0701735  10.3008676
  59.1253893  44.4849537  10.5271417  58.5982685  43.9158556  10.4125904
  54.9823238  49.3006505   5.2818236  55.4944335  49.5790759   4.6326995
  54.6959581  50.0395799   5.6481049  55.0158101  49.4508859   5.2408114
  58.5006964  41.3932894   5.3419277  58.3090161  41.4088028   6.1918701
  59.3505560  41.5896568   5.3185932  58.5982686  41.4247245   5.4642572
  52.8853877  43.9223875   3.3203094  52.7439369  43.0707816   3.4447602
  53.1694440  43.9652536   2.4965300  52.9061723  43.8023625   3.2170718
  58.9989496  48.4947684   6.8770565  59.1432872  49.0748892   6.2413675
  59.3465145  48.8723981   7.5820420  59.0716958  48.6368388   6.8869560
  61.4111191  41.5888403   5.5491100  61.8683805  42.3212378   5.6763893
  61.4867520  41.1654869   6.3078356  61.4902161  41.6345641   5.6792177
  53.6544182  41.8354223   6.6380544  53.1186371  41.2234581   6.9541311
  53.7161947  42.4102359   7.2914211  53.5839815  41.8301151   6.7815971
  59.2893569  43.5790507   2.3932924  58.4989643  43.3981967   2.7150260
  59.6854192  42.8017460   2.3763219  59.2310445  43.4377968   2.4385473
  61.8031399  46.0550766   6.8756423  61.7390540  46.9160723   6.7476560
  61.9428587  45.7382760   6.0751975  61.8146869  46.1350933   6.7384636
  66.1829190  52.8295488  12.4320874  66.9964055  52.5580637  12.5926007
  66.0224156  52.5303028  11.6281070  66.2799138  52.7450414  12.3366280
  63.4601352  43.5129145   5.3716263  63.6743321  42.8740059   4.8179616
  62.8435251  43.9574969   4.9424124  63.4006681  43.4839289   5.2266694
  65.6240440  45.1218210   6.3099570  64.8117122  44.8144101   6.3912742
  66.0830374  44.6417211   6.8742282  65.5720825  45.0054703   6.4054164
  62.8516080  36.6229081   0.3603605  61.9809638  36.5967802   0.3136915
  63.1056422  36.4506273  -0.4570549  62.7609641  36.5939225   0.2323742
  62.7193947  46.5278282  11.0928272  63.1893578  47.1520398  11.4796146
  62.7655828  45.8595257  11.6521487  62.7961823  46.5212962  11.2328343
  59.8765221  38.6335309   1.8177076  59.3603710  37.9415501   1.9428655
  59.3159150  39.3006086   1.7639674  59.7171734  38.6298567   1.8283142
  61.9457454  39.1728269   3.6469928  61.5589208  39.1977301   4.4283458
  61.4590392  38.6069948   3.1944445  61.8169963  39.0924020   3.6957832
  61.6114596  36.0595255   5.9380188  62.2407714  36.5955555   5.6601259
  61.7800459  35.9672614   6.7893754  61.7292391  36.1256617   6.0228716
  61.4128511  40.8466450   8.2106600  62.2401940  40.5751598   8.2665214
  61.4336357  41.6427291   8.5670418  61.5381361  40.9246204   8.2721783
  56.2767432  41.5476072   3.4836511  56.7368913  41.6215002   4.2211635
  56.3223538  42.3457326   3.1336332  56.3517987  41.6770219   3.5409267
  57.9250781  42.2142767   8.0508538  57.5336346  41.5676114   8.4864316
  58.0936644  42.8054203   8.6702793  57.8921692  42.2057035   8.2071244
  53.0655209  45.1765263   5.8588227  53.9280822  45.0760972   5.7725557
  52.7346992  44.5959972   5.2973799  53.1440406  45.0756890   5.7633633
  56.4256995  44.0007712   2.5198645  55.8010065  44.0126104   1.9124598
  56.0902590  44.4767887   3.1689886  56.2842487  44.0726229   2.5255214
  55.6947741  45.6100860   4.7373514  55.8541227  44.8544184   5.1425236
  55.5140634  46.1591799   5.3914251  55.6913100  45.5794674   4.8936220
  63.6368044  37.7762095   5.2924303  63.1408605  37.9725770   4.6015870
  64.3937106  38.1754764   5.1213105  63.6754868  37.8639829   5.1644440
  60.9070923  41.4504441   1.8827614  60.9313410  40.9164554   1.1940394
  61.1582397  40.9421750   2.5453204  60.9480842  41.2965345   1.8792259
  48.4178513  48.7335936   1.3170758  48.3121962  48.6882781   0.4522842
  47.6678733  49.0789717   1.5985043  48.2914116  48.7776844   1.2308088
  57.1872245  40.1775260   1.2633358  57.2270617  40.6784466   1.9768066
  56.3621910  40.2685653   0.9939281  57.0711771  40.2657076   1.3283896
  59.3701858  49.7436000   9.3653653  58.5197489  49.8807714   9.5011298
  59.5329986  49.0099778   9.8101354  59.2685722  49.6550101   9.4509252
  58.6086609  46.6935769   3.5607257  57.7778539  46.8609587   3.3542505
  58.5538126  46.3171720   4.3456142  58.4776024  46.6625501   3.6455785
  56.4170392  40.1844662   9.1963668  57.0423096  39.6406795   9.4693100
  55.9620872  39.7039580   8.6271458  56.4418653  40.0334144   9.1525262
  63.9861013  41.1544641   3.7558873  64.4116084  40.7017168   3.1442399
  63.3718006  40.6004712   4.0323660  63.9589658  41.0058618   3.7063898
  63.1212305  51.8897612   9.3703150  63.0808160  51.2447289   8.7848306
  63.9335624  51.8334230   9.6828562  63.2355459  51.7856579   9.3300100
  58.8090014  45.5194549   5.9252908  58.2968917  44.9115732   6.2837939
  58.6369510  46.2351141   6.3926884  58.7079651  45.5357848   6.0469132
  53.6555729  43.9632124   8.5755270  53.4858319  44.6233499   8.0303476
  53.2121679  44.1738685   9.2967759  53.5655062  44.0918106   8.6016899
  62.6859084  43.4418793   8.3655164  63.2430515  43.2132603   7.7333629
  62.3620149  44.2024459   8.0890376  62.7205495  43.5202630   8.2311661
  50.5557793  46.8678990   3.8343760  50.0084513  46.1979635   3.9524628
  51.3450171  46.5008837   3.8987227  50.5909977  46.7143976   3.8612460
  60.4042202  46.5286447   9.3307171  61.1553529  46.8438124   9.6446725
  60.5964778  46.3265618   8.5041092  60.5433616  46.5453828   9.2550566
  49.3144763  46.0799797   0.9889783  49.1366524  45.6276406   1.7144698
  49.0263785  46.8825959   1.1728260  49.2457716  46.1322355   1.1233286
  60.5468257  38.5722937   6.2003554  60.6796163  37.7753931   6.5284530
  60.9313410  39.0989340   6.7801830  60.6224586  38.5322854   6.3347057
  63.6200612  35.4953263   2.7984647  62.8146576  35.3850993   3.1152486
  63.4907348  35.5965719   1.9414513  63.4820745  35.4936933   2.7192688
  58.2056704  38.5682112   4.4481448  58.7501117  38.2273239   5.0385789
  58.2593640  39.4267574   4.5902732  58.2945823  38.6437372   4.5563321
   1.9281541  59.0160595  36.3963514   1.6134982  59.7064073  36.8283936
   1.4108483  58.9605377  35.6949014   1.8046012  59.1095483  36.3560463
   6.2195986  67.2381801  41.6784390   5.3824407  67.3083988  41.9131985
   6.1884217  67.2406295  40.8058692   6.0914269  67.2492028  41.5843938
   3.9003826  62.3024582  40.2628112   4.5429734  62.3722687  40.8490028
   4.1526847  61.6353805  39.7607654   4.0325958  62.2150931  40.2755392
   6.3385328  67.0769220  35.9940076   6.0821893  66.2649161  35.8037959
   7.1814642  67.0846787  35.7670263   6.4251354  66.9581217  35.9324893
   1.1545047  62.0591423  44.5436357   1.8998639  61.8701233  44.1299782
   0.7382351  62.5849661  43.9850213   1.2030021  62.1093568  44.4000930
   8.5307318  69.4300651  39.4941862   9.0815239  68.7968720  39.7338954
   8.5151433  69.9616044  40.1857366   8.6092514  69.4149599  39.6320720
   2.2335724  67.6696985  38.6046458   1.8900490  66.9487320  38.9553708
   2.3328766  67.4610836  37.7624816   2.1977767  67.5321188  38.5318138
   1.3456077  57.1254616  38.3430163   1.4639645  57.5831080  37.6097466
   1.1718252  56.3199878  38.0566381   1.3375248  57.0748388  38.1931097
   3.8189762  61.5039245  37.3113475   3.2064076  61.9909648  37.6967207
   3.9153937  60.8282736  37.8551127   3.7427660  61.4757554  37.4492334
   6.4141657  67.3773927  38.7785941   6.1751427  67.3369761  37.9406726
   6.5775558  68.2245079  38.9051662   6.4031960  67.4966012  38.6739423
   2.6400270  64.3951389  38.4215052   2.9927880  63.9681112  39.0960850
   1.7815071  64.3102233  38.5516128   2.5649714  64.3196130  38.5410062
   4.0724330  59.5169801  39.3499364   3.5655194  58.8098941  39.2820542
   4.8691764  59.1862990  39.4800441   4.1151569  59.3642953  39.3598359
   2.7145052  65.0136351  35.4976186   2.7139278  64.8585007  36.3560462
   2.5101232  65.8599338  35.4417572   2.6844830  65.1156972  35.6164126
   2.5384133  64.0175093  42.3169564   1.9547122  64.5184300  41.9047132
   2.8588427  63.5104649  41.6833887   2.4997308  64.0166928  42.1628071
   4.4880486  46.0298486  21.3610636   4.4574490  46.8843123  21.5328906
   5.0861834  45.7293779  21.9196780   4.5717643  46.1114983  21.4685439
   0.9973887  51.3860663  35.7224023   1.7040654  50.8912694  35.8510957
   1.1861822  51.8269744  34.9926681   1.1301793  51.3779013  35.6333068
   2.3097060  48.6050788  19.6328946   2.1936586  49.3558474  20.0621084
   3.1052947  48.3474742  19.8825033   2.4101650  48.6785635  19.7333038
   6.4192852  51.5289531  24.8174016   5.5890555  51.7400175  24.9807432
   6.3702104  50.7026586  24.5416299   6.2899587  51.4379137  24.8011381
   5.9146810  44.1759932  28.6124437   5.0775231  44.2462119  28.8472031
   5.8835041  44.1784427  27.7398739   5.7865092  44.1870159  28.5183985
   0.6376996  48.3715608  24.2036328   1.3934511  48.8047123  24.2425237
   0.7439320  47.7220378  24.7770964   0.7647166  48.3393092  24.2934354
   3.6757167  52.1988886  24.9538731   3.2392399  52.2025628  25.7097703
   3.3420082  52.8794385  24.5218309   3.5619787  52.3001341  25.0019564
   3.5954650  39.2402713  27.1968159   4.2380558  39.3100818  27.7830075
   3.8477671  38.5731936  26.6947701   3.7276782  39.1529062  27.2095438
   6.8101513  48.9169805  23.8458369   7.4717947  48.3560474  23.7454277
   6.1692925  48.4221836  24.1711060   6.8130381  48.7606215  23.8790709
   3.0966344  49.9335188  23.5870357   3.3321933  50.0780387  22.7597208
   3.2455908  50.6977596  23.9801871   3.1532147  50.0674242  23.5233961
   4.9256801  48.7736854  21.4239961   5.2565018  49.3064494  20.8180056
   5.4989889  48.8275742  22.0801912   5.0590480  48.8606423  21.4317743
   6.0336152  44.0147351  22.9280123   5.7772717  43.2027292  22.7378006
   6.8765466  44.0224918  22.7010310   6.1202178  43.8959348  22.8664940
   3.7161311  51.1696947  32.7638675   3.4799949  50.3385012  32.6450736
   4.3604540  51.1182554  33.3493520   3.7755982  51.0394635  32.8324569
   4.7397732  50.9541395  28.8266970   4.4343549  51.6869452  29.1880285
   4.0203948  50.5479325  28.5459756   4.5885074  51.0023128  28.8380107
  10.4399524  47.5934396  28.1535314  10.3724024  47.6130355  27.2837901
  10.4255187  48.4364723  28.3790985  10.4278281  47.7208131  28.0587791
   8.2258142  46.3678782  26.4281909   8.7766063  45.7346851  26.6679001
   8.2102257  46.8994175  27.1197413   8.3043338  46.3527731  26.5660767
   1.9286548  44.6075116  25.5386505   1.5851314  43.8865451  25.8893754
   2.0279590  44.3988967  24.6964863   1.8928591  44.4699319  25.4658185
   2.3899577  51.0700820  21.0810493   2.9557609  51.7294030  20.9969036
   1.7427480  51.4150518  21.5526895   2.3778333  51.2182761  21.1383249
   4.3235037  47.7334688  24.7007289   4.2369012  47.8890114  25.5542068
   3.8685517  48.3772763  24.3266694   4.2438294  47.8510443  24.7714396
   2.0908902  51.7628794  27.1119630   1.9523261  52.4609840  27.6168372
   1.3108900  51.6077450  26.7555812   1.9552129  51.8428961  27.1345904
   3.5862275  51.1207048  17.8736129   3.2069083  50.3344186  17.8665419
   2.9228520  51.6693905  17.7307774   3.4320749  51.0851872  17.8516926
   1.0406901  34.0632748  25.2770210   1.1590469  34.5209211  24.5437513
   0.8669076  33.2578009  24.9906428   1.0326072  34.0126520  25.1271144
   1.8322374  53.3652539  18.2087815   1.9142211  54.1719525  17.8849266
   2.3172116  53.3848498  18.9328589   1.9159531  53.4873201  18.2674714
   1.3397574  52.1249957  38.2906141   2.1532439  51.8535106  38.4511274
   1.1792540  51.8257497  37.4866337   1.4367522  52.0404883  38.1951547
   1.3518818  53.1856247  33.5628982   1.9898538  52.6916443  33.2291438
   0.7092909  53.1133648  32.9781208   1.3513044  53.1015256  33.4271337
   3.0775818  45.0345393  28.1294897   2.6503426  44.9471742  27.3742997
   2.4401871  45.1423169  28.7149741   2.9205425  45.0378053  28.1040339
   1.4073074  53.8776056  30.2034338   2.1965453  53.5265120  30.3236420
   1.5816672  54.6912444  29.9410972   1.5493356  53.9461913  30.1822206
   3.5140586  38.4417377  24.2453522   2.9014900  38.9287779  24.6307254
   3.6104761  37.7660867  24.7891173   3.4378484  38.4135685  24.3832380
   7.1565614  49.5134313  29.6731038   7.2148738  49.9620962  30.4191015
   6.5232082  49.9233126  29.2361118   7.0716909  49.6408048  29.7183587
   4.1087294  47.5350601  27.7596729   3.8685517  46.6957016  27.7639155
   4.5879301  47.6150768  28.4837502   4.1439477  47.4232001  27.8671531
   6.1092481  44.3152058  25.7125988   5.8702251  44.2747892  24.8746772
   6.2726382  45.1623210  25.8391709   6.0982784  44.4344143  25.6079470
   2.7138511  48.7002008  31.6431033   3.4372710  48.2474534  31.4642053
   2.4488473  48.9806673  30.8603361   2.7819784  48.6752976  31.5009748
   5.1473825  47.6628418  30.1461583   5.7391665  48.3025669  30.1779781
   5.5832819  46.9651455  30.4353650   5.2992256  47.6546769  30.1942415
   2.1722966  44.8773637  22.4464725   1.5014156  45.4203339  22.3177791
   2.8662716  45.3468492  22.2046420   2.1751834  45.0271908  22.3920253
   2.3351094  41.3329521  25.3555098   2.6878704  40.9059244  26.0300897
   1.4765895  41.2480364  25.4856175   2.2600538  41.2574261  25.4750109
   3.7675154  36.4547932  26.2839411   3.2606018  35.7477072  26.2160588
   4.5642587  36.1241121  26.4140487   3.8102393  36.3021084  26.2938406
   5.9695294  50.9712859  19.2680275   6.3528899  51.7204215  19.4978372
   5.1739407  51.2178679  19.0092264   5.9089076  51.1182553  19.2637849
   2.4095876  41.9514482  22.4316233   2.4090102  41.7963139  23.2900509
   2.2052056  42.7977469  22.3757619   2.3795654  42.0535103  22.5504172
   2.1988547  49.3815671  28.7729569   2.6243618  48.8590093  28.2199994
   1.8345467  49.9796509  28.2518192   2.2075149  49.3925898  28.6138578
   0.8744131  54.7051249  37.2822798   0.9841096  53.9159810  37.6379545
   1.2035027  54.6157185  36.4797136   0.9396537  54.5757102  37.2165189
   2.2334957  40.9553224  29.2509611   1.6497946  41.4562431  28.8387178
   2.5539251  40.4482780  28.6173934   2.1948132  40.9545059  29.0968118
  15.4613069  61.5483794  21.3610636  15.4307074  62.4028431  21.5328906
  16.0594418  61.2479087  21.9196780  15.5450227  61.6300291  21.4685439
   8.6612754  60.6359445  26.1163567   7.8050650  60.7967943  26.1672683
   8.7080408  59.7651509  26.1368628   8.5411865  60.5310247  26.1269633
  11.9706471  66.9045971  35.7224023  12.6773238  66.4098002  35.8510957
  12.1594406  67.3455052  34.9926681  12.1034376  66.8964321  35.6333068
  11.5064575  62.6951489  28.7595218  12.0520535  63.3736576  28.8189188
  11.4481451  62.5538950  27.8996800  11.5780489  62.7743491  28.6407279
  13.2829644  64.1236096  19.6328946  13.1669170  64.8743782  20.0621084
  14.0785530  63.8660049  19.8825033  13.3834233  64.1970943  19.7333038
   7.2161677  60.1146114  21.0032675   7.9141842  60.2934242  21.4954138
   7.5314010  59.5916454  20.3803065   7.3657014  60.0639886  20.9834685
   7.4049613  66.5016559  20.9912467   7.8443248  65.8933660  21.4367239
   7.2554276  66.1223933  20.2197932   7.4471078  66.3555030  20.9431634
   4.8721256  65.0960571  28.1931292   5.5170258  64.6033014  27.8742241
   5.1123033  65.2385358  29.0197370   5.0031841  65.0438013  28.2680825
   7.4107347  67.9415477  27.8438185   7.6930590  67.1466883  27.6224941
   8.1393507  68.4196064  27.8643246   7.5596911  67.8950074  27.8141200
   5.3888541  55.4838511  25.0853950   5.0591871  55.9349654  24.4157649
   4.7133543  55.4054674  25.6326956   5.2398977  55.5389646  25.0677173
  11.0058949  64.8543740  17.9443236  10.9210244  65.7104707  18.0892805
  11.4943332  64.5788065  18.6125395  11.0647846  64.9401062  18.0645317
  12.5964949  51.4724034  23.3303560  12.2818390  52.1627512  23.7623983
  12.0791890  51.4168816  22.6289061  12.4729419  51.5658922  23.2900510
  11.9377382  61.4728535  19.4440971  11.4088854  61.6888168  20.1038277
  12.4602402  62.1664673  19.3641940  11.9365835  61.6071672  19.5296570
  17.3925435  67.0474839  24.8174016  16.5623138  67.2585483  24.9807432
  17.3434688  66.2211894  24.5416299  17.2632171  66.9564445  24.8011381
   9.1098765  70.3273507  33.6138098   9.1982111  70.1399648  34.4616308
   9.5388477  69.6810937  33.2142945   9.1860867  70.2036515  33.6809850
   8.2854205  61.6157403  16.7217360   8.5250208  61.8235387  15.9092703
   8.6070046  60.8114912  16.8306304   8.3691363  61.5271505  16.6177913
   3.5944495  53.5450799  20.5676898   4.3490463  53.9129116  20.3293948
   3.4172030  53.9190354  21.3356077   3.6798973  53.6548987  20.6461786
  16.8879394  59.6945240  28.6124437  16.0507815  59.7647427  28.8472031
  16.8567625  59.6969735  27.7398739  16.7597676  59.7055467  28.5183985
   3.2844123  61.8378275  34.3272806   3.4564626  61.7284170  35.1758087
   3.8213480  62.4832681  34.0903998   3.3889127  61.9170277  34.4177902
   1.9501560  55.9521118  17.2655011   1.7677133  56.1692999  16.4396003
   2.8127173  56.0660131  17.3213625   2.0506149  56.0011016  17.1509498
   7.6301279  52.9547529  20.3004034   8.3587439  52.7763484  19.8542191
   7.7196172  53.7965609  20.5111213   7.7507941  53.0531407  20.2657552
  11.6109579  63.8900916  24.2036328  12.3667094  64.3232431  24.2425237
  11.7171904  63.2405686  24.7770964  11.7379750  63.8578400  24.2934354
  14.6489751  67.7174194  24.9538731  14.2124982  67.7210936  25.7097703
  14.3152666  68.3979693  24.5218309  14.5352371  67.8186649  25.0019564
   9.2218824  69.7582526  36.2781882  10.0059241  69.8713374  36.6437624
   9.0215419  68.9323663  36.4740567   9.3084850  69.6529246  36.3616268
  14.5687233  54.7588021  27.1968159  15.2113142  54.8286126  27.7830075
  14.8210254  54.0917244  26.6947701  14.7009366  54.6714370  27.2095438
   2.3404446  57.9688585  31.8092733   1.6476243  57.4985564  32.0553465
   2.9564773  57.7426889  32.3834440   2.3288976  57.8655717  31.9301886
  17.7834097  64.4355113  23.8458369  18.4450531  63.8745782  23.7454277
  17.1425509  63.9407144  24.1711060  17.7862964  64.2791522  23.8790709
  14.0698927  65.4520496  23.5870357  14.3054517  65.5965695  22.7597208
  14.2188491  66.2162904  23.9801871  14.1264731  65.5859550  23.5233961
   1.0645005  61.9353989  32.9519578   1.7884977  61.9207019  33.4384473
   1.1661141  62.6449344  32.4541547   1.1863214  62.0378692  32.9498365
  15.8989384  64.2922162  21.4239961  16.2297601  64.8249802  20.8180056
  16.4722472  64.3461050  22.0801912  16.0323063  64.3791731  21.4317743
   8.4389954  65.4153073  37.8168525   7.6462935  65.7296585  38.0021145
   8.5538881  65.6304542  36.9789310   8.3385365  65.4936910  37.7206860
  11.1121273  62.1387064  22.1063541  11.2068128  62.8776359  22.5603167
  10.4880117  61.7104540  22.5398106  11.0330303  62.1848385  22.2371689
   9.3673747  65.3173277  32.7553822   9.9412609  64.6800521  32.9102386
   9.2888551  65.3177359  31.8863480   9.4406982  65.2238388  32.6500233
  11.3644295  63.9835804  15.3400493  11.2824457  64.0537991  16.2055480
  12.0024015  64.5465548  15.1484234  11.4464132  64.0774775  15.4390443
   4.7237466  63.7496542  24.8075020   4.4656710  62.9168277  24.7806319
   4.7785949  63.9754155  23.9667520   4.6937244  63.6594313  24.6795156
   9.8038516  55.8524993  24.9079112   9.0994843  55.3634178  25.0663031
   9.8523490  55.8647467  24.0367557   9.7068568  55.7814641  24.8018452
   3.6972178  61.3034305  25.2939914   3.1221769  61.4626473  25.9303875
   3.3207854  60.6669714  24.8308365   3.5574990  61.2332118  25.3194473
   7.3645467  59.7757654  30.1532293   6.9759899  59.3511872  29.4984484
   6.7000165  60.0239804  30.6609319   7.2092394  59.7496375  30.1320161
  17.0068736  59.5332659  22.9280123  16.7505301  58.7212600  22.7378006
  17.8498050  59.5410226  22.7010310  17.0934761  59.4144656  22.8664940
  11.1871828  53.4732283  27.6656277  11.5682340  52.7910454  28.0524151
  10.3835112  53.1841885  27.4831941  11.1248290  53.3299331  27.6960333
   8.4684405  64.0056259  18.3509100   9.2825044  64.2971151  18.2391871
   8.4043546  63.3516121  17.7767393   8.5787144  63.9521453  18.2497937
  14.6893895  66.6882255  32.7638675  14.4532532  65.8570319  32.6450736
  15.3337124  66.6367862  33.3493520  14.7488566  66.5579943  32.8324569
   4.3392313  67.4777776  23.4781412   4.9766260  67.2389524  24.0233205
   4.7647385  67.6814935  22.7434572   4.4968479  67.4728786  23.4498569
   5.1463669  55.9786481  37.5318885   4.8317110  56.7486044  37.2688448
   4.8253601  55.4156737  36.9471112   5.0522588  56.0096750  37.4060235
  15.7130316  66.4726703  28.8266970  15.4076133  67.2054760  29.1880285
  14.9936531  66.0664633  28.5459756  15.5617658  66.5208436  28.8380107
   6.7213785  67.9550199  25.1575198   6.7952793  67.7925370  26.0117048
   7.5383291  68.1440388  24.9135680   6.8530144  67.9586941  25.2473224
  21.4132108  63.1119704  28.1535314  21.3456608  63.1315663  27.2837901
  21.3987770  63.9550031  28.3790985  21.4010864  63.2393439  28.0587791
   2.6995565  54.3677002  23.1465082   1.8317991  54.4399602  23.2122691
   2.9870770  55.1699081  23.3353057   2.6135314  54.4971150  23.1839848
  11.8228454  54.5154862  31.4776404  12.5682046  54.3264672  31.0639829
  11.4065759  55.0413100  30.9190260  11.8713428  54.5657007  31.3340977
  19.1990725  61.8864090  26.4281909  19.7498647  61.2532159  26.6679001
  19.1834840  62.4179483  27.1197413  19.2775921  61.8713038  26.5660767
   5.8513116  65.7202688  30.9741802   5.3524810  66.4318455  31.0526690
   6.6613340  66.0403354  30.9359964   5.8969223  65.8729536  30.9798370
   2.1141234  64.9825641  25.2204523   1.8254482  64.3563112  25.7550250
   2.9824582  64.9245928  25.2869203   2.2001485  64.8813185  25.3095477
  12.9019131  60.1260424  25.5386505  12.5583897  59.4050759  25.8893754
  13.0012174  59.9174275  24.6964863  12.8661174  59.9884627  25.4658185
  13.3632160  66.5886128  21.0810493  13.9290193  67.2479338  20.9969036
  12.7160064  66.9335826  21.5526895  13.3510917  66.7368069  21.1383249
   4.7780174  58.5783732  36.2704100   3.9679950  58.8841512  36.1593942
   5.2554861  59.2989314  36.3856684   4.7283653  58.7298333  36.2711171
   3.6371734  67.7929453  26.5187003   3.1152487  67.9329745  27.2038868
   4.0245754  67.0340117  26.7089121   3.6175434  67.7014977  26.6488080
   9.8338739  69.5324912  20.5047572   9.5925414  68.7992773  20.0974637
  10.0140071  70.0811769  19.8513905   9.8246362  69.5047303  20.3477795
   5.0638059  64.8233472  21.9168494   4.8680842  65.4308207  21.3228797
   5.2872405  64.1301416  21.4360168   5.0672700  64.8110998  21.7584575
   3.4616589  61.7088210  22.0349363   4.1839241  61.8729368  21.5753169
   2.9824582  62.4297875  21.9288702   3.4980320  61.8386440  21.9514977
  11.4210097  58.0452009  27.4146048  10.5821197  58.0713288  27.1784311
  11.4914464  58.6922744  27.9951394  11.3078490  58.1448135  27.4655164
   1.1124206  64.1146282  31.1403503   1.6245303  64.3930536  30.4912262
   0.8260548  64.8535576  31.5066316   1.1459069  64.2648636  31.0993381
   9.8679375  54.9437386  22.1473664  10.5705728  54.7445134  21.6693622
   9.6023564  54.1713328  22.4542507   9.9326007  54.8000352  22.1219105
  15.2967621  63.2519996  24.7007289  15.2101595  63.4075422  25.5542068
  14.8418100  63.8958071  24.3266694  15.2170877  63.3695751  24.7714396
   4.6307931  56.2072671  31.2004544   4.4391128  56.2227805  32.0503968
   5.4806527  56.4036345  31.1771199   4.7283653  56.2387022  31.3227839
   9.1693437  60.5730743  23.3232849   8.9228151  60.4926494  24.1569638
   9.4978560  59.7884210  23.1295376   9.1814680  60.4457008  23.4180372
  13.0641485  67.2814102  27.1119630  12.9255845  67.9795148  27.6168372
  12.2841483  67.1262758  26.7555812  12.9284712  67.3614269  27.1345904
  11.4019571  63.5810477  33.3642012  11.3967609  62.7090294  33.3684438
  12.1080564  63.7798646  32.8911468  11.5064575  63.4814351  33.2949047
   5.1290464  63.3087461  32.7355832   5.2733840  63.8888669  32.0998942
   5.4766112  63.6863758  33.4405687   5.2017925  63.4508165  32.7454827
   7.3010381  62.5077630  30.5180964   6.5533695  62.7008644  30.1129242
   7.4551906  61.6822849  30.2805085   7.2132809  62.4142741  30.4226369
  14.5594858  66.6392356  17.8736129  14.1801667  65.8529494  17.8665419
  13.8961104  67.1879213  17.7307774  14.4053333  66.6037180  17.8516926
   7.5412158  56.4028180  31.4076367   7.9984772  57.1352155  31.5349159
   7.6168487  55.9794646  32.1663623   7.6203128  56.4485418  31.5377444
  12.0139484  49.5818055  25.2770210  12.1323052  50.0394519  24.5437513
  11.8401660  48.7763317  24.9906428  12.0058655  49.5311828  25.1271144
   5.4194536  58.3930284  28.2518191   4.6290611  58.2121744  28.5735527
   5.8155159  57.6157237  28.2348486   5.3611412  58.2517745  28.2970740
  10.8038223  66.0272714  25.9777637  10.1283224  65.7957947  26.4791024
  10.8130599  65.4193897  25.3519742  10.7056727  65.9031640  25.9593789
   7.9332366  60.8690543  32.7341690   7.8691508  61.7300500  32.6061827
   8.0729554  60.5522537  31.9337242   7.9447837  60.9490710  32.5969903
  12.8054957  68.8837847  18.2087815  12.8874794  69.6904833  17.8849266
  13.2904699  68.9033806  18.9328589  12.8892115  69.0058509  18.2674714
   6.6151460  63.5622683  26.8757893   6.1913709  63.7627182  26.1396911
   6.4396316  62.7151531  26.9882193   6.5262341  63.4671464  26.7831583
   1.9033905  64.0574734  22.3085866   2.0598525  63.9921537  23.1641858
   2.2434498  64.8323287  22.0964545   1.9767140  64.1623932  22.4040460
   8.4413050  63.4332618  21.1779229   8.9828595  62.9302999  21.6417849
   8.7559609  63.3797812  20.3668714   8.5677447  63.3512039  21.1263041
  12.3130157  67.6435265  38.2906141  13.1265023  67.3720414  38.4511274
  12.1525124  67.3442805  37.4866337  12.4100106  67.5590191  38.1951547
   9.5902319  58.3268922  31.2301529   9.8044289  57.6879836  30.6764883
   8.9736219  58.7714746  30.8009391   9.5307649  58.2979066  31.0851960
  11.7541407  59.9357987  32.1684836  10.9418089  59.6283878  32.2498009
  12.2131342  59.4556988  32.7327549  11.7021792  59.8194480  32.2639431
  11.1646662  67.8137659  22.6161781  10.8061317  67.9852302  23.3925813
  10.6785373  68.2750865  22.0589779  11.0405359  67.9076630  22.6487050
   8.9817048  51.4368858  26.2188872   8.1110606  51.4107579  26.1722182
   9.2357389  51.2646050  25.4014718   8.8910608  51.4079002  26.0909009
   8.8494915  61.3418059  36.9513539   9.3194546  61.9660175  37.3381413
   8.8956795  60.6735034  37.5106753   8.9262791  61.3352739  37.0913610
   6.0066188  53.4475086  27.6762343   5.4904677  52.7555278  27.8013922
   5.4460117  54.1145863  27.6224941   5.8472702  53.4438344  27.6868409
   8.0758422  53.9868046  29.5055195   7.6890175  54.0117078  30.2868725
   7.5891359  53.4209725  29.0529712   7.9470931  53.9063797  29.5543099
  12.3251401  68.7041555  33.5628982  12.9631122  68.2101751  33.2291438
  11.6825493  68.6318956  32.9781208  12.3245628  68.6200564  33.4271337
  14.0508401  60.5530701  28.1294897  13.6236010  60.4657050  27.3742997
  13.4134454  60.6608477  28.7149741  13.8938009  60.5563361  28.1040339
   7.7415564  50.8735032  31.7965455   8.3708682  51.4095332  31.5186525
   7.9101426  50.7812391  32.6479021   7.8593358  50.9396394  31.8813983
   7.5429479  55.6606227  34.0691867   8.3702908  55.3891375  34.1250481
   7.5637325  56.4567068  34.4255685   7.6682329  55.7385981  34.1307049
  12.3805658  69.3961364  30.2034338  13.1698036  69.0450428  30.3236420
  12.5549256  70.2097752  29.9410972  12.5225940  69.4647221  30.1822206
   2.1198968  62.8070089  27.2562127   1.2786975  62.7073964  27.4641021
   2.3288976  63.5765570  27.6076448   2.0263661  62.9062133  27.3389442
  11.2339482  53.4070920  24.7650757  11.4389076  53.3393228  25.6107754
  10.9065906  54.2129742  24.6971934  11.2154730  53.5156861  24.8810412
   5.9315633  60.7351489  26.5059725   5.6278771  60.1807477  27.1070132
   5.2295054  60.9143698  26.0187759   5.7831843  60.6796271  26.5229430
   4.9881730  58.0452008  21.0704427   5.2641465  57.3270921  20.6581994
   5.5880400  58.6436928  20.8625533   5.1174995  58.0272379  20.9785188
  14.4873170  53.9602685  24.2453522  13.8747483  54.4473087  24.6307254
  14.5837345  53.2846175  24.7891173  14.4111067  53.9320993  24.3832380
   8.4892251  55.7165526  19.3451022   8.9435997  55.8876086  20.0698866
   8.9632297  55.1033636  18.9448797   8.6260571  55.6516411  19.3924783
   2.0107776  65.2013852  28.6753760   1.4195710  65.8423350  28.6456775
   2.7728800  65.6251469  28.6485060   2.0356037  65.3589690  28.6668907
   2.4068399  56.3615849  29.3421778   2.8669881  56.4354779  30.0796902
   2.4524506  57.1597103  28.9921599   2.4818954  56.4909996  29.3994534
   4.0551749  57.0282544  33.9093805   3.6637314  56.3815891  34.3449583
   4.2237612  57.6193980  34.5288060   4.0222659  57.0196812  34.0656511
  18.1298198  65.0319621  29.6731038  18.1881322  65.4806270  30.4191015
  17.4964665  65.4418434  29.2361118  18.0449493  65.1593356  29.7183587
   5.8305271  62.4208060  20.4496029   6.5747316  62.8082336  20.6878979
   5.9765967  61.5765485  20.6136517   5.9615856  62.3538533  20.5089999
   7.7484846  54.2158319  25.4827890   6.9020891  54.3881127  25.3569240
   7.7455979  53.4107663  25.8193719   7.6231996  54.1219348  25.5139017
   8.8183147  57.9933533  26.3489948   8.3443101  57.4675295  26.8595259
   9.1901283  57.4463006  25.7804810   8.8033036  57.8349530  26.3405095
  15.0819877  63.0535909  27.7596729  14.8418100  62.2142324  27.7639155
  15.5611884  63.1336076  28.4837502  15.1172061  62.9417309  27.8671531
  10.7466646  58.8870088  19.4115702  10.2189665  58.9698832  18.7221411
  11.2062355  59.6287959  19.4080347  10.7368497  59.0090750  19.3090397
  17.0825064  59.8337366  25.7125988  16.8434834  59.7933200  24.8746772
  17.2458966  60.6808518  25.8391709  17.0715368  59.9529451  25.6079470
  13.6871094  64.2187315  31.6431033  14.4105293  63.7659842  31.4642053
  13.4221057  64.4991981  30.8603361  13.7552368  64.1938284  31.5009748
   2.5557963  58.8147489  28.3783912   1.9311033  58.8265881  27.7709865
   2.2203558  59.2907664  29.0275152   2.4143455  58.8866006  28.3840481
  10.3003729  67.4573652  18.5425359  11.0237928  67.9231764  18.3989932
   9.8604320  67.5247261  17.7922956  10.3419421  67.5357488  18.4110140
   8.7086181  65.3875464  27.5270347   8.2813789  64.7625182  27.0935782
   8.7011125  65.1050386  28.3529354   8.6445322  65.2528244  27.5850174
   1.8248708  60.4240637  30.5958781   1.9842195  59.6683961  31.0010503
   1.6441602  60.9731576  31.2499518   1.8214067  60.3934451  30.7521487
   9.7669011  52.5901872  31.1509570   9.2709572  52.7865547  30.4601137
  10.5238073  52.9894541  30.9798372   9.8055836  52.6779606  31.0229707
   7.0371891  56.2644218  27.7412881   7.0614378  55.7304331  27.0525661
   7.2883364  55.7561527  28.4038471   7.0781809  56.1105122  27.7377525
   3.3173213  54.9915037  27.1218625   3.3571585  55.4924243  27.8353332
   2.4922878  55.0825430  26.8524548   3.2012739  55.0796853  27.1869163
   5.5002826  64.5575777  35.2238920   4.6498456  64.6947491  35.3596564
   5.6630954  63.8239555  35.6686621   5.3986689  64.4689878  35.3094519
   4.7387576  61.5075546  29.4192524   3.9079506  61.6749364  29.2127772
   4.6839094  61.1311497  30.2041409   4.6076991  61.4765278  29.5041052
   2.5471360  54.9984439  35.0548935   3.1724063  54.4546572  35.3278367
   2.0921840  54.5179357  34.4856725   2.5719620  54.8473921  35.0110528
   3.1123620  59.7831138  19.9482642   3.2526581  60.2803602  20.6511283
   3.6106153  59.0817432  20.0896855   3.2064701  59.7533117  20.0734221
  16.1206408  63.1813726  30.1461583  16.7124249  63.8210977  30.1779781
  16.5565403  62.4836763  30.4353650  16.2724840  63.1732077  30.1942415
   4.7202825  56.5812224  17.2520660   5.0418667  56.1015307  16.5979923
   4.9829769  57.3911870  17.0611472   4.8068851  56.6302122  17.1276153
   7.9499798  67.6031099  30.7719477   7.4424889  68.1566946  31.2160107
   7.6526444  67.6639389  29.9538251   7.8304683  67.6937410  30.7167933
  10.1161980  55.9684418  29.6144140  10.5417052  55.5156945  29.0027666
   9.5018974  55.4144489  29.8908927  10.0890626  55.8198395  29.5649165
   8.5556203  52.4399518  23.0234717   7.9124521  52.2897164  23.5919855
   8.2155610  52.1941863  22.2583821   8.4101281  52.3811641  22.9937732
  13.1455550  60.3958945  22.4464725  12.4746740  60.9388647  22.3177791
  13.8395300  60.8653800  22.2046420  13.1484417  60.5457216  22.3920253
  13.3083677  56.8514829  25.3555098  13.6611287  56.4244552  26.0300897
  12.4498479  56.7665672  25.4856175  13.2333122  56.7759569  25.4750109
   2.0067362  59.4822348  23.4137945   1.2879351  59.8986481  23.6810808
   2.3779725  60.0476587  22.8629583   1.9559294  59.6271630  23.3720752
  11.3066943  60.1150197  29.3039941  11.2864870  59.9333492  30.1574720
  11.3546144  60.9862216  29.2799524  11.3101584  60.2166735  29.4263235
   9.2513273  66.7037389  35.2288417   9.2109128  66.0587066  34.6433573
  10.0636591  66.6474007  35.5413829   9.3656426  66.5996356  35.1885366
   7.7813937  58.5220348  18.7511324   7.1878776  58.8437345  18.1995891
   7.8189214  57.6761444  18.5432431   7.6988326  58.4444676  18.6394096
  14.7407737  51.9733240  26.2839411  14.2338602  51.2662380  26.2160588
  15.5375171  51.6426429  26.4140487  14.7834977  51.8206392  26.2938406
  10.6571753  58.4799853  22.1813075  10.4285446  58.5032554  21.3391433
  10.9169829  57.6557320  22.3008085  10.6617941  58.3615933  22.0738272
   4.9390982  60.3334326  31.7838175   4.4269885  59.7255509  32.1423206
   4.7670478  61.0490918  32.2512151   4.8380619  60.3497625  31.9054399
   3.7116516  57.0176399  23.4767270   4.1873882  57.3793479  22.8417451
   3.2105115  57.6732867  23.7567413   3.7081875  57.1670588  23.4244011
  16.9427877  66.4898167  19.2680275  17.3261483  67.2389523  19.4978372
  16.1471991  66.7363987  19.0092264  16.8821659  66.6367861  19.2637849
   8.8160052  58.2558570  34.2240430   9.3731482  58.0272380  33.5918896
   8.4921117  59.0164236  33.9475643   8.8506462  58.3342407  34.0896928
   6.5343169  61.3426224  35.1892438   7.2854496  61.6577900  35.5031992
   6.7265746  61.1405395  34.3626359   6.6734583  61.3593605  35.1135833
   5.7543169  59.1617599  16.8440654   6.1342134  59.1797228  16.0591769
   5.0135765  59.6071588  16.7231502   5.7012007  59.2299373  16.7104222
  13.3828459  57.4699790  22.4316233  13.3822686  57.3148447  23.2900509
  13.1784639  58.3162777  22.3757619  13.3528237  57.5720411  22.5504172
  11.1069311  62.1497292  26.0852440  11.6022977  61.4320287  26.0456460
  10.2969087  61.8468089  25.9706927  11.0613205  61.9994938  26.0626166
  13.1721130  64.9000979  28.7729569  13.5976202  64.3775401  28.2199994
  12.8078050  65.4981817  28.2518192  13.1807733  64.9111206  28.6138578
   9.7599730  68.6135244  25.1030726  10.2310908  69.3275506  25.2720711
  10.0959908  68.0133994  25.6390596   9.8794845  68.6306708  25.2063102
  11.8476714  70.2236557  37.2822798  11.9573680  69.4345117  37.6379545
  12.1767611  70.1342493  36.4797136  11.9129120  70.0942410  37.2165189
   6.6769225  53.3862714  32.0588821   6.8097130  52.5893708  32.3869796
   7.0614377  53.9129117  32.6387096   6.7525554  53.3462631  32.1932324
  10.3973676  68.4053178  31.8658419   9.8494622  67.7811061  31.5978484
  10.8586705  68.5947450  31.1502498  10.3840886  68.3412228  31.7208850
   9.7501580  50.3093040  28.6569914   8.9447544  50.1990770  28.9737752
   9.6208315  50.4105496  27.7999780   9.6121713  50.3076710  28.5777955
  13.2067540  56.4738532  29.2509611  12.6230529  56.9747739  28.8387178
  13.5271834  55.9668088  28.6173934  13.1680716  56.4730367  29.0968118
   5.7462340  55.3879127  19.5268286   6.5678034  55.5577440  19.2849981
   5.2831990  55.5426388  18.8034583   5.7993502  55.4360860  19.3839930
   4.3357671  53.3821889  30.3066715   4.8802084  53.0413016  30.8971056
   4.3894607  54.2407351  30.4487999   4.4246791  53.4577149  30.4148588
   9.9632002  69.4104250  28.3967760  10.7830376  69.2667216  28.6584055
   9.6826080  70.0350449  28.9384198  10.0428746  69.4814602  28.5155699
  16.3621124  71.0023819  25.0853950  16.0324454  71.4534962  24.4157649
  15.6866126  70.9239982  25.6326956  16.2131561  71.0574954  25.0677173
  23.5697532  66.9909342  23.3303560  23.2550973  67.6812820  23.7623983
  23.0524474  66.9354124  22.6289061  23.4462003  67.0844230  23.2900510
  14.5677078  69.0636107  20.5676898  15.3223047  69.4314424  20.3293948
  14.3904613  69.4375662  21.3356077  14.6531557  69.1734295  20.6461786
  27.8611977  75.2130548  28.6124437  27.0240398  75.2832735  28.8472031
  27.8300208  75.2155043  27.7398739  27.7330260  75.2240775  28.5183985
  12.9234143  71.4706426  17.2655011  12.7409716  71.6878307  16.4396003
  13.7859756  71.5845439  17.3213625  13.0238733  71.5196324  17.1509498
  18.6033862  68.4732837  20.3004034  19.3320023  68.2948792  19.8542191
  18.6928755  69.3150917  20.5111213  18.7240524  68.5716715  20.2657552
  25.5419817  70.2773329  27.1968159  26.1845725  70.3471434  27.7830075
  25.7942838  69.6102552  26.6947701  25.6741949  70.1899678  27.2095438
  20.7771100  71.3710301  24.9079112  20.0727426  70.8819486  25.0663031
  20.8256074  71.3832775  24.0367557  20.6801151  71.2999949  24.8018452
  27.9801319  75.0517967  22.9280123  27.7237884  74.2397908  22.7378006
  28.8230633  75.0595534  22.7010310  28.0667345  74.9329964  22.8664940
  22.1604412  68.9917591  27.6656277  22.5414923  68.3095762  28.0524151
  21.3567696  68.7027193  27.4831941  22.0980873  68.8484639  27.6960333
  16.1196252  71.4971789  37.5318885  15.8049693  72.2671352  37.2688448
  15.7986185  70.9342045  36.9471112  16.0255171  71.5282058  37.4060235
  13.6728149  69.8862310  23.1465082  12.8050575  69.9584910  23.2122691
  13.9603353  70.6884389  23.3353057  13.5867897  70.0156457  23.1839848
  22.7961038  70.0340170  31.4776404  23.5414630  69.8449980  31.0639829
  22.3798342  70.5598408  30.9190260  22.8446012  70.0842315  31.3340977
  23.8751715  75.6445732  25.5386505  23.5316481  74.9236067  25.8893754
  23.9744757  75.4359583  24.6964863  23.8393758  75.5069935  25.4658185
  22.3942680  73.5637317  27.4146048  21.5553781  73.5898596  27.1784311
  22.4647048  74.2108052  27.9951394  22.2811074  73.6633442  27.4655164
  20.8411959  70.4622694  22.1473664  21.5438311  70.2630442  21.6693622
  20.5756147  69.6898636  22.4542507  20.9058591  70.3185660  22.1219105
  15.6040515  71.7257979  31.2004544  15.4123712  71.7413113  32.0503968
  16.4539111  71.9221653  31.1771199  15.7016237  71.7572330  31.3227839
  18.5144742  71.9213488  31.4076367  18.9717356  72.6537463  31.5349159
  18.5901071  71.4979953  32.1663623  18.5935712  71.9670726  31.5377444
  22.9872068  65.1003363  25.2770210  23.1055636  65.5579827  24.5437513
  22.8134244  64.2948625  24.9906428  22.9791239  65.0497136  25.1271144
  19.9549632  66.9554166  26.2188872  19.0843190  66.9292887  26.1722182
  20.2089973  66.7831358  25.4014718  19.8643192  66.9264310  26.0909009
  16.9798772  68.9660394  27.6762343  16.4637261  68.2740586  27.8013922
  16.4192701  69.6331171  27.6224941  16.8205285  68.9623652  27.6868409
  19.0491006  69.5053354  29.5055195  18.6622759  69.5302386  30.2868725
  18.5623943  68.9395033  29.0529712  18.9203514  69.4249105  29.5543099
  18.7148147  66.3920340  31.7965455  19.3441265  66.9280640  31.5186525
  18.8834010  66.2997699  32.6479021  18.8325942  66.4581702  31.8813983
  18.5162062  71.1791534  34.0691867  19.3435491  70.9076683  34.1250481
  18.5369908  71.9752376  34.4255685  18.6414912  71.2571289  34.1307049
  22.2072066  68.9256228  24.7650757  22.4121659  68.8578536  25.6107754
  21.8798490  69.7315049  24.6971934  22.1887314  69.0342169  24.8810412
  25.4605753  69.4787993  24.2453522  24.8480067  69.9658395  24.6307254
  25.5569928  68.8031483  24.7891173  25.3843651  69.4506301  24.3832380
  19.4624834  71.2350834  19.3451022  19.9168581  71.4061394  20.0698866
  19.9364880  70.6218944  18.9448797  19.5993155  71.1701719  19.3924783
  18.7217430  69.7343627  25.4827890  17.8753475  69.9066435  25.3569240
  18.7188562  68.9292971  25.8193719  18.5964580  69.6404656  25.5139017
  19.7915730  73.5118841  26.3489948  19.3175685  72.9860603  26.8595259
  20.1633866  72.9648314  25.7804810  19.7765619  73.3534838  26.3405095
  28.0557648  75.3522674  25.7125988  27.8167418  75.3118508  24.8746772
  28.2191549  76.1993826  25.8391709  28.0447951  75.4714759  25.6079470
  20.7401595  68.1087180  31.1509570  20.2442156  68.3050855  30.4601137
  21.4970657  68.5079849  30.9798372  20.7788419  68.1964914  31.0229707
  18.0104474  71.7829526  27.7412881  18.0346962  71.2489639  27.0525661
  18.2615948  71.2746835  28.4038471  18.0514393  71.6290430  27.7377525
  14.2905797  70.5100345  27.1218625  14.3304168  71.0109551  27.8353332
  13.4655461  70.6010738  26.8524548  14.1745323  70.5982161  27.1869163
  13.5203943  70.5169747  35.0548935  14.1456647  69.9731880  35.3278367
  13.0654423  70.0364665  34.4856725  13.5452204  70.3659229  35.0110528
  21.0894564  71.4869726  29.6144140  21.5149636  71.0342253  29.0027666
  20.4751557  70.9329797  29.8908927  21.0623209  71.3383702  29.5649165
  19.5288787  67.9584826  23.0234717  18.8857105  67.8082472  23.5919855
  19.1888194  67.7127171  22.2583821  19.3833864  67.8996949  22.9937732
  24.2816261  72.3700137  25.3555098  24.6343871  71.9429859  26.0300897
  23.4231062  72.2850980  25.4856175  24.2065705  72.2944877  25.4750109
  25.7140321  67.4918548  26.2839411  25.2071186  66.7847688  26.2160588
  26.5107755  67.1611737  26.4140487  25.7567560  67.3391700  26.2938406
  21.6304337  73.9985161  22.1813075  21.4018030  74.0217862  21.3391433
  21.8902413  73.1742628  22.3008085  21.6350525  73.8801241  22.0738272
  24.3561043  72.9885098  22.4316233  24.3555269  72.8333754  23.2900509
  24.1517223  73.8348085  22.3757619  24.3260821  73.0905719  22.5504172
  17.6501808  68.9048022  32.0588821  17.7829714  68.1079015  32.3869796
  18.0346961  69.4314425  32.6387096  17.7258137  68.8647939  32.1932324
  20.7234163  65.8278348  28.6569914  19.9180127  65.7176078  28.9737752
  20.5940899  65.9290804  27.7999780  20.5854296  65.8262018  28.5777955
  24.1800124  71.9923840  29.2509611  23.5963113  72.4933047  28.8387178
  24.5004418  71.4853396  28.6173934  24.1413299  71.9915675  29.0968118
  16.7194923  70.9064435  19.5268286  17.5410617  71.0762748  19.2849981
  16.2564574  71.0611696  18.8034583  16.7726085  70.9546168  19.3839930
  15.3090255  68.9007197  30.3066715  15.8534668  68.5598324  30.8971056
  15.3627191  69.7592659  30.4487999  15.3979374  68.9762456  30.4148588
   0.6924711  28.3238794  22.6564070   1.3991478  27.8290825  22.7851004
   0.8812646  28.7647876  21.9266728   0.8252617  28.3157144  22.5673115
   3.4112135  28.1075078  19.6978722   3.1750773  27.2763143  19.5790783
   4.0555364  28.0560685  20.2833566   3.4706806  27.9772766  19.7664616
   4.4348556  27.8919527  15.7607017   4.1294373  28.6247584  16.1220332
   3.7154772  27.4857456  15.4799803   4.2835898  27.9401260  15.7720154
  10.1350348  24.5312527  15.0875361  10.0674848  24.5508486  14.2177947
  10.1206011  25.3742855  15.3131031  10.1229105  24.6586262  14.9927838
   1.0348398  29.0628088  25.2246188   1.8483263  28.7913237  25.3851320
   0.8743364  28.7635628  24.4206384   1.1318346  28.9783014  25.1291594
   1.1023898  30.8154187  17.1374385   1.8916276  30.4643252  17.2576467
   1.2767496  31.6290575  16.8751019   1.2444180  30.8840044  17.1162253
   6.8516438  26.4512445  16.6071085   6.9099562  26.8999093  17.3531062
   6.2182906  26.8611257  16.1701165   6.7667733  26.5786179  16.6523634
   2.4089335  25.6380139  18.5771080   3.1323534  25.1852665  18.3982100
   2.1439297  25.9184804  17.7943408   2.4770608  25.6131107  18.4349795
   4.8424649  24.6006550  17.0801629   5.4342489  25.2403800  17.1119828
   5.2783643  23.9029586  17.3693696   4.9943080  24.5924900  17.1282462
   1.8939371  26.3193803  15.7069615   2.3194442  25.7968224  15.1540040
   1.5296291  26.9174640  15.1858238   1.9025973  26.3304030  15.5478625
   0.5694955  31.6429380  24.2162845   0.6791920  30.8537941  24.5719592
   0.8985851  31.5535316  23.4137183   0.6347360  31.5135233  24.1505236
  15.1563893  38.4861925   8.2950683  15.1257897  39.3406562   8.4668952
  15.7545242  38.1857218   8.8536827  15.2401051  38.5678422   8.4025485
   8.3563578  37.5737576  13.0503613   7.5001473  37.7346075  13.1012730
   8.4031232  36.7029640  13.0708675   8.2362689  37.4688378  13.0609680
  11.6657294  43.8424102  22.6564070  12.3724062  43.3476133  22.7851004
  11.8545230  44.2833183  21.9266728  11.7985200  43.8342452  22.5673115
   7.7333969  49.4839932  10.1837504   8.1173348  50.0526831   9.6442279
   7.6693110  48.7589443   9.7043320   7.7807396  49.4615396  10.0331366
  11.2015399  39.6329620  15.6935265  11.7471359  40.3114707  15.7529235
  11.1432275  39.4917081  14.8336847  11.2731313  39.7121622  15.5747326
   4.3189474  47.1218686  11.0803618   4.4199837  46.3119040  11.3900745
   3.7231219  47.0275633  10.4503296   4.2462012  46.9883714  11.0329856
  12.9780468  41.0614227   6.5668993  12.8619994  41.8121913   6.9961131
  13.7736354  40.8038181   6.8165080  13.0785057  41.1349074   6.6673085
   4.1590213  52.0396276  12.4818474   4.8027669  52.4809440  12.8714632
   4.4846469  51.2349702  12.3948732   4.3022042  51.9861470  12.5263951
   6.9112501  37.0524245   7.9372722   7.6092666  37.2312373   8.4294185
   7.2264834  36.5294585   7.3143111   7.0607838  37.0018017   7.9174732
   7.1000437  43.4394690   7.9252513   7.5394072  42.8311791   8.3707286
   6.9505099  43.0602064   7.1537979   7.1421902  43.2933161   7.8771681
   4.5672080  42.0338702  15.1271339   5.2121082  41.5411145  14.8082288
   4.8073857  42.1763489  15.9537417   4.6982665  41.9816144  15.2020872
   7.1058171  44.8793608  14.7778232   7.3881414  44.0845014  14.5564987
   7.8344331  45.3574196  14.7983293   7.2547735  44.8328205  14.7481247
   5.0839365  32.4216642  12.0193997   4.7542695  32.8727786  11.3497695
   4.4084367  32.3432805  12.5667003   4.9349801  32.4767777  12.0017220
  10.7009773  41.7921872   4.8783283  10.6161068  42.6482838   5.0232852
  11.1894156  41.5166196   5.5465442  10.7598670  41.8779193   4.9985364
  11.6328206  38.4106666   6.3781018  11.1039678  38.6266299   7.0378324
  12.1553226  39.1042804   6.2981987  11.6316659  38.5449803   6.4636617
  17.0876259  43.9852970  11.7514062  16.2573962  44.1963614  11.9147479
  17.0385512  43.1590025  11.4756346  16.9582995  43.8942577  11.7351428
   5.1485997  46.8156824  14.5861972   4.6312938  46.4564239  13.9823280
   5.8460388  46.2918999  14.5968038   5.1751578  46.6854512  14.4992231
   8.8049589  47.2651639  20.5478145   8.8932935  47.0777779  21.3956355
   9.2339301  46.6189068  20.1482992   8.8811691  47.1414646  20.6149896
   6.3720049  46.5482798  19.5295807   5.8090883  46.1355408  20.0535468
   7.1341072  46.4735704  19.9488950   6.4014497  46.4760199  19.6688807
   1.9316040  48.5380820  12.1332437   2.6336619  48.0232809  12.1905194
   1.8513523  48.8654971  12.9379312   2.0239801  48.5095046  12.2605229
  16.5830218  36.6323371  15.5464484  15.7458639  36.7025558  15.7812078
  16.5518449  36.6347866  14.6738786  16.4548500  36.6433598  15.4524032
   2.9794947  38.7756407  21.2612852   3.1515450  38.6662301  22.1098134
   3.5164304  39.4210812  21.0244045   3.0839951  38.8548408  21.3517949
   1.2566815  44.7287172  11.6418045   2.0955715  44.9610104  11.6891807
   1.2878585  43.8591483  11.5725081   1.3848533  44.6344118  11.6382690
   1.8819518  45.1488047  15.9431351   2.4217743  45.0059178  16.6134723
   1.1989465  45.5484798  16.3115377   1.8611672  45.1867718  16.0965773
  11.3060403  40.8279047  11.1376375  12.0617918  41.2610562  11.1765284
  11.4122728  40.1783817  11.7111011  11.4330574  40.7956531  11.2274401
  14.3440574  44.6552325  11.8878778  13.9075806  44.6589067  12.6437750
  14.0103490  45.3357824  11.4558356  14.2303194  44.7564780  11.9359611
   8.9169648  46.6960658  23.2121928   9.7010065  46.8091505  23.5777671
   8.7166243  45.8701795  23.4080614   9.0035673  46.5907377  23.2956314
  14.2638057  31.6966153  14.1308206  14.9063966  31.7664257  14.7170121
  14.5161078  31.0295375  13.6287748  14.3960190  31.6092501  14.1435485
   2.0355270  34.9066716  18.7432780   1.3427067  34.4363696  18.9893512
   2.6515597  34.6805020  19.3174487   2.0239800  34.8033848  18.8641933
   9.0740041  48.6070760  16.8588384   8.2755287  48.3670260  17.1162253
   9.5226053  48.6585152  17.6055432   9.0214653  48.5793151  17.0073308
  17.4784921  41.3733245  10.7798415  18.1401355  40.8123913  10.6794324
  16.8376333  40.8785275  11.1051107  17.4813788  41.2169654  10.8130756
  13.7649751  42.3898627  10.5210404  14.0005341  42.5343826   9.6937255
  13.9139315  43.1541035  10.9141918  13.8215555  42.5237681  10.4574008
   0.7595829  38.8732120  19.8859625   1.4835801  38.8585151  20.3724520
   0.8611965  39.5827475  19.3881593   0.8814038  38.9756823  19.8838412
  15.5940208  41.2300293   8.3580008  15.9248425  41.7627933   7.7520103
  16.1673296  41.2839181   9.0141959  15.7273887  41.3169862   8.3657790
   8.1340778  42.3531204  24.7508572   7.3413759  42.6674716  24.9361192
   8.2489705  42.5682673  23.9129357   8.0336189  42.4315041  24.6546907
  10.8072097  39.0765196   9.0403588  10.9018952  39.8154490   9.4943214
  10.1830941  38.6482671   9.4738153  10.7281127  39.1226516   9.1711736
   9.0624571  42.2551408  19.6893869   9.6363433  41.6178652  19.8442433
   8.9839375  42.2555491  18.8203527   9.1357806  42.1616520  19.5840280
   4.4188290  40.6874673  11.7415066   4.1607534  39.8546408  11.7146366
   4.4736773  40.9132286  10.9007567   4.3888068  40.5972445  11.6135203
   9.4989340  32.7903124  11.8419159   8.7945667  32.3012310  12.0003078
   9.5474314  32.8025598  10.9707603   9.4019391  32.7192772  11.7358499
   3.3923002  38.2412436  12.2279961   2.8172593  38.4004604  12.8643922
   3.0158678  37.6047845  11.7648412   3.2525814  38.1710249  12.2534520
   7.0596291  36.7135785  17.0872340   6.6710723  36.2890003  16.4324531
   6.3950989  36.9617935  17.5949366   6.9043218  36.6874506  17.0660208
  16.7019560  36.4710790   9.8620170  16.4456124  35.6590731   9.6718052
  17.5448874  36.4788357   9.6350357  16.7885585  36.3522787   9.8004987
  10.8822652  30.4110414  14.5996324  11.2633164  29.7288585  14.9864198
  10.0785936  30.1220016  14.4171988  10.8199114  30.2677462  14.6300380
   8.1635229  40.9434390   5.2849147   8.9775868  41.2349282   5.1731918
   8.0994370  40.2894252   4.7107440   8.2737968  40.8899584   5.1837984
  14.3844719  43.6260386  19.6978722  14.1483356  42.7948451  19.5790783
  15.0287948  43.5745993  20.2833566  14.4439390  43.4958074  19.7664616
   4.0343137  44.4155907  10.4121459   4.6717084  44.1767655  10.9573252
   4.4598209  44.6193066   9.6774619   4.1919303  44.4106917  10.3838616
   4.8414492  32.9164612  24.4658932   4.5267934  33.6864175  24.2028495
   4.5204425  32.3534868  23.8811159   4.7473412  32.9474881  24.3400282
  15.4081140  43.4104835  15.7607017  15.1026957  44.1432891  16.1220332
  14.6887355  43.0042764  15.4799803  15.2568482  43.4586568  15.7720154
   6.4164609  44.8928330  12.0915245   6.4903617  44.7303502  12.9457095
   7.2334115  45.0818519  11.8475727   6.5480968  44.8965072  12.1813270
  21.1082932  40.0497835  15.0875361  21.0407432  40.0693794  14.2177947
  21.0938594  40.8928162  15.3131031  21.0961688  40.1771570  14.9927838
  11.5179278  31.4532993  18.4116450  12.2632870  31.2642803  17.9979876
  11.1016583  31.9791231  17.8530307  11.5664252  31.5035138  18.2681024
  18.8941549  38.8242221  13.3621955  19.4449471  38.1910291  13.6019047
  18.8785664  39.3557614  14.0537460  18.9726745  38.8091170  13.5000814
   5.5463940  42.6580819  17.9081849   5.0475634  43.3696586  17.9866737
   6.3564164  42.9781485  17.8700011   5.5920047  42.8107667  17.9138417
   1.8092058  41.9203772  12.1544570   1.5205306  41.2941243  12.6890297
   2.6775406  41.8624059  12.2209250   1.8952309  41.8191316  12.2435524
  12.5969955  37.0638555  12.4726552  12.2534721  36.3428890  12.8233801
  12.6962998  36.8552406  11.6304910  12.5611998  36.9262758  12.3998232
  13.0582984  43.5264259   8.0150540  13.6241017  44.1857469   7.9309083
  12.4110888  43.8713957   8.4866942  13.0461741  43.6746201   8.0723296
   4.4730998  35.5161863  23.2044147   3.6630774  35.8219643  23.0933989
   4.9505685  36.2367446  23.3196731   4.4234477  35.6676464  23.2051218
   3.3322557  44.7307584  13.4527050   2.8103311  44.8707876  14.1378915
   3.7196578  43.9718248  13.6429167   3.3126258  44.6393108  13.5828127
   9.5289562  46.4703043   7.4387619   9.2876238  45.7370904   7.0314684
   9.7090895  47.0189900   6.7853952   9.5197186  46.4425435   7.2817842
   4.7588883  41.7611603   8.8508541   4.5631666  42.3686338   8.2568844
   4.9823229  41.0679547   8.3700215   4.7623524  41.7489129   8.6924622
   3.1567413  38.6466341   8.9689410   3.8790065  38.8107499   8.5093216
   2.6775406  39.3676006   8.8628749   3.1931144  38.7764571   8.8855024
  11.1160921  34.9830140  14.3486094  10.2772021  35.0091419  14.1124358
  11.1865288  35.6300875  14.9291441  11.0029314  35.0826266  14.3995211
   9.5630199  31.8815517   9.0813710  10.2656552  31.6823265   8.6033669
   9.2974388  31.1091459   9.3882554   9.6276831  31.7378483   9.0559152
  14.9918445  40.1898127  11.6347336  14.9052419  40.3453553  12.4882115
  14.5368924  40.8336202  11.2606741  14.9121701  40.3073882  11.7054443
   4.3258755  33.1450802  18.1344591   4.1341952  33.1605937  18.9844014
   5.1757351  33.3414476  18.1111246   4.4234477  33.1765153  18.2567886
   8.8644261  37.5108874  10.2572896   8.6178975  37.4304625  11.0909685
   9.1929384  36.7262342  10.0635423   8.8765504  37.3835139  10.3520419
  12.7592309  44.2192233  14.0459677  12.6206669  44.9173279  14.5508419
  11.9792307  44.0640890  13.6895859  12.6235536  44.2992400  14.0685951
  11.0970395  40.5188608  20.2982059  11.0918433  39.6468425  20.3024485
  11.8031388  40.7176778  19.8251514  11.2015399  40.4192483  20.2289094
   4.8241288  40.2465592  19.6695879   4.9684664  40.8266801  19.0338989
   5.1716936  40.6241889  20.3745733   4.8968749  40.3886296  19.6794874
   6.9961205  39.4455761  17.4521010   6.2484519  39.6386775  17.0469288
   7.1502730  38.6200980  17.2145132   6.9083633  39.3520872  17.3566416
   3.8969043  48.4368364  16.5356906   4.0458607  47.8771280  15.8830310
   4.6769045  48.5160366  16.9189424   4.0343136  48.3653930  16.4953855
  14.2545682  43.5770487   4.8076176  13.8752491  42.7907625   4.8005466
  13.5911928  44.1257344   4.6647820  14.1004157  43.5415311   4.7856973
   6.4222343  48.6083007  17.8141396   6.3466015  47.9391818  18.3692185
   6.3512203  49.3100795  18.3282063   6.4002950  48.6127914  17.9718245
   7.2362982  33.3406311  18.3416414   7.6935596  34.0730286  18.4689206
   7.3119311  32.9172777  19.1003670   7.3153952  33.3863550  18.4717491
  11.7090308  26.5196187  12.2110257  11.8273876  26.9772650  11.4777560
  11.5352484  25.7141448  11.9246475  11.7009479  26.4689959  12.0611191
   7.0792590  47.1284006   8.6465002   7.8442482  46.8593650   8.3247667
   6.9770680  46.6434016   9.3635065   7.1774086  47.0173571   8.7044830
   5.1145360  35.3308415  15.1858238   4.3241435  35.1499875  15.5075574
   5.5105983  34.5535368  15.1688533   5.0562236  35.1895876  15.2310786
  10.4989046  42.9650846  12.9117684   9.8234048  42.7336078  13.4131071
  10.5081423  42.3572028  12.2859789  10.4007551  42.8409771  12.8933836
   7.6283190  37.8068675  19.6681737   7.5642332  38.6678631  19.5401874
   7.7680378  37.4900668  18.8677288   7.6398660  37.8868841  19.5309950
  12.5005781  45.8215978   5.1427862  12.5825618  46.6282964   4.8189313
  12.9855523  45.8411937   5.8668635  12.5842939  45.9436640   5.2014761
   6.3102284  40.5000814  13.8097940   5.8864533  40.7005313  13.0736958
   6.1347140  39.6529662  13.9222240   6.2213165  40.4049595  13.7171630
   5.8113978  52.0151327  16.2719397   6.3009908  51.3162116  16.0895062
   5.2398210  51.7175197  16.8595455   5.7998508  51.8677550  16.3320438
   1.5984729  40.9952865   9.2425912   1.7549348  40.9299668  10.0981905
   1.9385322  41.7701418   9.0304592   1.6717964  41.1002063   9.3380507
   8.1363874  40.3710749   8.1119276   8.6779419  39.8681130   8.5757896
   8.4510433  40.3175944   7.3008761   8.2628271  40.2890170   8.0603088
  12.0080981  44.5813396  25.2246188  12.8215847  44.3098545  25.3851320
  11.8475948  44.2820936  24.4206384  12.1050930  44.4968322  25.1291594
   9.2853143  35.2647053  18.1641576   9.4995113  34.6257968  17.6104930
   8.6687042  35.7092877  17.7349438   9.2258473  35.2357197  18.0192007
  10.6957811  48.1865802   9.6095797  10.3037603  47.8832517   8.8918663
  10.8510883  49.0234892   9.4200751  10.6611401  48.2649638   9.4752294
  11.4492231  36.8736119  19.1024883  10.6368913  36.5662009  19.1838056
  11.9082166  36.3935119  19.6667595  11.3972616  36.7572611  19.1979477
  10.8597486  44.7515791   9.5501828  10.5012141  44.9230433  10.3265860
  10.3736197  45.2128996   8.9929826  10.7356183  44.8454762   9.5827097
   8.6767872  28.3746989  13.1528919   7.8061430  28.3485710  13.1062228
   8.9308213  28.2024181  12.3354765   8.5861432  28.3457133  13.0249056
   8.5445739  38.2796190  23.8853586   9.0145370  38.9038306  24.2721460
   8.5907619  37.6113166  24.4446800   8.6213615  38.2730870  24.0253657
   5.7017012  30.3853217  14.6102389   5.1855501  29.6933409  14.7353968
   5.1410941  31.0523995  14.5564988   5.5423526  30.3816475  14.6208455
   7.7709246  30.9246177  16.4395242   7.3840999  30.9495209  17.2208772
   7.2842183  30.3587856  15.9869759   7.6421755  30.8441928  16.4883146
  12.0202225  45.6419686  20.4969028  12.6581946  45.1479882  20.1631485
  11.3776317  45.5697087  19.9121255  12.0196452  45.5578695  20.3611383
  13.7459225  37.4908832  15.0634944  13.3186833  37.4035181  14.3083044
  13.1085278  37.5986608  15.6489788  13.5888833  37.4941492  15.0380386
   7.4366388  27.8113163  18.7305502   8.0659506  28.3473463  18.4526572
   7.6052250  27.7190522  19.5819067   7.5544182  27.8774525  18.8154030
   7.2380302  32.5984358  21.0031913   8.0653732  32.3269507  21.0590528
   7.2588149  33.3945199  21.3595732   7.3633153  32.6764112  21.0647096
  12.0756482  46.3339495  17.1374385  12.8648860  45.9828559  17.2576467
  12.2500080  47.1475883  16.8751019  12.2176764  46.4025352  17.1162253
   1.8149792  39.7448220  14.1902174   0.9737799  39.6452095  14.3981068
   2.0239800  40.5143701  14.5416495   1.7214485  39.8440264  14.2729489
  10.9290306  30.3449051  11.6990804  11.1339899  30.2771359  12.5447801
  10.6016730  31.1507873  11.6311981  10.9105554  30.4534992  11.8150459
   5.6266457  37.6729620  13.4399772   5.3229595  37.1185608  14.0410179
   4.9245878  37.8521830  12.9527806   5.4782667  37.6174402  13.4569477
   3.6884808  44.8879340  18.1471869   3.5805163  44.8981403  19.0133927
   3.8980590  45.7134121  17.9576823   3.7034919  45.0120415  18.2475961
  14.1823994  30.8980816  11.1793569  13.5698307  31.3851218  11.5647301
  14.2788169  30.2224307  11.7231220  14.1061891  30.8699124  11.3172427
   1.7058600  42.1391983  15.6093807   1.1146533  42.7801481  15.5796822
   2.4679624  42.5629600  15.5825106   1.7306861  42.2967821  15.6008954
   2.1019223  33.2993981  16.2761825   2.5620705  33.3732910  17.0136948
   2.1475330  34.0975235  15.9261646   2.1769778  33.4288128  16.3334581
   3.7502573  33.9660675  20.8433852   3.3588138  33.3194023  21.2789629
   3.9188435  34.5572111  21.4628107   3.7173483  33.9574943  20.9996558
  17.8249022  41.9697752  16.6071085  17.8832145  42.4184401  17.3531062
  17.1915489  42.3796565  16.1701165  17.7400317  42.0971487  16.6523634
  11.4648116  47.5901294  13.0425831  11.2667805  48.0792109  12.3482043
  10.8435827  47.7942536  13.6209965  11.3435681  47.6917833  13.0249055
   5.5256095  39.3586191   7.3836076   6.2698140  39.7460468   7.6219026
   5.6716791  38.5143617   7.5476563   5.6566680  39.2916664   7.4430045
   7.4435670  31.1536450  12.4167937   6.5971715  31.3259258  12.2909287
   7.4406803  30.3485794  12.7533765   7.3182820  31.0597479  12.4479064
   8.5133971  34.9311665  13.2829995   8.0393925  34.4053427  13.7935306
   8.8852106  34.3841137  12.7144857   8.4983860  34.7727661  13.2745142
  14.7770701  39.9914040  14.6936776  14.5368924  39.1520455  14.6979202
  15.2562708  40.0714207  15.4177549  14.8122885  39.8795440  14.8011578
  16.7775888  36.7715497  12.6466035  16.5385658  36.7311332  11.8086819
  16.9409790  37.6186649  12.7731756  16.7666192  36.8907582  12.5419517
  13.3821918  41.1565447  18.5771080  14.1056117  40.7037973  18.3982100
  13.1171881  41.4370112  17.7943408  13.4503192  41.1316415  18.4349795
   2.2508787  35.7525620  15.3123959   1.6261857  35.7644012  14.7049912
   1.9154382  36.2285795  15.9615199   2.1094279  35.8244137  15.3180527
   9.9954553  44.3951783   5.4765406  10.7188752  44.8609896   5.3329979
   9.5555144  44.4625392   4.7263003  10.0370245  44.4735619   5.3450187
   9.1640708  41.2549325  16.7266095   8.5497701  40.7107375  17.0214730
   9.6807993  40.7413561  16.2471911   9.1496370  41.0985734  16.6990323
   8.4037005  42.3253595  14.4610393   7.9764613  41.7003314  14.0275829
   8.3961949  42.0428517  15.2869401   8.3396146  42.1906376  14.5190221
   1.5199532  37.3618768  17.5298827   1.6793019  36.6062092  17.9350549
   1.3392426  37.9109708  18.1839565   1.5164891  37.3312582  17.6861533
   9.4619835  29.5280004  18.0849617   8.9660396  29.7243678  17.3941184
  10.2188897  29.9272672  17.9138419   9.5006660  29.6157737  17.9569754
   6.7322715  33.2022349  14.6752927   6.7565202  32.6682462  13.9865707
   6.9834188  32.6939658  15.3378518   6.7732633  33.0483253  14.6717572
   3.0124037  31.9293168  14.0558672   3.0522409  32.4302374  14.7693379
   2.1873702  32.0203561  13.7864595   2.8963563  32.0174984  14.1209210
   5.1953650  41.4953908  22.1578966   4.3449280  41.6325622  22.2936611
   5.3581778  40.7617686  22.6026668   5.0937513  41.4068009  22.2434566
   4.4338400  38.4453678  16.3532571   3.6030330  38.6127496  16.1467819
   4.3789918  38.0689628  17.1381456   4.3027815  38.4143409  16.4381099
   2.2422184  31.9362571  21.9888982   2.8674887  31.3924703  22.2618414
   1.7872664  31.4557488  21.4196772   2.2670444  31.7852052  21.9450575
  15.8157232  40.1191858  17.0801629  16.4075073  40.7589108  17.1119828
  16.2516227  39.4214894  17.3693696  15.9675664  40.1110208  17.1282462
   7.6450622  44.5409230  17.7059523   7.1375713  45.0945077  18.1500154
   7.3477268  44.6017520  16.8878298   7.5255507  44.6315541  17.6507980
   9.8112804  32.9062550  16.5484186  10.2367876  32.4535076  15.9367713
   9.1969798  32.3522620  16.8248974   9.7841450  32.7576526  16.4989212
  12.8406374  37.3337076   9.3804772  12.1697564  37.8766778   9.2517838
  13.5346124  37.8031931   9.1386467  12.8435241  37.4835347   9.3260300
   6.8893107  49.4733788  14.6116530   6.6658762  48.7152617  14.9800557
   6.4002951  49.5031809  13.8896970   6.7836556  49.3656013  14.5593271
  13.0034501  33.7892960  12.2895145  13.3562111  33.3622683  12.9640944
  12.1449303  33.7043803  12.4196222  12.9283946  33.7137700  12.4090156
   1.7018186  36.4200479  10.3477992   0.9830175  36.8364612  10.6150855
   2.0730548  36.9854718   9.7969630   1.6510118  36.5649761  10.3060799
  11.0017767  37.0528328  16.2379987  10.9815694  36.8711624  17.0914766
  11.0496968  37.9240347  16.2139571  11.0052408  37.1544867  16.3603282
   8.9464097  43.6415520  22.1628464   8.9059952  42.9965197  21.5773620
   9.7587415  43.5852138  22.4753876   9.0607250  43.5374487  22.1225413
   5.5371564  49.6934246  12.0653615   5.1231963  49.0308376  11.6757457
   6.2218939  49.8412105  11.5449309   5.5769936  49.6174904  11.9310112
   8.9036859  48.8524332  12.8177231   8.5053142  48.9626602  12.0498052
   8.2888078  49.0606398  13.4003791   8.7535748  48.8997900  12.7908531
  14.4358561  28.9111372  13.2179458  13.9289426  28.2040511  13.1500635
  15.2325995  28.5804560  13.3480534  14.4785800  28.7584523  13.2278453
  10.3522577  35.4177984   9.1153121  10.1236270  35.4410685   8.2731480
  10.6120653  34.5935451   9.2348132  10.3568765  35.2994064   9.0078319
   4.6341806  37.2712457  18.7178222   4.1220709  36.6633640  19.0763253
   4.4621302  37.9869049  19.1852197   4.5331443  37.2875756  18.8394445
   3.4067340  33.9554530  10.4107317   3.8824706  34.3171610   9.7757498
   2.9055939  34.6110998  10.6907460   3.4032699  34.1048719  10.3584058
  16.6378701  43.4276298   6.2020322  17.0212307  44.1767654   6.4318419
  15.8422815  43.6742118   5.9432311  16.5772483  43.5745992   6.1977896
   8.5110876  35.1936702  21.1580477   9.0682306  34.9650511  20.5258943
   8.1871941  35.9542367  20.8815690   8.5457286  35.2720538  21.0236974
   6.2293993  38.2804355  22.1232484   6.9805320  38.5956032  22.4372039
   6.4216570  38.0783526  21.2966406   6.3685407  38.2971737  22.0475880
  13.0779283  34.4077921   9.3656280  13.0773510  34.2526578  10.2240556
  12.8735463  35.2540908   9.3097665  13.0479061  34.5098542   9.4844219
  10.8020135  39.0875423  13.0192487  11.2973801  38.3698418  12.9796507
   9.9919911  38.7846221  12.9046974  10.7564029  38.9373069  12.9966212
  12.8671954  41.8379110  15.7069615  13.2927026  41.3153532  15.1540040
  12.5028874  42.4359948  15.1858238  12.8758557  41.8489337  15.5478625
   2.5026034  50.1343328  14.4666961   2.8172593  50.9479716  14.4744743
   2.9119447  49.7493547  15.1349120   2.6094132  50.1972030  14.5671053
   9.4550554  45.5513375  12.0370773   9.9261732  46.2653637  12.2060758
   9.7910732  44.9512125  12.5730642   9.5745669  45.5684839  12.1403149
  11.5427538  47.1614688  24.2162845  11.6524504  46.3723249  24.5719592
  11.8718435  47.0720624  23.4137183  11.6079944  47.0320541  24.1505236
   6.3720049  30.3240845  18.9928868   6.5047954  29.5271839  19.3209843
   6.7565201  30.8507248  19.5727143   6.4476377  30.2840762  19.1272371
  10.0924500  45.3431309  18.7998466   9.5445446  44.7189192  18.5318531
  10.5537529  45.5325581  18.0842545  10.0791709  45.2790359  18.6548897
   9.4452404  27.2471171  15.5909961   8.6398368  27.1368901  15.9077799
   9.3159139  27.3483627  14.7339827   9.3072537  27.2454841  15.5118001
  12.9018364  33.4116663  16.1849658  12.3181353  33.9125870  15.7727225
  13.2222658  32.9046220  15.5513981  12.8631540  33.4108498  16.0308165
   4.0308495  30.3200020  17.2406761   4.5752908  29.9791147  17.8311103
   4.0845431  31.1785482  17.3828046   4.1197615  30.3955280  17.3488635
   9.6582826  46.3482382  15.3307807  10.4781200  46.2045348  15.5924102
   9.3776904  46.9728580  15.8724245   9.7379570  46.4192734  15.4495746
  26.1296477  54.0047233   8.2950683  26.0990481  54.8591870   8.4668952
  26.7277825  53.7042526   8.8536827  26.2133635  54.0863730   8.4025485
  19.3296162  53.0922884  13.0503613  18.4734057  53.2531383  13.1012730
  19.3763815  52.2214948  13.0708675  19.2095273  52.9873686  13.0609680
  18.7066552  65.0025240  10.1837504  19.0905932  65.5712139   9.6442279
  18.6425694  64.2774751   9.7043320  18.7539980  64.9800704  10.0331366
  22.1747983  55.1514928  15.6935265  22.7203943  55.8300015  15.7529235
  22.1164859  55.0102389  14.8336847  22.2463897  55.2306930  15.5747326
  15.2922057  62.6403994  11.0803618  15.3932420  61.8304348  11.3900745
  14.6963803  62.5460941  10.4503296  15.2194596  62.5069022  11.0329856
  23.9513051  56.5799535   6.5668993  23.8352577  57.3307221   6.9961131
  24.7468938  56.3223489   6.8165080  24.0517641  56.6534382   6.6673085
  15.1322797  67.5581583  12.4818474  15.7760252  67.9994748  12.8714632
  15.4579053  66.7535010  12.3948732  15.2754626  67.5046778  12.5263951
  10.7877189  50.8310011  13.6040259  10.1682221  50.2402659  13.4350274
  10.6861053  51.4221447  12.9704582  10.6814865  50.8314094  13.4845248
  17.8845085  52.5709553   7.9372722  18.5825249  52.7497681   8.4294185
  18.1997417  52.0479893   7.3143111  18.0340422  52.5203325   7.9174732
  10.5146322  54.3762293  15.8483828  10.3905019  54.9624739  16.4833647
  11.1664607  53.8822489  16.1496103  10.5919972  54.3901098  15.9869757
  18.0733020  58.9579998   7.9252513  18.5126656  58.3497099   8.3707286
  17.9237683  58.5787372   7.1537979  18.1154486  58.8118469   7.8771681
  15.5404663  57.5524010  15.1271339  16.1853666  57.0596453  14.8082288
  15.7806440  57.6948797  15.9537417  15.6715248  57.5001452  15.2020872
  18.0790755  60.3978916  14.7778232  18.3613997  59.6030322  14.5564987
  18.8076915  60.8759503  14.7983293  18.2280318  60.3513513  14.7481247
  16.0571948  47.9401950  12.0193997  15.7275278  48.3913094  11.3497695
  15.3816950  47.8618113  12.5667003  15.9082385  47.9953085  12.0017220
  21.6742357  57.3107180   4.8783283  21.5893652  58.1668146   5.0232852
  22.1626740  57.0351504   5.5465442  21.7331254  57.3964501   4.9985364
  23.2648356  43.9287473  10.2643607  22.9501797  44.6190951  10.6964030
  22.7475298  43.8732255   9.5629108  23.1412827  44.0222361  10.2240556
  22.6060790  53.9291974   6.3781018  22.0772261  54.1451607   7.0378324
  23.1285810  54.6228112   6.2981987  22.6049243  54.0635111   6.4636617
  28.0608843  59.5038278  11.7514062  27.2306546  59.7148922  11.9147479
  28.0118095  58.6775333  11.4756346  27.9315578  59.4127885  11.7351428
  16.1218580  62.3342132  14.5861972  15.6045522  61.9749547  13.9823280
  16.8192972  61.8104307  14.5968038  16.1484162  62.2039820  14.4992231
  19.7782172  62.7836946  20.5478145  19.8665518  62.5963087  21.3956355
  20.2071885  62.1374376  20.1482992  19.8544275  62.6599954  20.6149896
  17.3452632  62.0668106  19.5295807  16.7823467  61.6540716  20.0535468
  18.1073656  61.9921012  19.9488950  17.3747081  61.9945507  19.6688807
  18.9537612  54.0720843   3.6557406  19.1933616  54.2798826   2.8432750
  19.2753453  53.2678351   3.7646351  19.0374770  53.9834944   3.5517959
  14.2627902  46.0014238   7.5016944  15.0173870  46.3692555   7.2633995
  14.0855437  46.3753793   8.2696124  14.3482381  46.1112426   7.5801833
  12.9048624  64.0566128  12.1332437  13.6069203  63.5418117  12.1905194
  12.8246107  64.3840279  12.9379312  12.9972384  64.0280354  12.2605229
  27.5562801  52.1508679  15.5464484  26.7191222  52.2210866  15.7812078
  27.5251032  52.1533174  14.6738786  27.4281084  52.1618906  15.4524032
  13.9527530  54.2941714  21.2612852  14.1248034  54.1847609  22.1098134
  14.4896888  54.9396120  21.0244045  14.0572534  54.3733716  21.3517949
  12.6184967  48.4084557   4.1995057  12.4360540  48.6256438   3.3736050
  13.4810580  48.5223570   4.2553672  12.7189557  48.4574455   4.0849544
  12.2299399  60.2472480  11.6418045  13.0688298  60.4795412  11.6891807
  12.2611168  59.3776791  11.5725081  12.3581117  60.1529426  11.6382690
  12.8552102  60.6673355  15.9431351  13.3950327  60.5244486  16.6134723
  12.1722048  61.0670106  16.3115377  12.8344256  60.7053026  16.0965773
  18.2984686  45.4110968   7.2344081  19.0270847  45.2326923   6.7882237
  18.3879579  46.2529048   7.4451259  18.4191348  45.5094846   7.1997599
  22.2792987  56.3464355  11.1376375  23.0350502  56.7795870  11.1765284
  22.3855311  55.6969125  11.7111011  22.4063158  56.3141839  11.2274401
  25.3173158  60.1737633  11.8878778  24.8808390  60.1774375  12.6437750
  24.9836074  60.8543132  11.4558356  25.2035778  60.2750088  11.9359611
  19.8902232  62.2145965  23.2121928  20.6742648  62.3276813  23.5777671
  19.6898826  61.3887103  23.4080614  19.9768257  62.1092685  23.2956314
   8.2589247  56.8873646  16.0965772   7.9927662  56.0712762  16.2556763
   8.2727811  56.9326801  15.2261288   8.2213969  56.7730550  15.9919254
  25.2370641  47.2151460  14.1308206  25.8796549  47.2849565  14.7170121
  25.4893662  46.5480683  13.6287748  25.3692773  47.1277809  14.1435485
  13.0087854  50.4252024  18.7432780  12.3159650  49.9549004  18.9893512
  13.6248181  50.1990328  19.3174487  12.9972383  50.3219156  18.8641933
  20.0472625  64.1256067  16.8588384  19.2487871  63.8855568  17.1162253
  20.4958637  64.1770460  17.6055432  19.9947236  64.0978459  17.0073308
  28.4517504  56.8918553  10.7798415  29.1133938  56.3309221  10.6794324
  27.8108916  56.3970583  11.1051107  28.4546372  56.7354962  10.8130756
   8.6682661  57.6732425  13.3777517   8.4858234  57.6479311  12.5249809
   9.4032330  58.1431363  13.4166425   8.7496725  57.7393787  13.2575435
  24.7382335  57.9083935  10.5210404  24.9737924  58.0529134   9.6937255
  24.8871899  58.6726343  10.9141918  24.7948138  58.0422989  10.4574008
  11.7328412  54.3917428  19.8859625  12.4568385  54.3770458  20.3724520
  11.8344549  55.1012783  19.3881593  11.8546622  54.4942131  19.8838412
  26.5672792  56.7485601   8.3580008  26.8981009  57.2813241   7.7520103
  27.1405880  56.8024489   9.0141959  26.7006471  56.8355170   8.3657790
  19.1073362  57.8716512  24.7508572  18.3146343  58.1860024  24.9361192
  19.2222289  58.0867981  23.9129357  19.0068772  57.9500349  24.6546907
  21.7804681  54.5950504   9.0403588  21.8751535  55.3339798   9.4943214
  21.1563524  54.1667979   9.4738153  21.7013711  54.6411824   9.1711736
  20.0357155  57.7736716  19.6893869  20.6096016  57.1363960  19.8442433
  19.9571958  57.7740799  18.8203527  20.1090390  57.6801828  19.5840280
   8.6353571  54.5525926  13.5276583   9.2127074  54.4162376  14.1668829
   7.9367633  54.0961710  13.7822168   8.6174593  54.4648192  13.6598873
  22.0327702  56.4399243   2.2740540  21.9507865  56.5101430   3.1395527
  22.6707423  57.0028987   2.0824281  22.1147540  56.5338214   2.3730490
  15.3920873  56.2059981  11.7415066  15.1340118  55.3731716  11.7146366
  15.4469356  56.4317594  10.9007567  15.3620651  56.1157753  11.6135203
  20.4721923  48.3088432  11.8419159  19.7678250  47.8197617  12.0003078
  20.5206898  48.3210906  10.9707603  20.3751975  48.2378080  11.7358499
  14.3655585  53.7597744  12.2279961  13.7905177  53.9189912  12.8643922
  13.9891262  53.1233153  11.7648412  14.2258398  53.6895557  12.2534520
  18.0328874  52.2321093  17.0872340  17.6443307  51.8075311  16.4324531
  17.3683572  52.4803243  17.5949366  17.8775802  52.2059814  17.0660208
  27.6752143  51.9896098   9.8620170  27.4188708  51.1776039   9.6718052
  28.5181457  51.9973665   9.6350357  27.7618169  51.8708095   9.8004987
  21.8555236  45.9295722  14.5996324  22.2365747  45.2473893  14.9864198
  21.0518520  45.6405324  14.4171988  21.7931697  45.7862770  14.6300380
  19.1367812  56.4619698   5.2849147  19.9508451  56.7534590   5.1731918
  19.0726954  55.8079560   4.7107440  19.2470551  56.4084892   5.1837984
  25.3577303  59.1445694  19.6978722  25.1215940  58.3133759  19.5790783
  26.0020531  59.0931301  20.2833566  25.4171973  59.0143382  19.7664616
  15.0075721  59.9341215  10.4121459  15.6449668  59.6952963  10.9573252
  15.4330792  60.1378374   9.6774619  15.1651887  59.9292225  10.3838616
   9.6988363  62.1729552  14.2955762   9.7392508  62.4444403  13.4675542
  10.2582887  62.6971460  14.7113550   9.7871709  62.2905307  14.2347651
  15.8147076  48.4349920  24.4658932  15.5000517  49.2049483  24.2028495
  15.4937009  47.8720176  23.8811159  15.7205995  48.4660189  24.3400282
  26.3813723  58.9290143  15.7607017  26.0759540  59.6618199  16.1220332
  25.6619939  58.5228072  15.4799803  26.2301065  58.9771876  15.7720154
  17.3897193  60.4113638  12.0915245  17.4636201  60.2488810  12.9457095
  18.2066699  60.6003827  11.8475727  17.5213551  60.4150380  12.1813270
  32.0815515  55.5683143  15.0875361  32.0140016  55.5879102  14.2177947
  32.0671178  56.4113470  15.3131031  32.0694272  55.6956878  14.9927838
  13.3678973  46.8240442  10.0805129  12.5001398  46.8963041  10.1462738
  13.6554177  47.6262520  10.2693104  13.2818721  46.9534589  10.1179895
  22.4911862  46.9718301  18.4116450  23.2365454  46.7828111  17.9979876
  22.0749166  47.4976539  17.8530307  22.5396836  47.0220446  18.2681024
  29.8674133  54.3427529  13.3621955  30.4182054  53.7095598  13.6019047
  29.8518248  54.8742922  14.0537460  29.9459329  54.3276478  13.5000814
  16.5196523  58.1766127  17.9081849  16.0208217  58.8881894  17.9866737
  17.3296748  58.4966793  17.8700011  16.5652630  58.3292975  17.9138417
  12.7824641  57.4389080  12.1544570  12.4937890  56.8126551  12.6890297
  13.6507989  57.3809367  12.2209250  12.8684893  57.3376624  12.2435524
  23.5702539  52.5823863  12.4726552  23.2267305  51.8614198  12.8233801
  23.6695581  52.3737714  11.6304910  23.5344582  52.4448066  12.3998232
  24.0315568  59.0449567   8.0150540  24.5973601  59.7042777   7.9309083
  23.3843471  59.3899265   8.4866942  24.0194324  59.1931508   8.0723296
  15.4463581  51.0347171  23.2044147  14.6363357  51.3404951  23.0933989
  15.9238268  51.7552753  23.3196731  15.3967060  51.1861772  23.2051218
  14.3055141  60.2492892  13.4527050  13.7835895  60.3893184  14.1378915
  14.6929161  59.4903556  13.6429167  14.2858842  60.1578416  13.5828127
  11.2946325  50.2998701   7.5222005  11.0071121  49.9299971   6.7853952
  11.9816793  50.7693556   7.2605710  11.3535222  50.3145670   7.3737081
  20.5022146  61.9888351   7.4387619  20.2608822  61.2556212   7.0314684
  20.6823479  62.5375208   6.7853952  20.4929770  61.9610742   7.2817842
  15.7321467  57.2796911   8.8508541  15.5364249  57.8871646   8.2568844
  15.9555812  56.5864855   8.3700215  15.7356108  57.2674437   8.6924622
  14.1299997  54.1651649   8.9689410  14.8522649  54.3292807   8.5093216
  13.6507989  54.8861314   8.8628749  14.1663727  54.2949879   8.8855024
  22.0893504  50.5015448  14.3486094  21.2504605  50.5276727  14.1124358
  22.1597872  51.1486183  14.9291441  21.9761898  50.6011574  14.3995211
  11.7807613  56.5709721  18.0743549  12.2928710  56.8493975  17.4252309
  11.4943956  57.3099016  18.4406362  11.8142477  56.7212075  18.0333427
  20.5362783  47.4000825   9.0813710  21.2389135  47.2008573   8.6033669
  20.2706971  46.6276767   9.3882554  20.6009415  47.2563791   9.0559152
  25.9651028  55.7083435  11.6347336  25.8785003  55.8638861  12.4882115
  25.5101508  56.3521510  11.2606741  25.8854285  55.8259190  11.7054443
   8.8674520  51.0779913   8.3707286   8.9690656  51.8806075   8.6988261
   9.6630406  50.8767249   8.0730366   9.0002425  51.1665812   8.3742641
  15.2991339  48.6636110  18.1344591  15.1074536  48.6791244  18.9844014
  16.1489935  48.8599784  18.1111246  15.3967061  48.6950461  18.2567886
   9.6838252  51.1927092  16.1128407   9.5423744  50.3411032  16.2372915
   9.9678815  51.2355752  15.2890613   9.7046098  51.0726842  16.0096032
  19.8376844  53.0294182  10.2572896  19.5911558  52.9489933  11.0909685
  20.1661967  52.2447650  10.0635423  19.8498088  52.9020447  10.3520419
  23.7324893  59.7377541  14.0459677  23.5939252  60.4358587  14.5508419
  22.9524891  59.5826198  13.6895859  23.5968120  59.8177708  14.0685951
  22.0702978  56.0373916  20.2982059  22.0651017  55.1653733  20.3024485
  22.7763972  56.2362086  19.8251514  22.1747982  55.9377791  20.2289094
  15.7973871  55.7650900  19.6695879  15.9417247  56.3452108  19.0338989
  16.1449520  56.1427197  20.3745733  15.8701333  55.9071604  19.6794874
  17.9693789  54.9641069  17.4521010  17.2217103  55.1572083  17.0469288
  18.1235314  54.1386288  17.2145132  17.8816216  54.8706180  17.3566416
  14.8701626  63.9553672  16.5356906  15.0191190  63.3956588  15.8830310
  15.6501629  64.0345674  16.9189424  15.0075720  63.8839238  16.4953855
  25.2278266  59.0955795   4.8076176  24.8485075  58.3092933   4.8005466
  24.5644511  59.6442652   4.6647820  25.0736741  59.0600619   4.7856973
  17.3954927  64.1268315  17.8141396  17.3198598  63.4577126  18.3692185
  17.3244786  64.8286103  18.3282063  17.3735534  64.1313222  17.9718245
  18.2095566  48.8591619  18.3416414  18.6668180  49.5915594  18.4689206
  18.2851895  48.4358085  19.1003670  18.2886536  48.9048857  18.4717491
  10.4528557  49.1057439  19.4305858   9.9170747  48.4937797  19.7466625
  10.5146322  49.6805575  20.0839524  10.3824190  49.1004367  19.5741285
  22.6822892  42.0381495  12.2110257  22.8006460  42.4957958  11.4777560
  22.5085067  41.2326756  11.9246475  22.6742063  41.9875267  12.0611191
  18.0525174  62.6469314   8.6465002  18.8175065  62.3778958   8.3247667
  17.9503264  62.1619324   9.3635065  18.1506669  62.5358879   8.7044830
  16.0877944  50.8493723  15.1858238  15.2974018  50.6685183  15.5075574
  16.4838567  50.0720676  15.1688533  16.0294820  50.7081184  15.2310786
  21.4721630  58.4836153  12.9117684  20.7966632  58.2521386  13.4131071
  21.4814006  57.8757336  12.2859789  21.3740135  58.3595079  12.8933836
  18.6015774  53.3253982  19.6681737  18.5374915  54.1863939  19.5401874
  18.7412962  53.0085976  18.8677288  18.6131244  53.4054149  19.5309950
  23.4738365  61.3401286   5.1427862  23.5558202  62.1468272   4.8189313
  23.9588107  61.3597245   5.8668635  23.5575522  61.4621948   5.2014761
  17.2834868  56.0186122  13.8097940  16.8597117  56.2190621  13.0736958
  17.1079723  55.1714970  13.9222240  17.1945749  55.9234903  13.7171630
  16.7846561  67.5336635  16.2719397  17.2742492  66.8347424  16.0895062
  16.2130794  67.2360505  16.8595455  16.7731091  67.3862858  16.3320438
  12.5717313  56.5138173   9.2425912  12.7281932  56.4484976  10.0981905
  12.9117906  57.2886726   9.0304592  12.6450548  56.6187371   9.3380507
  19.1096457  55.8896057   8.1119276  19.6512003  55.3866438   8.5757896
  19.4243017  55.8361251   7.3008761  19.2360855  55.8075478   8.0603088
  22.9813565  60.0998704  25.2246188  23.7948430  59.8283853  25.3851320
  22.8208531  59.8006244  24.4206384  23.0783513  60.0153630  25.1291594
  20.2585727  50.7832361  18.1641576  20.4727696  50.1443276  17.6104930
  19.6419626  51.2278185  17.7349438  20.1991056  50.7542505  18.0192007
  21.6690395  63.7051110   9.6095797  21.2770187  63.4017825   8.8918663
  21.8243467  64.5420200   9.4200751  21.6343985  63.7834946   9.4752294
   9.1451574  53.6973124   9.5586680   9.5250539  54.1157669   8.8946947
   8.5706939  54.2786579   9.8655523   9.1162899  53.8450982   9.5063421
  22.4224815  52.3921426  19.1024883  21.6101497  52.0847317  19.1838056
  22.8814749  51.9120427  19.6667595  22.3705200  52.2757919  19.1979477
  21.8330070  60.2701098   9.5501828  21.4744724  60.4415741  10.3265860
  21.3468780  60.7314304   8.9929826  21.7088766  60.3640070   9.5827097
  19.6500456  43.8932297  13.1528919  18.7794013  43.8671018  13.1062228
  19.9040797  43.7209489  12.3354765  19.5594016  43.8642441  13.0249056
  19.5178322  53.7981498  23.8853586  19.9877954  54.4223614  24.2721460
  19.5640203  53.1298473  24.4446800  19.5946198  53.7916178  24.0253657
  16.6749596  45.9038525  14.6102389  16.1588085  45.2118717  14.7353968
  16.1143525  46.5709302  14.5564988  16.5156109  45.9001783  14.6208455
  18.7441829  46.4431485  16.4395242  18.3573583  46.4680517  17.2208772
  18.2574767  45.8773164  15.9869759  18.6154338  46.3627236  16.4883146
  22.9934809  61.1604994  20.4969028  23.6314529  60.6665190  20.1631485
  22.3508900  61.0882395  19.9121255  22.9929035  61.0764003  20.3611383
  24.7191809  53.0094140  15.0634944  24.2919417  52.9220489  14.3083044
  24.0817862  53.1171916  15.6489788  24.5621416  53.0126800  15.0380386
  18.4098971  43.3298471  18.7305502  19.0392089  43.8658771  18.4526572
  18.5784834  43.2375830  19.5819067  18.5276766  43.3959833  18.8154030
  18.2112886  48.1169666  21.0031913  19.0386315  47.8454815  21.0590528
  18.2320732  48.9130507  21.3595732  18.3365736  48.1949420  21.0647096
  23.0489065  61.8524803  17.1374385  23.8381444  61.5013867  17.2576467
  23.2232663  62.6661191  16.8751019  23.1909347  61.9210660  17.1162253
  12.7882376  55.2633528  14.1902174  11.9470382  55.1637403  14.3981068
  12.9972384  56.0329009  14.5416495  12.6947068  55.3625572  14.2729489
  10.2657943  52.8853065  12.0186925   9.8714641  52.9596077  11.2437034
   9.7098060  53.2711012  12.5695286  10.1260755  52.9534840  11.9854585
  21.9022890  45.8634359  11.6990804  22.1072483  45.7956667  12.5447801
  21.5749314  46.6693181  11.6311981  21.8838138  45.9720300  11.8150459
  16.5999041  53.1914928  13.4399772  16.2962178  52.6370916  14.0410179
  15.8978462  53.3707138  12.9527806  16.4515251  53.1359710  13.4569477
  15.6565138  50.5015447   8.0044473  15.9324872  49.7834360   7.5922041
  16.2563807  51.1000367   7.7965579  15.7858402  50.4835818   7.9125235
  14.6617392  60.4064648  18.1471869  14.5537747  60.4166710  19.0133927
  14.8713173  61.2319429  17.9576823  14.6767503  60.5305723  18.2475961
  25.1556577  46.4166124  11.1793569  24.5430891  46.9036526  11.5647301
  25.2520752  45.7409615  11.7231220  25.0794475  46.3884432  11.3172427
  19.1575658  48.1728965   6.2791068  19.6119405  48.3439525   7.0038913
  19.6315704  47.5597075   5.8788844  19.2943979  48.1079850   6.3264830
  12.6791184  57.6577291  15.6093807  12.0879117  58.2986789  15.5796822
  13.4412207  58.0814908  15.5825106  12.7039444  57.8153129  15.6008954
  13.0751807  48.8179288  16.2761825  13.5353288  48.8918218  17.0136948
  13.1207913  49.6160543  15.9261646  13.1502362  48.9473436  16.3334581
  14.7235156  49.4845983  20.8433852  14.3320721  48.8379330  21.2789629
  14.8921019  50.0757419  21.4628107  14.6906067  49.4760251  20.9996558
  28.7981605  57.4883060  16.6071085  28.8564729  57.9369709  17.3531062
  28.1648073  57.8981873  16.1701165  28.7132900  57.6156795  16.6523634
  22.4380700  63.1086602  13.0425831  22.2400389  63.5977417  12.3482043
  21.8168411  63.3127844  13.6209965  22.3168264  63.2103141  13.0249055
  16.4988678  54.8771499   7.3836076  17.2430723  55.2645775   7.6219026
  16.6449375  54.0328925   7.5476563  16.6299263  54.8101972   7.4430045
  18.4168254  46.6721758  12.4167937  17.5704299  46.8444566  12.2909287
  18.4139386  45.8671102  12.7533765  18.2915404  46.5782787  12.4479064
  19.4866554  50.4496972  13.2829995  19.0126508  49.9238734  13.7935306
  19.8584690  49.9026445  12.7144857  19.4716443  50.2912969  13.2745142
   9.8639584  52.4468479  18.6513541  10.7265197  52.3464188  18.5650871
   9.5331367  51.8663188  18.0899113   9.9424781  52.3460106  18.5558947
  25.7503285  55.5099348  14.6936776  25.5101508  54.6705763  14.6979202
  26.2295292  55.5899515  15.4177549  25.7855468  55.3980748  14.8011578
  21.4150054  51.3433527   6.3455749  20.8873072  51.4262271   5.6561458
  21.8745762  52.0851398   6.3420393  21.4051904  51.4654189   6.2430444
  27.7508472  52.2900805  12.6466035  27.5118242  52.2496639  11.8086819
  27.9142373  53.1371957  12.7731756  27.7398775  52.4092890  12.5419517
  24.3554502  56.6750755  18.5771080  25.0788701  56.2223281  18.3982100
  24.0904464  56.9555420  17.7943408  24.4235775  56.6501723  18.4349795
  13.2241370  51.2710928  15.3123959  12.5994440  51.2829320  14.7049912
  12.8886965  51.7471103  15.9615199  13.0826862  51.3429445  15.3180527
   9.9367046  59.3311388  16.7527723   9.4066970  58.6403827  16.8022698
  10.2092139  59.3221574  15.9240432   9.8991768  59.2278520  16.6375139
  20.9687136  59.9137091   5.4765406  21.6921335  60.3795204   5.3329979
  20.5287727  59.9810700   4.7263003  21.0102829  59.9920927   5.3450187
  20.1373291  56.7734633  16.7266095  19.5230285  56.2292683  17.0214730
  20.6540576  56.2598869  16.2471911  20.1228954  56.6171042  16.6990323
  19.3769589  57.8438903  14.4610393  18.9497197  57.2188622  14.0275829
  19.3694533  57.5613825  15.2869401  19.3128730  57.7091684  14.5190221
  12.4932116  52.8804076  17.5298827  12.6525602  52.1247400  17.9350549
  12.3125009  53.4295015  18.1839565  12.4897475  52.8497890  17.6861533
  20.4352419  45.0465312  18.0849617  19.9392980  45.2428986  17.3941184
  21.1921481  45.4457980  17.9138419  20.4739243  45.1343045  17.9569754
  17.7055298  48.7207657  14.6752927  17.7297785  48.1867770  13.9865707
  17.9566772  48.2124966  15.3378518  17.7465217  48.5668561  14.6717572
  13.9856621  47.4478476  14.0558672  14.0254992  47.9487682  14.7693379
  13.1606285  47.5388869  13.7864595  13.8696146  47.5360292  14.1209210
  16.1686233  57.0139216  22.1578966  15.3181864  57.1510930  22.2936611
  16.3314361  56.2802994  22.6026668  16.0670097  56.9253317  22.2434566
  15.4070984  53.9638985  16.3532571  14.5762914  54.1312803  16.1467819
  15.3522501  53.5874936  17.1381456  15.2760399  53.9328717  16.4381099
  13.2154767  47.4547878  21.9888982  13.8407471  46.9110011  22.2618414
  12.7605247  46.9742796  21.4196772  13.2403028  47.3037360  21.9450575
  13.7807028  52.2394577   6.8822689  13.9209989  52.7367041   7.5851330
  14.2789561  51.5380871   7.0236902  13.8748109  52.2096556   7.0074268
  26.7889816  55.6377165  17.0801629  27.3807656  56.2774416  17.1119828
  27.2248810  54.9400202  17.3693696  26.9408247  55.6295516  17.1282462
  15.3886233  49.0375663   4.1860707  15.7102074  48.5578746   3.5319970
  15.6513177  49.8475310   3.9951519  15.4752258  49.0865561   4.0616199
  18.6183206  60.0594538  17.7059523  18.1108297  60.6130385  18.1500154
  18.3209852  60.1202828  16.8878298  18.4988091  60.1500849  17.6507980
  20.7845388  48.4247857  16.5484186  21.2100460  47.9720384  15.9367713
  20.1702381  47.8707928  16.8248974  20.7574033  48.2761834  16.4989212
  19.2239611  44.8962957   9.9574763  18.5807929  44.7460604  10.5259902
  18.8839018  44.6505303   9.1923868  19.0784688  44.8375080   9.9277779
  23.8138957  52.8522384   9.3804772  23.1430147  53.3952086   9.2517838
  24.5078708  53.3217239   9.1386467  23.8167825  53.0020655   9.3260300
  17.8625691  64.9919096  14.6116530  17.6391345  64.2337925  14.9800557
  17.3735534  65.0217117  13.8896970  17.7569140  64.8841321  14.5593271
  23.9767085  49.3078268  12.2895145  24.3294695  48.8807991  12.9640944
  23.1181886  49.2229111  12.4196222  23.9016529  49.2323008  12.4090156
  12.6750770  51.9385787  10.3477992  11.9562759  52.3549920  10.6150855
  13.0463132  52.5040026   9.7969630  12.6242702  52.0835069  10.3060799
  21.9750351  52.5713636  16.2379987  21.9548278  52.3896931  17.0914766
  22.0229551  53.4425655  16.2139571  21.9784992  52.6730175  16.3603282
  19.9196680  59.1600828  22.1628464  19.8792535  58.5150505  21.5773620
  20.7319999  59.1037446  22.4753876  20.0339834  59.0559795  22.1225413
  16.5104148  65.2119554  12.0653615  16.0964547  64.5493684  11.6757457
  17.1951522  65.3597413  11.5449309  16.5502520  65.1360212  11.9310112
  19.8769442  64.3709639  12.8177231  19.4785725  64.4811910  12.0498052
  19.2620662  64.5791706  13.4003791  19.7268331  64.4183207  12.7908531
  18.4497344  50.9783787   5.6851371  17.8562183  51.3000784   5.1335938
  18.4872622  50.1324883   5.4772477  18.3671733  50.9008116   5.5734143
  25.4091145  44.4296680  13.2179458  24.9022010  43.7225819  13.1500635
  26.2058579  44.0989868  13.3480534  25.4518384  44.2769831  13.2278453
  21.3255161  50.9363292   9.1153121  21.0968854  50.9595993   8.2731480
  21.5853237  50.1120759   9.2348132  21.3301349  50.8179372   9.0078319
  15.6074389  52.7897765  18.7178222  15.0953292  52.1818948  19.0763253
  15.4353885  53.5054357  19.1852197  15.5064026  52.8061064  18.8394445
  10.4540104  51.2335340  21.3680583  10.2842694  51.8936715  20.8228790
  10.0106054  51.4441901  22.0893073  10.3639437  51.3621322  21.3942213
  14.3799923  49.4739838  10.4107317  14.8557289  49.8356918   9.7757498
  13.8788523  50.1296306  10.6907460  14.3765282  49.6234027  10.3584058
  27.6111285  58.9461606   6.2020322  27.9944891  59.6952962   6.4318419
  26.8155398  59.1927426   5.9432311  27.5505067  59.0931300   6.1977896
  19.4843459  50.7122009  21.1580477  20.0414890  50.4835819  20.5258943
  19.1604524  51.4727675  20.8815690  19.5189870  50.7905846  21.0236974
   7.3542168  54.1382206  16.6269073   6.8068888  53.4682851  16.7449942
   8.1434547  53.7712054  16.6912541   7.3894352  53.9847192  16.6537774
  17.2026577  53.7989663  22.1232484  17.9537904  54.1141340  22.4372039
  17.3949153  53.5968834  21.2966406  17.3417991  53.8157045  22.0475880
  16.4226576  51.6181038   3.7780701  16.8025541  51.6360667   2.9931816
  15.6819172  52.0635027   3.6571548  16.3695414  51.6862813   3.6444269
  24.0511867  49.9263229   9.3656280  24.0506093  49.7711886  10.2240556
  23.8468047  50.7726216   9.3097665  24.0211645  50.0283850   9.4844219
   6.1129138  53.3503014  13.7815096   5.9350899  52.8979622  14.5070012
   5.8248160  54.1529175  13.9653574   6.0442091  53.4025571  13.9158599
  21.7752719  54.6060731  13.0192487  22.2706384  53.8883726  12.9796507
  20.9652495  54.3031529  12.9046974  21.7296612  54.4558377  12.9966212
  23.8404538  57.3564418  15.7069615  24.2659609  56.8338840  15.1540040
  23.4761458  57.9545256  15.1858238  23.8491140  57.3674645  15.5478625
  13.4758618  65.6528636  14.4666961  13.7905177  66.4665024  14.4744743
  13.8852031  65.2678855  15.1349120  13.5826716  65.7157338  14.5671053
  20.4283137  61.0698683  12.0370773  20.8994315  61.7838945  12.2060758
  20.7643316  60.4697433  12.5730642  20.5478252  61.0870147  12.1403149
  22.5160122  62.6799996  24.2162845  22.6257087  61.8908557  24.5719592
  22.8451018  62.5905932  23.4137183  22.5812528  62.5505849  24.1505236
  17.3452632  45.8426153  18.9928868  17.4780538  45.0457147  19.3209843
  17.7297785  46.3692556  19.5727143  17.4208961  45.8026070  19.1272371
  21.0657084  60.8616617  18.7998466  20.5178030  60.2374500  18.5318531
  21.5270112  61.0510889  18.0842545  21.0524293  60.7975667  18.6548897
  20.4184987  42.7656479  15.5909961  19.6130951  42.6554209  15.9077799
  20.2891723  42.8668935  14.7339827  20.2805120  42.7640149  15.5118001
  23.8750948  48.9301971  16.1849658  23.2913937  49.4311178  15.7727225
  24.1955242  48.4231527  15.5513981  23.8364123  48.9293806  16.0308165
  16.4145747  47.8442566   6.4608333  17.2361441  48.0140879   6.2190028
  15.9515398  47.9989827   5.7374630  16.4676909  47.8924299   6.3179977
  15.0041079  45.8385328  17.2406761  15.5485492  45.4976455  17.8311103
  15.0578015  46.6970790  17.3828046  15.0930198  45.9140588  17.3488635
  10.8171638  59.6001744  14.1145569  11.4216495  59.5597578  13.4859390
  10.6098950  60.4472896  14.1449625  10.8760535  59.7189747  14.0261686
  20.6315410  61.8667689  15.3307807  21.4513784  61.7230656  15.5924102
  20.3509488  62.4913888  15.8724245  20.7112153  61.9378042  15.4495746
  37.1029060  69.5232541   8.2950683  37.0723065  70.3777178   8.4668952
  37.7010409  69.2227834   8.8536827  37.1866218  69.6049038   8.4025485
  30.3028745  68.6108192  13.0503613  29.4466641  68.7716690  13.1012730
  30.3496399  67.7400256  13.0708675  30.1827857  68.5058994  13.0609680
  33.6122462  74.8794718  22.6564070  34.3189229  74.3846749  22.7851004
  33.8010397  75.3203799  21.9266728  33.7450367  74.8713068  22.5673115
  33.1480566  70.6700236  15.6935265  33.6936526  71.3485323  15.7529235
  33.0897442  70.5287697  14.8336847  33.2196480  70.7492238  15.5747326
  21.7609773  66.3495319  13.6040259  21.1414804  65.7587967  13.4350274
  21.6593636  66.9406755  12.9704582  21.6547448  66.3499402  13.4845248
  28.8577668  68.0894861   7.9372722  29.5557833  68.2682989   8.4294185
  29.1730001  67.5665201   7.3143111  29.0073006  68.0388633   7.9174732
  21.4878906  69.8947601  15.8483828  21.3637603  70.4810047  16.4833647
  22.1397190  69.4007797  16.1496103  21.5652555  69.9086406  15.9869757
  26.5137247  73.0709318  15.1271339  27.1586249  72.5781761  14.8082288
  26.7539024  73.2134105  15.9537417  26.6447832  73.0186760  15.2020872
  29.0523338  75.9164224  14.7778232  29.3346581  75.1215630  14.5564987
  29.7809499  76.3944811  14.7983293  29.2012902  75.8698821  14.7481247
  27.0304532  63.4587258  12.0193997  26.7007862  63.9098401  11.3497695
  26.3549534  63.3803421  12.5667003  26.8814968  63.5138393  12.0017220
  34.2380940  59.4472781  10.2643607  33.9234381  60.1376259  10.6964030
  33.7207881  59.3917563   9.5629108  34.1145410  59.5407669  10.2240556
  25.2360486  61.5199546   7.5016944  25.9906454  61.8877863   7.2633995
  25.0588021  61.8939101   8.2696124  25.3214964  61.6297734   7.5801833
  38.5295385  67.6693987  15.5464484  37.6923806  67.7396174  15.7812078
  38.4983616  67.6718482  14.6738786  38.4013667  67.6804214  15.4524032
  24.9260114  69.8127022  21.2612852  25.0980617  69.7032917  22.1098134
  25.4629471  70.4581428  21.0244045  25.0305118  69.8919024  21.3517949
  23.5917551  63.9269865   4.1995057  23.4093124  64.1441746   3.3736050
  24.4543164  64.0408878   4.2553672  23.6922140  63.9759763   4.0849544
  29.2717270  60.9296276   7.2344081  30.0003430  60.7512231   6.7882237
  29.3612163  61.7714356   7.4451259  29.3923932  61.0280154   7.1997599
  33.2525571  71.8649663  11.1376375  34.0083086  72.2981178  11.1765284
  33.3587895  71.2154433  11.7111011  33.3795741  71.8327147  11.2274401
  36.2905742  75.6922941  11.8878778  35.8540974  75.6959683  12.6437750
  35.9568657  76.3728440  11.4558356  36.1768362  75.7935396  11.9359611
  30.8634815  77.7331273  23.2121928  31.6475232  77.8462121  23.5777671
  30.6631410  76.9072410  23.4080614  30.9500841  77.6277993  23.2956314
  19.2321831  72.4058953  16.0965772  18.9660246  71.5898070  16.2556763
  19.2460395  72.4512109  15.2261288  19.1946553  72.2915858  15.9919254
  36.2103225  62.7336768  14.1308206  36.8529133  62.8034873  14.7170121
  36.4626245  62.0665991  13.6287748  36.3425357  62.6463117  14.1435485
  23.9820437  65.9437332  18.7432780  23.2892234  65.4734311  18.9893512
  24.5980764  65.7175636  19.3174487  23.9704967  65.8404464  18.8641933
  39.4250088  72.4103860  10.7798415  40.0866522  71.8494529  10.6794324
  38.7841500  71.9155891  11.1051107  39.4278955  72.2540269  10.8130756
  19.6415244  73.1917733  13.3777517  19.4590818  73.1664619  12.5249809
  20.3764913  73.6616671  13.4166425  19.7229308  73.2579095  13.2575435
  22.7060996  69.9102736  19.8859625  23.4300968  69.8955766  20.3724520
  22.8077133  70.6198091  19.3881593  22.8279205  70.0127439  19.8838412
  30.0805945  73.3901820  24.7508572  29.2878926  73.7045332  24.9361192
  30.1954873  73.6053289  23.9129357  29.9801356  73.4685657  24.6546907
  32.7537264  70.1135811   9.0403588  32.8484119  70.8525106   9.4943214
  32.1296108  69.6853287   9.4738153  32.6746295  70.1597132   9.1711736
  31.0089738  73.2922024  19.6893869  31.5828600  72.6549268  19.8442433
  30.9304542  73.2926107  18.8203527  31.0822973  73.1987136  19.5840280
  19.6086155  70.0711234  13.5276583  20.1859657  69.9347684  14.1668829
  18.9100216  69.6147018  13.7822168  19.5907176  69.9833500  13.6598873
  26.3653457  71.7245289  11.7415066  26.1072701  70.8917024  11.7146366
  26.4201940  71.9502902  10.9007567  26.3353235  71.6343060  11.6135203
  31.4454507  63.8273740  11.8419159  30.7410834  63.3382925  12.0003078
  31.4939481  63.8396214  10.9707603  31.3484559  63.7563388  11.7358499
  25.3388169  69.2783052  12.2279961  24.7637760  69.4375220  12.8643922
  24.9623845  68.6418461  11.7648412  25.1990981  69.2080865  12.2534520
  29.0061458  67.7506401  17.0872340  28.6175890  67.3260619  16.4324531
  28.3416156  67.9988551  17.5949366  28.8508385  67.7245122  17.0660208
  38.6484727  67.5081406   9.8620170  38.3921292  66.6961347   9.6718052
  39.4914041  67.5158973   9.6350357  38.7350752  67.3893403   9.8004987
  32.8287819  61.4481030  14.5996324  33.2098331  60.7659201  14.9864198
  32.0251104  61.1590632  14.4171988  32.7664281  61.3048078  14.6300380
  36.3309886  74.6631002  19.6978722  36.0948523  73.8319066  19.5790783
  36.9753115  74.6116609  20.2833566  36.3904557  74.5328690  19.7664616
  25.9808304  75.4526523  10.4121459  26.6182251  75.2138271  10.9573252
  26.4063376  75.6563682   9.6774619  26.1384470  75.4477533  10.3838616
  26.7879660  63.9535228  24.4658932  26.4733101  64.7234791  24.2028495
  26.4669592  63.3905484  23.8811159  26.6938579  63.9845497  24.3400282
  37.3546307  74.4475450  15.7607017  37.0492124  75.1803507  16.1220332
  36.6352522  74.0413380  15.4799803  37.2033649  74.4957183  15.7720154
  28.3629776  75.9298946  12.0915245  28.4368784  75.7674118  12.9457095
  29.1799282  76.1189135  11.8475727  28.4946135  75.9335688  12.1813270
  43.0548099  71.0868451  15.0875361  42.9872599  71.1064410  14.2177947
  43.0403761  71.9298778  15.3131031  43.0426855  71.2142186  14.9927838
  24.3411557  62.3425749  10.0805129  23.4733982  62.4148349  10.1462738
  24.6286761  63.1447828  10.2693104  24.2551305  62.4719897  10.1179895
  33.4644445  62.4903609  18.4116450  34.2098037  62.3013419  17.9979876
  33.0481750  63.0161847  17.8530307  33.5129420  62.5405754  18.2681024
  40.8406716  69.8612837  13.3621955  41.3914638  69.2280906  13.6019047
  40.8250832  70.3928230  14.0537460  40.9191913  69.8461785  13.5000814
  27.4929107  73.6951435  17.9081849  26.9940801  74.4067202  17.9866737
  28.3029331  74.0152101  17.8700011  27.5385214  73.8478283  17.9138417
  23.7557225  72.9574388  12.1544570  23.4670473  72.3311859  12.6890297
  24.6240573  72.8994675  12.2209250  23.8417477  72.8561932  12.2435524
  34.5435122  68.1009171  12.4726552  34.1999888  67.3799506  12.8233801
  34.6428165  67.8923022  11.6304910  34.5077165  67.9633374  12.3998232
  26.4196165  66.5532479  23.2044147  25.6095941  66.8590259  23.0933989
  26.8970852  67.2738061  23.3196731  26.3699644  66.7047080  23.2051218
  25.2787725  75.7678200  13.4527050  24.7568478  75.9078492  14.1378915
  25.6661745  75.0088864  13.6429167  25.2591426  75.6763724  13.5828127
  22.2678909  65.8184009   7.5222005  21.9803704  65.4485279   6.7853952
  22.9549377  66.2878864   7.2605710  22.3267806  65.8330978   7.3737081
  26.7054050  72.7982219   8.8508541  26.5096833  73.4056954   8.2568844
  26.9288396  72.1050163   8.3700215  26.7088691  72.7859745   8.6924622
  25.1032580  69.6836957   8.9689410  25.8255232  69.8478115   8.5093216
  24.6240573  70.4046622   8.8628749  25.1396311  69.8135187   8.8855024
  33.0626088  66.0200756  14.3486094  32.2237188  66.0462035  14.1124358
  33.1330455  66.6671491  14.9291441  32.9494481  66.1196882  14.3995211
  22.7540197  72.0895029  18.0743549  23.2661294  72.3679283  17.4252309
  22.4676540  72.8284323  18.4406362  22.7875060  72.2397383  18.0333427
  31.5095366  62.9186133   9.0813710  32.2121719  62.7193881   8.6033669
  31.2439555  62.1462075   9.3882554  31.5741998  62.7749099   9.0559152
  36.9383612  71.2268743  11.6347336  36.8517586  71.3824169  12.4882115
  36.4834092  71.8706818  11.2606741  36.8586868  71.3444498  11.7054443
  19.8407103  66.5965221   8.3707286  19.9423240  67.3991383   8.6988261
  20.6362990  66.3952557   8.0730366  19.9735009  66.6851120   8.3742641
  26.2723922  64.1821418  18.1344591  26.0807119  64.1976552  18.9844014
  27.1222518  64.3785092  18.1111246  26.3699644  64.2135769  18.2567886
  20.6570835  66.7112399  16.1128407  20.5156327  65.8596340  16.2372915
  20.9411399  66.7541060  15.2890613  20.6778681  66.5912149  16.0096032
  30.8109428  68.5479490  10.2572896  30.5644142  68.4675241  11.0909685
  31.1394551  67.7632957  10.0635423  30.8230671  68.4205755  10.3520419
  34.7057477  75.2562849  14.0459677  34.5671836  75.9543895  14.5508419
  33.9257474  75.1011505  13.6895859  34.5700703  75.3363016  14.0685951
  33.0435562  71.5559224  20.2982059  33.0383600  70.6839041  20.3024485
  33.7496556  71.7547393  19.8251514  33.1480566  71.4563099  20.2289094
  26.7706455  71.2836208  19.6695879  26.9149831  71.8637416  19.0338989
  27.1182104  71.6612505  20.3745733  26.8433916  71.4256912  19.6794874
  28.9426372  70.4826377  17.4521010  28.1949686  70.6757391  17.0469288
  29.0967898  69.6571596  17.2145132  28.8548800  70.3891488  17.3566416
  29.1828149  64.3776927  18.3416414  29.6400764  65.1100902  18.4689206
  29.2584478  63.9543393  19.1003670  29.2619119  64.4234165  18.4717491
  21.4261141  64.6242747  19.4305858  20.8903330  64.0123105  19.7466625
  21.4878905  65.1990883  20.0839524  21.3556773  64.6189675  19.5741285
  33.6555475  57.5566803  12.2110257  33.7739043  58.0143266  11.4777560
  33.4817651  56.7512064  11.9246475  33.6474646  57.5060575  12.0611191
  27.0610527  66.3679031  15.1858238  26.2706602  66.1870491  15.5075574
  27.4571150  65.5905984  15.1688533  27.0027404  66.2266492  15.2310786
  32.4454214  74.0021461  12.9117684  31.7699215  73.7706694  13.4131071
  32.4546590  73.3942644  12.2859789  32.3472718  73.8780387  12.8933836
  29.5748358  68.8439290  19.6681737  29.5107499  69.7049247  19.5401874
  29.7145545  68.5271284  18.8677288  29.5863828  68.9239457  19.5309950
  28.2567451  71.5371430  13.8097940  27.8329701  71.7375929  13.0736958
  28.0812307  70.6900278  13.9222240  28.1678332  71.4420211  13.7171630
  23.5449896  72.0323481   9.2425912  23.7014516  71.9670284  10.0981905
  23.8850490  72.8072034   9.0304592  23.6183131  72.1372679   9.3380507
  30.0829041  71.4081365   8.1119276  30.6244587  70.9051746   8.5757896
  30.3975600  71.3546559   7.3008761  30.2093438  71.3260786   8.0603088
  33.9546148  75.6184012  25.2246188  34.7681014  75.3469161  25.3851320
  33.7941115  75.3191552  24.4206384  34.0516097  75.5338938  25.1291594
  31.2318310  66.3017669  18.1641576  31.4460280  65.6628583  17.6104930
  30.6152210  66.7463493  17.7349438  31.1723640  66.2727813  18.0192007
  20.1184158  69.2158432   9.5586680  20.4983123  69.6342977   8.8946947
  19.5439523  69.7971887   9.8655523  20.0895483  69.3636290   9.5063421
  33.3957398  67.9106734  19.1024883  32.5834080  67.6032625  19.1838056
  33.8547333  67.4305735  19.6667595  33.3437783  67.7943227  19.1979477
  30.6233039  59.4117605  13.1528919  29.7526597  59.3856326  13.1062228
  30.8773380  59.2394797  12.3354765  30.5326599  59.3827749  13.0249056
  30.4910906  69.3166806  23.8853586  30.9610537  69.9408922  24.2721460
  30.5372786  68.6483781  24.4446800  30.5678782  69.3101486  24.0253657
  27.6482180  61.4223833  14.6102389  27.1320668  60.7304025  14.7353968
  27.0876108  62.0894610  14.5564988  27.4888693  61.4187091  14.6208455
  29.7174413  61.9616793  16.4395242  29.3306166  61.9865825  17.2208772
  29.2307350  61.3958472  15.9869759  29.5886922  61.8812544  16.4883146
  33.9667392  76.6790302  20.4969028  34.6047113  76.1850498  20.1631485
  33.3241484  76.6067703  19.9121255  33.9661619  76.5949311  20.3611383
  35.6924393  68.5279448  15.0634944  35.2652001  68.4405797  14.3083044
  35.0550446  68.6357224  15.6489788  35.5354000  68.5312108  15.0380386
  29.3831555  58.8483779  18.7305502  30.0124673  59.3844079  18.4526572
  29.5517417  58.7561138  19.5819067  29.5009349  58.9145141  18.8154030
  29.1845470  63.6354974  21.0031913  30.0118899  63.3640122  21.0590528
  29.2053316  64.4315815  21.3595732  29.3098320  63.7134728  21.0647096
  34.0221649  77.3710111  17.1374385  34.8114027  77.0199175  17.2576467
  34.1965247  78.1846499  16.8751019  34.1641931  77.4395968  17.1162253
  23.7614959  70.7818836  14.1902174  22.9202966  70.6822711  14.3981068
  23.9704967  71.5514317  14.5416495  23.6679652  70.8810880  14.2729489
  21.2390526  68.4038373  12.0186925  20.8447224  68.4781385  11.2437034
  20.6830643  68.7896320  12.5695286  21.0993339  68.4720148  11.9854585
  32.8755473  61.3819667  11.6990804  33.0805067  61.3141975  12.5447801
  32.5481897  62.1878489  11.6311981  32.8570721  61.4905608  11.8150459
  27.5731624  68.7100236  13.4399772  27.2694762  68.1556224  14.0410179
  26.8711045  68.8892446  12.9527806  27.4247834  68.6545018  13.4569477
  26.6297721  66.0200755   8.0044473  26.9057456  65.3019668   7.5922041
  27.2296391  66.6185675   7.7965579  26.7590986  66.0021126   7.9125235
  36.1289161  61.9351432  11.1793569  35.5163475  62.4221834  11.5647301
  36.2253336  61.2594922  11.7231220  36.0527059  61.9069740  11.3172427
  30.1308242  63.6914273   6.2791068  30.5851988  63.8624833   7.0038913
  30.6048288  63.0782383   5.8788844  30.2676562  63.6265158   6.3264830
  23.6523767  73.1762599  15.6093807  23.0611701  73.8172097  15.5796822
  24.4144791  73.6000216  15.5825106  23.6772028  73.3338437  15.6008954
  24.0484390  64.3364596  16.2761825  24.5085872  64.4103526  17.0136948
  24.0940497  65.1345850  15.9261646  24.1234945  64.4658743  16.3334581
  25.6967740  65.0031291  20.8433852  25.3053305  64.3564638  21.2789629
  25.8653603  65.5942727  21.4628107  25.6638650  64.9945559  20.9996558
  39.7714189  73.0068368  16.6071085  39.8297313  73.4555017  17.3531062
  39.1380657  73.4167181  16.1701165  39.6865484  73.1342103  16.6523634
  27.4721262  70.3956807   7.3836076  28.2163307  70.7831083   7.6219026
  27.6181958  69.5514232   7.5476563  27.6031847  70.3287280   7.4430045
  29.3900837  62.1907066  12.4167937  28.5436882  62.3629874  12.2909287
  29.3871970  61.3856410  12.7533765  29.2647987  62.0968095  12.4479064
  30.4599138  65.9682280  13.2829995  29.9859092  65.4424042  13.7935306
  30.8317274  65.4211753  12.7144857  30.4449027  65.8098277  13.2745142
  20.8372168  67.9653787  18.6513541  21.6997781  67.8649496  18.5650871
  20.5063951  67.3848496  18.0899113  20.9157364  67.8645414  18.5558947
  36.7235868  71.0284656  14.6936776  36.4834091  70.1891071  14.6979202
  37.2027876  71.1084823  15.4177549  36.7588052  70.9166056  14.8011578
  32.3882637  66.8618835   6.3455749  31.8605656  66.9447579   5.6561458
  32.8478346  67.6036706   6.3420393  32.3784488  66.9839497   6.2430444
  38.7241055  67.8086113  12.6466035  38.4850825  67.7681947  11.8086819
  38.8874957  68.6557265  12.7731756  38.7131359  67.9278198  12.5419517
  35.3287086  72.1936063  18.5771080  36.0521284  71.7408589  18.3982100
  35.0637048  72.4740728  17.7943408  35.3968359  72.1687031  18.4349795
  24.1973954  66.7896236  15.3123959  23.5727024  66.8014628  14.7049912
  23.8619549  67.2656411  15.9615199  24.0559446  66.8614753  15.3180527
  31.1105875  72.2919941  16.7266095  30.4962868  71.7477991  17.0214730
  31.6273160  71.7784177  16.2471911  31.0961537  72.1356350  16.6990323
  30.3502172  73.3624211  14.4610393  29.9229780  72.7373929  14.0275829
  30.3427117  73.0799133  15.2869401  30.2861313  73.2276991  14.5190221
  23.4664699  68.3989384  17.5298827  23.6258186  67.6432708  17.9350549
  23.2857593  68.9480323  18.1839565  23.4630058  68.3683198  17.6861533
  31.4085002  60.5650619  18.0849617  30.9125564  60.7614294  17.3941184
  32.1654064  60.9643288  17.9138419  31.4471827  60.6528353  17.9569754
  28.6787882  64.2392965  14.6752927  28.7030369  63.7053078  13.9865707
  28.9299355  63.7310274  15.3378518  28.7197801  64.0853869  14.6717572
  24.9589204  62.9663784  14.0558672  24.9987576  63.4672990  14.7693379
  24.1338869  63.0574177  13.7864595  24.8428730  63.0545600  14.1209210
  27.1418817  72.5324524  22.1578966  26.2914448  72.6696238  22.2936611
  27.3046945  71.7988302  22.6026668  27.0402681  72.4438625  22.2434566
  26.3803568  69.4824293  16.3532571  25.5495497  69.6498111  16.1467819
  26.3255085  69.1060244  17.1381456  26.2492982  69.4514025  16.4381099
  24.1887351  62.9733186  21.9888982  24.8140054  62.4295319  22.2618414
  23.7337831  62.4928104  21.4196772  24.2135611  62.8222668  21.9450575
  24.7539611  67.7579885   6.8822689  24.8942572  68.2552349   7.5851330
  25.2522144  67.0566179   7.0236902  24.8480692  67.7281864   7.0074268
  37.7622400  71.1562473  17.0801629  38.3540240  71.7959724  17.1119828
  38.1981394  70.4585510  17.3693696  37.9140831  71.1480824  17.1282462
  26.3618817  64.5560971   4.1860707  26.6834658  64.0764054   3.5319970
  26.6245760  65.3660617   3.9951519  26.4484842  64.6050869   4.0616199
  29.5915789  75.5779846  17.7059523  29.0840880  76.1315693  18.1500154
  29.2942436  75.6388136  16.8878298  29.4720674  75.6686157  17.6507980
  31.7577972  63.9433165  16.5484186  32.1833043  63.4905692  15.9367713
  31.1434965  63.3893236  16.8248974  31.7306617  63.7947142  16.4989212
  30.1972194  60.4148265   9.9574763  29.5540512  60.2645912  10.5259902
  29.8571601  60.1690610   9.1923868  30.0517272  60.3560388   9.9277779
  34.7871541  68.3707692   9.3804772  34.1162731  68.9137394   9.2517838
  35.4811291  68.8402547   9.1386467  34.7900408  68.5205963   9.3260300
  34.9499668  64.8263576  12.2895145  35.3027278  64.3993299  12.9640944
  34.0914470  64.7414419  12.4196222  34.8749113  64.7508316  12.4090156
  23.6483353  67.4571095  10.3477992  22.9295342  67.8735228  10.6150855
  24.0195716  68.0225334   9.7969630  23.5975285  67.6020377  10.3060799
  32.9482934  68.0898944  16.2379987  32.9280861  67.9082239  17.0914766
  32.9962135  68.9610963  16.2139571  32.9517575  68.1915482  16.3603282
  30.8929264  74.6786136  22.1628464  30.8525119  74.0335813  21.5773620
  31.7052582  74.6222754  22.4753876  31.0072418  74.5745103  22.1225413
  29.4229928  66.4969095   5.6851371  28.8294767  66.8186092   5.1335938
  29.4605205  65.6510191   5.4772477  29.3404317  66.4193423   5.5734143
  36.3823728  59.9481987  13.2179458  35.8754593  59.2411127  13.1500635
  37.1791162  59.6175176  13.3480534  36.4250968  59.7955139  13.2278453
  32.2987744  66.4548600   9.1153121  32.0701437  66.4781301   8.2731480
  32.5585820  65.6306067   9.2348132  32.3033932  66.3364680   9.0078319
  26.5806973  68.3083073  18.7178222  26.0685876  67.7004256  19.0763253
  26.4086469  69.0239665  19.1852197  26.4796610  68.3246372  18.8394445
  21.4272687  66.7520648  21.3680583  21.2575278  67.4122023  20.8228790
  20.9838637  66.9627209  22.0893073  21.3372021  66.8806630  21.3942213
  25.3532507  64.9925146  10.4107317  25.8289873  65.3542226   9.7757498
  24.8521106  65.6481614  10.6907460  25.3497866  65.1419335  10.3584058
  30.4576043  66.2307317  21.1580477  31.0147473  66.0021127  20.5258943
  30.1337108  66.9912983  20.8815690  30.4922453  66.3091154  21.0236974
  18.3274752  69.6567514  16.6269073  17.7801471  68.9868159  16.7449942
  19.1167130  69.2897362  16.6912541  18.3626936  69.5032500  16.6537774
  28.1759160  69.3174971  22.1232484  28.9270487  69.6326648  22.4372039
  28.3681737  69.1154142  21.2966406  28.3150574  69.3342352  22.0475880
  27.3959160  67.1366346   3.7780701  27.7758125  67.1545975   2.9931816
  26.6551756  67.5820335   3.6571548  27.3427998  67.2048120   3.6444269
  35.0244450  65.4448537   9.3656280  35.0238677  65.2897194  10.2240556
  34.8200631  66.2911524   9.3097665  34.9944228  65.5469158   9.4844219
  17.0861721  68.8688321  13.7815096  16.9083483  68.4164930  14.5070012
  16.7980744  69.6714483  13.9653574  17.0174675  68.9210879  13.9158599
  32.7485303  70.1246039  13.0192487  33.2438968  69.4069034  12.9796507
  31.9385078  69.8216836  12.9046974  32.7029196  69.9743685  12.9966212
  34.8137121  72.8749726  15.7069615  35.2392193  72.3524148  15.1540040
  34.4494041  73.4730564  15.1858238  34.8223724  72.8859953  15.5478625
  31.4015721  76.5883991  12.0370773  31.8726899  77.3024253  12.2060758
  31.7375899  75.9882741  12.5730642  31.5210836  76.6055455  12.1403149
  33.4892705  78.1985304  24.2162845  33.5989671  77.4093865  24.5719592
  33.8183602  78.1091240  23.4137183  33.5545111  78.0691157  24.1505236
  28.3185216  61.3611461  18.9928868  28.4513121  60.5642455  19.3209843
  28.7030369  61.8877864  19.5727143  28.3941545  61.3211378  19.1272371
  32.0389667  76.3801925  18.7998466  31.4910613  75.7559808  18.5318531
  32.5002696  76.5696197  18.0842545  32.0256877  76.3160975  18.6548897
  31.3917571  58.2841787  15.5909961  30.5863535  58.1739517  15.9077799
  31.2624306  58.3854243  14.7339827  31.2537704  58.2825457  15.5118001
  34.8483532  64.4487279  16.1849658  34.2646520  64.9496486  15.7727225
  35.1687826  63.9416835  15.5513981  34.8096707  64.4479114  16.0308165
  27.3878331  63.3627874   6.4608333  28.2094025  63.5326187   6.2190028
  26.9247982  63.5175135   5.7374630  27.4409493  63.4109607   6.3179977
  25.9773663  61.3570636  17.2406761  26.5218076  61.0161763  17.8311103
  26.0310598  62.2156098  17.3828046  26.0662782  61.4325896  17.3488635
  31.6047993  77.3852997  15.3307807  32.4246367  77.2415963  15.5924102
  31.3242071  78.0099196  15.8724245  31.6844737  77.4563349  15.4495746
  37.7612243  79.4720536  24.4658932  37.4465684  80.2420099  24.2028495
  37.4402176  78.9090792  23.8811159  37.6671162  79.5030805  24.3400282
  44.4377029  78.0088917  18.4116450  45.1830621  77.8198727  17.9979876
  44.0214334  78.5347155  17.8530307  44.4862003  78.0591062  18.2681024
  37.2456506  79.7006726  18.1344591  37.0539703  79.7161860  18.9844014
  38.0955102  79.8970400  18.1111246  37.3432228  79.7321077  18.2567886
  40.1560733  79.8962235  18.3416414  40.6133347  80.6286210  18.4689206
  40.2317062  79.4728701  19.1003670  40.2351703  79.9419473  18.4717491
  38.6214763  76.9409141  14.6102389  38.1053252  76.2489333  14.7353968
  38.0608692  77.6079918  14.5564988  38.4621276  76.9372399  14.6208455
  40.6906997  77.4802101  16.4395242  40.3038750  77.5051133  17.2208772
  40.2039934  76.9143780  15.9869759  40.5619506  77.3997852  16.4883146
  40.3564138  74.3669087  18.7305502  40.9857256  74.9029387  18.4526572
  40.5250001  74.2746446  19.5819067  40.4741933  74.4330449  18.8154030
  40.1578053  79.1540281  21.0031913  40.9851483  78.8825430  21.0590528
  40.1785899  79.9501123  21.3595732  40.2830903  79.2320036  21.0647096
  42.3817586  76.0835927  18.0849617  41.8858147  76.2799602  17.3941184
  43.1386648  76.4828596  17.9138419  42.4204411  76.1713661  17.9569754
  35.9321788  78.4849092  14.0558672  35.9720159  78.9858298  14.7693379
  35.1071452  78.5759485  13.7864595  35.8161314  78.5730908  14.1209210
  35.1619934  78.4918494  21.9888982  35.7872638  77.9480627  22.2618414
  34.7070414  78.0113412  21.4196772  35.1868195  78.3407976  21.9450575
  42.7310555  79.4618473  16.5484186  43.1565627  79.0091000  15.9367713
  42.1167548  78.9078544  16.8248974  42.7039201  79.3132450  16.4989212
  39.2917799  76.8796769  18.9928868  39.4245705  76.0827762  19.3209843
  39.6762952  77.4063172  19.5727143  39.3674128  76.8396686  19.1272371
  42.3650155  73.8027095  15.5909961  41.5596118  73.6924825  15.9077799
  42.2356890  73.9039551  14.7339827  42.2270287  73.8010765  15.5118001
  36.9506246  76.8755944  17.2406761  37.4950659  76.5347071  17.8311103
  37.0043182  77.7341406  17.3828046  37.0395366  76.9511203  17.3488635
  22.3340702  36.2987541   9.5904116  23.0407469  35.8039572   9.7191051
  22.5228637  36.7396623   8.8606774  22.4668608  36.2905891   9.5013162
  19.4732996  39.7215078   7.4818192  19.5616342  39.5341218   8.3296402
  19.9022709  39.0752507   7.0823038  19.5495099  39.5978085   7.5489943
  17.0403456  39.0046238   6.4635854  16.4774291  38.5918847   6.9875515
  17.8024480  38.9299143   6.8828997  17.0697905  38.9323638   6.6028854
  13.6478354  31.2319846   8.1952899  13.8198858  31.1225740   9.0438181
  14.1847712  31.8774251   7.9584091  13.7523358  31.3111847   8.2857996
  19.5853056  39.1524097  10.1461975  20.3693472  39.2654944  10.5117717
  19.3849650  38.3265234  10.3420661  19.6719081  39.0470816  10.2296361
  19.7423449  41.0634199   3.7928431  18.9438695  40.8233699   4.0502299
  20.1909460  41.1148592   4.5395479  19.6898060  41.0356590   3.9413355
  18.8024186  34.8094644  11.6848619  18.0097167  35.1238155  11.8701239
  18.9173113  35.0246112  10.8469404  18.7019596  34.8878480  11.5886954
  19.7307979  34.7114847   6.6233916  20.3046840  34.0742092   6.7782480
  19.6522782  34.7118930   5.7543573  19.8041213  34.6179959   6.5180327
  25.0528126  36.0823825   6.6318769  24.8166764  35.2511890   6.5130830
  25.6971355  36.0309432   7.2173613  25.1122797  35.9521513   6.7004663
  15.5097900  25.3728051  11.3998979  15.1951341  26.1427614  11.1368542
  15.1887833  24.8098307  10.8151206  15.4156819  25.4038320  11.2740329
  26.0764547  35.8668274   2.6947064  25.7710364  36.5996331   3.0560379
  25.3570763  35.4606203   2.4139850  25.9251889  35.9150007   2.7060201
  31.7766339  32.5061274   2.0215408  31.7090839  32.5257234   1.1517994
  31.7622002  33.3491602   2.2471078  31.7645096  32.6335009   1.9267885
  16.2147347  35.1144258   4.8421896  15.7159041  35.8260026   4.9206784
  17.0247572  35.4344924   4.8040058  16.2603454  35.2671106   4.8478464
  15.1414405  27.9725302  10.1384194  14.3314181  28.2783082  10.0274036
  15.6189092  28.6930885  10.2536778  15.0917884  28.1239903  10.1391265
  23.4275717  36.6755672   0.9799724  23.2890076  37.3736718   1.4848466
  22.6475715  36.5204329   0.6235906  23.2918944  36.7555839   1.0025998
  21.7653802  32.9752048   7.2322105  21.7601841  32.1031864   7.2364532
  22.4714796  33.1740217   6.7591561  21.8698806  32.8755922   7.1629141
  15.4924695  32.7029031   6.6035926  15.6368071  33.2830240   5.9679036
  15.8400344  33.0805328   7.3085780  15.5652157  32.8449736   6.6134921
  14.5652450  40.8931803   3.4696952  14.7142014  40.3334719   2.8170357
  15.3452452  40.9723805   3.8529471  14.7026544  40.8217369   3.4293902
  17.0905751  41.0646446   4.7481443  17.0149422  40.3955257   5.3032232
  17.0195610  41.7664234   5.2622109  17.0686358  41.0691354   4.9058291
  16.4797385  44.4714766   3.2059444  16.9693316  43.7725555   3.0235109
  15.9081618  44.1738636   3.7935501  16.4681915  44.3240990   3.2660485
  22.6764389  37.0376835  12.1586235  23.4899254  36.7661984  12.3191367
  22.5159355  36.7384375  11.3546431  22.7734337  36.9531761  12.0631641
  22.1175639  29.3299558   6.0364930  21.3052321  29.0225448   6.1178103
  22.5765573  28.8498558   6.6007642  22.0656024  29.2136050   6.1319524
  19.2129146  30.7359629  10.8193632  19.6828777  31.3601745  11.2061506
  19.2591026  30.0676605  11.3786847  19.2897022  30.7294309  10.9593704
  22.6885633  38.0983126   7.4309075  23.3265353  37.6043321   7.0971531
  22.0459724  38.0260526   6.8461302  22.6879859  38.0142134   7.2951430
  22.7439889  38.7902934   4.0714432  23.5332268  38.4391999   4.1916514
  22.9183487  39.6039322   3.8091066  22.8860171  38.8588791   4.0502300
  14.3568216  37.3442779   5.0811916  14.2488571  37.3544842   5.9473974
  14.5663997  38.1697560   4.8916870  14.3718327  37.4683854   5.1816008
  28.4932429  34.4261192   3.5411132  28.5515553  34.8747840   4.2871109
  27.8598897  34.8360004   3.1041212  28.4083724  34.5534926   3.5863680
  22.1331524  40.0464734  -0.0234122  21.9351213  40.5355548  -0.7177910
  21.5119235  40.2505975   0.5550012  22.0119088  40.1481272  -0.0410899
  24.0505326  33.6128886   5.5111127  24.7739525  33.1601412   5.3322147
  23.7855288  33.8933551   4.7283454  24.1186599  33.5879854   5.3689842
  15.8637057  33.9517347   9.0919013  15.0132688  34.0889061   9.2276658
  16.0265185  33.2181125   9.5366715  15.7620921  33.8631448   9.1774612
  26.4840640  32.5755297   4.0141676  27.0758480  33.2152547   4.0459874
  26.9199634  31.8778333   4.3033743  26.6359071  32.5673647   4.0622509
  18.3134030  36.9972669   4.6399570  17.8059121  37.5508516   5.0840201
  18.0160676  37.0580959   3.8218345  18.1938915  37.0878980   4.5848027
  17.5576515  41.9297227   1.5456577  17.3342169  41.1716057   1.9140603
  17.0686358  41.9595248   0.8237017  17.4519964  41.8219452   1.4933318
  19.6147504  36.0978959   9.0968511  19.5743359  35.4528636   8.5113667
  20.4270823  36.0415577   9.4093923  19.7290658  35.9937926   9.0565460
  19.1794283  27.6500141   8.0920524  19.7365714  27.4213950   7.4598989
  18.8555348  28.4105806   7.8155736  19.2140694  27.7283977   7.9577021
  16.8977401  30.7367794   9.0572531  17.6488728  31.0519471   9.3712085
  17.0899977  30.5346965   8.2306453  17.0368815  30.7535176   8.9815927
  23.5355362  34.2942550   2.6409662  23.9610433  33.7716971   2.0880087
  23.1712282  34.8923387   2.1198285  23.5441964  34.3052777   2.4818672
  13.1709442  42.5906767   1.4007008  13.4856001  43.4043155   1.4084789
  13.5802855  42.2056986   2.0689167  13.2777540  42.6535469   1.5011099
  22.2110946  39.6178127  11.1502892  22.3207911  38.8286688  11.5059639
  22.5401842  39.5284063  10.3477230  22.2763352  39.4883980  11.0845282
  20.7607908  37.7994748   5.7338512  20.2128853  37.1752632   5.4658578
  21.2220936  37.9889020   5.0182592  20.7475117  37.7353798   5.5888943
  20.3266234  38.8045821   2.2647854  21.1464608  38.6608787   2.5264149
  20.0460311  39.4292020   2.8064291  20.4062977  38.8756173   2.3835793
  36.7979884  46.4610672  -4.7709270  36.7673889  47.3155309  -4.5991001
  37.3961233  46.1605965  -4.2123126  36.8817042  46.5427169  -4.6634468
  29.9979569  45.5486323  -0.0156340  29.1417465  45.7094822   0.0352777
  30.0447223  44.6778387   0.0048721  29.8778680  45.4437125  -0.0050274
  33.3073286  51.8172849   9.5904116  34.0140053  51.3224880   9.7191051
  33.4961221  52.2581930   8.8606774  33.4401191  51.8091199   9.5013162
  32.8431390  47.6078367   2.6275312  33.3887350  48.2863454   2.6869282
  32.7848266  47.4665828   1.7676893  32.9147304  47.6870369   2.5087373
  25.8006205  60.0145023  -0.5841480  26.4443660  60.4558187  -0.1945321
  26.1262460  59.2098449  -0.6711221  25.9438033  59.9610217  -0.5396002
  21.4560597  43.2873451   0.5380306  20.8365628  42.6966098   0.3690321
  21.3544460  43.8784886  -0.0955371  21.3498272  43.2877533   0.4185295
  28.5528492  45.0272992  -5.1287231  29.2508657  45.2061120  -4.6365768
  28.8680825  44.5043332  -5.7516842  28.7023829  44.9766764  -5.1485221
  21.1829730  46.8325732   2.7823875  21.0588427  47.4188178   3.4173694
  21.8348014  46.3385928   3.0836150  21.2603379  46.8464537   2.9209804
  28.7416428  51.4143437  -5.1407440  29.1810063  50.8060538  -4.6952667
  28.5921091  51.0350811  -5.9121975  28.7837893  51.2681909  -5.1888272
  26.2088071  50.0087449   2.0611386  26.8537073  49.5159892   1.7422334
  26.4489848  50.1512236   2.8877464  26.3398656  49.9564891   2.1360919
  28.7474162  52.8542355   1.7118278  29.0297405  52.0593761   1.4905034
  29.4760322  53.3322943   1.7323339  28.8963726  52.8076952   1.6821294
  26.7255356  40.3965389  -1.0465957  26.3958686  40.8476533  -1.7162258
  26.0500358  40.3181552  -0.4992950  26.5765792  40.4516524  -1.0642733
  33.9331764  36.3850912  -2.8016346  33.6185205  37.0754391  -2.3695924
  33.4158705  36.3295694  -3.5030845  33.8096234  36.4785800  -2.8419397
  38.7292250  51.9601717  -1.3145891  37.8989953  52.1712361  -1.1512474
  38.6801503  51.1338772  -1.5903607  38.5998986  51.8691324  -1.3308525
  26.7901988  54.7905571   1.5202019  26.2728930  54.4312986   0.9163327
  27.4876379  54.2667746   1.5308085  26.8167569  54.6603259   1.4332277
  30.4465580  55.2400386   7.4818192  30.5348926  55.0526526   8.3296402
  30.8755292  54.5937815   7.0823038  30.5227682  55.1163393   7.5489943
  28.0136040  54.5231545   6.4635854  27.4506875  54.1104155   6.9875515
  28.7757063  54.4484451   6.8828997  28.0430488  54.4508946   6.6028854
  23.5732031  56.5129567  -0.9327516  24.2752610  55.9981556  -0.8754759
  23.4929514  56.8403718  -0.1280641  23.6655792  56.4843793  -0.8054724
  38.2246209  44.6072118   2.4804531  37.3874630  44.6774305   2.7152125
  38.1934440  44.6096613   1.6078833  38.0964491  44.6182345   2.3864078
  24.6210938  46.7505154   8.1952899  24.7931441  46.6411048   9.0438181
  25.1580295  47.3959559   7.9584091  24.7255942  46.8297155   8.2857996
  22.8982807  52.7035919  -1.4241908  23.7371706  52.9358851  -1.3768146
  22.9294576  51.8340230  -1.4934873  23.0264524  52.6092865  -1.4277263
  23.5235510  53.1236794   2.8771398  24.0633735  52.9807925   3.5474770
  22.8405456  53.5233545   3.2455424  23.5027663  53.1616465   3.0305819
  32.9476394  48.8027794  -1.9283578  33.7033909  49.2359309  -1.8894669
  33.0538719  48.1532564  -1.3548942  33.0746565  48.7705278  -1.8385552
  35.9856566  52.6301072  -1.1781175  35.5491797  52.6337814  -0.4222204
  35.6519481  53.3106571  -1.6101598  35.8719186  52.7313528  -1.1300342
  30.5585639  54.6709405  10.1461975  31.3426056  54.7840252  10.5117717
  30.3582234  53.8450542  10.3420661  30.6451665  54.5656124  10.2296361
  18.9272655  49.3437085   3.0305819  18.6611070  48.5276201   3.1896809
  18.9411219  49.3890240   2.1601335  18.8897377  49.2293989   2.9259301
  35.9054048  39.6714900   1.0648253  36.5479957  39.7413004   1.6510168
  36.1577069  39.0044122   0.5627795  36.0376181  39.5841248   1.0775532
  23.6771261  42.8815463   5.6772827  22.9843058  42.4112443   5.9233558
  24.2931588  42.6553767   6.2514534  23.6655791  42.7782595   5.7981979
  30.7156033  56.5819507   3.7928431  29.9171278  56.3419007   4.0502299
  31.1642044  56.6333899   4.5395479  30.6630644  56.5541898   3.9413355
  39.1200912  49.3481992  -2.2861538  39.7817346  48.7872660  -2.3865629
  38.4792324  48.8534022  -1.9608847  39.1229779  49.1918401  -2.2529198
  19.3366068  50.1295864   0.3117563  19.1541642  50.1042750  -0.5410144
  20.0715737  50.5994802   0.3506472  19.4180132  50.1957226   0.1915482
  35.4065743  50.3647374  -2.5449549  35.6421332  50.5092573  -3.3722698
  35.5555306  51.1289782  -2.1518035  35.4631546  50.4986428  -2.6085945
  22.4011820  46.8480867   6.8199672  23.1251792  46.8333898   7.3064567
  22.5027956  47.5576222   6.3221640  22.5230029  46.9505570   6.8178459
  29.7756769  50.3279952  11.6848619  28.9829750  50.6423463  11.8701239
  29.8905697  50.5431420  10.8469404  29.6752180  50.4063788  11.5886954
  32.4488088  47.0513943  -4.0256365  32.5434943  47.7903237  -3.5716740
  31.8246932  46.6231418  -3.5921801  32.3697118  47.0975263  -3.8948218
  30.7040562  50.2300155   6.6233916  31.2779424  49.5927399   6.7782480
  30.6255366  50.2304238   5.7543573  30.7773797  50.1365267   6.5180327
  19.3036979  47.0089365   0.4616630  19.8810481  46.8725816   1.1008875
  18.6051040  46.5525149   0.7162214  19.2858000  46.9211631   0.5938920
  26.0604281  48.6623420  -1.3244887  25.8023525  47.8295155  -1.3513587
  26.1152764  48.8881033  -2.1652386  26.0304059  48.5721192  -1.4524750
  31.1405331  40.7651871  -1.2240794  30.4361658  40.2761057  -1.0656875
  31.1890305  40.7774346  -2.0952350  31.0435383  40.6941519  -1.3301454
  25.0338993  46.2161183  -0.8379992  24.4588584  46.3753351  -0.2016031
  24.6574669  45.5796592  -1.3011541  24.8941805  46.1458996  -0.8125434
  28.7012282  44.6884532   4.0212386  28.3126714  44.2638750   3.3664578
  28.0366980  44.9366682   4.5289413  28.5459209  44.6623253   4.0000254
  38.3435551  44.4459537  -3.2039784  38.0872116  43.6339478  -3.3941901
  39.1864865  44.4537104  -3.4309596  38.4301576  44.3271534  -3.2654966
  32.5238643  38.3859161   1.5336371  32.9049155  37.7037332   1.9204245
  31.7201927  38.0968763   1.3512035  32.4615105  38.2426209   1.5640427
  36.0260710  51.6009133   6.6318769  35.7899347  50.7697198   6.5130830
  36.6703939  51.5494740   7.2173613  36.0855381  51.4706821   6.7004663
  25.6759128  52.3904654  -2.6538495  26.3133075  52.1516402  -2.1086701
  26.1014200  52.5941813  -3.3885334  25.8335294  52.3855664  -2.6821337
  20.3671771  54.6292991   1.2295809  20.4075916  54.9007842   0.4015589
  20.9266295  55.1534899   1.6453597  20.4555116  54.7468746   1.1687697
  26.4830484  40.8913359  11.3998979  26.1683925  41.6612922  11.1368542
  26.1620416  40.3283615  10.8151206  26.3889403  40.9223628  11.2740329
  37.0497131  51.3853582   2.6947064  36.7442948  52.1181638   3.0560379
  36.3303346  50.9791511   2.4139850  36.8984473  51.4335315   2.7060201
  28.0580600  52.8677077  -0.9744708  28.1319608  52.7052249  -0.1202858
  28.8750106  53.0567266  -1.2184227  28.1896959  52.8713819  -0.8846683
  42.7498923  48.0246582   2.0215408  42.6823423  48.0442541   1.1517994
  42.7354585  48.8676910   2.2471078  42.7377679  48.1520317   1.9267885
  33.1595269  39.4281740   5.3456497  33.9048861  39.2391550   4.9319923
  32.7432574  39.9539978   4.7870354  33.2080244  39.4783885   5.2021070
  40.5357540  46.7990969   0.2962002  41.0865462  46.1659038   0.5359094
  40.5201656  47.3306361   0.9877506  40.6142737  46.7839917   0.4340860
  27.1879931  50.6329566   4.8421896  26.6891625  51.3445333   4.9206784
  27.9980155  50.9530232   4.8040058  27.2336038  50.7856414   4.8478464
  23.4508049  49.8952519  -0.9115384  23.1621297  49.2689990  -0.3769656
  24.3191397  49.8372806  -0.8450703  23.5368300  49.7940063  -0.8224429
  34.2385946  45.0387302  -0.5933402  33.8950712  44.3177637  -0.2426152
  34.3378989  44.8301153  -1.4355043  34.2027989  44.9011505  -0.6661722
  26.1146989  43.4910610  10.1384194  25.3046765  43.7968390  10.0274036
  26.5921676  44.2116193  10.2536778  26.0650468  43.6425211  10.1391265
  24.9738549  52.7056331   0.3867097  24.4519302  52.8456623   1.0718962
  25.3612569  51.9466995   0.5769214  24.9542249  52.6141855   0.5168173
  26.4004874  49.7360350  -4.2151412  26.2047657  50.3435085  -4.8091109
  26.6239220  49.0428294  -4.6959738  26.4039515  49.7237876  -4.3735331
  24.7983404  46.6215088  -4.0970544  25.5206056  46.7856246  -4.5566738
  24.3191397  47.3424753  -4.2031204  24.8347135  46.7513318  -4.1804930
  32.7576912  42.9578887   1.2826141  31.9188012  42.9840166   1.0464405
  32.8281279  43.6049622   1.8631488  32.6445305  43.0575013   1.3335258
  22.4491021  49.0273161   5.0083596  22.9612118  49.3057414   4.3592356
  22.1627364  49.7662455   5.3746409  22.4825884  49.1775514   4.9673474
  31.2046190  39.8564264  -3.9846243  31.9072543  39.6572012  -4.4626285
  30.9390379  39.0840206  -3.6777399  31.2692822  39.7127230  -4.0100801
  36.6334436  48.1646874  -1.4312617  36.5468410  48.3202300  -0.5777838
  36.1784916  48.8084949  -1.8053212  36.5537692  48.2822629  -1.3605510
  25.9674746  41.1199549   5.0684638  25.7757943  41.1354684   5.9184061
  26.8173342  41.3163223   5.0451293  26.0650468  41.1513900   5.1907933
  20.3521659  43.6490531   3.0468454  20.2107151  42.7974471   3.1712962
  20.6362223  43.6919191   2.2230660  20.3729505  43.5290281   2.9436078
  30.5060252  45.4857621  -2.8087057  30.2594966  45.4053372  -1.9750269
  30.8345375  44.7011089  -3.0024530  30.5181495  45.3583886  -2.7139534
  34.4008300  52.1940980   0.9799724  34.2622660  52.8922026   1.4848466
  33.6208298  52.0389637   0.6235906  34.2651527  52.2741147   1.0025998
  32.7386386  48.4937356   7.2322105  32.7334424  47.6217172   7.2364532
  33.4447379  48.6925525   6.7591561  32.8431390  48.3941230   7.1629141
  26.4657279  48.2214339   6.6035926  26.6100655  48.8015548   5.9679036
  26.8132928  48.5990636   7.3085780  26.5384740  48.3635043   6.6134921
  28.6377196  47.4204508   4.3861057  27.8900510  47.6135522   3.9809335
  28.7918722  46.5949727   4.1485178  28.5499624  47.3269619   4.2906463
  25.5385034  56.4117111   3.4696952  25.6874598  55.8520027   2.8170357
  26.3185036  56.4909113   3.8529471  25.6759128  56.3402677   3.4293902
  28.0638335  56.5831754   4.7481443  27.9882006  55.9140565   5.3032232
  27.9928194  57.2849542   5.2622109  28.0418941  56.5876661   4.9058291
  28.8778973  41.3155058   5.2756461  29.3351587  42.0479033   5.4029253
  28.9535302  40.8921524   6.0343717  28.9569943  41.3612297   5.4057537
  21.1211965  41.5620878   6.3645905  20.5854154  40.9501236   6.6806672
  21.1829729  42.1369014   7.0179571  21.0507597  41.5567806   6.5081331
  33.3506299  34.4944934  -0.8549696  33.4689867  34.9521397  -1.5882393
  33.1768475  33.6890195  -1.1413479  33.3425470  34.4438706  -1.0048762
  26.7561351  43.3057162   2.1198285  25.9657426  43.1248623   2.4415621
  27.1521974  42.5284115   2.1028579  26.6978227  43.1644623   2.1650833
  32.1405038  50.9399593  -0.1542269  31.4650039  50.7084825   0.3471118
  32.1497414  50.3320776  -0.7800164  32.0423542  50.8158518  -0.1726117
  29.2699182  45.7817422   6.6021784  29.2058323  46.6427378   6.4741921
  29.4096369  45.4649415   5.8017335  29.2814652  45.8617588   6.4649997
  27.9518275  48.4749561   0.7437987  27.5280525  48.6754060   0.0077005
  27.7763131  47.6278409   0.8562287  27.8629156  48.3798342   0.6511677
  27.4529969  59.9900074   3.2059444  27.9425899  59.2910863   3.0235109
  26.8814201  59.6923944   3.7935501  27.4414499  59.8426298   3.2660485
  23.2400720  48.9701612  -3.8234041  23.3965340  48.9048415  -2.9678049
  23.5801314  49.7450165  -4.0355361  23.3133955  49.0750810  -3.7279447
  29.7779865  48.3459496  -4.9540677  30.3195410  47.8429877  -4.4902057
  30.0926424  48.2924691  -5.7651192  29.9044262  48.2638917  -5.0056865
  33.6496972  52.5562143  12.1586235  34.4631838  52.2847292  12.3191367
  33.4891939  52.2569683  11.3546431  33.7466921  52.4717069  12.0631641
  30.9269134  43.2395800   5.0981623  31.1411104  42.6006715   4.5444977
  30.3103034  43.6841624   4.6689485  30.8674464  43.2105944   4.9532054
  19.8134982  46.1536563  -3.5073274  20.1933947  46.5721108  -4.1713006
  19.2390347  46.7350018  -3.2004430  19.7846307  46.3014422  -3.5596533
  33.0908222  44.8484866   6.0364930  32.2784904  44.5410756   6.1178103
  33.5498157  44.3683866   6.6007642  33.0388607  44.7321358   6.1319524
  30.3183863  36.3495736   0.0868966  29.4477421  36.3234457   0.0402275
  30.5724204  36.1772928  -0.7305189  30.2277423  36.3205880  -0.0410897
  30.1861730  46.2544937  10.8193632  30.6561361  46.8787053  11.2061506
  30.2323610  45.5861913  11.3786847  30.2629606  46.2479617  10.9593704
  27.3433004  38.3601964   1.5442436  26.8271492  37.6682156   1.6694015
  26.7826932  39.0272742   1.4905035  27.1839517  38.3565222   1.5548502
  29.4125237  38.8994925   3.3735289  29.0256990  38.9243956   4.1548819
  28.9258174  38.3336603   2.9209805  29.2837746  38.8190675   3.4223192
  33.6618216  53.6168434   7.4309075  34.2997937  53.1228629   7.0971531
  33.0192308  53.5445834   6.8461302  33.6612443  53.5327442   7.2951430
  35.3875216  45.4657579   1.9974991  34.9602825  45.3783928   1.2423090
  34.7501269  45.5735355   2.5829835  35.2304824  45.4690239   1.9720432
  29.0782379  35.7861910   5.6645549  29.7075497  36.3222210   5.3866619
  29.2468241  35.6939269   6.5159114  29.1960173  35.8523272   5.7494077
  28.8796294  40.5733105   7.9371960  29.7069723  40.3018254   7.9930575
  28.9004140  41.3693946   8.2935778  29.0049144  40.6512859   7.9987143
  33.7172473  54.3088242   4.0714432  34.5064851  53.9577307   4.1916514
  33.8916071  55.1224630   3.8091066  33.8592755  54.3774099   4.0502300
  23.4565783  47.7196968   1.1242221  22.6153790  47.6200842   1.3321115
  23.6655791  48.4892448   1.4756542  23.3630476  47.8189011   1.2069536
  20.9341350  45.3416504  -1.0473028  20.5398048  45.4159516  -1.8222919
  20.3781467  45.7274451  -0.4964667  20.7944163  45.4098279  -1.0805369
  32.5706297  38.3197798  -1.3669150  32.7755891  38.2520106  -0.5212152
  32.2432721  39.1256620  -1.4347972  32.5521545  38.4283739  -1.2509494
  27.2682448  45.6478367   0.3739818  26.9645586  45.0934355   0.9750226
  26.5661869  45.8270577  -0.1132147  27.1198658  45.5923149   0.3909524
  25.3300799  52.8628087   5.0811916  25.2221154  52.8730150   5.9473974
  25.5396581  53.6882868   4.8916870  25.3450910  52.9869162   5.1816008
  35.8239985  38.8729563  -1.8866384  35.2114298  39.3599965  -1.5012652
  35.9204160  38.1973054  -1.3428733  35.7477883  38.8447871  -1.7487526
  23.3474591  50.1140730   2.5433854  22.7562525  50.7550228   2.5136869
  24.1095615  50.5378347   2.5165153  23.3722852  50.2716568   2.5349001
  23.7435214  41.2742728   3.2101871  24.2036696  41.3481657   3.9476995
  23.7891321  42.0723982   2.8601693  23.8185769  41.4036875   3.2674628
  25.3918564  41.9409422   7.7773898  25.0004129  41.2942770   8.2129676
  25.5604427  42.5320858   8.3968154  25.3589474  41.9323690   7.9336604
  39.4665013  49.9446500   3.5411132  39.5248137  50.3933148   4.2871109
  38.8331480  50.3545312   3.1041212  39.3816308  50.0720234   3.5863680
  33.1064108  55.5650041  -0.0234122  32.9083796  56.0540856  -0.7177910
  32.4851819  55.7691283   0.5550012  32.9851672  55.6666580  -0.0410899
  27.1672086  47.3334938  -5.6823878  27.9114131  47.7209215  -5.4440928
  27.3132782  46.4892364  -5.5183390  27.2982671  47.2665411  -5.6229908
  29.0851661  39.1285197  -0.6492016  28.2387706  39.3008005  -0.7750666
  29.0822794  38.3234541  -0.3126188  28.9598811  39.0346226  -0.6180889
  30.1549962  42.9060412   0.2170042  29.6809916  42.3802174   0.7275353
  30.5268098  42.3589884  -0.3515097  30.1399851  42.7476408   0.2085189
  20.5322992  44.9031918   5.5853588  21.3948605  44.8027627   5.4990917
  20.2014775  44.3226628   5.0239160  20.6108188  44.8023545   5.4898993
  36.4186692  47.9662787   1.6276822  36.1784915  47.1269202   1.6319249
  36.8978699  48.0462954   2.3517596  36.4538876  47.8544187   1.7351625
  38.4191879  44.7464244  -0.4193919  38.1801649  44.7060079  -1.2573134
  38.5825781  45.5935396  -0.2928197  38.4082183  44.8656329  -0.5240437
  35.0237909  49.1314194   5.5111127  35.7472108  48.6786720   5.3322147
  34.7587872  49.4118859   4.7283454  35.0919183  49.1065162   5.3689842
  23.8924778  43.7274367   2.2464006  23.2677848  43.7392759   1.6389958
  23.5570373  44.2034542   2.8955246  23.7510270  43.7992884   2.2520574
  20.6050453  51.7874827   3.6867770  20.0750378  51.0967266   3.7362745
  20.8775547  51.7785013   2.8580479  20.5675176  51.6841959   3.5715186
  30.8056699  49.2298072   3.6606142  30.1913692  48.6856122   3.9554777
  31.3223984  48.7162308   3.1811958  30.7912361  49.0734481   3.6330370
  30.0452996  50.3002342   1.3950440  29.6180604  49.6752061   0.9615876
  30.0377941  50.0177264   2.2209448  29.9812137  50.1655123   1.4530268
  23.1615523  45.3367515   4.4638874  23.3209010  44.5810839   4.8690596
  22.9808417  45.8858455   5.1179612  23.1580882  45.3061329   4.6201580
  31.1035826  37.5028751   5.0189664  30.6076387  37.6992425   4.3281230
  31.8604888  37.9021419   4.8478465  31.1422651  37.5906484   4.8909800
  28.3738706  41.1771097   1.6092974  28.3981193  40.6431209   0.9205754
  28.6250179  40.6688405   2.2718565  28.4148625  41.0232000   1.6057619
  24.6540028  39.9041915   0.9898719  24.6938400  40.4051121   1.7033426
  23.8289693  39.9952308   0.7204642  24.5379554  39.9923731   1.0549257
  26.8369641  49.4702655   9.0919013  25.9865271  49.6074369   9.2276658
  26.9997769  48.7366433   9.5366715  26.7353504  49.3816756   9.1774612
  26.0754391  46.4202425   3.2872618  25.2446321  46.5876243   3.0807866
  26.0205909  46.0438375   4.0721503  25.9443806  46.3892156   3.3721146
  23.8838175  39.9111318   8.9229028  24.5090878  39.3673450   9.1958461
  23.4288655  39.4306235   8.3536819  23.9086435  39.7600799   8.8790622
  37.4573223  48.0940605   4.0141676  38.0491064  48.7337855   4.0459874
  37.8932218  47.3963641   4.3033743  37.6091655  48.0858955   4.0622509
  29.2866613  52.5157977   4.6399570  28.7791704  53.0693824   5.0840201
  28.9893259  52.5766267   3.8218345  29.1671498  52.6064288   4.5848027
  31.4528795  40.8811297   3.4824233  31.8783867  40.4283823   2.8707760
  30.8385789  40.3271367   3.7589021  31.4257441  40.7325273   3.4329258
  34.4822365  45.3085823  -3.6855181  33.8113555  45.8515525  -3.8142116
  35.1762115  45.7780678  -3.9273486  34.4851232  45.4584094  -3.7399653
  28.5309099  57.4482535   1.5456577  28.3074753  56.6901364   1.9140603
  28.0418942  57.4780556   0.8237017  28.4252548  57.3404760   1.4933318
  34.6450492  41.7641707  -0.7764808  34.9978102  41.3371430  -0.1019009
  33.7865294  41.6792550  -0.6463732  34.5699937  41.6886447  -0.6569798
  23.3434177  44.3949226  -2.7181961  22.6246166  44.8113359  -2.4509098
  23.7146540  44.9603465  -3.2690323  23.2926109  44.5398508  -2.7599154
  32.6433758  45.0277075   3.1720034  32.6231685  44.8460371   4.0254813
  32.6912959  45.8989094   3.1479618  32.6468399  45.1293614   3.2943329
  30.5880088  51.6164267   9.0968511  30.5475943  50.9713944   8.5113667
  31.4003406  51.5600885   9.4093923  30.7023241  51.5123234   9.0565460
  27.1787555  57.6682993  -1.0006338  26.7647954  57.0057124  -1.3902497
  27.8634930  57.8160852  -1.5210644  27.2185927  57.5923651  -1.1349841
  30.5452850  56.8273079  -0.2482722  30.1469133  56.9375349  -1.0161901
  29.9304069  57.0355145   0.3343838  30.3951739  56.8746647  -0.2751422
  36.0774552  36.8860119   0.1519505  35.5705417  36.1789258   0.0840682
  36.8741986  36.5553307   0.2820581  36.1201792  36.7333270   0.1618500
  31.9938568  43.3926731  -3.9506832  31.7652261  43.4159432  -4.7928474
  32.2536644  42.5684198  -3.8311821  31.9984756  43.2742811  -4.0581634
  26.2757797  45.2461204   5.6518268  25.7636700  44.6382387   6.0103300
  26.1037293  45.9617796   6.1192244  26.1747434  45.2624503   5.7734492
  21.1223511  43.6898779   8.3020630  20.9526102  44.3500154   7.7568837
  20.6789461  43.9005340   9.0233119  21.0322845  43.8184761   8.3282260
  25.0483331  41.9303277  -2.6552636  25.5240697  42.2920357  -3.2902455
  24.5471930  42.5859745  -2.3752493  25.0448690  42.0797466  -2.7075895
  30.1526867  43.1685449   8.0920524  30.7098297  42.9399258   7.4598989
  29.8287932  43.9291114   7.8155736  30.1873277  43.2469285   7.9577021
  18.0225576  46.5945645   3.5609120  17.4752295  45.9246290   3.6789988
  18.8117954  46.2275493   3.6252587  18.0577760  46.4410631   3.5877821
  27.8709984  46.2553102   9.0572531  28.6221311  46.5704779   9.3712085
  28.0632561  46.0532273   8.2306453  28.0101398  46.2720484   8.9815927
  34.7195274  42.3826668  -3.7003673  34.7189501  42.2275325  -2.8419397
  34.5151454  43.2289655  -3.7562288  34.6895052  42.4847289  -3.5815734
  16.7812545  45.8066453   0.7155143  16.6034306  45.3543062   1.4410059
  16.4931567  46.6092614   0.8993621  16.7125499  45.8589010   0.8498646
  32.4436126  47.0624170  -0.0467467  32.9389792  46.3447165  -0.0863446
  31.6335902  46.7594968  -0.1612980  32.3980020  46.9121816  -0.0693741
  34.5087945  49.8127857   2.6409662  34.9343017  49.2902279   2.0880087
  34.1444865  50.4108695   2.1198285  34.5174548  49.8238085   2.4818672
  24.1442025  58.1092075   1.4007008  24.4588584  58.9228463   1.4084789
  24.5535438  57.7242294   2.0689167  24.2510123  58.1720777   1.5011099
  31.0966545  53.5262122  -1.0289180  31.5677723  54.2402384  -0.8599195
  31.4326723  52.9260872  -0.4929311  31.2161660  53.5433586  -0.9256804
  33.1843529  55.1363435  11.1502892  33.2940495  54.3471996  11.5059639
  33.5134426  55.0469371  10.3477230  33.2495935  55.0069288  11.0845282
  28.0136040  38.2989592   5.9268914  28.1463945  37.5020586   6.2549890
  28.3981192  38.8255995   6.5067190  28.0892369  38.2589509   6.0612417
  31.7340491  53.3180056   5.7338512  31.1861437  52.6937940   5.4658578
  32.1953520  53.5074328   5.0182592  31.7207701  53.2539106   5.5888943
  31.0868395  35.2219918   2.5250008  30.2814359  35.1117648   2.8417846
  30.9575130  35.3232374   1.6679874  30.9488528  35.2203589   2.4458048
  34.5434355  41.3865410   3.1189705  33.9597344  41.8874617   2.7067272
  34.8638649  40.8794967   2.4854028  34.5047531  41.3857245   2.9648212
  25.6724486  38.2948767   4.1746808  26.2168899  37.9539894   4.7651150
  25.7261422  39.1534229   4.3168093  25.7613606  38.3704027   4.2828682
  21.4855045  52.0565183   1.0485616  22.0899903  52.0161018   0.4199437
  21.2782358  52.9036335   1.0789672  21.5443943  52.1753186   0.9601733
  32.1562313  62.3511040   2.7823875  32.0321010  62.9373486   3.4173694
  32.8080598  61.8571236   3.0836150  32.2335963  62.3649845   2.9209804
  35.5943521  62.2690462   8.1952899  35.7664025  62.1596356   9.0438181
  36.1312879  62.9144867   7.9584091  35.6988525  62.3482463   8.2857996
  41.5318223  70.1894712  10.1461975  42.3158639  70.3025560  10.5117717
  41.3314817  69.3635850  10.3420661  41.6184248  70.0841432  10.2296361
  34.6503845  58.4000771   5.6772827  33.9575641  57.9297751   5.9233558
  35.2664172  58.1739075   6.2514534  34.6388375  58.2967903   5.7981979
  33.3744404  62.3666175   6.8199672  34.0984376  62.3519205   7.3064567
  33.4760540  63.0761530   6.3221640  33.4962613  62.4690878   6.8178459
  40.7489353  65.8465259  11.6848619  39.9562334  66.1608771  11.8701239
  40.8638280  66.0616728  10.8469404  40.6484764  65.9249096  11.5886954
  39.6744865  60.2069840   4.0212386  39.2859298  59.7824058   3.3664578
  39.0099564  60.4551990   4.5289413  39.5191793  60.1808561   4.0000254
  43.4971227  53.9044469   1.5336371  43.8781738  53.2222640   1.9204245
  42.6934511  53.6154071   1.3512035  43.4347688  53.7611517   1.5640427
  37.4563067  56.4098667  11.3998979  37.1416508  57.1798230  11.1368542
  37.1353000  55.8468923  10.8151206  37.3621986  56.4408936  11.2740329
  44.1327853  54.9467048   5.3456497  44.8781445  54.7576858   4.9319923
  43.7165157  55.4725286   4.7870354  44.1812827  54.9969193   5.2021070
  37.0879573  59.0095918  10.1384194  36.2779348  59.3153698  10.0274036
  37.5654259  59.7301500  10.2536778  37.0383051  59.1610519  10.1391265
  33.4223604  64.5458468   5.0083596  33.9344701  64.8242722   4.3592356
  33.1359947  65.2847763   5.3746409  33.4558468  64.6960822   4.9673474
  36.9407330  56.6384857   5.0684638  36.7490527  56.6539991   5.9184061
  37.7905926  56.8348531   5.0451293  37.0383052  56.6699208   5.1907933
  31.3254243  59.1675839   3.0468454  31.1839735  58.3159779   3.1712962
  31.6094806  59.2104499   2.2230660  31.3462089  59.0475589   2.9436078
  37.4389863  63.7399647   6.6035926  37.5833238  64.3200855   5.9679036
  37.7865511  64.1175944   7.3085780  37.5117324  63.8820351   6.6134921
  39.8511557  56.8340366   5.2756461  40.3084171  57.5664341   5.4029253
  39.9267886  56.4106832   6.0343717  39.9302527  56.8797605   5.4057537
  32.0944548  57.0806186   6.3645905  31.5586738  56.4686544   6.6806672
  32.1562313  57.6554322   7.0179571  32.0240181  57.0753114   6.5081331
  37.7293935  58.8242470   2.1198285  36.9390010  58.6433930   2.4415621
  38.1254558  58.0469423   2.1028579  37.6710811  58.6829931   2.1650833
  40.2431765  61.3002729   6.6021784  40.1790906  62.1612686   6.4741921
  40.3828953  60.9834723   5.8017335  40.2547235  61.3802896   6.4649997
  44.6229556  68.0747451  12.1586235  45.4364421  67.8032600  12.3191367
  44.4624522  67.7754991  11.3546431  44.7199504  67.9902377  12.0631641
  41.9001718  58.7581108   5.0981623  42.1143688  58.1192023   4.5444977
  41.2835617  59.2026932   4.6689485  41.8407047  58.7291252   4.9532054
  44.0640806  60.3670174   6.0364930  43.2517488  60.0596064   6.1178103
  44.5230741  59.8869174   6.6007642  44.0121191  60.2506666   6.1319524
  41.1594313  61.7730245  10.8193632  41.6293945  62.3972361  11.2061506
  41.2056194  61.1047220  11.3786847  41.2362189  61.7664925  10.9593704
  38.3165587  53.8787272   1.5442436  37.8004076  53.1867464   1.6694015
  37.7559516  54.5458049   1.4905035  38.1572100  53.8750530   1.5548502
  40.3857821  54.4180232   3.3735289  39.9989574  54.4429264   4.1548819
  39.8990758  53.8521911   2.9209805  40.2570329  54.3375983   3.4223192
  40.0514962  51.3047218   5.6645549  40.6808080  51.8407518   5.3866619
  40.2200825  51.2124577   6.5159114  40.1692757  51.3708580   5.7494077
  39.8528877  56.0918413   7.9371960  40.6802307  55.8203562   7.9930575
  39.8736723  56.8879254   8.2935778  39.9781727  56.1698167   7.9987143
  34.7167798  56.7928035   3.2101871  35.1769279  56.8666965   3.9476995
  34.7623904  57.5909290   2.8601693  34.7918353  56.9222183   3.2674628
  36.3651147  57.4594730   7.7773898  35.9736713  56.8128077   8.2129676
  36.5337010  58.0506166   8.3968154  36.3322058  57.4508998   7.9336604
  31.5055575  60.4217226   5.5853588  32.3681188  60.3212935   5.4990917
  31.1747358  59.8411935   5.0239160  31.5840772  60.3208853   5.4898993
  34.8657361  59.2459675   2.2464006  34.2410432  59.2578067   1.6389958
  34.5302956  59.7219850   2.8955246  34.7242853  59.3178192   2.2520574
  34.1348107  60.8552823   4.4638874  34.2941594  60.0996147   4.8690596
  33.9541000  61.4043763   5.1179612  34.1313466  60.8246637   4.6201580
  42.0768410  53.0214059   5.0189664  41.5808971  53.2177733   4.3281230
  42.8337472  53.4206727   4.8478465  42.1155234  53.1091792   4.8909800
  35.6272612  55.4227223   0.9898719  35.6670983  55.9236429   1.7033426
  34.8022276  55.5137616   0.7204642  35.5112138  55.5109039   1.0549257
  37.8102225  64.9887963   9.0919013  36.9597855  65.1259677   9.2276658
  37.9730352  64.2551741   9.5366715  37.7086088  64.9002064   9.1774612
  34.8570758  55.4296625   8.9229028  35.4823462  54.8858758   9.1958461
  34.4021238  54.9491543   8.3536819  34.8819019  55.2786107   8.8790622
  42.4261379  56.3996604   3.4824233  42.8516451  55.9469131   2.8707760
  41.8118372  55.8456675   3.7589021  42.3990024  56.2510581   3.4329258
  41.5612672  67.1349575   9.0968511  41.5208526  66.4899252   8.5113667
  42.3735990  67.0786193   9.4093923  41.6755825  67.0308542   9.0565460
  37.2490380  60.7646512   5.6518268  36.7369283  60.1567695   6.0103300
  37.0769876  61.4803104   6.1192244  37.1480017  60.7809811   5.7734492
  32.0956095  59.2084087   8.3020630  31.9258685  59.8685462   7.7568837
  31.6522045  59.4190648   9.0233119  32.0055429  59.3370069   8.3282260
  41.1259451  58.6870757   8.0920524  41.6830881  58.4584566   7.4598989
  40.8020516  59.4476422   7.8155736  41.1605861  58.7654593   7.9577021
  28.9958159  62.1130953   3.5609120  28.4484879  61.4431598   3.6789988
  29.7850538  61.7460801   3.6252587  29.0310343  61.9595939   3.5877821
  38.8442568  61.7738410   9.0572531  39.5953895  62.0890087   9.3712085
  39.0365144  61.5717581   8.2306453  38.9833982  61.7905792   8.9815927
  27.7545129  61.3251761   0.7155143  27.5766890  60.8728370   1.4410059
  27.4664151  62.1277922   0.8993621  27.6858082  61.3774318   0.8498646
  38.9868623  53.8174900   5.9268914  39.1196529  53.0205894   6.2549890
  39.3713776  54.3441303   6.5067190  39.0624952  53.7774817   6.0612417
  42.0600978  50.7405226   2.5250008  41.2546942  50.6302956   2.8417846
  41.9307714  50.8417682   1.6679874  41.9221111  50.7388896   2.4458048
  36.6457070  53.8134075   4.1746808  37.1901483  53.4725202   4.7651150
  36.6994006  54.6719537   4.3168093  36.7346189  53.8889335   4.2828682
  35.2894345  39.2068593  -4.8707054  35.4614849  39.0974487  -4.0221773
  35.8263703  39.8522998  -5.1075862  35.3939349  39.2860594  -4.7801957
  41.2269047  47.1272844  -2.9197978  42.0109463  47.2403691  -2.5542236
  41.0265641  46.3013981  -2.7239292  41.3135072  47.0219563  -2.8363592
  40.4440177  42.7843391  -1.3811334  39.6513158  43.0986902  -1.1958714
  40.5589104  42.9994859  -2.2190549  40.3435587  42.8627227  -1.4772999
  37.1513891  33.3476798  -1.6660974  36.8367332  34.1176361  -1.9291411
  36.8303824  32.7847054  -2.2508747  37.0572810  33.3787067  -1.7919624
  36.7830396  35.9474049  -2.9275759  35.9730172  36.2531829  -3.0385917
  37.2605083  36.6679632  -2.8123175  36.7333875  36.0988650  -2.9268688
  37.1340686  40.6777778  -6.4624028  37.2784062  41.2578987  -7.0980918
  37.4816335  41.0554075  -5.7574173  37.2068148  40.8198483  -6.4525033
  39.9382589  38.2380861  -6.4638169  39.8741730  39.0990817  -6.5918033
  40.0779777  37.9212854  -7.2642618  39.9498059  38.3181027  -6.6009956
  44.3180380  45.0125582  -0.9073718  45.1315245  44.7410731  -0.7468586
  44.1575346  44.7133122  -1.7113523  44.4150328  44.9280508  -1.0028313
  43.7591630  37.3048305  -7.0295023  42.9468312  36.9974195  -6.9481850
  44.2181564  36.8247305  -6.4652311  43.7072015  37.1884797  -6.9340429
  40.8545137  38.7108376  -2.2466321  41.3244769  39.3350493  -1.8598447
  40.9007018  38.0425352  -1.6873106  40.9313013  38.7043056  -2.1066249
  37.5053048  41.9266094  -3.9740940  36.6548679  42.0637808  -3.8383295
  37.6681176  41.1929872  -3.5293238  37.4036912  41.8380195  -3.8885341
  41.2563495  44.0727706  -3.9691442  41.2159350  43.4277383  -4.5546286
  42.0686814  44.0164324  -3.6566030  41.3706649  43.9686673  -4.0094493
  40.8210275  35.6248888  -4.9739429  41.3781705  35.3962697  -5.6060964
  40.4971340  36.3854553  -5.2504217  40.8556685  35.7032724  -5.1082932
  38.5393392  38.7116541  -4.0087422  39.2904719  39.0268218  -3.6947868
  38.7315968  38.5095712  -4.8353500  38.6784806  38.7283923  -4.0844026
  79.2032942  79.2032942  79.2032942 109.4712190 109.4712190 109.4712190
