default_name
 43954
  38.4742927  30.1359187  24.0489159  38.9655383  30.5766625  24.8134574
  38.1922819  30.8481752  23.3906902  39.0113144  29.3408429  23.7333819
  37.1810838  29.5565085  24.5911518  36.3402272  30.0213264  24.0763668
  37.1009838  28.0413803  24.3895297  37.0158595  27.8667119  23.3169887
  38.0392918  27.6216267  24.7521382  35.9188545  27.3632311  25.1167194
  36.1848709  27.3400952  26.1735074  35.0584050  28.0168289  24.9734064
  35.4788238  25.6379780  24.5568859  34.5607617  25.9930389  23.0505229
  35.2028425  26.5277680  22.3505971  34.2293287  25.0586220  22.5976236
  33.6932144  26.6081088  23.2895879  37.0501735  29.8458742  26.1101310
  35.9468213  30.0611929  26.6155770  37.8640779  32.3131108  27.6434126
  38.6474245  31.9170033  28.1429788  37.5496028  33.7341169  27.8537812
  37.7039996  34.0024014  28.8989052  38.4815467  34.6161800  26.9705132
  38.5148656  34.2117487  25.9588688  38.0978028  35.6359719  26.9411017
  39.7514672  34.6188036  27.5059271  40.3267644  35.1621288  26.9623916
  36.1339073  34.0913491  27.4551281  35.7175473  35.2506388  27.5523641
  35.4067850  33.1131298  26.9010331  35.7425437  32.1608604  26.9244548
  34.1063495  33.3754010  26.2825015  33.9457987  34.4503660  26.2002041
  34.0482633  32.7560269  24.8634009  34.7966083  33.2964706  24.2837461
  34.3649616  31.7206618  24.9891839  32.6857992  32.7936989  24.1138820
  32.7825540  32.1640818  23.2293926  31.9365964  32.3685004  24.7817147
  32.2592516  34.1843839  23.6982951  33.0465941  35.1309837  23.8842803
  31.1283284  34.2972772  23.1860452  33.0226260  32.7042781  27.1570410
  32.9288497  31.4421682  27.2200142  32.2548774  33.5051037  27.8763980
  32.4557424  34.4915023  27.9586793  31.0837970  32.9548047  28.6270450
  31.4286370  32.2401673  29.3743588  30.3156016  34.0873678  29.3444073
  30.0167763  34.7857032  28.5626590  29.4266083  33.6647254  29.8125570
  31.1511380  34.8317057  30.4064892  32.0142899  35.2939503  29.9275323
  30.2783916  35.9382596  31.0884879  29.4152333  35.4766975  31.5680889
  30.8734120  36.4606876  31.8375676  29.9380622  36.6488671  30.3352858
  31.6828700  33.8674832  31.4580652  32.3141825  33.1189349  30.9792964
  32.2681099  34.4185308  32.1942323  30.8475187  33.3737281  31.9545458
  30.1070665  32.1957009  27.7237150  29.8176746  32.6363643  26.6082164
  29.6096767  31.0605638  28.2378513  30.0388225  30.6542574  29.0569046
  28.4712871  30.3463049  27.6137421  28.5946823  30.3194333  26.5310830
  28.3298831  28.8865899  28.1345327  27.5399723  28.3884103  27.5724311
  29.6655371  28.1020546  27.9598078  30.4558725  28.5994104  28.5220415
  29.5412291  27.0847869  28.3310396  29.9347766  28.0726128  26.9039935
  27.9508680  28.8820046  29.5162829  27.8678269  27.9758826  29.8223016
  27.1715294  31.0959890  27.8659321  27.1135657  31.9644086  28.7599359
  26.1307440  30.8267977  27.0513306  26.0531414  30.0700856  25.7814091
  25.8858531  29.0130548  25.9882923  26.9808678  30.1877935  25.2214381
  24.8625765  30.7271829  25.0819403  24.4034366  30.0433782  24.3680071
  25.1673484  31.6383445  24.5671587  23.9162773  31.0446599  26.2378815
  23.3454553  30.1717270  26.5545035  23.2312213  31.8535526  25.9839316
  24.8607725  31.4917140  27.3702156  25.0205123  32.5664272  27.2831931
  24.3387777  31.1622028  28.7874192  23.8381424  32.0732054  29.4483938
  24.5483821  29.9397574  29.2934057  24.9563169  29.2127361  28.7232053
  24.1512021  29.6056987  30.6728519  23.1098868  29.8933699  30.8177899
  24.2926782  28.1182979  30.9771677  25.2522669  27.7873218  30.5799983
  24.2876381  27.9984841  32.0605510  23.1655578  27.2729192  30.3633831
  22.2325537  27.5091445  30.8750488  23.0968724  27.5848398  29.3212282
  23.4145778  25.7667232  30.4285273  24.2559332  25.3150288  31.2402257
  22.7235323  25.0190019  29.6737757  24.9673627  30.3843756  31.7089644
  24.4370503  30.8425905  32.7356664  26.2676423  30.5148050  31.4570099
  26.7160952  30.0884022  30.6587806  27.0909375  31.2682882  32.3894095
  26.9165170  30.9083776  33.4033824  28.5840633  31.1063296  32.0606392
  28.6954232  31.2799750  30.9903376  29.1175501  31.8810741  32.6113321
  29.1650283  29.7335162  32.4184172  29.2844678  29.6681502  33.4998802
  28.4584660  28.9735205  32.0848375  30.5233167  29.5030176  31.7386952
  30.9034538  30.2803388  30.8246970  31.2243626  28.5652523  32.1120862
  26.6727393  32.7475511  32.3176847  26.5664588  33.3936543  33.3510081
  26.4109669  33.2966432  31.1257573  26.4138455  32.7619997  30.2688749
  26.0828689  34.7220938  31.0536234  26.9016769  35.2719689  31.5176169
  25.8682254  35.2687920  29.6249806  25.0671545  34.6832206  29.1738811
  25.5485222  36.3062654  29.7226484  27.0649967  35.2028444  28.7702465
  27.8528828  35.8168702  29.2064903  27.4044446  34.1690573  28.7057387
  26.7316200  35.7223914  27.3591321  25.8414017  35.2374065  26.9586325
  26.5874286  36.8028118  27.3587369  27.8674549  35.4013056  26.4975244
  27.8437529  34.5143507  26.0149804  28.9192978  36.1975922  26.3126693
  28.9858875  37.4186258  26.9117533  28.2295805  37.7285274  27.5051004
  29.7912847  38.0089017  26.7600646  29.9105041  35.7656263  25.5210201
  29.8445110  34.8572934  25.0843552  30.7190405  36.3503589  25.3646377
  24.8056464  35.0122318  31.7766750  24.6915697  36.0489632  32.4237304
  23.8306761  34.0999602  31.6722947  23.9280892  33.2991769  31.0645479
  22.5659689  34.2881043  32.3688587  22.1570446  35.2716856  32.1376705
  21.5573432  33.2238638  31.9307258  21.3243978  33.3398951  30.8722494
  21.9625044  32.2272453  32.1059288  20.3790796  33.3941570  32.6937568
  19.7315385  32.7347573  32.4339829  22.7204940  34.2829946  33.8908213
  22.1616848  35.1370255  34.5940691  23.4562211  33.3044577  34.3810407
  23.7717648  32.5811335  33.7506967  23.7908572  33.1884565  35.7719762
  22.8848042  33.1264151  36.3747348  24.5967344  31.9461824  35.9905421
  23.9432953  31.1031218  35.7661201  25.4159940  31.9715460  35.2720225
  25.1510699  31.7935507  37.3745193  26.0123985  31.1287105  37.3097021
  25.4792556  32.7823093  37.6950653  24.1613860  31.2405063  38.3784265
  22.9859829  30.9249257  38.0140606  24.5947245  31.1222579  39.5495034
  24.5667919  34.3944224  36.3247162  24.3699964  34.7169992  37.4906655
  25.4435756  34.9998307  35.5110578  25.5568595  34.6407029  34.5738847
  26.3205719  36.0958954  35.9482371  26.3872398  36.0941905  37.0361947
  27.7506833  35.9417645  35.3632327  27.5305566  35.8793624  34.2975173
  28.4014240  36.7960474  35.5498803  28.4605201  34.6425522  35.8206046
  27.7517379  33.8178103  35.7462441  29.6863089  34.3394832  34.9598345
  30.3958001  35.1636266  35.0340548  30.1586132  33.4215234  35.3096621
  29.3800712  34.2168237  33.9209536  28.7624302  34.6379037  37.3220868
  27.8306833  34.7258634  37.8808445  29.2597435  33.7057976  37.5903382
  29.4120388  35.4787376  37.5652043  25.8279901  37.5159742  35.6537472
  26.5039212  38.4822364  36.0565593  24.6608904  37.6360242  35.0152989
  24.1147790  36.8075474  34.8269164  24.1243001  38.9299923  34.5964774
  24.7168769  39.3520446  33.7847979  22.6927773  38.7178907  34.0979109
  22.6452300  37.7426454  33.6134164  22.0295431  38.7260269  34.9628700
  22.2626304  39.7793845  33.1281198  22.0933177  40.7247595  33.6435809
  23.0155786  39.9188655  32.3524162  20.9606570  39.3074808  32.4926819
  21.1669277  38.9462345  31.4851838  20.5461832  38.4962669  33.0912158
  19.9504718  40.4608698  32.4253862  19.0519294  40.0970951  31.9269988
  19.7048954  40.7575631  33.4450746  20.4904567  41.6382106  31.6808991
  20.7176741  41.3636047  30.7358787  19.7959008  42.3712084  31.6607432
  21.3228297  41.9757101  32.1427955  24.0860781  39.9116131  35.7693749
  24.5629350  41.0468970  35.6782698  23.5241531  39.4367141  36.9004421
  23.0159119  38.5639398  36.9078767  23.4286526  40.3083566  38.0791644
  23.1315502  41.3045600  37.7514325  22.4010794  39.8033298  39.1202697
  22.6262501  38.7684701  39.3780734  22.4822747  40.4252295  40.0117563
  20.9722704  39.8759784  38.6057020  20.6677977  40.6069862  37.6591076
  20.0640544  39.0894784  39.2309279  19.1001382  39.0985501  38.9294598
  20.3547867  38.4974390  39.9958232  24.7550693  40.6794889  38.6952719
  24.9288213  41.8362122  39.0842739  25.6898566  39.7280755  38.7964357
  25.4638367  38.7660610  38.5877671  27.0307674  40.0341014  39.2743222
  26.9664636  40.5057705  40.2548794  27.8834227  38.7641450  39.3960455
  27.9989512  38.3014894  38.4158913  28.8654816  39.0156179  39.7965724
  27.2327582  37.8568585  40.2736854  27.7592213  37.0583513  40.3562848
  27.7637554  41.0388703  38.4030884  28.5223153  41.8445681  38.8895520
  27.5454657  40.9593537  37.0930870  26.9869526  40.2137741  36.7028646
  28.1991284  41.8801803  36.1800539  29.2592240  41.9880033  36.4095551
  28.0348267  41.3774778  34.7232704  27.0179057  41.0057740  34.5975398
  28.3062787  42.5387018  33.6766817  29.3232327  42.9106235  33.8014995
  28.1827462  42.1527520  32.6648105  27.5996062  43.3516033  33.8437269
  28.9946712  40.1889524  34.4949815  30.0075980  40.5914770  34.4876315
  28.8782362  39.5149830  35.3436909  28.7406524  39.4171042  33.1892657
  28.8573705  40.0903560  32.3400255  29.4562840  38.5992658  33.1049392
  27.7280071  39.0138637  33.1960841  27.6631477  43.3128836  36.3850899
  28.4489878  44.2851542  36.4250041  26.3506100  43.4200701  36.5756647
  25.7614592  42.6064988  36.4702962  25.7060739  44.7214606  36.8353877
  26.0288675  45.4401718  36.0821562  24.1600562  44.5684234  36.7464043
  23.8206748  43.8585889  37.5007618  23.6881145  45.5355252  36.9198557
  23.8869150  44.2038065  35.7561783  26.1761705  45.2765221  38.1838108
  26.4582794  46.4807348  38.3320005  26.3515805  44.3850457  39.1636120
  26.2806079  43.3906808  39.0014375  26.6382234  44.8430183  40.5079772
  25.9930814  45.6815212  40.7702821  26.3773292  43.6841751  41.5084805
  25.3288476  43.4001172  41.4184989  27.0071974  42.8450214  41.2132057
  26.6823283  44.0656174  42.9705750  27.7267190  44.3720474  43.0293087
  26.0414583  44.9118606  43.2180770  26.4262821  42.9166249  43.9703977
  26.2514478  41.7348234  43.5398396  26.4153475  43.2053359  45.1987235
  28.1068122  45.3072209  40.6289737  28.3640859  46.3658679  41.2160493
  29.0518158  44.4806993  40.1259159  28.7630841  43.6944630  39.5614995
  30.5013272  44.6521400  40.4065418  30.6502720  45.4172466  41.1684647
  31.0827759  43.3361033  40.9165866  30.7515709  42.4973337  40.3043219
  32.1716353  43.3849403  40.9065730  30.6828068  43.0250442  42.3181289
  31.1787195  43.7926310  43.3868656  31.8641981  44.6157254  43.1850375
  30.7999744  43.5074287  44.6952469  31.1864717  44.1116766  45.5159814
  29.9324919  42.4567361  44.9561076  29.6404326  42.2371691  45.9830407
  29.4344760  41.6825456  43.9090497  28.7632989  40.8468614  44.1071740
  29.8063991  41.9888922  42.5848133  29.4024337  41.4065597  41.7566824
  31.3300351  45.1091472  39.2315568  32.4181566  45.6647729  39.4114390
  30.8076585  44.9282302  38.0346088  29.8548062  44.6150620  37.9158753
  31.6545068  45.0894253  36.8199857  32.6243727  45.5148015  37.0778895
  31.8774662  43.6994720  36.1926463  30.9469128  43.2388548  35.8609819
  32.5530494  43.8044573  35.3437262  32.5270719  42.7241693  37.1432816
  33.8410546  42.8400392  37.5319854  34.1385847  41.8589376  38.3871471
  35.1185173  41.8206417  38.8629249  33.0871349  41.0573018  38.4944378
  33.0374703  40.1999717  39.0260565  32.0493500  41.5908640  37.7490956
  31.0779726  41.0965598  37.7352902  31.0989254  46.0547179  35.8138417
  31.5313528  46.0437034  34.6176335  30.2358133  46.9583139  36.2702272
  29.9328182  46.9524883  37.2336894  29.6859236  48.0202094  35.3554588
  30.1456117  47.8737982  34.3780388  28.1431388  47.8760353  35.2062010
  27.6779296  48.1059264  36.1647576  27.5832961  48.8511251  34.1043290
  28.0477328  48.6215223  33.1453292  26.5034019  48.7271078  34.0234136
  27.8105795  49.8808409  34.3802426  27.8743119  46.5476203  34.7655008
  26.9269729  46.4295590  34.6644528  30.0218889  49.3537707  35.9727459
  30.0045285  49.4765204  37.1761408  30.2866299  50.3701229  35.1515483
  30.0831276  50.3179567  34.1636390  30.8701003  51.6122621  35.6782309
  30.7958121  51.6291699  36.7655646  32.3606561  51.7018492  35.2839461
  32.5122208  51.6931265  34.2045707  32.6924991  52.6577500  35.6892039
  33.1588163  50.5841310  35.9132508  33.6160045  50.7033801  37.2152633
  33.4224355  51.6347794  37.7473591  34.3018764  49.6793787  37.8413262
  34.6953189  49.7994708  38.8507234  34.5346002  48.4845345  37.1321084
  35.2015539  47.4739429  37.7822395  35.4442968  47.7030789  38.6823352
  34.0639739  48.3183029  35.8507373  34.2321224  47.3853748  35.3127116
  33.3585560  49.3688395  35.2344131  32.9640594  49.2426287  34.2261753
  30.1913364  52.8292573  35.1279299  29.8437066  52.8638773  33.9388168
  30.0419949  53.8220226  35.9938399  30.1309756  53.6762900  36.9893015
  29.7454519  55.1727118  35.5140101  29.0575778  55.1215985  34.6700220
  29.1031388  56.0002576  36.6143972  28.2835811  55.4112663  37.0261176
  29.8587966  56.1581346  37.3839140  28.5700081  57.3524631  36.1389239
  28.1674111  57.2597783  35.1302484  27.7762421  57.6604226  36.8195109
  29.6423583  58.4167137  36.1348304  30.4798888  58.4811421  37.0458092
  29.6435035  59.2484634  35.0956576  30.3374111  59.9801743  35.0391533
  28.9504611  59.1440659  34.3684061  31.0860353  55.7422153  35.1173644
  32.0234520  55.7816363  35.9488612  31.2126982  56.1322376  33.8522532
  30.4485085  56.0324240  33.1994509  32.4875455  56.6580967  33.3547962
  33.2258338  56.6175135  34.1556598  33.0132847  55.8547934  32.1642711
  32.2101934  55.9733198  31.4368819  33.9157946  56.3382332  31.7902900
  33.2881872  54.3560554  32.3850831  32.4434985  53.9277300  32.9246564
  33.4733950  53.6239919  31.0782817  34.3182539  54.0514824  30.5383149
  33.6653036  52.5693982  31.2760294  32.5705735  53.7216510  30.4753916
  34.4889478  54.1506663  33.2976357  34.2954584  54.6164051  34.2639424
  34.6615069  53.0835087  33.4372754  35.3709896  54.6047933  32.8461162
  32.3536880  58.1201161  32.9680683  31.4660831  58.5129952  32.2172284
  33.2596853  58.9025804  33.5190489  33.7061973  58.6131372  34.3775062
  33.5386931  60.2168912  33.0170411  32.6195361  60.7185538  32.7144119
  34.2000320  61.0367685  34.1373130  35.1022937  60.5164236  34.4586607
  34.4695514  62.0082928  33.7230669  33.2630059  61.2358430  35.3470677
  32.0139432  61.2133095  35.1775139  33.7748132  61.4086407  36.4819805
  34.3634006  60.2132075  31.6988431  34.9965395  59.1925373  31.3215775
  34.3290277  61.3548678  30.9573748  33.3928037  62.4916567  31.1252368
  33.7126026  63.0969223  31.9734599  32.3906298  62.1058849  31.3121233
  33.4877725  63.2284012  29.8245145  33.3368097  64.2953194  29.9888152
  32.7331929  62.8578109  29.1307034  34.8822523  62.9400896  29.3107769
  35.6490327  63.5681864  29.7642538  34.9291963  63.0363071  28.2260474
  35.1007131  61.4713336  29.7177755  34.6348962  60.7928870  29.0030566
  36.6046771  61.1452103  29.8304375  37.1902892  60.7003841  28.8698240
  37.2560845  61.3418507  30.9604167  36.8700860  61.7128551  31.8168396
  38.6901221  60.9730353  30.9385696  39.0558784  61.2626981  29.9534722
  39.1670316  61.5914906  31.6989444  39.0521626  59.4948132  31.1939658
  40.2241530  59.1864228  31.3672830  38.0754345  58.5905494  31.2135403
  37.1083592  58.8406905  31.0642282  38.3814600  57.2205576  31.6740183
  39.4307589  56.9976477  31.4806736  38.1195060  57.0724665  33.1672842
  38.3346442  56.0460542  33.4644246  38.7752202  57.7525860  33.7109536
  36.7832169  57.3744633  33.4649002  36.6354614  57.2763156  34.4083699
  37.7338637  56.1217010  30.8439664  36.9338363  56.3852678  29.9473267
  38.1393168  54.8707363  31.0950746  38.7780396  54.6716668  31.8517144
  37.6810822  53.7664568  30.2732536  36.6696894  53.9778482  29.9261263
  38.5893071  53.5428286  29.0422008  38.1823805  52.7382243  28.4297288
  38.6374253  54.4585528  28.4529353  40.3333106  53.0766346  29.4045471
  40.7209861  52.9912161  28.1351734  37.6804170  52.5108006  31.1575585
  38.3062547  52.5077711  32.2260794  36.9644539  51.4981168  30.7086761
  36.4364669  51.5842761  29.8519931  36.8405797  50.2465279  31.4853519
  37.7488821  50.0953539  32.0686464  35.6352410  50.2900402  32.4509700
  35.6494070  49.3846343  33.0577143  35.7448060  51.1612915  33.0967383
  34.3871038  50.3726047  31.7432846  33.6631353  50.3976435  32.3732390
  36.7478265  49.0536246  30.5707396  36.4024057  49.1747147  29.3617762
  37.0450876  47.8776587  31.1322777  37.3109642  47.8355685  32.1057444
  36.9002581  46.6041672  30.3876613  36.1526852  46.7227150  29.6033270
  38.2281709  46.1933329  29.7407471  39.0123320  46.4069136  30.4670899
  38.1759960  45.1182560  29.5687368  38.5247458  46.8591142  28.5096035
  39.3676622  46.5472888  28.1721771  36.5736498  45.5363827  31.4152012
  36.9683210  45.6705433  32.5846872  35.8708789  44.5066982  30.9479357
  35.5183510  44.5698890  30.0035680  35.5467788  43.3319778  31.7224214
  35.9744304  43.4116385  32.7218550  34.0130405  43.1961547  31.8510475
  33.8163777  43.9426737  32.6205489  33.5315286  43.4982383  30.9209981
  33.4537125  41.8420616  32.2988892  33.8012586  41.0657230  31.6172655
  33.9454495  41.5154637  33.7620005  33.5978721  42.2911747  34.4443210
  33.5440326  40.5513083  34.0740417  35.0346568  41.4779496  33.7799041
  31.9166530  41.7616623  32.1495942  31.6443819  41.9092820  31.1045218
  31.5697025  40.7826390  32.4801089  31.4509064  42.5363147  32.7587680
  36.1595380  42.0820261  31.0492915  36.0131587  41.9018661  29.8248400
  36.8086463  41.2220224  31.8476279  36.9769555  41.4487254  32.8173583
  37.3254663  39.9330736  31.3269379  37.0024555  39.7897048  30.2958178
  38.8596715  39.9301515  31.3651456  39.1503323  40.1403334  32.3944362
  39.3293092  39.0026118  31.0377154  39.4399943  41.0238457  30.5245487
  39.4928496  40.9349425  29.1543620  39.9514938  42.0803151  28.6651859
  40.0412604  42.2267752  27.5888076  40.2315714  42.8834570  29.6749649
  40.6232998  43.8120285  29.6086039  39.9015129  42.2484339  30.8497722
  40.0388905  42.7594091  31.8027323  36.8149382  38.7271163  32.1153839
  36.6456744  38.8459632  33.3028073  36.5259230  37.6171171  31.4023384
  36.6218578  37.6285474  30.3969702  36.0785115  36.3697843  32.0473956
  35.9002218  36.4959057  33.1152933  34.7862479  35.8677686  31.3905805
  34.9515998  35.7279471  30.3223068  34.4947308  34.9184403  31.8399065
  33.9929178  36.5997144  31.5421778  37.1539618  35.3394769  31.8778720
  37.8936410  35.3167015  30.8707668  37.2381261  34.4284294  32.8427672
  36.6974562  34.4710286  33.6948005  38.1544308  33.3407509  32.6737251
  38.3219080  33.1426851  31.6150370  39.5184092  33.7185714  33.3324165
  39.9522036  34.5251021  32.7412905  39.3042680  34.0804620  34.3380401
  40.5377204  32.5192115  33.4120567  41.3300380  32.7879141  34.1107216
  40.0141545  31.6365172  33.7792512  41.1583665  32.1915130  32.0864848
  41.6870120  33.0811251  31.3753980  41.1091713  30.8952228  31.7048770
  41.5114046  30.6164620  30.8213600  40.6704166  30.2115927  32.3050816
  37.5664847  32.0939667  33.3292103  37.3500059  32.0956026  34.5320715
  37.3713996  31.0250704  32.5386684  37.5540146  31.1092128  31.5488850
  36.8813636  29.7231588  33.0554863  36.1256518  29.8882807  33.8234276
  36.2464420  28.8938982  31.9038286  35.6275198  29.5662442  31.3097029
  37.0560611  28.5051835  31.2861573  35.3577285  27.6856141  32.4346154
  36.0261267  26.9339196  32.8544964  34.7027913  28.0669518  33.2180316
  34.5049263  27.0484150  31.3162203  35.1594654  26.6465054  30.5428212
  33.8993183  26.2437512  31.7331790  33.6184359  28.0348686  30.7115204
  32.7570311  28.2385345  31.1979374  33.8464303  28.6343722  29.5474513
  34.9472550  28.3413305  28.8482406  35.6043389  27.6635190  29.2072844
  35.1169558  28.7990516  27.9640502  33.0006381  29.5579783  29.1282126
  32.1972694  29.7960125  29.6921616  33.1610889  30.0220081  28.2455855
  38.0678680  28.9844854  33.6546613  39.1801999  28.9799678  33.0743472
  37.8560556  28.3733736  34.8276966  36.9486706  28.4327461  35.2672723
  38.9004788  27.6216273  35.5024230  39.7177141  27.4323646  34.8064307
  39.4458779  28.3909596  36.7491036  38.6389368  28.5160034  37.4711219
  40.5902677  27.6127856  37.3948947  41.3978344  27.4877372  36.6735767
  40.9595684  28.1610581  38.2615636  40.2313625  26.6333553  37.7111265
  39.9302438  29.7911552  36.2744058  40.6159075  29.6517471  35.4386239
  39.0620774  30.3594263  35.9405577  40.6668129  30.5843892  37.4362056
  41.5354156  30.0169161  37.7702766  40.9897564  31.5569279  37.0647555
  39.9815857  30.7245933  38.2722118  38.3021792  26.2904737  35.9459067
  37.2485335  26.2486883  36.6076209  39.0011530  25.2079548  35.5832189
  39.8496539  25.3234010  35.0476652  38.5154466  23.8359445  35.8391912
  37.4307548  23.8378183  35.9466136  38.8928367  22.9129981  34.6607942
  39.9498270  23.1242035  34.4987354  38.7506129  21.8381147  34.7725888
  38.1762990  23.3129268  33.4012221  36.8243524  23.1223930  33.2527120
  36.4188822  23.6555302  32.1080856  35.3758049  23.5963209  31.7973076
  37.4682055  24.2034964  31.5216329  37.4688953  24.6793755  30.6307690
  38.5731031  24.0238639  32.3210092  39.5367988  24.4339240  32.0189452
  39.0765032  23.4050575  37.1917377  39.9480832  22.5524184  37.2775567
  38.5832971  24.0743873  38.2250442  37.9060864  24.7987762  38.0333525
  39.0034694  23.8657820  39.6137360  39.1327142  22.8021720  39.8140577
  40.3068733  24.5751635  39.9086211  40.1905901  25.6426532  39.7214206
  40.5789974  24.4173542  40.9522422  41.0913962  24.1772802  39.2649504
  37.8856661  24.3537755  40.5217086  37.0303131  25.1171912  40.0799614
  37.8501861  23.8751965  41.7966895  38.8028912  22.9305786  42.4324118
  39.6367571  23.4741630  42.8765784  39.1826267  22.2219966  41.6963333
  37.9301578  22.2744420  43.4604980  38.5262368  21.8433761  44.2648431
  37.3107092  21.4979158  43.0117309  37.0544454  23.4582150  43.9724542
  37.6848291  24.0210456  44.6608852  36.1114387  23.2137147  44.4613896
  36.7890168  24.2906514  42.7076181  35.8203064  24.1359321  42.2324755
  36.9581957  25.7679450  43.0461252  38.1054230  26.2328374  43.1698293
  35.8330798  26.4734706  43.2361198  34.4371761  26.0741519  42.9571963
  34.2412235  25.1016360  43.4087665  34.2867380  26.0106958  41.8794947
  33.6457782  27.1526656  43.5718439  33.4614224  26.9271506  44.6222034
  32.6941182  27.2592299  43.0511821  34.4983895  28.4104767  43.4125792
  34.3010215  29.0732492  44.2551215  34.3110659  28.9432005  42.4802623
  35.9495280  27.9314385  43.4570684  36.5391853  28.3562475  42.6447015
  36.6206039  28.2488331  44.7925387  37.2788886  29.2848113  44.9032339
  36.4919786  27.3581048  45.7993950  35.8455097  26.5826935  45.7691518
  37.1999621  27.6178479  47.0438041  36.9988827  28.6397821  47.3652333
  36.7484111  26.6385519  48.1785266  37.3124147  26.8903777  49.0766262
  35.6865458  26.8071150  48.3577713  36.9828423  25.1414468  47.8217069
  37.8796219  25.1158521  47.2026495  37.1709441  24.6106458  48.7549631
  35.8142717  24.4590483  47.0661289  35.0095719  25.1432031  46.3875190
  35.6999501  23.1980265  47.1762901  38.7033821  27.6202606  46.8135685
  39.4337320  28.4174392  47.4386200  39.2040542  26.7426586  45.9471690
  38.6373088  26.0168953  45.5322394  40.6328825  26.7680291  45.6383649
  41.2123603  26.8010413  46.5609779  41.0265274  25.5128797  44.8587646
  40.7407289  24.7085333  45.5365885  40.3645941  25.5099701  43.9927762
  42.4566514  25.3039420  44.4018626  42.6214058  25.9332304  43.5272467
  43.4928821  25.6553339  45.4907073  43.3290433  25.0260882  46.3655247
  44.4980251  25.4855342  45.1047586  43.3843233  26.7028584  45.7717903
  42.6026426  23.8376461  44.0049786  41.9078807  23.6085004  43.1969577
  43.6229892  23.6512405  43.6699458  42.3814808  23.2043934  44.8641512
  41.0555012  28.0391148  44.8563401  42.0685717  28.6907188  45.1781572
  40.2954634  28.3828400  43.8266874  39.5366996  27.8024809  43.4987237
  40.5944486  29.6376400  43.0861060  41.5865133  29.6156568  42.6350809
  39.5504684  29.8845323  41.9721027  38.5509894  29.8118883  42.4008963
  39.7430424  31.2864381  41.3493624  40.7422020  31.3596863  40.9199260
  38.9997631  31.4424949  40.5675167  39.6231268  32.0469252  42.1209720
  39.6327026  28.7901810  40.8696025  39.4427660  27.8124996  41.3125077
  38.8866060  28.9913746  40.1008628  40.6264421  28.7987668  40.4218202
  40.6307971  30.8311248  44.0584345  41.5590095  31.6713974  44.0174745
  39.6123815  30.9176228  44.9059638  38.8259309  30.2948860  44.7885173
  39.5016162  32.0111506  45.9049782  39.5672921  32.9739097  45.3981442
  38.1448673  31.9416919  46.6680265  37.2872342  32.0642400  46.0065534
  38.0772248  30.9792939  47.1752883  38.0220532  33.0016880  47.7350443
  37.9622803  32.7966637  49.0848166  37.9732649  31.7567638  49.4112937
  37.8991754  33.9871739  49.7596738  37.8588628  34.0966478  50.7629135
  37.9065457  35.0132164  48.8440388  37.8518021  36.3841910  49.0622422
  37.7962184  36.7463597  50.0888108  37.8718856  37.2193955  47.9361476
  37.8348035  38.3011384  48.0648220  37.9405829  36.6790430  46.6096941
  37.9480555  37.3258028  45.7323428  38.0008530  35.2823035  46.4047054
  38.0281772  34.9021207  45.3835222  37.9907459  34.4346722  47.5468950
  40.7333838  32.0955630  46.8587220  41.2569055  33.1650737  47.1560063
  41.1748960  30.9279646  47.3537725  40.6689454  30.0764452  47.1562171
  42.3551957  30.8505506  48.2243521  42.1797681  31.3805721  49.1605152
  42.6356781  29.3640700  48.5433100  43.1505635  29.2915552  49.5012943
  41.6914385  28.8221926  48.5969782  43.4559378  28.7932706  47.5160690
  43.6270013  27.8706687  47.7189061  43.5928140  31.5018205  47.5900734
  44.4704649  31.9902474  48.2896626  43.6700954  31.5408573  46.2517727
  42.9495689  31.1171122  45.6848680  44.7888242  32.1700395  45.5823030
  45.7063083  32.1498756  46.1704488  45.0477671  31.5028382  44.1879228
  44.1191981  31.5203778  43.6173508  46.1489200  32.2500967  43.4022460
  47.0779805  32.2325785  43.9720182  46.3041621  31.7621119  42.4400239
  45.8423948  33.2834102  43.2397508  45.3657872  30.0094334  44.3816530
  46.4219867  29.9442528  44.6429856  44.7622834  29.6659075  45.2218152
  45.0829213  29.1152418  43.1405816  45.6864556  29.4578939  42.3000844
  45.3370684  28.0808315  43.3718903  44.0267520  29.1795506  42.8789126
  44.5414856  33.6722324  45.3654019  45.4146072  34.5239824  45.6608973
  43.3811461  33.9666347  44.7802127  42.7732842  33.2083393  44.5052739
  42.9541321  35.3673636  44.4684761  43.6368968  35.9133691  43.8174696
  41.5664588  35.3512852  43.8193335  40.9917500  34.5537524  44.2902374
  40.7965279  36.7099693  43.9710074  41.3704415  37.5079593  43.4999063
  39.8216553  36.6314308  43.4898052  40.6618545  36.9357429  45.0288311
  41.7235565  34.9370535  42.3708148  42.1698509  33.9437681  42.3227782
  40.7457934  34.9191596  41.8894015  42.3682360  35.6497312  41.8564416
  42.9336718  36.2501341  45.7359628  43.2128808  37.4610367  45.6708597
  42.6081846  35.6601559  46.8812055  42.3335399  34.6884099  46.9006822
  42.4701216  36.4577302  48.1305204  42.0274871  37.4276297  47.9036532
  41.5659439  35.7285719  49.1325283  41.2485238  36.4310213  49.9031829
  40.6905084  35.3444279  48.6089386  42.3293819  34.5559380  49.7878644
  42.6150978  33.8418685  49.0154836  43.2251822  34.9423802  50.2739778
  41.4327275  33.8473972  50.8421342  40.5271018  33.4691798  50.3679058
  41.9760980  33.0199159  51.2983388  41.0522212  34.7939428  51.8917549
  40.1694179  35.2676096  51.7637027  41.7700570  35.0742807  52.9710586
  42.9520524  34.4709089  53.1690116  43.2937044  33.8023419  52.4934436
  43.4947449  34.6880434  53.9926845  41.3004880  35.9501968  53.8524166
  40.4063010  36.3920575  53.6933924  41.8398027  36.1703031  54.6775176
  43.7814946  36.9076012  48.7843759  43.7843083  37.7905260  49.6527145
  44.8826916  36.2794240  48.3783394  44.7810329  35.5443918  47.6931442
  46.2084656  36.5322531  48.9291023  46.1547263  36.6509026  50.0112915
  47.1189942  35.3465665  48.6124795  47.0767532  35.1592326  47.5395299
  48.1377994  35.6121980  48.8945716  46.6980975  34.0988886  49.3591332
  45.6323849  33.9241119  49.2114489  47.2609765  33.2418258  48.9893864
  46.9785867  34.2878231  50.8357207  46.5236405  35.2122607  51.1914428
  46.5843215  33.4466201  51.4058362  48.4252292  34.3636772  51.0509710
  49.0181310  34.1387422  50.2648597  48.9977855  34.7109111  52.1973553
  48.2377962  35.0340834  53.2435780  47.2315943  35.0130712  53.1586301
  48.6716008  35.2984993  54.1165027  50.3279052  34.7285744  52.2992996
  50.8957535  34.4773214  51.5027317  50.7609225  34.9931163  53.1725763
  46.7863768  37.8649065  48.4032349  47.6816577  37.8964627  47.5526902
  46.2966017  38.9465242  48.9867849  45.5496865  38.8497061  49.6597213
  46.7350569  40.2988800  48.6240183  46.5788874  40.4787553  47.5603665
  45.9177985  41.3165966  49.4160806  44.8562164  41.2110211  49.1924817
  46.0811274  41.1614454  50.4825476  46.2784436  42.7521563  49.1288169
  45.8153076  43.3702068  47.9619782  45.1944531  42.8110462  47.2619931
  46.1514221  44.7192588  47.6892973  45.7844743  45.1911006  46.7778067
  46.9436491  45.4407565  48.5751277  47.2087139  46.4757243  48.3590671
  47.3989845  44.8346656  49.7434228  48.0156648  45.3893517  50.4506208
  47.0526260  43.4782197  50.0109663  47.4002536  42.9971075  50.9251796
  48.2440762  40.5011877  48.8305157  48.8843904  41.1962139  48.0571035
  48.8363799  39.8227057  49.8238472  48.2843749  39.2789959  50.4717433
  50.2778907  39.9175300  50.0508363  50.6036149  40.9469032  49.9011910
  50.6426533  39.4876033  51.4942327  51.7317119  39.4900617  51.5394495
  50.2479220  40.2021175  52.2165600  50.1272770  38.1018658  51.8221166
  48.9887801  37.7267393  51.3980330  50.8363777  37.3946831  52.5561207
  51.1550901  39.1382871  49.0922917  52.3710136  39.3323949  49.1111601
  50.5742808  38.2704929  48.2708808  49.5685274  38.1780780  48.2665325
  51.3514970  37.4442977  47.3443337  52.3758152  37.8104496  47.2750216
  51.3811068  35.9982987  47.8609837  50.3485865  35.6802462  48.0053567
  51.8455824  35.3837751  47.0898008  52.1382587  35.8412022  49.1498475
  52.0031929  36.7296233  49.7667478  51.7718800  34.9668431  49.6877739
  53.6292639  35.6596848  48.8343796  53.9195037  36.3718299  48.0619101
  54.2101431  35.8471841  49.7374426  53.9011540  34.2183109  48.3358918
  54.1965168  33.6298838  49.2045775  52.9610227  33.8341478  47.9400747
  54.9686219  34.1207941  47.2771601  55.8399557  34.4763203  47.6438728
  55.0865433  33.1550639  47.0059411  54.6949291  34.6656296  46.4719610
  50.7762638  37.3949477  45.9339815  50.5017262  36.3194908  45.4302449
  50.5735919  38.5620332  45.2976368  51.0777066  39.8817268  45.7085956
  52.0933024  39.7826672  46.0918092  50.4348310  40.2931946  46.4867370
  51.0160285  40.6826898  44.4257541  52.0010122  40.6706884  43.9591045
  50.7417634  41.7094526  44.6679071  50.0204758  40.0695009  43.5739951
  50.2927953  40.2091229  42.5278370  49.0205565  40.4682906  43.7449563
  50.0565283  38.5640918  43.9304986  49.0702830  38.1006917  43.9565551
  50.9464178  37.8152647  42.9295413  50.4438143  37.2866987  41.9461117
  52.2421034  37.7486771  43.1859784  52.6255046  38.2548013  43.9714344
  53.1720457  37.1223565  42.2422307  52.9702545  37.4804587  41.2327048
  54.6361415  37.4731425  42.6086094  55.2650370  37.1699267  41.7715611
  54.6929349  38.5546498  42.7319650  55.1242531  36.7874354  43.8880350
  54.5994413  35.8355272  43.9689308  56.1948505  36.6047722  43.7955295
  54.8759582  37.5881425  45.1556563  53.8586231  38.2654106  45.3179773
  55.8349105  37.5188953  46.0679087  55.7389887  38.0254091  46.9364387
  56.6571849  36.9599293  45.8903611  52.9018484  35.6040790  42.0617541
  53.3684603  34.9923949  41.0841585  52.0908297  35.0044056  42.9361256
  51.7015718  35.4816038  43.7366626  51.7485544  33.5800190  42.7342658
  52.6702873  32.9986210  42.7122664  50.8369967  32.9966529  43.7794149
  50.5769592  31.9804415  43.4831127  51.4966598  32.9713113  45.1347512
  51.7565856  33.9872884  45.4319529  50.8101666  32.5438973  45.8656024
  52.4008596  32.3644006  45.0880311  49.6372873  33.7862838  43.8281435
  49.0440329  33.4263445  44.4915386  51.0461505  33.3985540  41.3857299
  51.1420463  32.3226572  40.7960637  50.3898798  34.4402218  40.8706475
  50.1463248  35.2358188  41.4431906  49.8508896  34.3756256  39.4919180
  50.3877851  33.6155152  38.9244019  48.3747132  34.0195915  39.5042482
  48.0973693  33.6459916  38.5185491  48.2836423  33.2164209  40.2354959
  47.4690171  35.1409055  39.8830548  46.8232848  35.8779125  38.9036592
  47.0075127  35.6412934  37.8557227  45.9698130  36.8842779  39.2337889
  45.4462233  37.4417492  38.4571414  45.7563284  37.1952593  40.5861572
  44.9295693  38.2318398  40.9135520  44.5551820  38.6699436  40.1457637
  46.3744523  36.4812849  41.5876497  46.2109376  36.7248376  42.6374333
  47.2066165  35.4497930  41.2460461  47.6797274  34.8506799  42.0240755
  50.0725991  35.5777453  38.5345158  49.8377720  35.4823254  37.3070467
  50.5147206  36.6925520  39.0647899  50.5862341  36.8205871  40.0640858
  50.8435747  37.8085909  38.2050817  50.3263024  37.7244577  37.2493359
  50.3959129  39.1069209  38.8928201  51.0794703  39.2790866  39.7242090
  50.5043937  39.9083182  38.1620025  48.9625004  39.0826175  39.4106956
  48.2628932  38.9249476  38.5898480  48.8375678  38.2921943  40.1507801
  48.6844723  40.4484603  40.0667251  49.2031070  40.4402571  41.0253959
  49.1348165  41.1988885  39.4169966  47.2572348  40.7747551  40.2812266
  46.6697786  40.4704598  39.4149703  46.8860242  40.2631164  41.1692175
  47.1294098  42.3337310  40.4812467  47.4729305  42.8080044  39.6583506
  46.1600908  42.5757799  40.6293445  47.6733441  42.6158439  41.2841457
  52.3333224  37.8339961  37.8693549  53.1948024  38.2773300  38.7194238
  52.6497065  37.5173734  36.6070359  51.9373392  37.4473219  35.8944877
  54.0503408  37.1870727  36.2376176  54.5517609  36.7373865  37.0946236
  54.1073141  36.1875452  35.0478458  53.2943409  36.2922571  34.3293688
  55.0550817  36.4121903  34.5585900  54.1560092  34.7354912  35.4335451
  54.9579215  34.2492592  36.4473755  54.8292653  32.9352823  36.5235474
  55.3683361  32.3671035  37.2816203  53.9949253  32.5432063  35.5757593
  53.6984667  31.5941997  35.3979992  53.5863598  33.6475668  34.8570652
  52.9232298  33.5256692  34.0006186  54.9438200  38.3991373  35.8777810
  56.1721987  38.2106641  35.5832892  54.3364478  39.5970155  35.9046305
  53.3419335  39.6413580  36.0751428  55.0648748  40.8501583  35.7262226
  55.8815239  40.7152721  35.0170053  54.1153999  41.9191341  35.1810967
  53.1802911  42.0180226  35.7323606  54.6572679  42.8643539  35.2133252
  53.7387926  41.6814491  33.7218497  54.7469582  41.7086806  32.7238726
  55.7766183  41.9243145  33.0091832  54.4271511  41.4601589  31.3742673
  55.1937505  41.5217717  30.6018491  53.1213528  41.1342511  31.0321153
  52.8802319  40.9289008  29.9891427  52.1015296  41.0666055  32.0262453
  51.0782017  40.8091068  31.7531252  52.4251512  41.3356988  33.3701709
  51.6546891  41.2755285  34.1388501  55.6072526  41.3437509  37.0657011
  56.2021358  42.3941655  37.1144460  55.3234138  40.6240904  38.1572602
  54.7359008  39.8040184  38.1081698  55.8109148  41.0572138  39.4810214
  56.1358165  42.0975606  39.4957446  54.7195018  40.8409699  40.5635394
  54.3690388  39.8108079  40.4999599  55.2905322  41.1222067  42.0397844
  55.6407831  42.1523841  42.1042785  54.4997896  40.9612928  42.7725419
  56.1187444  40.4438994  42.2448771  53.5123102  41.7115071  40.2092256
  53.8523894  42.7467461  40.2361911  53.2245086  41.4505724  39.1908039
  52.2941209  41.5447569  41.1476494  52.5810476  41.8059762  42.1662452
  51.4884639  42.2008140  40.8180967  51.9531681  40.5098012  41.1208596
  57.0896208  40.3355784  39.8786360  57.1340604  39.0856018  39.9718604
  58.1116382  41.1105643  40.1971593  58.0412195  42.1138910  40.1050941
  59.3603438  40.5517208  40.6552449  59.5609942  39.6042635  40.1550818
  60.4833188  41.5175349  40.3319644  60.4480345  41.7351234  39.2644863
  60.3150930  42.4355054  40.8951077  61.8821121  40.9332147  40.6969823
  61.9292689  40.8914681  41.7851617  61.9132246  39.9211647  40.2933874
  63.0781895  41.7331266  40.1638268  63.9775556  41.2076162  40.4848850
  63.0134163  41.7102066  39.0759947  63.1381162  43.1592139  40.6315424
  62.3359699  43.7034274  40.1330511  62.9635055  43.1606949  41.7074644
  64.4653815  43.8309515  40.3340774  64.6271690  43.8300679  39.3371202
  64.4438354  44.7829151  40.6708280  65.2087553  43.3270743  40.7962486
  59.3170088  40.2806530  42.1712371  59.7319829  39.2154903  42.6360110
  58.8166019  41.2397050  42.9298089  58.5528734  42.1296017  42.5315243
  58.6779715  41.0560361  44.3986923  58.4378085  40.0175737  44.6267645
  60.0126039  41.4220594  45.1007615  59.9634269  41.1144061  46.1452855
  60.8317041  40.8994180  44.6067767  60.2368051  42.8380697  45.0294211
  61.0641009  43.0534558  45.4662166  57.5313927  41.9139251  44.9116772
  57.0587871  42.8515849  44.2479897  57.0449408  41.5950802  46.1075666
  57.4095621  40.8302022  46.6572142  55.9552278  42.3720850  46.6527701
  55.9666884  43.3817436  46.2422128  54.6250487  41.7090626  46.2842106
  54.4650652  41.7270212  45.2061652  54.5904312  40.6790105  46.6390265
  53.1941493  42.5412372  47.0180677  52.2791351  41.7257653  46.5016833
  56.1350980  42.3991590  48.1643000  56.4310975  41.3647301  48.7597891
  56.0457625  43.5607117  48.7606752  56.0426485  44.4497902  48.2814789
  56.1265589  43.5603963  50.2191470  56.0013675  42.5463937  50.5989168
  57.4725866  44.0800728  50.6652810  57.6568162  43.7699092  51.6938514
  58.2496704  43.6724410  50.0186922  57.4888653  45.4811597  50.5895200
  58.3459176  45.8070480  50.8738752  54.9544247  44.2847460  50.8727027
  54.3726589  45.2411769  50.3202479  54.5973934  43.7877841  52.0581189
  55.0702170  42.9632642  52.3997387  53.5627899  44.3683252  52.8735185
  53.2223848  45.3017623  52.4252789  52.3717120  43.4009271  52.9576391
  52.7177907  42.4232405  53.2929864  51.4030249  43.9173561  53.8979654
  51.0561152  44.8948888  53.5630257  50.5563444  43.2337453  53.9604856
  51.8650888  44.0134302  54.8804970  51.6817617  43.2531421  51.5887424
  52.3953142  42.8655820  50.8615960  50.8425673  42.5631511  51.6768605
  51.3183846  44.2259491  51.2575258  54.1478061  44.6247759  54.2787139
  55.2366080  44.1701152  54.5958180  53.4012107  45.3317224  55.1050207
  52.6273105  45.8486430  54.7126295  53.6825293  45.4783571  56.5571330
  54.5727856  46.0840397  56.7265189  52.4853058  46.1818677  57.1931886
  51.5818223  45.7109744  56.8057919  52.5436216  46.0238489  58.2700959
  52.4435324  47.6857886  56.8992875  53.0843523  47.9061448  56.0455347
  51.4121631  47.9388816  56.6536851  52.8936656  48.5041285  58.0929336
  52.1969923  49.4988114  58.4408048  53.9356824  48.1275002  58.6948747
  54.0031659  44.1799916  57.3282252  53.3017172  43.1666130  57.1681019
  50.8444491  42.0633583  59.9959196  51.1405691  41.2967956  60.5831112
  49.4209580  42.4255964  59.9888787  49.0267468  42.3314208  61.0007224
  49.1892532  43.8749844  59.5010750  49.6660453  44.0025342  58.5292214
  48.1227260  44.0815306  59.4118650  49.7648561  44.9465134  60.4116264
  50.0306448  44.6872084  61.7667143  49.8199212  43.6987737  62.1749941
  50.5680488  45.6979271  62.6005588  50.7776093  45.4824157  63.6482896
  50.8321879  46.9814789  62.0778674  51.2451840  47.7590447  62.7204603
  50.5623105  47.2564580  60.7280338  50.7627559  48.2431870  60.3105561
  50.0236035  46.2351064  59.9058618  49.8007850  46.4392719  58.8585948
  48.6270402  41.4618685  59.1070074  49.1366451  41.0054467  58.0748296
  47.3905871  41.1488318  59.5112471  47.0770040  41.3789788  60.4433401
  46.4833271  40.3953006  58.6383111  47.0280279  39.6063134  58.1197561
  45.3289722  39.7560619  59.4330032  45.7340342  39.0547698  60.1625327
  44.7685775  40.5346631  59.9505338  44.4114003  39.0216437  58.4849568
  44.0055610  39.7224196  57.7553621  44.9710162  38.2425253  57.9673627
  43.2670532  38.3879499  59.2727572  42.2274758  39.0808445  59.4363948
  43.4433946  37.2170298  59.7033962  45.9760991  41.3657079  57.5525254
  45.6973945  42.5356071  57.8302870  45.8787361  40.8987391  56.3139627
  46.1896244  39.9724938  56.0579991  45.5072267  41.8212867  55.2495058
  45.9904434  42.7831128  55.4212366  45.9417777  41.2899827  53.8610183
  45.6000174  40.2570622  53.7948792  45.4240706  41.8919573  53.1142212
  47.5126368  41.3478172  53.5938720  47.9600870  40.7273715  54.3703617
  47.6574791  40.8743717  52.6228045  48.3302354  42.9967909  53.5910041
  49.1599523  43.1045184  55.2155621  49.8829786  42.2942425  55.3092902
  49.6748786  44.0616463  55.2983731  48.4176200  43.0220158  56.0094369
  44.0200969  42.1957502  55.3848575  43.1327850  41.3285126  55.4385466
  43.7756494  43.4982833  55.5239081  44.5555630  44.1379463  55.4722815
  42.4429105  44.0491038  55.7411054  41.6412774  43.3283340  55.5799389
  42.3427802  44.5819955  57.1808784  42.4512085  43.7554522  57.8831381
  43.1335803  45.3117675  57.3545681  40.9850970  45.2461882  57.3837795
  40.8761204  46.0731790  56.6821306  40.1937479  44.5168644  57.2107034
  40.8858446  45.7744101  58.8109289  40.9942747  44.9478679  59.5131895
  41.6766439  46.5041829  58.9846168  39.5784021  46.4272055  59.0451370
  38.9135441  46.4607409  58.2855723  39.2389808  46.9716968  60.2101361
  40.0602532  46.9669093  61.2562667  40.9721329  46.5400301  61.1765824
  39.7682721  47.3901727  62.1255737  38.0372923  47.5327157  60.3106519
  37.4160423  47.5346427  59.5143198  37.7515041  47.9542491  61.1828523
  42.2424618  45.2017184  54.7260080  43.2190537  45.7725560  54.2522498
  40.9916792  45.5273168  54.4006492  40.2436281  44.8726623  54.5793846
  40.6871279  46.7417530  53.6166681  41.0845424  46.6718036  52.6041129
  39.1431485  47.0320336  53.5318282  38.7453098  47.0173022  54.5465235
  38.8270139  48.3798650  52.8798908  39.2241658  48.3951798  51.8649342
  37.7471304  48.5248060  52.8491630  39.2842415  49.1810512  53.4605329
  38.4274357  45.9126478  52.7760507  38.5810943  44.9668058  53.2955446
  37.3605852  46.1307452  52.7274369  38.8295338  45.8410273  51.7654625
  41.5011589  47.9349486  54.1075406  41.5293620  48.2655212  55.3301351
  42.1826444  48.5695345  53.1507903  42.1748635  48.1675076  52.2242844
  42.9353986  49.8053875  53.3641479  42.8078871  50.4670898  52.5074157
  42.5769829  50.3043903  54.2644999  44.4122210  49.4889128  53.5289179
  45.2245771  50.4062501  53.4739467  44.7935517  48.2175767  53.7453258
  44.1238862  47.4714676  53.8676725  46.2387465  47.8755648  53.7574506
  46.7411131  48.4884012  54.5058881  46.4779363  46.4236545  54.0842711
  45.8493138  45.7761250  53.4730113  47.5245297  46.1567045  53.9377106
  46.0872743  46.0118904  55.8298161  46.4041686  44.7231218  55.7429141
  46.8283793  48.1050310  52.3643529  46.0993835  48.0360080  51.3562705
  48.1296072  48.3373835  52.3145808  48.6822998  48.4383155  53.1538918
  48.7884725  48.5737922  51.0052724  48.1073760  48.3654615  50.1801633
  49.3116263  50.0465616  50.8640271  49.8736148  50.1211208  49.9330544
  48.1468073  51.0797047  50.8508729  47.5846057  51.0060553  51.7817890
  48.5540115  52.0858978  50.7515798  47.4852136  50.8714378  50.0100285
  50.2203561  50.3227125  51.9406932  50.5456155  51.2225043  51.8620714
  49.9189902  47.5685589  50.7387134  50.4999394  46.9577131  51.6912110
  50.2533239  47.3587879  49.4551924  49.7218739  47.7626005  48.6971716
  51.4012869  46.5066511  49.1234863  51.9358736  46.2378959  50.0345774
  50.9387155  45.2274088  48.4346287  51.8254196  44.6088531  48.2959061
  50.2544704  44.7314810  49.1230793  50.2432723  45.4338722  47.0832514
  49.4216666  46.1402008  47.2022678  50.9598585  45.8288612  46.3631194
  49.6842130  44.0658618  46.5660308  50.5070340  43.4117867  46.2774991
  49.0948198  43.5847193  47.3465543  48.8250504  44.2854040  45.3955703
  48.9283230  45.1614279  44.9036187  47.9104749  43.4114829  44.9584803
  47.7311802  42.2397985  45.5903189  48.2902634  42.0160770  46.4011670
  47.0380974  41.5878254  45.2516938  47.1692171  43.6996331  43.8547687
  47.3118401  44.5732373  43.3683795  46.4795898  43.0386679  43.5266864
  52.3549859  47.2664438  48.2079433  51.8846965  48.1306681  47.4352977
  53.6574189  47.0052639  48.3187153  54.0111546  46.4137908  49.0570444
  54.6091659  47.6292653  47.4236148  54.0956515  48.3941415  46.8410630
  55.7770589  48.2868545  48.1767360  56.1979236  47.4785448  48.7747390
  56.5290256  48.6489546  47.4756443  55.3470045  49.4270306  49.0943598
  54.4576309  50.2367537  48.7719577  55.9879209  49.5532577  50.1531148
  55.1232707  46.6149400  46.4342547  55.8791829  45.7310621  46.7750445
  54.7667455  46.8105318  45.1651232  54.2521898  47.6384295  44.9007048
  55.1252296  45.8465499  44.1132672  55.4083104  44.8631406  44.4885947
  53.9223609  45.6791832  43.1344746  53.5450418  46.6725691  42.8917523
  54.3191759  44.9454982  41.8304557  54.6961836  43.9517921  42.0723529
  53.4463378  44.8549291  41.1838868  55.0948229  45.5124167  41.3155996
  52.7111581  44.9543162  43.8114929  52.3728230  45.5352147  44.6695070
  51.8964534  44.8593375  43.0936245  53.0196845  43.9629800  44.1434037
  56.3276049  46.4186270  43.3644485  56.3756494  47.6546853  43.1070353
  57.2949765  45.5612316  43.0513999  57.2805163  44.6305083  43.4433748
  58.4023049  45.9243098  42.1680687  58.3224322  46.9629374  41.8471759
  59.7955204  45.6842584  42.7934669  59.8385929  44.6667200  43.1818750
  60.9277657  45.8830723  41.7157357  60.8856196  46.9005916  41.3271757
  61.9012349  45.7099278  42.1745162  60.7807662  45.1764205  40.8989533
  60.0138574  46.5917989  44.0310990  60.1782582  47.6011341  43.6538518
  59.0879208  46.5655301  44.6055995  61.2132125  46.1768350  44.9535726
  62.1396250  46.2033185  44.3798495  61.2851400  46.8707722  45.7910551
  61.0492884  45.1677129  45.3315955  58.2218914  45.0549663  40.9070958
  58.0494596  43.8474769  40.9990502  58.1958495  45.6847664  39.7354987
  58.2313343  46.6875141  39.6200118  57.9249216  44.8585630  38.5555508
  57.4596566  43.9149578  38.8405718  57.0353617  45.5478888  37.5001053
  56.9275914  44.9047742  36.6266705  55.6133767  45.8128070  38.1375895
  55.7202912  46.4562742  39.0108709  54.9709539  46.3002298  37.4042326
  55.1669329  44.8648545  38.4378820  57.6705311  46.7916915  37.0114946
  58.6336544  46.5550420  36.5592861  57.0263714  47.2614903  36.2682268
  57.8201560  47.4761361  37.8465089  59.2091334  44.3066505  37.9239721
  60.3062395  44.7676134  38.2200404  59.0371478  43.3409672  37.0433498
  58.1148686  42.9693109  36.8662286  60.1575133  42.7747631  36.3175791
  60.9839358  42.5506601  36.9920440  59.7633284  41.4773403  35.5235846
  60.6311988  41.1074942  34.9775853  59.2760117  40.3900627  36.5171413
  58.4078169  40.7590311  37.0632189  59.0025913  39.4901005  35.9663147
  60.0747515  40.1560523  37.2209546  58.6907083  41.7592784  34.4380515
  57.7960785  42.1432484  34.9282610  59.0814252  42.5127756  33.7541789
  58.3147406  40.4064430  33.6006682  57.9234943  39.6525958  34.2838523
  57.5608626  40.6413526  32.8492797  59.2088422  40.0221215  33.1097718
  60.7013804  43.7872537  35.3305754  60.0094949  44.7650218  35.0004725
  61.9125145  43.5428344  34.8572578  62.4489782  42.7494791  35.1780279
  62.5294947  44.4526075  33.8652930  62.5129352  45.4769059  34.2376338
  63.9844264  44.0468777  33.6137357  64.4260477  44.7546315  32.9121985
  64.5249794  44.0881370  34.5593573  64.0689613  42.7272942  33.0747124
  64.9900183  42.5001795  32.9274956  61.8114214  44.4866814  32.5229567
  61.1083503  43.5318419  32.1494522  62.0441006  45.5693638  31.7722242
  62.5345454  46.3730017  32.1379145  61.5849453  45.6098658  30.3851427
  62.3414261  46.1381154  29.8048079  61.5115678  44.5805772  30.0340301
  60.2492238  46.2928653  30.1903051  59.7986408  46.4714728  29.0368181
  59.6054513  46.6879914  31.2955984  60.0210165  46.5533540  32.2062453
  58.2810081  47.3043808  31.2220245  57.8065631  47.0759726  30.2676499
  57.3961552  46.7426005  32.3613538  57.9801591  46.8568484  33.2745822
  56.5468860  47.4254144  32.3859903  56.8886657  45.3001744  32.2569818
  57.7203717  44.6325133  32.0320498  56.2449614  44.8886676  33.6187189
  55.4128278  45.5556365  33.8441184  55.8808395  43.8633282  33.5539498
  56.9912184  44.9593640  34.4100487  55.8535289  45.1646627  31.2208112
  56.2658110  45.4550089  30.2544665  55.5175320  44.1287333  31.1754513
  55.0090675  45.8096831  31.4635718  58.3723217  48.8311595  31.3488969
  59.4048784  49.3456915  31.8268023  57.2947445  49.5484566  30.9738088
  56.1335989  49.0574664  30.2057126  55.6483864  48.2479810  30.7510587
  56.4643841  48.6926276  29.2333069  55.2209308  50.3431620  30.0885432
  54.5138430  50.3891569  30.9168007  54.6750160  50.3416505  29.1451048
  56.2015187  51.4825744  30.1395895  55.6635229  52.3533002  30.5144175
  56.6867689  51.7341710  29.1965460  57.2414498  51.0408016  31.1561495
  58.2283367  51.4623807  30.9653002  56.8096250  51.3781770  32.5944593
  55.9360462  52.2337874  32.8312797  57.4979417  50.7306575  33.5429263
  58.2521579  50.1123095  33.2804324  57.1654353  50.8561424  34.9639664
  57.1024459  51.9044323  35.2558908  55.8467184  50.1891323  35.2732032
  55.8972635  49.1365110  34.9947547  55.6379942  50.2726732  36.3397656
  55.0515058  50.6759840  34.7086576  58.2813550  50.2376050  35.7647627
  58.9961543  49.3645535  35.2773233  58.4340299  50.7291763  36.9952435
  57.9550639  51.5804526  37.2521863  59.3449024  50.1324981  37.9595231
  59.8080206  49.2514914  37.5151719  60.4695510  51.1244114  38.3873870
  59.9682675  51.9916514  38.8171647  61.1119407  50.6668605  39.1397717
  61.3425949  51.5931213  37.2171313  61.7647843  50.7788746  36.3810067
  61.6503252  52.8603440  37.1814997  62.2233698  53.2167829  36.4300538
  61.3140887  53.4790785  37.9055256  58.6434144  49.5982782  39.1920606
  59.0214279  48.5523832  39.6885940  57.6588926  50.3394379  39.6900528
  57.2861897  51.1121334  39.1570111  57.0447332  50.0292679  40.9951600
  57.2307925  48.9831920  41.2384835  57.6266976  50.9089918  42.1223638
  57.1044938  50.6644283  43.0473460  59.1395033  50.6854838  42.3124397
  59.6624606  50.9303022  41.3879511  59.5037890  51.3257612  43.1158325
  59.3238434  49.6420663  42.5681725  57.4143305  52.2916037  41.7976092
  57.7746088  52.8432789  42.4957886  55.5728207  50.3390825  40.9203096
  55.1330198  51.1654147  40.0941043  54.8055187  49.7694061  41.8305703
  55.1849759  49.0438220  42.4218734  53.4215827  50.1189678  41.9849998
  53.2707858  51.1524940  41.6732579  52.5132215  49.2031261  41.1220660
  52.7541038  49.3570571  40.0702199  52.7038070  48.1637947  41.3895870
  51.1046582  49.5132631  41.3488640  50.5591483  48.9378447  40.8076502
  53.0308309  50.0115034  43.4661992  53.4536274  49.0663464  44.1485103
  52.2647602  50.9902026  43.9567678  51.9975137  51.7715873  43.3752897
  51.7266732  50.9233107  45.3297997  52.2116097  50.1039610  45.8604614
  51.9741405  52.2382592  46.1154991  51.4054446  53.0462306  45.6552085
  51.5185890  52.0611932  47.6014539  52.0872116  51.2536450  48.0625762
  51.6944750  52.9872741  48.1487539  50.4561950  51.8191012  47.6299331
  53.3706127  52.5283267  46.0675926  53.5454824  53.3402330  46.5490790
  50.2543012  50.7659687  45.2167585  49.5889248  51.5688626  44.5441512
  49.7248290  49.7403606  45.8784044  50.2957891  49.2126438  46.5230895
  48.3450407  49.3376438  45.6944796  47.7973556  50.0881751  45.1245296
  48.3188556  48.0246331  44.9217964  48.8388025  47.2481254  45.4828582
  47.2893394  47.7148476  44.7422712  49.0389468  48.2499308  43.5571984
  48.4221115  48.9655657  43.0136162  49.9988864  48.7070792  43.7972621
  49.2675758  47.0099194  42.6881521  49.0326798  45.8440518  43.1227227
  49.7030212  47.2683589  41.5358919  47.6195199  49.1506096  47.0364407
  48.2064098  48.6439550  48.0097209  46.3705698  49.5727695  47.0506088
  45.9916335  49.9632565  46.1997112  45.4950160  49.5197667  48.2543501
  46.0852883  49.2981275  49.1434811  44.8122779  50.8793020  48.4458325
  45.6089056  51.5850584  48.6811864  44.3749509  51.1344847  47.4805725
  43.7185058  50.9498183  49.5435136  43.0133756  50.1358724  49.3750373
  44.1993053  50.8185116  50.5128910  42.9533325  52.3156884  49.5215825
  43.6624694  53.1426444  49.4846030  42.2949824  52.3632317  48.6541644
  42.1339496  52.4482636  50.7464337  42.5677015  52.9544880  51.5051798
  40.8980089  51.9810655  50.9183740  40.2711792  51.2931645  49.9675819
  40.7352058  51.1146708  49.0884236  39.3341835  50.9526104  50.1293274
  40.2680188  52.1939834  52.0941390  40.7367612  52.7031417  52.8297602
  39.3310791  51.8430613  52.2323288  44.4334258  48.4312190  48.0994943
  43.7333343  48.3435433  47.0890415  44.3364118  47.5581866  49.0939579
  45.0378012  47.5253379  49.8199560  43.2602270  46.5790031  49.1294504
  43.1554102  46.0756784  48.1683173  43.6175320  45.5178728  50.2100969
  44.5385463  45.0344545  49.8843077  43.7967943  46.0465354  51.1463025
  42.5275412  44.4531018  50.4233566  41.6076944  44.9602197  50.7145855
  42.2770821  43.6299355  49.1598755  43.1964245  43.1221194  48.8682743
  41.5004778  42.8904958  49.3553635  41.9554993  44.2893936  48.3537739
  43.0452429  43.5400323  51.5805334  43.1931323  44.1396233  52.4787087
  42.3129384  42.7583715  51.7826168  43.9913682  43.0841561  51.2887751
  41.8803257  47.2334425  49.4069871  41.7183467  47.8672681  50.4432987
  40.9419924  47.1744037  48.4583950  41.1163278  46.5899761  47.6533167
  39.6579143  47.9034134  48.5303832  39.7780797  48.7913691  49.1510233
  39.1881664  48.3424747  47.1266812  39.2808382  47.4485172  46.5099551
  38.1478591  48.6675478  47.1403973  40.0570004  49.4487759  46.5489233
  40.6280574  50.2550577  47.3494510  40.1248248  49.5854233  45.2894880
  38.5441941  47.0427943  49.1153551  37.6453291  47.5327588  49.8408662
  38.6123379  45.7520244  48.8369466  39.3267003  45.3810002  48.2269246
  37.5721458  44.7986374  49.3876003  37.3127276  45.0415237  50.4180408
  36.2715030  44.7900723  48.5091386  35.7981653  45.7680483  48.5964010
  36.5640625  44.4996850  47.0527653  37.0370207  43.5216017  46.9646508
  35.6326883  44.5046556  46.4865337  37.2334644  45.2633779  46.6568191
  35.2426270  43.8026326  49.0354333  35.6613102  42.8061360  48.8947223
  35.1307507  44.0019941  50.1011904  33.9393632  43.8773238  48.3882713
  34.0503759  43.6776010  47.3224913  33.2715323  43.1368687  48.8285297
  33.5198172  44.8734605  48.5289576  38.1657526  43.4261568  49.4670313
  38.9307678  43.0607510  48.5638368  37.8634173  42.6737894  50.5646845
  37.3617678  43.0747521  51.3442203  38.2943936  41.2893568  50.6615078
  38.4588019  40.8975730  49.6577276  39.6167467  41.1426777  51.4767957
  40.2955325  41.8822902  51.0521519  39.3774994  41.4173854  52.5041207
  40.2885857  39.7628980  51.4597880  39.5676908  39.0281452  51.8183262
  40.7669093  39.3664443  50.0353930  41.4882272  40.1005318  49.6763457
  41.2362928  38.3832849  50.0697063  39.9121913  39.3370400  49.3596023
  41.5136183  39.7513865  52.4112430  41.1877473  39.9765608  53.4267251
  41.9814411  38.7671103  52.3901823  42.2337198  40.5023880  52.0863592
  37.1453442  40.5226139  51.3176844  37.1360006  40.3090484  52.5607003
  36.1555195  40.1562155  50.5141190  36.2532502  40.2634576  49.5145955
  34.9140035  39.6073666  51.0293945  34.7806925  39.9225509  52.0642792
  33.7126450  40.0886174  50.2130860  33.8238673  41.1722668  50.1752316
  33.7549649  39.6840083  49.2018489  32.3655894  39.7364399  50.8469016
  32.2521387  38.6329554  51.4361569  31.3891841  40.5394928  50.6940164
  35.0278724  38.0942468  50.9514050  34.7335758  37.5074055  49.9177538
  35.4117033  37.4687003  52.0619542  35.7536779  37.9775564  52.8645862
  35.5065402  36.0028774  52.0745284  36.0317459  35.6704023  51.1791411
  36.2743357  35.4872916  53.3197101  35.8743427  36.0124577  54.1870655
  36.0881055  34.4184937  53.4250164  37.7548725  35.7307731  53.2257287
  38.3526234  35.5104263  52.1477157  38.3592492  36.1352211  54.2381914
  34.1837525  35.2566453  51.9104573  34.1911586  34.0451627  51.5461975
  33.0521290  35.9151395  52.1359582  33.0351186  36.8845448  52.4189127
  31.7933847  35.2136743  52.0166461  31.9311716  34.1702914  52.3003115
  30.7291770  35.8296040  52.9232611  31.1024045  35.7310595  53.9426184
  30.6752485  36.8852317  52.6570994  29.3355652  35.2089404  52.8290864
  28.6730619  35.7518676  53.5031933  29.0049799  35.3541048  51.8006216
  29.2989213  33.6954691  53.1755280  30.1965402  33.1974798  53.9251199
  28.3570079  33.0501546  52.7066629  31.3021960  35.2232564  50.5944816
  30.8376240  34.1931964  50.0685631  31.4239041  36.3571352  49.9426802
  31.8032554  37.1803586  50.3882081  30.9263362  36.4771703  48.5632757
  30.1611454  35.7257710  48.3683882  30.3199041  37.8431782  48.3707978
  31.1194681  38.5756602  48.4815533  29.9257481  37.8870488  47.3555065
  29.1798007  38.1618512  49.3845402  28.5199969  37.2964190  49.4460784
  29.6272431  38.3471174  50.3610512  28.3822567  39.3741527  48.9575488
  27.7571263  39.6895555  49.7929121  29.0773849  40.1740037  48.7023340
  27.5170552  39.1108205  47.7931560  27.0661422  38.2087222  47.7384257
  27.2869274  40.0003757  46.8189472  27.8964834  41.1778836  46.8501700
  28.5289979  41.3957563  47.6068449  27.7253476  41.8512810  46.1171297
  26.4599947  39.7272918  45.7933579  25.9959301  38.8313844  45.7475979
  26.3070545  40.4194393  45.0738860  32.0242736  36.2046495  47.4939994
  31.6908021  36.0383956  46.3150468  33.2746497  36.1161780  47.9367110
  33.4162995  36.2911670  48.9212990  34.4604299  35.8434623  47.0950981
  35.3475496  35.8350088  47.7283803  34.3628706  34.4849503  46.3632113
  33.4261413  34.4618083  45.8063434  35.1996716  34.4084705  45.6689383
  34.4028650  33.3225334  47.3306500  35.3523952  33.3312724  47.8658292
  33.5837679  33.4182142  48.0434102  34.2630760  32.0220521  46.5751182
  33.3166593  32.0174860  46.0344024  35.0859737  31.9245572  45.8669984
  34.2889853  30.8738500  47.4863380  34.9635810  30.8723548  48.2380146
  33.4919059  29.8147199  47.3448851  32.5646356  29.7737751  46.3770002
  32.4651802  30.5543428  45.7438157  31.9699298  28.9625572  46.2856212
  33.5911711  28.8092988  48.1974835  34.2674613  28.8512208  48.9464656
  32.9902627  28.0038809  48.0959460  34.5951091  36.9842034  46.1192741
  34.5367121  36.7942837  44.8763061  34.7622194  38.1707401  46.7044088
  34.8004290  38.2285857  47.7120264  34.9609419  39.4129717  45.9213959
  35.1172457  39.2351482  44.8574188  33.7868521  40.3775264  46.0881213
  33.6648793  40.6190503  47.1440039  34.0616552  41.6893396  45.2819753
  34.1832878  41.4486586  44.2258602  33.2221789  42.3738461  45.4037568
  34.9712875  42.1610316  45.6536974  32.4670585  39.7077886  45.6978122
  32.2980608  38.8387318  46.3336440  31.6480858  40.4156318  45.8256454
  32.5138176  39.3913744  44.6557967  36.1947684  40.0884032  46.4973154
  36.3330115  40.2701166  47.7347818  37.1225243  40.4860378  45.6063981
  37.0989602  40.1436801  44.6564848  38.2520581  41.2730968  46.0192001
  37.9686336  41.8107615  46.9240130  39.5604991  40.4327011  46.3188053
  39.2926437  39.5867575  46.9518402  40.2063576  39.9145571  45.0126707
  40.4749244  40.7600076  44.3792790  41.1021823  39.3416168  45.2521213
  39.4978307  39.2763263  44.4847013  40.5292965  41.2316170  46.9969019
  41.3136562  40.7056609  47.1693851  38.4967901  42.3979730  44.9982022
  37.8380685  42.4560631  43.9619453  39.3668719  43.3260411  45.3407754
  39.9045712  43.2716968  46.1940195  39.5739571  44.4969302  44.4516431
  39.8967179  44.1721659  43.4624754  38.6540814  45.0747014  44.3615955
  40.6419636  45.3679303  45.0533824  40.8765435  45.3376500  46.2831760
  41.3507612  46.1168562  44.2137748  41.1937263  46.0483717  43.2184109
  42.3831112  47.0227503  44.6874828  42.1424293  47.3554096  45.6971903
  43.7723844  46.3175647  44.7134507  44.5097988  46.9212909  45.2424441
  43.6643686  45.3555339  45.2143792  44.3486021  46.0309301  43.3469047
  45.2858717  46.9097231  42.7833787  45.5806425  47.7927582  43.3503524
  45.8454736  46.6694792  41.5085542  46.5760003  47.3496861  41.0706616
  45.4370551  45.5135315  40.7962676  45.8397354  45.3227782  39.8015005
  44.5048206  44.6030289  41.3745632  44.1958213  43.7030931  40.8428349
  43.9795979  44.8816498  42.6577708  43.2748487  44.1904696  43.1200460
  42.4665791  48.2510951  43.8111021  41.9371234  48.2601682  42.6688043
  43.1371863  49.2699483  44.3612059  43.5163302  49.1915739  45.2940546
  43.3566228  50.5141431  43.6263290  42.9302978  50.4528845  42.6250331
  42.6635446  51.6563263  44.3861987  42.8464779  51.5295797  45.4532366
  43.0865595  52.6049862  44.0557402  41.2555942  51.6516187  44.1406977
  40.8440800  52.3717193  44.6241343  44.8488665  50.7737745  43.5585609
  45.5608558  50.5971987  44.5567429  45.3304903  51.2788602  42.4114162
  44.7418655  51.3994461  41.5995793  46.7116454  51.6264658  42.3040391
  47.2397020  50.9453871  42.9714124  47.2101102  51.4102583  40.8387585
  46.5969713  52.0018770  40.1589435  48.6426199  51.8367903  40.7187980
  49.2564880  51.2452549  41.3980274  48.9834318  51.6833134  39.6948875
  48.7307494  52.8922997  40.9761542  47.1827974  49.9024017  40.5291983
  47.8939149  49.3972953  41.1828649  46.1794496  49.5228712  40.7224580
  47.5868822  49.6150682  38.9460979  48.5903562  49.9939345  38.7521902
  47.5602802  48.5426993  38.7526643  46.8758916  50.1195127  38.2917830
  46.8314770  53.0779176  42.7339520  46.2617854  53.9670820  42.0535463
  47.4901036  53.3104716  43.8562437  47.9250130  52.5504486  44.3595511
  47.5127095  54.6634112  44.4672548  46.7680010  55.2999676  43.9894427
  47.2364397  54.5967393  45.9746618  47.2000468  55.6037701  46.3901916
  45.8638411  53.8922432  46.1994441  45.8996164  52.8849240  45.7845600
  45.6535928  53.8374436  47.2675702  45.0773501  54.4611391  45.7035724
  48.3198823  53.8557173  46.7387329  48.2889819  52.8090814  46.4359141
  49.2819163  54.2857776  46.4600966  48.1265196  53.9593511  48.3497902
  47.1648388  53.5290387  48.6292563  48.9271344  53.4128547  48.8482446
  48.1577710  55.0057358  48.6534385  48.7882340  55.4502709  44.2141381
  48.8578169  56.6261389  44.5643162  49.8050713  54.7722374  43.6860164
  49.7129243  53.7782206  43.5325926  51.0414670  55.4056176  43.3218775
  50.8253373  56.2084816  42.6170395  51.4945656  55.8240283  44.2206174
  52.0183477  54.4359731  42.6817223  51.6635647  53.3075142  42.2953461
  53.2449539  54.9122412  42.5363640  53.4532707  55.8606413  42.8142860
  54.3330006  54.0944197  41.9747829  55.1339369  54.0139209  42.7097115
  53.9495381  53.1001527  41.7456785  54.8860043  54.7121665  40.7098316
  54.3227047  55.6776172  40.1829040  55.9804883  54.1287255  40.2128906
  56.4124190  53.3533263  40.6948566  56.6194817  54.6302341  38.9815318
  56.4003510  55.6903217  38.8538791  58.1253333  54.4523830  39.0629243
  58.3259575  53.3935301  39.2262638  58.5477038  54.7582457  38.1057664
  58.7729887  55.2833161  40.2031342  58.6400792  56.3391399  39.9671852
  58.2078154  55.0385882  41.1024598  60.2563811  54.9971211  40.4400843
  60.9561601  54.4140008  39.5855587  60.7481028  55.3991141  41.5181810
  56.0518177  53.9023141  37.7774574  56.5393746  52.8429862  37.4302001
  54.9971504  54.4617236  37.1860532  54.6625571  55.3403342  37.5550925
  54.3114003  53.8901004  36.0277282  55.0530433  53.6457155  35.2672410
  53.5218607  52.6087062  36.3772212  52.9844921  52.1787426  35.5319606
  54.2428214  51.8839389  36.7554118  52.5258527  52.8148466  37.4512954
  51.2784430  53.3721127  37.2294000  50.6475003  53.4745659  38.3967014
  49.6274879  53.8562038  38.4417154  51.4602957  53.0541208  39.3529329
  51.2640406  53.0596564  40.3436665  52.6235302  52.6045840  38.7844866
  53.4060947  52.1761515  39.4106970  53.3308936  54.9517965  35.5382174
  53.1522103  56.0039869  36.1853748  52.6640010  54.6837997  34.4244391
  52.8400458  53.8327326  33.9098593  51.7996257  55.6972424  33.8154373
  52.0367680  56.6808099  34.2209712  52.0154123  55.7301484  32.2627241
  51.6295736  54.8016291  31.8419159  51.4567208  56.5728078  31.8554292
  53.4442327  55.8722509  31.9140121  53.8613495  56.7179587  32.4607231
  53.9717324  54.9613980  32.1971958  53.6070282  56.1109516  30.3911235
  54.6721894  56.2263275  30.1905764  53.2356626  55.2228838  29.8797307
  52.9019349  57.2822200  29.8686221  53.1167606  58.1612598  30.3172181
  52.0171761  57.2753938  28.8819037  51.6357038  56.1398703  28.2986626
  52.0243395  55.2608738  28.6091903  50.9596372  56.1632693  27.5486719
  51.4929053  58.4410785  28.4440665  51.7776971  59.3111555  28.8706339
  50.8185617  58.4371454  27.6921730  50.3006321  55.6879959  34.1399210
  49.5543927  56.5772398  33.6812175  49.8259649  54.7262266  34.9375449
  50.4659704  54.0502077  35.3293238  48.3943755  54.5642863  35.2056790
  47.8374349  54.8940573  34.3286571  48.0032440  53.1082087  35.5180544
  48.5590764  52.9274514  36.4380959  46.9345310  53.0347226  35.7194307
  48.4019784  52.0527689  34.4591726  49.4626406  52.1614161  34.2326948
  48.1281141  50.6055814  34.9950079  47.0675037  50.4960193  35.2212832
  48.4145525  49.8766352  34.2369239  48.7115542  50.4362007  35.8999987
  47.7273121  52.3096213  33.1211471  48.0181305  53.2922491  32.7497084
  48.0342955  51.5461123  32.4063629  46.6451265  52.2749131  33.2467204
  47.8958872  55.4409941  36.3259534  48.4680265  55.4753767  37.4079957
  46.8161951  56.1401123  36.0723439  46.4287888  56.2038178  35.1417756
  46.2278590  56.9591451  37.1225115  46.7348194  56.7218567  38.0578107
  46.3536534  58.5510572  36.8552485  45.9058554  59.0778847  37.6978813
  47.7984128  58.9794496  36.7025392  48.2467793  58.4533500  35.8597543
  47.8424535  60.0539070  36.5244923  48.3471884  58.7398151  37.6133198
  45.6667369  58.8631342  35.6723944  45.7338814  59.8055964  35.5025211
  44.7928826  56.5527900  37.3670665  44.0117056  56.2658660  36.4303584
  44.4536009  56.4949972  38.6466981  45.1720996  56.6319856  39.3431844
  43.1208927  56.0899608  39.0951758  43.1253573  55.8944783  40.1674938
  42.1060128  57.2338232  38.8021851  42.1770211  57.4537797  37.7369733
  41.0802846  56.9592847  39.0483765  42.4749164  58.4870634  39.5832666
  42.8758120  59.5353923  38.9987300  42.4214037  58.3856961  40.8940000
  42.6546303  59.1826065  41.4690121  42.1473462  57.5114436  41.3190600
  42.6535756  54.7523067  38.5570780  41.4496382  54.5490211  38.3056131
  43.6109581  53.8309468  38.4445756  44.5791109  54.0794256  38.5896194
  43.2892559  52.4281080  38.1354478  42.6150905  52.3712679  37.2808312
  44.5969774  51.6707529  37.7863467  45.1060987  52.2193033  36.9938903
  45.2255380  51.6526413  38.6766746  44.3314164  50.2533158  37.3278869
  44.2149986  49.9443088  35.9521418  44.3310925  50.7424239  35.2189065
  43.9494680  48.6100201  35.5189671  43.8818338  48.3732757  34.4571387
  43.8251029  47.5910539  36.4735655  43.5595047  46.2658184  36.0666213
  43.4828964  46.1741453  35.1140842  43.9150777  47.8909588  37.8524602
  43.7664218  47.0997311  38.5872804  44.1940300  49.1987294  38.2765988
  44.3074010  49.4146180  39.3389732  42.6468615  51.7321184  39.3547004
  43.1652894  51.7934218  40.4731755  41.5244170  51.0605228  39.1090388
  41.1134033  51.0785723  38.1866282  40.8395337  50.2916070  40.1646777
  41.5525169  50.0117101  40.9401852  39.7121302  51.1433681  40.8107819
  40.1731373  52.0627764  41.1716975  38.9987382  51.3807415  40.0215888
  38.9969078  50.4635880  41.9442306  38.6333335  49.5000744  41.5870806
  39.7126445  50.3049540  42.7508646  37.7869837  51.3151645  42.4773777
  38.1069164  52.3485599  42.6109296  36.9746123  51.2777788  41.7515992
  37.2824628  50.7338124  43.8665661  38.1812535  50.5745655  44.4623146
  36.6843625  51.5260354  44.3168527  36.4685651  49.4465027  43.8217424
  37.0227499  48.7121727  43.4049229  36.2080032  49.1800940  44.7604830
  35.6354664  49.5939726  43.2701101  40.2729091  49.0557587  39.5213820
  39.6297877  49.1503546  38.4707738  40.4752564  47.8873455  40.1435445
  41.0837165  47.8020933  40.9451727  39.8944753  46.6688407  39.5813770
  39.1570154  46.9529002  38.8306691  40.9527900  45.7345191  38.9129234
  40.4375681  44.9074116  38.4245191  41.5099584  46.3045776  38.1694877
  41.8441992  45.2269287  39.8804494  42.4873497  44.6555270  39.4544713
  39.0915573  45.9138455  40.6368631  39.3313755  46.0663624  41.8623278
  38.1627061  45.0923922  40.1566184  37.9680121  45.0527369  39.1663553
  37.3966308  44.2328856  41.0447665  37.8377488  44.1575499  42.0386672
  35.9513955  44.7833165  41.1837690  35.6027879  45.0311945  40.1812081
  34.9548232  43.7847472  41.8481455  35.3025437  43.5367413  42.8509838
  33.9675337  44.2425835  41.9093480  34.8968059  42.8759287  41.2491593
  35.9678791  46.0720266  41.9749552  36.5853341  46.8076078  41.4594246
  34.9513681  46.4539451  42.0695243  36.3788367  45.8847017  42.9669855
  37.4045079  42.8374545  40.3973377  37.1850148  42.6979336  39.2035430
  37.6281687  41.8148316  41.2273342  37.6909936  41.9991517  42.2183833
  37.7135993  40.4390219  40.7771804  37.5552406  40.3672354  39.7011375
  39.0990535  39.8840704  41.1049217  39.2884777  40.0084128  42.1711101
  39.1825606  38.3318223  40.7262577  38.9936899  38.2067249  39.6600597
  40.1756669  37.9517718  40.9658422  38.4352949  37.7779623  41.2945302
  40.0533832  40.6284493  40.3660280  40.9342028  40.2972305  40.5559000
  36.6634210  39.6044453  41.5936976  36.6664260  39.6484384  42.8484213
  35.8001231  38.8795963  40.9054064  35.8112099  38.9348899  39.8969823
  34.7640854  38.0791757  41.5412072  34.9333172  38.0859788  42.6179678
  33.3632005  38.6029286  41.2661683  32.6429632  37.9573339  41.7687275
  33.2045224  40.0392578  41.7766394  33.9241681  40.6855736  41.2741599
  32.1939281  40.3901295  41.5676239  33.3824577  40.0650684  42.8517084
  33.0864279  38.6020166  39.8529821  32.1991864  38.9353983  39.7004716
  34.8880246  36.6340756  41.1309273  35.2107404  36.3493433  39.9770975
  34.6505844  35.7231054  42.0864651  34.4057281  36.0148094  43.0219080
  34.8197908  34.2589104  41.8207094  35.1538994  34.0757224  40.7994784
  35.8593519  33.6608146  42.7951504  35.5052612  33.8252371  43.8128361
  36.0676956  32.1761618  42.5664454  36.4222537  32.0109775  41.5490450
  36.8063865  31.7991933  43.2737862  35.1244022  31.6497163  42.7118906
  37.1991122  34.3930408  42.6364262  37.0637321  35.4516062  42.8582676
  37.9295887  33.9685412  43.3251235  37.5567134  34.2796608  41.6130166
  33.4668331  33.5418232  41.9238131  32.7387399  33.7336233  42.9267463
  33.1054890  32.7700539  40.9008997  33.7596094  32.6201499  40.1460788
  31.7848161  32.1584263  40.8032225  31.2023879  32.3464532  41.7051773
  31.0499625  32.7819412  39.6048614  31.6147267  32.5141368  38.7118768
  30.0126501  32.4691612  39.4854804  31.0412194  34.2695613  39.6732424
  30.0777533  34.9616691  40.3929429  30.3503904  36.2602834  40.3324710
  29.7072742  36.9826291  40.8351810  31.4531166  36.4298705  39.6044332
  31.8861599  37.3152910  39.3839704  31.9157910  35.2029865  39.1952340
  32.8277499  35.1345367  38.6021515  31.8160248  30.6606441  40.6419921
  32.5577699  30.1248805  39.7991364  31.0008631  29.9765439  41.4623825
  30.5296028  30.4827035  42.1984637  30.7582090  28.5051610  41.3457751
  31.6841656  27.9824104  41.1061186  30.2310350  27.9787508  42.6870446
  30.9237084  28.3076822  43.4617103  29.2552458  28.4342897  42.8556264
  30.1001234  26.4838538  42.7351481  29.3285135  26.1553987  42.0388462
  31.0496082  26.0185649  42.4704088  29.7178422  26.0818585  44.1322476
  30.3867398  26.5653820  44.8442026  28.6917534  26.3916454  44.3304224
  29.8121515  24.6390094  44.3090196  30.6796863  24.2811177  44.6823776
  28.8455449  23.7799136  44.0214990  27.6889288  24.2061517  43.5196372
  27.5457584  25.1925032  43.3561956  26.9596741  23.5413085  43.3045310
  29.0425470  22.4809985  44.2330733  29.9236917  22.1617407  44.6095816
  28.3100238  21.8203438  44.0161771  29.7498111  28.1163790  40.2784087
  28.6688298  28.7520725  40.1246874  30.1065179  27.0804982  39.5074021
  31.0589873  26.7462049  39.5413045  29.1786105  26.4361980  38.5799383
  28.1676043  26.7971115  38.7689014  29.5429562  26.7439681  37.1326996
  30.6093175  26.6362251  36.9342956  28.9836718  26.0657107  36.4882868
  29.1669406  28.1398700  36.7176535  27.9374718  28.3810246  36.1417813
  27.2550673  27.5483671  35.9711777  27.5627772  29.6777703  35.7776598
  26.6021384  29.8734350  35.3012259  28.4535885  30.7447054  36.0370932
  28.1543754  31.7641488  35.7935637  29.7046502  30.5015102  36.5991240
  30.4164865  31.3130710  36.7499827  30.0382602  29.2140368  36.9664204
  30.9909455  29.0170759  37.4580474  29.1833016  24.9230575  38.8127256
  30.2178820  24.3549986  39.1196869  28.0205623  24.3066062  38.6770524
  27.1846158  24.8394888  38.4838460  27.9006651  22.8507274  38.8173582
  28.8485722  22.3840998  38.5493472  27.5471566  22.4512521  40.2531201
  28.3831008  22.7657013  40.8779545  26.6576840  23.0201180  40.5239156
  27.2750146  20.9137843  40.4745663  26.3102218  20.6682804  40.0307154
  28.0621909  20.3640953  39.9585289  27.2685871  20.5223844  41.9679088
  27.0549705  21.4160475  42.8282089  27.4673246  19.3138507  42.2863391
  26.8266481  22.3787855  37.8788661  25.7549101  22.9945314  37.7990748
  27.1237573  21.3057923  37.1600110  28.0259206  20.8729847  37.2974094
  26.2240642  20.7322979  36.1565243  25.1980934  20.7415919  36.5244873
  26.2891762  21.5593153  34.8609381  26.0606263  22.5840371  35.1538707
  27.3246074  21.5002040  34.5255457  25.3655862  21.1381702  33.7294371
  25.6136522  20.1245254  33.4146541  24.3314663  21.1686657  34.0726107
  25.5390157  22.0947712  32.5493342  25.2077201  23.0824398  32.8700412
  26.6001966  22.1303398  32.3029009  24.7479739  21.6687896  31.3222476
  25.1630655  20.7396086  30.9318348  23.7065693  21.5112576  31.6028888
  24.8257359  22.7313019  30.2692374  25.7906069  22.8771244  30.0087387
  24.2982692  22.4408799  29.4583527  24.4407615  23.5922721  30.6306569
  26.7113699  19.2968208  35.9628042  27.8707285  19.0786917  35.6025800
  25.8257801  18.3245305  36.2347201  24.8580207  18.5997798  36.3229182
  26.1682243  16.8979509  36.4176868  25.2441134  16.3208987  36.3840851
  27.1291265  16.3480594  35.3533982  28.0373330  16.9476260  35.4148805
  27.3531037  15.3200045  35.6380690  26.5975891  16.3752451  33.9221184
  25.5781581  15.9897077  33.9370235  26.5888117  17.4110986  33.5829580
  27.4510090  15.5294887  32.9628705  28.7088443  15.4828105  33.1394079
  26.8521621  14.9175196  32.0321110  26.8171105  16.7670438  37.7698961
  26.3809662  17.3843959  38.7453470  27.8648276  15.9635632  37.8427099
  28.0944524  15.2993584  37.1173109  28.6631247  15.9668312  39.0451079
  28.1193672  16.4860732  39.8342940  28.9613254  14.5295272  39.5158740
  28.0239592  14.0095325  39.7134829  29.5135454  13.9996467  38.7397428
  29.7941184  14.5319119  40.7898193  30.1394393  15.5918137  41.3073159
  30.1166688  13.3391734  41.2953487  30.6682333  13.2843747  42.1396671
  29.8076534  12.4970600  40.8311771  29.9473799  16.7745781  38.7935732
  30.9664706  16.5477553  39.4638787  29.8901150  17.7343439  37.8555842
  29.0922573  17.7998727  37.2397690  31.0997110  18.5142792  37.5204342
  31.9238551  18.1822730  38.1518275  31.5063663  18.3392083  36.0509361
  32.5903882  18.4531954  36.0492718  31.2497834  17.3064678  35.8149018
  30.8980287  19.2637111  35.0072293  29.9095765  18.9063357  34.7185321
  30.8164912  20.2759877  35.4031456  31.8345972  19.2676506  33.7586661
  31.8814757  18.2749791  33.3108886  31.4820707  19.9840872  33.0166802
  33.1880264  19.6571950  34.1842368  33.6653860  19.0216891  34.8074216
  33.8152202  20.7776894  33.8126962  33.2185274  21.6065129  32.9496572
  32.3033026  21.3801646  32.5874002  33.6857572  22.4551381  32.6639456
  35.0382873  21.0590214  34.3029953  35.4782149  20.4212444  34.9509183
  35.5096259  21.9064099  34.0203801  31.0604946  19.9799583  38.0239427
  30.1060513  20.6961087  37.8055698  32.0968447  20.3705800  38.7528179
  32.8954352  19.7609994  38.8565673  32.1331707  21.6774674  39.4062548
  31.2023225  22.2384106  39.3228069  32.4871394  21.4928284  40.8862357
  33.3866126  20.8816797  40.9607051  32.7342526  22.8478190  41.5554469
  31.8350044  23.4593962  41.4817822  32.9840376  22.6949212  42.6053662
  33.5598624  23.3550081  41.0562206  31.3795880  20.6624284  41.5925491
  30.4926416  21.2914181  41.6686992  31.1601109  19.8004875  40.9624799
  31.7996247  20.1677027  43.0339775  32.0188237  21.0291629  43.6648007
  30.9837977  19.5940996  43.4738694  32.6862950  19.5382337  42.9585813
  33.2169518  22.5087218  38.7104886  34.3239223  22.0343453  38.5630831
  32.9135506  23.7302472  38.2665287  31.9693463  24.0830934  38.2026756
  34.0124966  24.5684555  37.7397675  34.9624562  24.2162348  38.1417831
  34.0743224  24.5035814  36.2038216  34.9910342  24.9572497  35.8270937
  34.0547539  23.4476078  35.9343094  32.9294467  25.1610059  35.4628029
  32.9303678  26.4189504  34.8838039  33.8364552  27.0108792  35.0131314
  31.7336924  26.6592236  34.2422521  31.4870313  27.5079184  33.7534014
  30.9267515  25.5689749  34.3941631  29.6170652  25.3526719  33.9386106
  29.1247093  26.1396938  33.3674005  29.0308453  24.1409362  34.2482307
  28.0151204  23.9323149  33.9122544  29.7173480  23.1640811  34.9910747
  29.2394527  22.2143557  35.2313604  31.0217879  23.3741414  35.4423253
  31.5172699  22.5680135  35.9833948  31.6430016  24.6008786  35.1612429
  33.8372953  26.0013874  38.2699729  32.8774995  26.3003947  39.0198320
  34.7916247  26.8564756  37.9183291  35.5349052  26.5514672  37.3062807
  34.7885650  28.2442681  38.3631489  33.9021972  28.4524037  38.9624241
  36.0363667  28.5123683  39.2216261  36.9182181  28.2815921  38.6239801
  36.1030449  29.9256746  39.6773391  35.2216913  30.1570712  40.2754786
  36.9992794  30.0716552  40.2802922  36.1371259  30.5861315  38.8108890
  36.0403636  27.6653719  40.3970674  36.8251306  27.8466680  40.9194396
  34.8378019  29.1907909  37.1354997  35.4783993  28.8902098  36.1212019
  34.1587190  30.3305058  37.2716771  33.4617097  30.4162540  37.9975729
  34.3590720  31.4689621  36.3573895  35.1281141  31.2059439  35.6311012
  33.0767567  31.8485062  35.5993454  32.2724715  31.9932216  36.3206512
  33.2842084  33.1725315  34.7723032  34.0880849  33.0284305  34.0504180
  32.3630185  33.4201876  34.2448791  33.5453137  33.9866931  35.4483702
  32.6921174  30.7054475  34.6229349  32.5216790  29.7878563  35.1860327
  31.7828061  30.9759647  34.0862105  33.5013009  30.5484511  33.9097204
  34.8573309  32.6138920  37.2225072  34.2948364  32.9266604  38.3010033
  35.9620736  33.2023215  36.7921872  36.4946789  32.8240099  36.0219203
  36.4229449  34.4168518  37.4080281  35.9402418  34.5620546  38.3744716
  37.9343834  34.3771563  37.6187218  38.4131338  34.1574871  36.6644457
  38.4718656  35.7585090  38.1724172  37.9938784  35.9786496  39.1269680
  39.5512308  35.6992462  38.3122717  38.2412739  36.5505748  37.4599842
  38.3066690  33.2516627  38.6194499  37.9763843  32.2905376  38.2254290
  39.3872540  33.2336549  38.7612647  37.8183051  33.4388982  39.5757680
  36.0789343  35.5946254  36.4617638  36.3066462  35.4966251  35.2239495
  35.5786937  36.6840173  37.0421461  35.3647736  36.6730859  38.0291710
  35.3626105  37.9498617  36.2865127  35.5808141  37.7832279  35.2316575
  33.9313044  38.4310780  36.4148238  33.8192693  38.5657198  37.4906579
  33.8214241  39.3936402  35.9153237  32.8620576  37.4727505  35.9097094
  33.0038638  36.5017583  36.3842259  31.4417151  38.0123762  36.2474318
  31.2989884  38.9831991  35.7728470  30.6901191  37.3143081  35.8787787
  31.3399590  38.1180591  37.3275139  33.0534559  37.2222319  34.3847218
  34.0376010  36.7882712  34.2079850  32.2850475  36.5355780  34.0295369
  32.9718813  38.1672445  33.8476969  36.2634761  38.9930832  36.9002816
  36.3138711  39.1044918  38.1209561  36.9926683  39.7474850  36.0603996
  37.0216084  39.5339864  35.0736473  37.8050493  40.8509817  36.5518803
  37.4891725  41.1008972  37.5647294  39.3089752  40.4984989  36.5766152
  39.4554864  39.6571323  37.2539157  39.6130444  40.2112175  35.5700809
  40.1430374  41.6669866  37.0391634  40.1727111  42.4218484  36.2534129
  39.6449294  42.0771271  37.9176691  41.5726033  41.2574996  37.4076993
  41.7237620  40.1974644  37.9952215  42.5316568  41.9672975  37.0879522
  37.5326191  42.0445675  35.6655347  37.5776166  41.9206984  34.4312216
  37.1763627  43.1816060  36.2729231  36.9468675  43.2243232  37.2555759
  37.0457288  44.4120920  35.4702026  37.3942560  44.2378531  34.4522297
  35.5690547  44.8373770  35.4179328  35.4831878  45.7102233  34.7707347
  34.9872772  44.0163687  34.9989097  35.0782908  45.1537978  36.7002681
  34.1567672  45.4147705  36.6347892  37.9276476  45.5093704  36.0569924
  38.3301701  45.4269964  37.2133588  38.2088641  46.5521796  35.2791260
  37.9175185  46.5736886  34.3122990  38.9244522  47.7051892  35.8109874
  38.8152937  47.7061636  36.8955069  40.4536509  47.7051235  35.4610885
  40.8639848  48.6210051  35.8863958  40.9287155  46.8430566  35.9293345
  40.7214162  47.6783816  33.9501406  40.7394081  48.8709335  33.1927673
  40.5967244  49.8214971  33.7067416  40.9315973  48.8476489  31.8370815
  40.9035304  49.7782653  31.2702771  41.1132346  47.6531602  31.1863960
  41.3267656  47.6813943  29.8247641  41.3253586  48.5707097  29.4632177
  41.1281045  46.4500715  31.8945749  41.3018990  45.5029655  31.3838048
  40.9178614  46.4703764  33.2666065  40.9036622  45.5371745  33.8296630
  38.3262496  48.9686074  35.2031642  37.6368227  48.9027540  34.1598930
  38.6331550  50.0805172  35.8700005  38.9560992  50.0074592  36.8241855
  38.4541594  51.4170247  35.2978481  38.2865944  51.3775177  34.2215301
  37.2561278  52.1787361  35.9638704  36.3351770  51.6242606  35.7835767
  37.4880305  52.3093049  37.4823601  38.4086269  52.8641081  37.6634586
  36.6498542  52.8398242  37.9341458  37.5698105  51.3164295  37.9246405
  37.0590892  53.5842640  35.2968252  36.8502982  53.4568510  34.2346226
  36.2235107  54.0984613  35.7717034  37.9663130  54.1757963  35.4198505
  39.7678031  52.1340737  35.4754371  40.4875369  51.9036066  36.4584616
  40.1370846  52.9908676  34.5132805  39.5663564  53.1562074  33.6965605
  41.4084267  53.7127140  34.6308899  41.6208532  54.0982081  35.6280701
  42.6085947  52.7938209  34.1794330  42.6381723  51.9176106  34.8271057
  42.4471805  52.3420936  32.7081513  42.4179858  53.2178035  32.0597835
  43.2897857  51.7103917  32.4269582  41.5199119  51.7794551  32.5999272
  43.9430234  53.4444065  34.4188249  44.0595678  53.6551926  35.4818812
  44.7383161  52.7742386  34.0925057  43.9998276  54.3760422  33.8558605
  41.3167176  54.9485546  33.7303881  40.5488965  54.9502871  32.7792553
  42.0881268  55.9685776  34.0589256  42.6234704  55.9373707  34.9148069
  42.2300215  57.1391874  33.1950740  41.2479370  57.5099473  32.9015670
  42.9676401  58.2492635  33.9427602  43.9589105  57.8672496  34.1867841
  43.0624173  59.0967752  33.2639074  42.2685033  58.6973471  35.2188789
  41.0515653  58.4629098  35.3657738  42.9899033  59.3019364  36.0694680
  43.0668947  56.8281513  31.9391454  43.9892888  56.0129354  31.9602927
  42.8014316  57.5089545  30.8200090  42.0037377  58.1226413  30.7353196
  43.7039911  57.3858335  29.6794505  44.0106697  56.3456812  29.5693114
  43.0096061  57.8425711  28.3610992  42.5245634  58.7948500  28.5755696
  43.8003700  57.9954716  27.6266512  41.9754549  56.8568819  27.8010518
  41.9032701  57.0779843  26.7361556  42.4081826  55.8657795  27.9373048
  40.3181044  56.8878661  28.5290011  39.6632262  58.4390424  27.7930836
  39.6649724  58.3552126  26.7063138  38.6442772  58.6056514  28.1424903
  40.2914168  59.2777029  28.0932941  44.8834027  58.2958546  29.9703776
  44.6568013  59.5010630  30.2516794  46.1306771  57.7657512  29.9114952
  46.5576675  56.3598638  29.7648974  46.1244232  55.9401184  28.8570354
  46.2205734  55.7847350  30.6272740  48.0613087  56.4638955  29.6949352
  48.3566592  56.3271258  28.6546654  48.4799356  55.6594724  30.2997131
  48.4830658  57.7789983  30.2050914  49.2549271  58.1459333  29.5285651
  48.8728426  57.7576842  31.2227944  47.2583666  58.6864605  30.1356197
  47.0684634  59.2543531  31.0464067  47.4292358  59.6570255  28.9527874
  46.8714237  59.4276785  27.8765409  48.2042266  60.7068089  29.1865806
  48.6941261  60.7530745  30.0685995  48.3683036  61.8360137  28.2267467
  47.4032114  62.2872005  27.9962543  49.2721081  62.9071179  28.8682990
  48.8411217  63.1120585  29.8482731  50.2480285  62.4377060  28.9921209
  49.4356709  64.2516317  28.0780669  49.3357845  64.0524498  27.0110851
  48.6328284  64.9148549  28.4000580  50.8026071  64.9260064  28.3511537
  51.1966079  65.1011924  29.5351474  51.4991702  65.2638416  27.3707883
  48.9722258  61.2915829  26.9599231  49.9426541  60.5414770  27.0181569
  48.3798592  61.6231286  25.8022741  47.5620974  62.2155748  25.7829734
  48.9052867  61.1336973  24.5402072  48.6943774  61.8909354  23.7850867
  49.9838807  61.0279377  24.6566077  48.3273542  59.8119501  24.0864966
  48.5960518  59.3833200  22.9776941  47.5161820  59.1583282  24.9224164
  47.3037478  59.5342760  25.8354522  46.9673726  57.8586732  24.5668729
  47.3117071  57.5653126  23.5751711  47.4281529  56.8052089  25.5757552
  47.2133188  57.1891551  26.5730169  46.8930221  55.8676751  25.4248726
  48.8762699  56.5431816  25.4733596  49.6255373  56.9543266  26.3424073
  49.3075975  55.8820993  24.3787177  50.2913822  55.6818071  24.2684887
  48.6446609  55.5906355  23.6746831  45.4540217  57.8504129  24.4815689
  44.7466850  58.5089063  25.2726613  44.9564874  57.0720047  23.5355851
  45.5905036  56.5810124  22.9215418  43.5496233  56.9131157  23.3260695
  43.0284168  57.8579881  23.4798849  43.3181804  56.4583219  21.8948949
  42.2457609  56.4378192  21.7010000  43.7956735  57.1672991  21.2185431
  43.8694692  55.1454782  21.6808967  43.7131207  54.8769380  20.7725790
  42.9165456  55.8969518  24.2856326  43.6563840  55.1564867  25.0037159
  41.5752694  55.8490245  24.2921210  41.0255990  56.5689440  23.8452679
  40.8610774  54.7430178  24.9809634  41.1195562  54.7925033  26.0387153
  39.3377920  54.7795886  24.8478318  39.0863003  54.8288617  23.7883870
  38.9332023  53.8617700  25.2744655  38.7480725  55.9625143  25.5568879
  39.1237279  55.9477388  26.5800035  39.1281308  56.8457783  25.0435658
  37.2326134  56.0023916  25.5758544  36.5769322  54.9209684  25.5899990
  36.7087393  57.1509004  25.5901841  41.3190835  53.4021077  24.4456125
  41.6042989  52.4946687  25.2286550  41.4069490  53.2793236  23.1209492
  41.0930066  54.0067974  22.4945935  41.8754594  52.0220557  22.5427656
  41.2447340  51.1983372  22.8770895  41.8142591  52.0963309  21.0028140
  42.1893439  53.0833313  20.7321837  42.4653027  51.3319315  20.5786255
  40.3717393  51.9181092  20.4431556  39.4495308  51.3944261  21.1478205
  40.1721744  52.2836392  19.2385724  43.2827289  51.6283994  23.0168725
  43.5311946  50.4260455  23.3572779  44.2038553  52.5924659  23.0392278
  43.9625033  53.5512609  22.8329251  45.5850625  52.2956476  23.4759561
  46.0329046  51.5843066  22.7820321  46.4441066  53.5376310  23.5154579
  45.8524768  54.2847712  24.0444711  47.3499229  53.3238765  24.0828253
  46.8275399  54.0793263  22.1164653  46.7329653  53.3391170  21.0952798
  47.2641758  55.2648188  22.1261490  45.5407091  51.8052973  24.9243605
  46.2614664  50.8437195  25.3036193  44.7101108  52.4858364  25.7222038
  44.1061225  53.2026134  25.3460015  44.7029296  52.2555963  27.2050598
  45.7365560  52.2711515  27.5507097  43.9361224  53.4026942  27.8928956
  42.8854351  53.3646840  27.6052990  44.0567653  53.2471281  29.4334557
  45.1072124  53.2855078  29.7218782  43.5159478  54.0562426  29.9243216
  43.6319282  52.2902961  29.7369132  44.5884641  54.6496914  27.5126034
  44.1339299  55.3875147  27.9256600  44.1060770  50.9249962  27.5302110
  44.7156111  50.1197836  28.3210099  42.9506267  50.6530794  26.9217030
  42.3938226  51.3681755  26.4759384  42.3816279  49.3070678  27.0488172
  42.3266610  49.0463628  28.1057518  40.9732975  49.2078525  26.4450898
  41.0246937  49.5521287  25.4121660  40.6718792  48.1605254  26.4638773
  39.9350210  50.0581804  27.2219201  39.8541800  49.6347390  28.2230510
  40.3309768  51.0715997  27.2875122  38.5384703  50.0931644  26.5638993
  37.9246524  50.8536244  27.0466281  38.6383512  50.3266258  25.5038903
  37.8784990  48.8115834  26.6963715  38.3109231  48.1409656  27.3155488
  36.7609017  48.4638441  26.0652561  36.1701895  49.3054675  25.2170291
  36.5738214  50.2162766  25.0508722  35.3216728  49.0285128  24.7443608
  36.2290910  47.2667410  26.2865896  36.6759943  46.6303330  26.9310758
  35.3803184  46.9985384  25.8093568  43.3053284  48.2160967  26.5145238
  43.3971643  47.1450227  27.1118410  43.9991616  48.4433051  25.4048942
  43.9229878  49.2995823  24.8747186  44.8905221  47.3922619  24.9037051
  44.3153878  46.4782091  24.7559648  45.5477380  47.7833758  23.5634520
  45.9223677  48.8018630  23.6656066  46.3838414  47.1042872  23.3965094
  44.5899577  47.7107975  22.3788080  44.0100763  46.7879326  22.3914065
  43.9126664  48.5646548  22.3613088  45.6283299  47.7425256  20.8911449
  47.2975378  48.0466960  21.5634240  47.5674425  47.2406390  22.2457162
  48.0173866  48.0863596  20.7459002  47.3061374  48.9950161  22.1007472
  46.0024658  47.0520071  25.8822483  46.3537133  45.8840093  26.0488447
  46.6233837  48.0932958  26.4413312  46.3744566  49.0251870  26.1418090
  47.6845740  47.9448362  27.4496188  48.5130540  47.3751176  27.0287377
  48.2194982  49.3444238  27.9037254  48.6550661  49.8241255  27.0272175
  47.4466245  49.9884187  28.3232928  49.3232355  49.2555112  28.9441048
  50.6409639  49.1182314  28.5532965  50.8708493  49.1147448  27.4878199
  51.6837979  48.9837418  29.5037231  52.7180897  48.8875332  29.1734428
  51.3870503  48.9748845  30.8469012  52.1888469  48.8927043  31.5807054
  50.0529917  49.0715653  31.2728385  49.8174969  49.0241283  32.3360375
  49.0187311  49.2297498  30.3282473  47.9863096  49.3320749  30.6625157
  47.1463336  47.1582164  28.6794141  47.6734566  46.0803976  29.0090457
  46.0862443  47.6662154  29.3271082  45.6731115  48.5445735  29.0479886
  45.5575022  46.9938570  30.5401370  46.3928677  46.8714249  31.2295383
  44.4634902  47.8672650  31.2319623  43.6164234  47.9911846  30.5572610
  44.1302778  47.3761915  32.1462471  44.8790176  48.8449603  31.4759871
  45.0191796  45.5799461  30.2218439  45.2467803  44.6123064  31.0279174
  44.3366512  45.4320998  29.0827208  44.1384704  46.2274107  28.4925477
  43.8108347  44.0935925  28.6695073  43.1440965  43.7087660  29.4411730
  43.0225838  44.1953777  27.3400663  43.6412628  44.7399053  26.6267464
  42.8742126  43.1749382  26.9868111  41.6702881  44.8887753  27.4730063
  41.2027862  45.2507397  28.5869591  41.0840154  45.0742339  26.3748672
  44.9182504  43.0439175  28.4958473  44.7784190  41.8608341  28.9396548
  46.0557832  43.4490521  27.9089010  46.1476027  44.3831197  27.5358241
  47.1723228  42.5340783  27.7559855  46.8859744  41.6790456  27.1435943
  48.3579758  43.2552463  27.0741163  48.6092962  44.1360087  27.6650443
  49.5959556  42.3410917  26.9620617  49.3455213  41.4602769  26.3708362
  50.4070116  42.8847044  26.4775283  49.9111095  42.0315970  27.9585514
  47.9155669  43.6469427  25.7732208  48.6276851  44.1002988  25.3161034
  47.5939767  41.9850293  29.1117846  47.7893594  40.7422443  29.2808409
  47.7170411  42.8812180  30.0971267  47.5823473  43.8690081  29.9351768
  48.1564059  42.4408723  31.4509465  49.0145302  41.7747215  31.3616999
  48.5552401  43.6555071  32.3742876  47.7342498  44.3724921  32.3768549
  48.8467812  43.1848198  33.8522264  49.6680206  42.4681163  33.8505187
  49.1186563  44.0466889  34.4616246  47.9553024  42.7141125  34.2667163
  49.7880539  44.3280057  31.8029315  49.5730435  44.6874676  30.7966215
  50.0701077  45.1691929  32.4361372  50.6086094  43.6115383  31.7646691
  47.0779060  41.5820689  32.1279469  47.3812240  40.4775789  32.6636875
  45.8493131  42.1021472  32.1762700  45.6550147  43.0107169  31.7802289
  44.7616832  41.4060139  32.9063649  45.1108573  41.2124939  33.9206265
  43.4497349  42.2649768  32.9827610  43.1425592  42.5453384  31.9752196
  42.3213200  41.4410721  33.6565086  42.6275991  41.1607203  34.6643265
  41.4130109  42.0414959  33.7071678  42.1292811  40.5412125  33.0721497
  43.6947994  43.5282805  33.8384322  44.4880723  44.1247200  33.3877881
  42.7796728  44.1184969  33.8862618  43.9897548  43.2339424  34.8456398
  44.4836877  40.0351648  32.2857417  44.3302257  39.0179467  32.9966614
  44.4934450  39.9551757  30.9623855  44.6496053  40.7410405  30.3474629
  44.1711440  38.6557723  30.3623183  43.2684474  38.2610077  30.8285789
  43.9298955  38.7700810  28.8304258  44.7821497  39.3069924  28.4139066
  43.9124464  37.7544767  28.4350228  42.6279048  39.4941571  28.4418591
  41.8013881  38.9264106  28.8692170  42.6603033  40.4848464  28.8952762
  42.4173134  39.6364262  26.8747762  42.1206518  38.6637924  26.4822531
  41.6168938  40.3562365  26.7036001  43.6762809  40.1034399  26.1691893
  43.7978524  41.1685485  26.3663307  44.5207913  39.5578356  26.5901611
  43.6199933  39.8703762  24.6738324  42.8377729  40.3762069  24.2834910
  44.4768958  40.1960644  24.2498688  43.5077738  38.8834349  24.4909318
  45.2545603  37.6043136  30.6398720  44.9306016  36.4303769  30.8463116
  46.5304718  38.0084805  30.6029406  46.7787345  38.9566882  30.3592869
  47.5906836  37.0805455  30.9029547  47.5180500  36.2002523  30.2642783
  48.9448764  37.7608361  30.6492705  48.8327300  38.1484009  29.6366916
  49.0950854  38.5900707  31.3405790  50.1693603  36.8128372  30.7064654
  50.2006931  36.3535429  31.6944775  50.0938202  35.7219147  29.6405368
  50.0629204  36.1804589  28.6521638  50.9709354  35.0790898  29.7150068
  49.1936081  35.1264166  29.7925260  51.4626500  37.6234375  30.6076076
  51.5151540  38.3274975  31.4380547  52.3184354  36.9496018  30.6485714
  51.4773212  38.1717016  29.6656468  47.4805700  36.6463855  32.3788405
  47.7018213  35.4608717  32.7235806  47.1904807  37.6004549  33.2542741
  47.0210153  38.5544866  32.9693104  47.1222484  37.2720690  34.7169019
  48.0662637  36.8372981  35.0453964  46.8605282  38.5349926  35.5261067
  46.0616890  39.0801307  35.0233348  46.5417203  38.2727839  36.5349219
  48.1070755  39.4582854  35.6233803  49.1964080  39.0559358  35.3290360
  47.8981561  40.6847451  36.0796242  48.6725284  41.3276794  36.1637840
  46.9655123  40.9709390  36.3410995  45.9926819  36.2603151  34.9454244
  46.1556836  35.3140262  35.7458304  44.8394103  36.4781521  34.2941912
  44.6618316  37.3145592  33.7566148  43.7275470  35.5096282  34.4781405
  43.6129978  35.3334250  35.5476872  42.3736352  35.9758669  33.9080192
  42.5659668  36.2086891  32.8606885  41.6423922  35.1700979  33.9722068
  41.8198736  37.2331534  34.6226882  42.5766610  38.0164407  34.6655218
  40.6294039  37.7219893  33.8085934  39.8719457  36.9393554  33.7656995
  40.2071987  38.6101545  34.2787064  40.9557346  37.9668569  32.7978271
  41.4417338  36.9139312  36.0880259  42.3249359  36.5670165  36.6244059
  41.0554629  37.8129801  36.5682417  40.6779292  36.1365042  36.1055983
  44.1030789  34.1404804  33.9148856  43.7334261  33.0747027  34.5017508
  44.8351128  34.1284227  32.7939222  45.0628396  34.9797441  32.3004733
  45.2718331  32.8406065  32.2098069  44.4085139  32.1847006  32.0977057
  45.9178316  33.0378972  30.8362705  46.4685929  33.9784774  30.8446549
  46.6090369  32.2143031  30.6573068  44.8920231  33.0715237  29.7506301
  44.7166602  32.0289555  29.4852996  43.9562803  33.5250767  30.0773980
  45.3895949  33.8169405  28.5060912  46.5901273  34.1364435  28.3891909
  44.4576133  34.1708265  27.6255930  44.7226224  34.6645410  26.7852850
  43.4891807  33.9442101  27.8013335  46.2326173  32.1460202  33.1660332
  46.1443535  30.9051006  33.3619259  47.1183712  32.9131047  33.8042357
  47.2249617  33.8934560  33.5859488  48.0683026  32.2986812  34.7663916
  48.4499454  31.3696020  34.3430009  49.2690181  33.2307626  35.0802206
  49.8400037  33.3829795  34.1643032  48.8838536  34.1882087  35.4309987
  50.1939674  32.6116016  36.1720046  49.5529131  32.3027374  36.9976881
  50.6665212  31.7336653  35.7315244  51.2861886  33.5756883  36.6993228
  51.9844671  33.7524002  35.8812280  50.7924939  34.5109187  36.9633477
  52.0709413  33.0254979  37.9494007  51.3651843  32.9681287  38.7780842
  52.4200345  32.0234554  37.7001139  53.2740851  33.9023482  38.3583171
  52.9507703  34.8307868  38.5897668  53.7301398  33.4945623  39.1619494
  53.9283806  33.9552872  37.5907275  47.3380035  31.8522484  36.0431258
  47.6238733  30.7761773  36.5926114  46.3413312  32.6080763  36.4846714
  46.1563422  33.5212639  36.0948423  45.4976994  32.1403363  37.6081191
  46.1138508  32.0173660  38.4988126  44.3836225  33.1458754  37.9183428
  44.9406355  34.0254268  38.2411819  43.8198288  33.3843298  37.0164691
  43.4093361  32.7160781  39.0349535  42.8854542  31.8156470  38.7142163
  44.1821051  32.4238609  40.3806724  44.7058940  33.3240257  40.7023046
  43.4713994  32.1230434  41.1504171  44.9032024  31.6225173  40.2195277
  42.3116654  33.7614310  39.2125322  41.7578174  33.8694866  38.2799681
  41.6319746  33.4445527  40.0035504  42.7601230  34.7179159  39.4810862
  44.8938333  30.7652244  37.2669637  44.8822747  29.8639297  38.1231390
  44.3522580  30.6299657  36.0680845  44.2865594  31.4024896  35.4207902
  43.7501285  29.3502288  35.6856665  42.9638064  29.1325219  36.4084393
  43.1285750  29.4327525  34.3024579  43.9050817  29.6412640  33.5664820
  42.6467854  28.4848092  34.0629115  42.3871193  30.2314981  34.2838024
  44.7731954  28.1882799  35.7487445  44.4577395  27.0972881  36.2891345
  45.9763513  28.4315352  35.2125395  46.1347293  29.3067642  34.7340105
  47.0585926  27.4137222  35.1958287  46.7202697  26.5013193  34.7047504
  48.2785185  27.9743579  34.4152441  48.5351047  28.9441322  34.8416261
  49.5244346  27.0238188  34.4913654  49.2687375  26.0539281  34.0647147
  50.3502904  27.4607811  33.9300052  49.8210801  26.8954390  35.5323364
  47.8621309  28.1196637  33.0468463  48.5903987  28.4656884  32.5257961
  47.4192992  26.9645059  36.6014964  47.4505690  25.7434889  36.8951725
  47.6539194  27.9470172  37.4768534  47.5912611  28.9063398  37.1672192
  48.0657299  27.6926059  38.8350511  48.9056771  27.0059634  38.9404559
  48.4102263  29.0148405  39.5725087  47.6152495  29.7321192  39.3684929
  48.5489416  28.8146641  41.1250812  49.3440959  28.0978136  41.3299127
  48.7902522  29.7682186  41.5947655  47.6088221  28.4389218  41.5289311
  49.6367229  29.6648558  38.9466403  49.4369108  29.8843561  37.8978330
  49.8666393  30.5908395  39.4737004  50.4858538  28.9853436  39.0197206
  46.9795306  26.9204266  39.5751938  47.2825079  25.8602718  40.2050848
  45.7264529  27.3922054  39.5037937  45.5338601  28.2614573  39.0269200
  44.6239575  26.7284430  40.2159680  44.9567637  26.6397145  41.2501181
  43.3383225  27.5623700  40.1850244  42.9877052  27.6524301  39.1568918
  42.5729714  27.0735662  40.7878584  43.5387093  28.5550055  40.5882851
  44.3618315  25.2902126  39.6926018  44.1162192  24.3585868  40.4849111
  44.4335256  25.1257958  38.3760137  44.5481791  25.9309973  37.7771777
  44.2113679  23.8116453  37.7454201  43.2968140  23.3688327  38.1398910
  44.0746604  23.9450203  36.2262021  44.8481416  24.6140910  35.8491469
  44.1863518  22.9642744  35.7638574  42.6939820  24.5165321  35.8841797
  41.9517698  23.7523220  36.1148415  42.5585152  25.3671872  36.5521123
  42.5280293  24.9549229  34.4954457  43.4987331  24.8003718  33.7218716
  41.4252375  25.4345229  34.1355010  45.3219421  22.8180813  38.1757241
  45.0424152  21.6632319  38.5341325  46.5590072  23.2768618  38.2073370
  46.7971482  24.1833725  37.8310039  47.6356131  22.4312717  38.7051604
  47.5953429  21.4888822  38.1589192  48.9638080  23.0735366  38.4535158
  49.0227738  24.0140700  39.0012566  49.7591929  22.4079269  38.7888168
  49.0781550  23.2670396  37.3869415  47.4509299  22.0949499  40.1990486
  47.6554644  20.9408641  40.6136444  47.0802240  23.0855440  41.0156527
  47.0631526  24.0425699  40.6933031  46.7812079  22.8225948  42.4220855
  47.6375324  22.3263460  42.8787525  46.4886405  24.0984283  43.1969424
  45.7689127  24.6864184  42.6274173  46.0528313  23.8224627  44.1571576
  47.7234383  24.9082304  43.4251198  48.4020529  24.3470133  44.0674736
  48.2054412  25.0980332  42.4660837  47.3283622  26.4816946  44.2115492
  46.8510690  26.0071997  45.8866820  47.6840341  25.4986119  46.3720752
  46.5884982  26.8985477  46.4564679  45.9920799  25.3375372  45.8443619
  45.6350020  21.8432578  42.6001474  45.6995156  21.0032767  43.5044752
  44.6274741  21.9231606  41.7267906  44.6322631  22.6715686  41.0485857
  43.4663203  21.0387622  41.7736876  43.0744068  21.1071215  42.7884930
  42.3774136  21.4932654  40.7967547  42.7518626  21.4217812  39.7755898
  41.5003749  20.8555089  40.9070727  42.1041019  22.5263629  41.0114861
  43.8393805  19.5593486  41.5231647  43.2585952  18.6696647  42.1512610
  44.7761930  19.3124551  40.6115715  45.1317005  20.0742621  40.0517825
  45.2750126  17.9331877  40.3289813  44.4071187  17.2792512  40.2439726
  46.0413488  17.9073904  38.9978309  45.3935059  18.2661449  38.1980221
  46.9183841  18.5505440  39.0703743  46.4821832  16.4797440  38.6926832
  47.1304765  16.1204425  39.4918821  45.6055993  15.8360429  38.6195272
  47.2429360  16.4541342  37.3712354  46.5950947  16.8128902  36.5714262
  48.1199717  17.0972865  37.4437805  47.6874780  15.0814823  37.0416744
  47.4602865  14.3344662  37.6823383  48.3724720  14.7867070  35.9404063
  48.7087574  15.7154813  35.0497936  48.4418675  16.6775070  35.2026866
  49.2294745  15.4544972  34.2246630  48.7218629  13.5186853  35.7430546
  48.4649069  12.8158376  36.4213457  49.2425416  13.2644258  34.9158034
  46.1661263  17.3802826  41.4672336  46.2560536  16.1567088  41.6744877
  46.8286111  18.2850963  42.1955228  46.6918252  19.2586141  41.9638938
  47.8623057  17.9416823  43.1880692  48.3880461  17.0350502  42.8885455
  48.8878033  19.0988552  43.2871226  49.7826191  18.8171011  42.7321284
  48.4421824  19.9834474  42.8321297  49.2921867  19.4397849  44.7312033
  49.7079952  18.5702548  45.4959325  49.1720673  20.7280917  45.0988893
  49.4236072  21.0081377  46.0361201  48.8308811  21.4095319  44.4360680
  47.3168807  17.5064913  44.5559086  46.2198975  17.9090020  44.9700003
  47.9244739  16.6829730  45.2364141  49.7648541  46.9676898  35.5085838
  48.5159630  47.0264710  34.8788714  47.4599291  46.2228033  35.3120085
  47.6576912  45.3518323  36.3907738  48.8868276  45.2828056  37.0606082
  49.9390887  46.0984265  36.5928751  51.3086964  48.9449012  35.5926190
  50.9923252  49.3974969  36.6866603  50.7753265  47.8097129  35.0018939
  50.6465780  47.9752653  34.0095159  53.0014422  48.5942338  33.7648988
  52.3758149  49.6121525  34.7186104  51.7905365  50.7823872  33.9296802
  49.1100134  44.3785047  38.2450701  48.3454522  44.7169365  39.3179619
  50.3939094  44.4094626  38.7009361  48.8507339  43.0746685  37.9695265
  46.5358484  44.5087331  36.7835581  45.7472721  44.9742137  37.6155913
  46.4392818  43.4078621  36.2305319  48.3431801  47.7073698  34.0466311
  46.4960546  46.2757030  34.8083910  50.9094501  46.0761754  37.0896673
  52.3418832  48.3188460  32.9358057  53.9030673  49.0238873  33.3129131
  53.3089629  47.6818493  34.2884822  53.1586976  49.9772033  35.3950412
  50.9894051  50.4500254  33.2599144  51.3591423  51.5262745  34.6090157
  52.5614556  51.2759339  33.3288871  39.0661036  61.6145218  35.4612727
  44.3062535  15.3046109  46.3950446  32.6511649  58.6465567  26.9420501
  53.3674294  48.8125600  52.5540724  27.8910583  28.9106904  52.3900823
   3.5940300  39.2388363  27.1953809  19.4439090  23.6295463  40.2051418
  65.2004900  74.1161615  39.5892519  54.2015222  14.1018673  36.5011302
  13.6819044  19.1683567  23.8590647  31.3924022  54.2858599  20.7767861
  68.1425903  45.5797733  28.6749826   8.5782047  37.4144385  39.4543809
   5.9132460  44.1745582  28.6110087  34.9850867  59.4383660  76.4967326
  72.8335335  33.2082366  24.7786377  20.9406303  55.8380199  25.3192400
  57.9306141  22.9521785  65.5843982  32.0234324  66.9888102  56.4962512
  51.2820146  10.4516113   5.8304075  45.6768830  10.6832403  52.3064573
  47.6762960  22.5961859  63.5988422  35.4808773  13.6148712  46.8992117
   9.9206832  62.0136360  40.6995958  63.4591248  50.3440309  33.3008751
  25.1447558  35.8740734  18.1456419  50.3001711  36.1677124  -4.8687150
  17.3438282  62.0653756  19.5281457   3.3785882  38.4873150  35.3729605
  31.3319615  -2.3556345  43.7037198  76.8992483  64.2774414  51.1545803
  70.6021649  50.2386586  12.6108544  73.1384511  56.2704235  37.8446330
  69.9090528  26.0988483  35.3089483  48.6941019  32.5011502  86.0919853
  30.5571289  54.6695054  10.1447625  21.6539292   6.7719169  22.7324570
  31.2507986  48.9126039  56.4700883  36.5011319  42.2631195  58.2617867
  30.5345364  75.5480800  29.4919534  43.2907147  74.5676204  34.7060826
  16.0248407  25.0808690  40.7870907  42.1186733   4.1410615  55.6079389
  46.7074398  29.8422290  70.6339239  35.1772052  49.3376983  81.8558950
  20.2858391  66.2793188  61.1802028  41.1579963  61.7715895  10.8179282
  29.8659782  54.3413179  13.3607605  51.8863475   7.6299072  50.8363060
  23.4386096  60.8432962  73.3063770  46.7945770  46.2733233   7.7737234
  41.8458025  51.0341225  61.4536667  65.2078422  20.0097171  14.8941023
  31.9111348  51.6594063  66.7754286  31.6368791  20.7065523  56.7697151
  28.6643455  29.6327295  15.0498521  13.3927910  42.4313576  27.8047203
  21.7706448  50.6191259  61.9247863  50.8341441  60.5119069  41.4553067
  66.0141576  18.2197201  58.3647617  71.8982403  69.2123467  45.4128732
  44.8344530  38.2089136  85.8664945  44.3056002  38.4248770  86.5262251
  45.3569550  38.9025275  85.7865914  44.8332983  38.3432273  85.9520544
  36.7244138  42.1052353  84.6672413  36.1401353  42.6102385  85.0738277
  36.3214233  41.8794740  83.9269005  36.5783442  42.1460601  84.6177438
  41.1821352  38.3518005  83.1441334  41.4217356  38.5595989  82.3316677
  41.5037193  37.5475514  83.2530278  41.2658510  38.2632106  83.0401887
  34.3930734  35.9655893  82.2001458  33.6788911  35.6794072  82.6123890
  34.8774703  36.3052518  82.8407845  34.3590098  35.9737542  82.3557092
  41.5678052  44.4685847  82.5763266  41.9829201  44.1370870  81.8847761
  40.7369982  44.2354749  82.4483402  41.5066061  44.3857103  82.4554113
  44.2611442  40.7196406  81.7624467  44.1791605  40.7898593  82.6279454
  44.8991163  41.2826150  81.5708208  44.3431280  40.8135377  81.8614417
  41.3651553  40.7416860  84.7733074  42.1792191  41.0331753  84.6615845
  41.3010694  40.0876723  84.1991367  41.4754292  40.6882055  84.6721911
  37.8762276  39.4340668  84.2380275  38.2607429  39.2148374  84.9896820
  37.6273896  40.2603613  84.3681351  37.8964348  39.5238814  84.3681352
  42.8027575  43.9578660  80.1148879  43.5700560  44.0178785  79.7054731
  42.3558884  43.3859102  79.6305197  42.8501002  43.8815236  79.9826589
  38.8502175  40.2297427  81.5785989  39.1394700  41.0062309  81.8529563
  38.9373974  39.7186158  82.2800488  38.9056431  40.2689345  81.7228487
  43.6433794  35.6230690  85.8339676  43.1156813  35.7059434  85.1445385
  44.1029502  36.3648561  85.8304321  43.6335645  35.7451352  85.7314371
  35.6366859  33.8933209  80.8580571  35.2879664  34.5452935  81.3212120
  35.1563305  33.8790322  80.1304442  35.5137103  33.9876263  80.8191662
  36.0390990  37.3858851  83.6999192  36.6736070  37.9819276  83.6348654
  36.1216601  37.0862308  84.5145063  36.1447541  37.4299759  83.8102279
  40.6781084  35.2580950  85.1735298  40.0845924  35.5797946  84.6219865
  40.7156362  34.4122045  84.9656404  40.5955473  35.1805278  85.0618070
  38.6510317  35.8978201  83.2664628  39.0309281  35.9157830  82.4815743
  37.9102913  36.3432189  83.1455476  38.5979154  35.9659975  83.1328196
  39.4495071  42.7355707  84.6573418  38.6406393  42.4122380  84.6106728
  39.9569980  42.0288929  84.5901667  39.4044737  42.5837023  84.6403713
  48.0531041  15.2222527  74.7174657  48.0225045  16.0767164  74.8892926
  48.6512390  14.9217820  75.2760801  48.1368199  15.3039024  74.8249459
  35.6371865  23.8460896  75.2364819  34.8854765  23.4676434  75.0080864
  36.0857877  23.8779330  74.4883629  35.5921532  23.7946503  75.0922321
  41.0896825  24.2686265  70.6650366  40.7548194  24.9463187  70.2294588
  41.6023696  23.8791577  70.0767238  41.1162406  24.3110844  70.5137158
  40.6301117  26.2200534  76.6061478  41.0140496  26.7887433  76.0666253
  40.5660258  25.4950044  76.1267294  40.6774544  26.1975998  76.4555340
  45.8747615  17.7974829  72.9892967  45.7587141  18.5482515  73.4185105
  46.6703502  17.5398782  73.2389054  45.9752205  17.8709676  73.0897058
  37.0557361  28.7756877  78.9042448  37.6994817  29.2170041  79.2938606
  37.3813617  27.9710303  78.8172706  37.1989190  28.7222072  78.9487925
  37.7577941  21.7868852  74.2762309  38.0793782  22.3274059  73.6723617
  38.4050037  21.2165624  74.4084599  37.9003996  21.7828027  74.2069345
  39.9967584  20.1755292  74.3476487  40.4361220  19.5672393  74.7931260
  39.8472247  19.7962665  73.5761952  40.0389050  20.0293763  74.2995655
  43.5976921  18.5282473  71.3007257  43.5128216  19.3843440  71.4456825
  44.0861304  18.2526797  71.9689416  43.6565818  18.6139795  71.4209338
  44.5295354  15.1467268  72.8004992  44.0006826  15.3626901  73.4602298
  45.0520374  15.8403406  72.7205961  44.5283807  15.2810404  72.8860591
  49.9843407  20.7213572  78.1738036  49.1541110  20.9324216  78.3371453
  49.9352659  19.8950627  77.8980320  49.8550142  20.6303178  78.1575402
  36.4194962  19.0430484  71.6012460  35.8352177  19.5480516  72.0078324
  36.0165057  18.8172871  70.8609052  36.2734266  19.0838733  71.5517485
  40.8772176  15.2896136  70.0781380  41.1168180  15.4974120  69.2656723
  41.1988017  14.4853645  70.1870325  40.9609334  15.2010238  69.9741933
  47.2407722  21.3912926  78.3102752  46.8042954  21.3949669  79.0661723
  46.9070638  22.0718425  77.8782330  47.1270342  21.4925382  78.3583585
  50.3752068  18.1093846  77.2022389  51.0368502  17.5484515  77.1018298
  49.7343480  17.6145877  77.5275080  50.3780936  17.9530255  77.2354729
  41.2628876  21.4063978  69.5103313  41.6780025  21.0749002  68.8187808
  40.4320806  21.1732880  69.3823449  41.2016885  21.3235234  69.3894160
  46.6616899  19.1259229  76.9434378  46.8972488  19.2704428  76.1161229
  46.8106463  19.8901637  77.3365892  46.7182702  19.2598283  76.8797982
  48.4907356  17.9660895  74.7803982  48.8215573  18.4988535  74.1744077
  49.0640444  18.0199782  75.4365933  48.6241035  18.0530464  74.7881764
  43.9562266  17.6574537  68.6964514  43.8742429  17.7276724  69.5619501
  44.5941987  18.2204281  68.5048255  44.0382104  17.7513508  68.7954463
  41.0602376  17.6794991  71.7073120  41.8743015  17.9709884  71.5955892
  40.9961518  17.0254854  71.1331413  41.1705116  17.6260186  71.6061958
  37.5713100  16.3718799  71.1720322  37.9558252  16.1526505  71.9236867
  37.3224720  17.1981744  71.3021398  37.5915172  16.4616945  71.3021398
  37.8536342  24.5923675  73.2452692  38.1434641  24.2012656  72.5211919
  38.5839823  24.7740380  73.6857967  38.0043227  24.5617488  73.2035499
  35.7942258  26.5691057  76.3112842  35.5742553  26.2788412  77.1039509
  35.5736780  25.9106012  75.7830754  35.7289852  26.4290765  76.3501751
  37.9610214  27.9420447  75.0943534  38.6134272  27.4096889  75.3234560
  37.2635822  27.5889099  75.4811408  37.9540932  27.8109970  75.1855702
  45.9550132  20.2624861  74.4374514  46.5208165  20.9218071  74.3533057
  45.3078035  20.6074559  74.9090916  45.9428888  20.4106802  74.4947270
  42.4256710  23.2063645  73.8611593  42.1843386  22.4731506  73.4538658
  42.6058043  23.7550502  73.2077926  42.4164334  23.1786036  73.7041816
  47.1512830  20.3131089  71.2300150  46.7719639  19.5268227  71.2229439
  46.4879075  20.8617946  71.0871794  46.9971305  20.2775913  71.2080947
  39.9759738  23.8644608  75.0688976  40.7409629  23.5954251  74.7471641
  39.8737828  23.3794618  75.7859039  40.0741234  23.7534172  75.1268804
  42.4978399  20.8956791  67.0488926  43.2651384  20.9556916  66.6394777
  42.0509708  20.3237233  66.5645244  42.5451826  20.8193367  66.9166636
  45.3972929  22.5576580  71.5651836  45.4792766  23.3643566  71.2413287
  45.8822671  22.5772539  72.2892609  45.4810087  22.6797242  71.6238735
  41.0331022  17.1071351  74.5343250  41.5746567  16.6041732  74.9981870
  41.3477581  17.0536545  73.7232735  41.1595419  17.0250772  74.4827062
  39.2017471  22.4988702  71.8183278  39.2710292  21.6403241  71.9576278
  39.9805926  22.7160583  71.4902302  39.3270321  22.4041566  71.7900435
  43.5924959  24.9226403  76.0319771  43.2004751  24.6193119  75.3142637
  43.7478031  25.7595493  75.8424725  43.5578549  25.0010240  75.8976268
  43.7564634  21.4876392  75.9725802  43.3979288  21.6591035  76.7489834
  43.2703344  21.9489598  75.4153800  43.6323331  21.5815363  76.0051071
  38.5452999  17.1675558  68.5126036  38.8345524  17.9440440  68.7869610
  38.6324798  16.6564289  69.2140535  38.6007255  17.2067476  68.6568534
  44.3615264  24.3261896  79.4649805  44.1634953  24.8152711  78.7706017
  43.7402975  24.5303138  80.0433939  44.2402829  24.4278434  79.4473029
  43.3384618  12.5608821  72.7679723  42.8107637  12.6437565  72.0785432
  43.7980326  13.3026692  72.7644367  43.3286468  12.6829483  72.6654418
  35.3317683  10.8311340  67.7920618  34.9830487  11.4831066  68.2552167
  34.8514129  10.8168454  67.0644489  35.2087927  10.9254394  67.7531709
  42.8921701  21.1312384  71.8989380  43.6155899  21.5970497  71.7553953
  42.4522292  21.1985994  71.1486977  42.9337393  21.2096221  71.7674161
  43.1525550  25.1933089  72.0587441  42.4354860  25.0193952  71.5934678
  43.8032288  24.9585662  71.5262927  43.1427401  25.1328882  71.9116659
  38.4338712  26.4294848  78.4877589  38.0199111  25.7668978  78.0981431
  39.1186086  26.5772707  77.9673283  38.4737084  26.3535506  78.3534086
  41.8004006  25.5884933  79.2401205  41.4020289  25.6987204  78.4722026
  41.1855226  25.7967000  79.8227765  41.6502896  25.6358501  79.2132505
  49.5345849  20.1636900  72.6244296  49.9179455  20.9128256  72.8542393
  48.7389962  20.4102720  72.3656285  49.4739631  20.3106594  72.6201870
  38.3461140  12.8356332  70.2004675  38.7260105  12.8535961  69.4155790
  37.6053737  13.2810321  70.0795522  38.2929978  12.9038106  70.0668243
  39.1445895  19.6733838  71.5913465  38.3357217  19.3500512  71.5446775
  39.6520803  18.9667060  71.5241714  39.0995561  19.5215154  71.5743759
  59.0263624  30.7407835  74.7174657  58.9957629  31.5952472  74.8892926
  59.6244973  30.4403128  75.2760801  59.1100782  30.8224332  74.8249459
  52.2263309  29.8283486  79.4727587  51.3701205  29.9891984  79.5236704
  52.2730963  28.9575550  79.4932648  52.1062421  29.7234288  79.4833653
  46.6104449  39.3646204  75.2364819  45.8587348  38.9861742  75.0080864
  47.0590461  39.3964638  74.4883629  46.5654116  39.3131811  75.0922321
  52.0629409  39.7871573  70.6650366  51.7280777  40.4648495  70.2294588
  52.5756279  39.3976885  70.0767238  52.0894990  39.8296152  70.5137158
  51.6033700  41.7385842  76.6061478  51.9873079  42.3072741  76.0666253
  51.5392841  41.0135352  76.1267294  51.6507127  41.7161306  76.4555340
  55.0715130  31.8875530  82.1159239  55.6171090  32.5660617  82.1753209
  55.0132007  31.7462991  81.2560821  55.1431045  31.9667532  81.9971300
  48.1889205  39.3764596  77.5027591  48.2899568  38.5664950  77.8124719
  47.5930950  39.2821542  76.8727270  48.1161744  39.2429624  77.4553830
  56.8480199  33.3160137  72.9892967  56.7319725  34.0667823  73.4185105
  57.6436086  33.0584090  73.2389054  56.9484788  33.3894984  73.0897058
  48.0289945  44.2942185  78.9042448  48.6727400  44.7355349  79.2938606
  48.3546200  43.4895611  78.8172706  48.1721773  44.2407380  78.9487925
  41.3854249  35.3984883  77.1279925  41.1504434  34.5652535  77.0212194
  41.5239890  35.6789548  76.3141126  41.3709912  35.3168386  76.9922280
  43.6844337  27.5670613  80.0264233  43.0649368  26.9763260  79.8574248
  43.5828200  28.1582048  79.3928556  43.5782012  27.5674696  79.9069222
  48.7310524  37.3054160  74.2762309  49.0526365  37.8459367  73.6723617
  49.3782621  36.7350931  74.4084599  48.8736580  37.3013335  74.2069345
  50.7812232  29.3070155  74.3596696  51.4792397  29.4858283  74.8518159
  51.0964565  28.7840494  73.7367085  50.9307570  29.2563927  74.3398706
  43.4113470  31.1122895  82.2707802  43.2872167  31.6985340  82.9057621
  44.0631754  30.6183091  82.5720077  43.4887119  31.1261699  82.4093731
  50.9700168  35.6940600  74.3476487  51.4093803  35.0857701  74.7931260
  50.8204831  35.3147973  73.5761952  51.0121634  35.5479071  74.2995655
  48.4371811  34.2884612  81.5495313  49.0820813  33.7957055  81.2306261
  48.6773588  34.4309398  82.3761391  48.5682396  34.2362054  81.6244846
  50.9757902  37.1339518  81.2002205  51.2581145  36.3390923  80.9788961
  51.7044063  37.6120105  81.2207266  51.1247466  37.0874115  81.1705221
  48.9539096  24.6762552  78.4417971  48.6242426  25.1273695  77.7721669
  48.2784098  24.5978715  78.9890977  48.8049532  24.7313687  78.4241194
  54.5709504  34.0467781  71.3007257  54.4860800  34.9028748  71.4456825
  55.0593888  33.7712105  71.9689416  54.6298402  34.1325103  71.4209338
  56.1615504  20.6648075  76.6867581  55.8468945  21.3551553  77.1188004
  55.6442446  20.6092857  75.9853082  56.0379974  20.7582963  76.6464530
  55.5027938  30.6652576  72.8004992  54.9739409  30.8812209  73.4602298
  56.0252958  31.3588714  72.7205961  55.5016391  30.7995712  72.8860591
  60.9575991  36.2398880  78.1738036  60.1273694  36.4509524  78.3371453
  60.9085243  35.4135935  77.8980320  60.8282726  36.1488486  78.1575402
  47.3927545  34.5615792  71.6012460  46.8084761  35.0665824  72.0078324
  46.9897641  34.3358179  70.8609052  47.2466849  34.6024041  71.5517485
  42.9471574  40.2770553  78.4036131  42.4639152  41.0021043  78.3795715
  43.7594892  40.5746683  78.5146289  42.9962322  40.4272907  78.4163411
  49.0185728  39.0702734  81.0085946  48.5012670  38.7110149  80.4047254
  49.7160119  38.5464909  81.0192012  49.0451309  38.9400422  80.9216204
  51.8504760  30.8081444  70.0781380  52.0900764  31.0159428  69.2656723
  52.1720601  30.0038953  70.1870325  51.9341918  30.7195546  69.9741933
  47.1595050  22.7374840  73.9240918  47.9141018  23.1053157  73.6857968
  46.9822585  23.1114394  74.6920098  47.2449529  22.8473028  74.0025807
  45.8015771  40.7926729  78.5556411  46.5036351  40.2778718  78.6129168
  45.7213254  41.1200881  79.3603286  45.8939532  40.7640956  78.6829203
  45.5152115  25.1445159  70.6219031  45.3327688  25.3617040  69.7960024
  46.3777728  25.2584172  70.6777646  45.6156704  25.1935057  70.5073518
  45.1266547  36.9833081  78.0642019  45.9655446  37.2156014  78.1115781
  45.1578316  36.1137393  77.9949055  45.2548264  36.8890028  78.0606664
  45.7519250  37.4033957  82.3655325  46.2917475  37.2605088  83.0358697
  45.0689196  37.8030707  82.7339351  45.7311404  37.4413627  82.5189746
  51.1951834  22.1471570  73.6568055  51.9237994  21.9687525  73.2106211
  51.2846727  22.9889650  73.8675233  51.3158496  22.2455448  73.6221573
  55.1760135  33.0824957  77.5600349  55.9317650  33.5156471  77.5989258
  55.2822459  32.4329727  78.1334985  55.3030305  33.0502441  77.6498375
  58.2140306  36.9098234  78.3102752  57.7775538  36.9134977  79.0661723
  57.8803221  37.5903733  77.8782330  58.1002926  37.0110690  78.3583585
  41.1556395  33.6234247  82.5189746  40.8894810  32.8073364  82.6780737
  41.1694959  33.6687403  81.6485262  41.1181117  33.5091152  82.4143228
  45.0614142  28.4219332  69.1341504  44.3472319  28.1357511  69.5463937
  45.5458111  28.7615958  69.7747892  45.0273505  28.4300981  69.2897139
  61.3484652  33.6279154  77.2022389  62.0101086  33.0669823  77.1018298
  60.7076064  33.1331185  77.5275080  61.3513519  33.4715563  77.2354729
  52.2361460  36.9249286  69.5103313  52.6512608  36.5934310  68.8187808
  51.4053389  36.6918188  69.3823449  52.1749468  36.8420542  69.3894160
  41.5649808  34.4093027  79.8001491  41.3825382  34.3839913  78.9473783
  42.2999477  34.8791965  79.8390399  41.6463872  34.4754389  79.6799409
  57.6349483  34.6444537  76.9434378  57.8705072  34.7889736  76.1161229
  57.7839046  35.4086945  77.3365892  57.6915286  34.7783591  76.8797982
  59.4639939  33.4846203  74.7803982  59.7948157  34.0173843  74.1744077
  60.0373028  33.5385090  75.4365933  59.5973619  33.5715771  74.7881764
  54.6771829  31.3311105  75.4627562  54.7718683  32.0700399  75.9167187
  54.0530672  30.9028581  75.8962127  54.5980859  31.3772426  75.5935710
  41.5320719  31.2886527  79.9500557  42.1094221  31.1522978  80.5892802
  40.8334781  30.8322312  80.2046141  41.5141740  31.2008794  80.0822847
  54.9294850  33.1759845  68.6964514  54.8475012  33.2462032  69.5619501
  55.5674570  33.7389589  68.5048255  55.0114687  33.2698816  68.7954463
  48.2888021  32.9420583  78.1639040  48.0307265  32.1092318  78.1370340
  48.3436504  33.1678196  77.3231541  48.2587799  32.8518354  78.0359177
  53.3689071  25.0449034  78.2643133  52.6645398  24.5558219  78.4227052
  53.4174045  25.0571508  77.3931577  53.2719123  24.9738682  78.1582473
  47.2622733  30.4958346  78.6503935  46.6872324  30.6550514  79.2867896
  46.8858409  29.8593755  78.1872386  47.1225546  30.4256158  78.6758493
  50.9296022  28.9681695  83.5096313  50.5410455  28.5435913  82.8548505
  50.2650720  29.2163844  84.0173340  50.7742950  28.9420416  83.4884181
  60.5719291  28.7256699  76.2844144  60.3155856  27.9136641  76.0942026
  61.4148605  28.7334267  76.0574331  60.6585316  28.6068697  76.2228961
  37.0079552  30.1398420  76.6648376  37.0939804  29.7630289  77.4461906
  37.6355350  29.7658866  76.1868334  37.1136103  30.0283902  76.7093853
  52.0334960  33.1980299  71.7073120  52.8475599  33.4895192  71.5955892
  51.9694101  32.5440162  71.1331413  52.1437699  33.1445494  71.6061958
  47.9042868  36.6701817  76.8345433  48.5416815  36.4313564  77.3797226
  48.3297940  36.8738976  76.0998593  48.0619035  36.6652827  76.8062590
  42.5955511  38.9090153  80.7179736  42.6359656  39.1805004  79.8899516
  43.1550035  39.4332061  81.1337524  42.6838857  39.0265908  80.6571624
  48.5445683  31.8904107  71.1720322  48.9290836  31.6711813  71.9236867
  48.2957304  32.7167052  71.3021398  48.5647756  31.9802253  71.3021398
  50.2864340  37.1474239  78.5139219  50.3603349  36.9849411  79.3681069
  51.1033847  37.3364429  78.2699700  50.4180699  37.1510982  78.6037244
  44.0470097  37.4932102  75.5433662  43.2208215  37.7393839  75.4167941
  44.1082088  37.4144183  76.4095720  43.9344264  37.5177051  75.6522607
  46.2646121  23.5601043  76.5029102  45.3968546  23.6323643  76.5686712
  46.5521325  24.3623122  76.6917078  46.1785869  23.6895190  76.5403869
  48.8268926  40.1108983  73.2452692  49.1167224  39.7197964  72.5211919
  49.5572407  40.2925687  73.6857967  48.9775810  40.0802796  73.2035499
  49.4163671  34.9126728  84.3305823  48.9175365  35.6242496  84.4090711
  50.2263895  35.2327395  84.2923985  49.4619778  35.0653577  84.3362391
  46.7674842  42.0876365  76.3112842  46.5475137  41.7973720  77.1039509
  46.5469364  41.4291320  75.7830754  46.7022436  41.9476073  76.3501751
  45.6791789  34.1749681  78.5768544  45.3905037  33.5487153  79.1114271
  46.5475137  34.1169969  78.6433224  45.7652041  34.0737226  78.6659498
  56.4669687  29.3184465  78.8950525  56.1234452  28.5974800  79.2457775
  56.5662729  29.1098316  78.0528884  56.4311729  29.1808668  78.8222205
  48.9342797  43.4605755  75.0943534  49.5866855  42.9282197  75.3234560
  48.2368406  43.1074407  75.4811408  48.9273515  43.3295278  75.1855702
  45.8824062  35.8144933  74.5010909  46.6370030  36.1957972  74.7146371
  45.2894675  36.2656076  74.9557605  45.9060776  35.9373760  74.5993787
  56.9282716  35.7810169  74.4374514  57.4940748  36.4403379  74.3533057
  56.2810619  36.1259867  74.9090916  56.9161472  35.9292110  74.4947270
  47.2022289  36.9853494  79.8751024  46.6803042  37.1253786  80.5602889
  47.5896309  36.2264158  80.0653141  47.1825990  36.8939018  80.0052101
  44.1913473  27.0359303  73.9445979  43.9038269  26.6660573  73.2077926
  44.8783941  27.5054158  73.6829684  44.2502370  27.0506272  73.7961054
  53.3989294  38.7248953  73.8611593  53.1575970  37.9916814  73.4538658
  53.5790627  39.2735810  73.2077926  53.3896918  38.6971344  73.7041816
  48.6288614  34.0157513  75.2732515  48.4331397  34.6232247  74.6792818
  48.8522960  33.3225457  74.7924189  48.6323255  34.0035038  75.1148596
  47.0267144  30.9012251  75.3913383  47.7489796  31.0653409  74.9317189
  46.5475137  31.6221916  75.2852723  47.0630875  31.0310480  75.3078997
  54.9860652  27.2376050  80.7710068  54.1471753  27.2637328  80.5348332
  55.0565019  27.8846785  81.3515415  54.8729045  27.3372175  80.8219185
  44.6774761  33.3070323  84.4967523  45.1895858  33.5854576  83.8476283
  44.3911104  34.0459617  84.8630336  44.7109624  33.4572677  84.4557401
  53.4329930  24.1361427  75.5037684  54.1356283  23.9369175  75.0257643
  53.1674119  23.3637369  75.8106528  53.4976563  23.9924393  75.4783126
  58.8618176  32.4444036  78.0571310  58.7752150  32.5999462  78.9106089
  58.4068656  33.0882112  77.6830715  58.7821432  32.5619791  78.1278417
  41.7641667  27.8140515  74.7931260  41.8657804  28.6166676  75.1212235
  42.5597554  27.6127851  74.4954340  41.8969573  27.9026414  74.7966615
  52.7343992  29.7654783  76.6796870  52.4878706  29.6850534  77.5133659
  53.0629115  28.9808251  76.4859397  52.7465235  29.6381049  76.7744393
  56.6292041  36.4738143  80.4683651  56.4906400  37.1719189  80.9732393
  55.8492039  36.3186799  80.1119833  56.4935268  36.5538309  80.4909925
  50.8660936  31.7001670  83.8744984  50.1184251  31.8932685  83.4693262
  51.0202462  30.8746890  83.6369106  50.7783364  31.6066782  83.7790390
  47.7668774  40.6914274  82.9580880  47.9158338  40.1317190  82.3054284
  48.5468776  40.7706276  83.3413398  47.9042868  40.6199839  82.9177829
  58.1245414  35.8316397  71.2300150  57.7452222  35.0453535  71.2229439
  57.4611659  36.3803254  71.0871794  57.9703888  35.7961221  71.2080947
  50.9492322  39.3829916  75.0688976  51.7142213  39.1139559  74.7471641
  50.8470412  38.8979926  75.7859039  51.0473817  39.2719480  75.1268804
  48.9845091  27.5854325  81.6082212  48.1941166  27.4045785  81.9299548
  49.3805714  26.8081278  81.5912507  48.9261968  27.4441786  81.6534760
  53.4710982  36.4142099  67.0488926  54.2383967  36.4742224  66.6394777
  53.0242291  35.8422541  66.5645244  53.5184409  36.3378675  66.9166636
  54.3688778  35.2196755  79.3341658  53.6933780  34.9881987  79.8355045
  54.3781154  34.6117938  78.7083763  54.2707282  35.0955680  79.3157810
  51.4982922  30.0614584  86.0905711  51.4342063  30.9224541  85.9625848
  51.6380109  29.7446577  85.2901262  51.5098392  30.1414751  85.9533924
  56.3705512  38.0761888  71.5651836  56.4525350  38.8828874  71.2413287
  56.8555254  38.0957847  72.2892609  56.4542670  38.1982550  71.6238735
  50.1802016  32.7546724  80.2321914  49.7564265  32.9551223  79.4960932
  50.0046871  31.9075572  80.3446214  50.0912896  32.6595505  80.1395604
  45.4684461  33.2498775  75.6649886  45.6249080  33.1845578  76.5205878
  45.8085054  34.0247328  75.4528566  45.5417695  33.3547973  75.7604481
  52.0063605  32.6256659  74.5343250  52.5479151  32.1227040  74.9981870
  52.3210164  32.5721853  73.7232735  52.1328002  32.5436079  74.4827062
  50.1750055  38.0174010  71.8183278  50.2442875  37.1588549  71.9576278
  50.9538510  38.2345891  71.4902302  50.3002905  37.9226874  71.7900435
  53.1552875  27.5192963  84.5865550  53.3694844  26.8803877  84.0328904
  52.5386774  27.9638787  84.1573412  53.0958204  27.4903107  84.4415981
  54.5657542  40.4411711  76.0319771  54.1737334  40.1378427  75.3142637
  54.7210615  41.2780801  75.8424725  54.5311132  40.5195548  75.8976268
  42.0418722  30.4333725  75.9810654  42.4217687  30.8518270  75.3170921
  41.4674087  31.0147181  76.2879497  42.0130047  30.5811584  75.9287395
  54.7297217  37.0061700  75.9725802  54.3711872  37.1776343  76.7489834
  54.2435928  37.4674906  75.4153800  54.6055914  37.1000671  76.0051071
  52.5467603  20.6292899  79.5752893  51.6761161  20.6031620  79.5286202
  52.8007944  20.4570091  78.7578739  52.4561163  20.6003042  79.4473030
  49.5185583  32.6860866  68.5126036  49.8078107  33.4625748  68.7869610
  49.6057381  32.1749597  69.2140535  49.5739839  32.7252784  68.6568534
  49.5716744  22.6399127  81.0326363  49.0555232  21.9479319  81.1577942
  49.0110673  23.3069904  80.9788962  49.4123257  22.6362385  81.0432429
  57.6158957  29.7454742  81.4858918  57.1886565  29.6581091  80.7307018
  56.9785010  29.8532518  82.0713762  57.4588564  29.7487402  81.4604360
  45.6849524  31.9994130  80.6126148  44.8437530  31.8998004  80.8205042
  45.8939532  32.7689610  80.9640469  45.5914216  32.0986174  80.6953463
  43.1625091  29.6213667  78.4410899  42.7681788  29.6956679  77.6661008
  42.6065207  30.0071614  78.9919260  43.0227903  29.6895442  78.4078558
  54.7990037  22.5994961  78.1214778  55.0039631  22.5317269  78.9671775
  54.4716461  23.4053782  78.0535955  54.7805285  22.7080902  78.2374433
  49.4966188  29.9275529  79.8623746  49.1929326  29.3731518  80.4634153
  48.7945609  30.1067739  79.3751780  49.3482398  29.8720312  79.8793451
  48.5532286  27.2376049  74.4268447  48.8292020  26.5194962  74.0146015
  49.1530955  27.8360969  74.2189553  48.6825550  27.2196420  74.3349209
  47.5584539  37.1425250  84.5695843  47.4504894  37.1527312  85.4357901
  47.7680321  37.9680031  84.3800797  47.5734651  37.2666325  84.6699935
  58.0523725  23.1526725  77.6017543  57.4398039  23.6397128  77.9871275
  58.1487900  22.4770216  78.1455194  57.9761623  23.1245034  77.7396401
  52.0542806  24.9089567  72.7015042  52.5086553  25.0800127  73.4262887
  52.5282852  24.2957677  72.3012818  52.1911126  24.8440452  72.7488804
  45.5758331  34.3937893  82.0317781  44.9846265  35.0347391  82.0020796
  46.3379355  34.8175510  82.0049080  45.6006592  34.5513731  82.0232928
  55.3347848  39.8447204  79.4649805  55.1367536  40.3338019  78.7706017
  54.7135559  40.0488446  80.0433939  55.2135412  39.9463742  79.4473029
  49.3955826  31.6132101  73.8060050  50.1397871  32.0006377  74.0442999
  49.5416522  30.7689526  73.9700537  49.5266411  31.5462574  73.8654019
  51.3135402  23.4082360  78.8391911  50.4671447  23.5805168  78.7133261
  51.3106534  22.6031704  79.1757739  51.1882551  23.3143389  78.8703038
  52.3833702  27.1857574  79.7053969  51.9093656  26.6599336  80.2159280
  52.7551838  26.6387047  79.1368830  52.3683591  27.0273571  79.6969116
  58.6470433  32.2459950  81.1160749  58.4068655  31.4066365  81.1203176
  59.1262440  32.3260117  81.8401523  58.6822616  32.1341350  81.2235552
  54.3117202  28.0794129  72.7679723  53.7840220  28.1622873  72.0785432
  54.7712910  28.8212000  72.7644367  54.3019052  28.2014791  72.6654418
  60.6475620  29.0261407  79.0690009  60.4085390  28.9857241  78.2310793
  60.8109521  29.8732559  79.1955730  60.6365923  29.1453492  78.9643491
  46.1208518  28.0071530  81.7347933  45.4961588  28.0189922  81.1273886
  45.7854113  28.4831705  82.3839173  45.9794010  28.0790047  81.7404501
  46.3050267  26.3496648  67.7920618  45.9563071  27.0016374  68.2552167
  45.8246713  26.3353761  67.0644489  46.1820511  26.4439702  67.7531709
  42.8334194  36.0671990  83.1751697  42.3034118  35.3764429  83.2246672
  43.1059287  36.0582175  82.3464406  42.7958916  35.9639122  83.0599113
  53.8654284  36.6497692  71.8989380  54.5888483  37.1155805  71.7553953
  53.4254875  36.7171302  71.1486977  53.9069976  36.7281529  71.7674161
  53.0340439  33.5095235  83.1490069  52.4197432  32.9653285  83.4438704
  53.5507724  32.9959471  82.6695885  53.0196102  33.3531644  83.1214297
  52.2736736  34.5799505  80.8834367  51.8464344  33.9549223  80.4499803
  52.2661681  34.2974427  81.7093375  52.2095878  34.4452285  80.9414195
  50.6022446  25.4568259  81.0976901  50.6264933  24.9228372  80.4089681
  50.8533920  24.9485568  81.7602492  50.6432365  25.3029163  81.0941546
  38.1130036  32.7399754  80.5320045  38.0073485  32.6946599  79.6672130
  37.3630256  33.0853535  80.8134330  37.9865639  32.7840662  80.4457375
  46.8823768  24.1839077  80.4782646  46.9222140  24.6848284  81.1917353
  46.0573433  24.2749471  80.2088569  46.7663294  24.2720894  80.5433184
  48.3038132  30.6999587  82.7756545  47.4730061  30.8673405  82.5691793
  48.2489649  30.3235538  83.5605430  48.1727547  30.6689319  82.8605073
  46.6774175  28.9755179  73.3046662  46.8177137  29.4727643  74.0075304
  47.1756708  28.2741473  73.4460876  46.7715256  28.9457158  73.4298241
  48.2853381  25.7736265  70.6084681  48.6069222  25.2939348  69.9543944
  48.5480324  26.5835911  70.4175493  48.3719406  25.8226163  70.4840173
  53.6812536  25.1608459  82.9708160  54.1067607  24.7080986  82.3591687
  53.0669529  24.6068530  83.2472948  53.6541181  25.0122435  82.9213186
  43.2127386  32.0390131  73.9028785  43.7219615  32.6354638  74.2840091
  43.6861658  31.7716104  73.2205205  43.3570761  32.0875946  73.8583308
  54.1258134  40.7118397  72.0587441  53.4087443  40.5379260  71.5934678
  54.7764871  40.4770970  71.5262927  54.1159984  40.6514190  71.9116659
  52.1206759  21.6323559  76.3798737  51.4775076  21.4821205  76.9483876
  51.7806166  21.3865904  75.6147842  51.9751836  21.5735681  76.3501752
  56.7106105  29.5882986  75.8028746  56.0397295  30.1312688  75.6741811
  57.4045855  30.0577841  75.5610441  56.7134973  29.7381257  75.7484274
  50.7592839  41.7279698  81.0340504  50.5358493  40.9698527  81.4024531
  50.2702682  41.7577719  80.3120944  50.6536288  41.6201922  80.9817245
  56.8734232  26.0438869  78.7119119  57.2261843  25.6168592  79.3864918
  56.0149034  25.9589713  78.8420196  56.7983677  25.9683610  78.8314130
  45.5717917  28.6746389  76.7701966  44.8529907  29.0910522  77.0374829
  45.9430280  29.2400628  76.2193604  45.5209849  28.8195671  76.7284773
  54.8717498  29.3074238  82.6603961  54.8515426  29.1257533  83.5138740
  54.9196699  30.1786257  82.6363545  54.8752139  29.4090776  82.7827256
  49.4071296  41.9480156  78.4877589  48.9931694  41.2854286  78.0981431
  50.0918670  42.0958015  77.9673283  49.4469667  41.8720814  78.3534086
  52.7736590  41.1070241  79.2401205  52.3752873  41.2172512  78.4722026
  52.1587809  41.3152308  79.8227765  52.6235479  41.1543809  79.2132505
  51.3464492  27.7144389  72.1075345  50.7529331  28.0361386  71.5559912
  51.3839770  26.8685484  71.8996451  51.2638881  27.6368717  71.9958116
  54.2222308  27.6723894  75.5377095  53.9936001  27.6956595  74.6955454
  54.4820385  26.8481361  75.6572106  54.2268496  27.5539973  75.4302293
  47.2767071  26.2100440  76.8331291  47.7524437  26.5717520  76.1981472
  46.7755671  26.8656907  77.1131434  47.2732430  26.3594629  76.7808032
  60.5078432  35.6822208  72.6244296  60.8912038  36.4313564  72.8542393
  59.7122546  35.9288028  72.3656285  60.4472215  35.8291902  72.6201870
  49.3193724  28.3541640  70.2004675  49.6992689  28.3721269  69.4155790
  48.5786320  28.7995628  70.0795522  49.2662562  28.4223414  70.0668243
  56.9479015  26.6623831  75.7880254  56.9473241  26.5072487  76.6464530
  56.7435195  27.5086818  75.7321639  56.9178792  26.7644452  75.9068193
  39.0096286  30.0863615  80.2039070  38.8318047  29.6340224  80.9293986
  38.7215308  30.8889777  80.3877548  38.9409239  30.1386173  80.3382573
  54.6719867  31.3421333  79.4416461  55.1673532  30.6244328  79.4020481
  53.8619642  31.0392130  79.3270948  54.6263760  31.1918979  79.4190186
  50.1178478  35.1919146  71.5913465  49.3089801  34.8685819  71.5446775
  50.6253387  34.4852368  71.5241714  50.0728145  35.0400462  71.5743759
  40.7468755  32.6191339  77.3160829  39.8814275  32.6077029  77.2043601
  40.8467571  32.4321562  78.1631969  40.6342922  32.5897400  77.4249774
  56.7371686  34.0925020  82.1293589  57.1626757  33.5699442  81.5764014
  56.3728605  34.6905858  81.6082212  56.7458288  34.1035247  81.9702599
  46.3725765  42.3889238  80.8890935  46.6872324  43.2025626  80.8968717
  46.7819179  42.0039456  81.5573094  46.4793863  42.4517940  80.9895026
  53.3250285  37.8059284  78.4594747  53.7961463  38.5199547  78.6284732
  53.6610463  37.2058035  78.9954616  53.4445400  37.8230749  78.5627123
  49.3112895  24.5803168  72.8832307  50.1328589  24.7501481  72.6414001
  48.8482546  24.7350429  72.1598604  49.3644057  24.6284901  72.7403951
  43.7138785  36.3362346  80.5369543  44.3183643  36.2958180  79.9083364
  43.5066098  37.1833498  80.5673599  43.7727683  36.4550349  80.4485660
  53.5282558  38.6028291  81.7531781  54.3480931  38.4591257  82.0148076
  53.2476635  39.2274490  82.2948219  53.6079301  38.6738643  81.8719720
  38.9490068  35.3196964  80.4068466  38.8514346  34.5093235  80.7158523
  39.7318937  35.2988757  80.0214734  39.0506204  35.1964054  80.3955329
  61.7544816  44.8255463  74.3596696  62.4524981  45.0043590  74.8518159
  62.0697149  44.3025802  73.7367085  61.9040153  44.7749235  74.3398706
  59.9271680  40.1947860  78.4417971  59.5975010  40.6459003  77.7721669
  59.2516681  40.1164023  78.9890977  59.7782116  40.2498995  78.4241194
  67.1348087  36.1833382  76.6867581  66.8201528  36.8736861  77.1188004
  66.6175029  36.1278165  75.9853082  67.0112558  36.2768271  76.6464530
  58.3660129  50.0801100  71.6012460  57.7817344  50.5851132  72.0078324
  57.9630224  49.8543487  70.8609052  58.2199433  50.1209349  71.5517485
  62.8237343  46.3266752  70.0781380  63.0633347  46.5344736  69.2656723
  63.1453184  45.5224261  70.1870325  62.9074501  46.2380854  69.9741933
  58.1327634  38.2560148  73.9240918  58.8873602  38.6238465  73.6857968
  57.9555168  38.6299702  74.6920098  58.2182112  38.3658336  74.0025807
  56.4884698  40.6630467  70.6219031  56.3060272  40.8802348  69.7960024
  57.3510311  40.7769480  70.6777646  56.5889288  40.7120365  70.5073518
  62.1684418  37.6656878  73.6568055  62.8970578  37.4872833  73.2106211
  62.2579310  38.5074957  73.8675233  62.2891080  37.7640756  73.6221573
  56.0346725  43.9404640  69.1341504  55.3204903  43.6542819  69.5463937
  56.5190694  44.2801265  69.7747892  56.0006089  43.9486289  69.2897139
  63.2094043  52.4434594  69.5103313  63.6245192  52.1119617  68.8187808
  62.3785973  52.2103496  69.3823449  63.1482052  52.3605850  69.3894160
  65.9027433  48.6945153  68.6964514  65.8207596  48.7647340  69.5619501
  66.5407154  49.2574897  68.5048255  65.9847271  48.7884124  68.7954463
  47.9812136  45.6583728  76.6648376  48.0672387  45.2815597  77.4461906
  48.6087933  45.2844174  76.1868334  48.0868687  45.5469210  76.7093853
  63.0067544  48.7165607  71.7073120  63.8208182  49.0080500  71.5955892
  62.9426685  48.0625470  71.1331413  63.1170283  48.6630802  71.6061958
  59.5178267  47.4089415  71.1720322  59.9023420  47.1897121  71.9236867
  59.2689887  48.2352360  71.3021398  59.5380340  47.4987561  71.3021398
  57.2378704  39.0786351  76.5029102  56.3701130  39.1508951  76.5686712
  57.5253909  39.8808430  76.6917078  57.1518452  39.2080498  76.5403869
  55.1646056  42.5544611  73.9445979  54.8770852  42.1845881  73.2077926
  55.8516525  43.0239466  73.6829684  55.2234954  42.5691580  73.7961054
  57.9999728  46.4197559  75.3913383  58.7222380  46.5838717  74.9317189
  57.5207721  47.1407224  75.2852723  58.0363459  46.5495788  75.3078997
  64.4062514  39.6546735  75.5037684  65.1088867  39.4554483  75.0257643
  64.1406703  38.8822677  75.8106528  64.4709146  39.5109701  75.4783126
  52.7374251  43.3325823  74.7931260  52.8390387  44.1351984  75.1212235
  53.5330138  43.1313159  74.4954340  52.8702157  43.4211722  74.7966615
  64.4443566  51.9327407  67.0488926  65.2116551  51.9927532  66.6394777
  63.9974875  51.3607849  66.5645244  64.4916993  51.8563983  66.9166636
  53.0151306  45.9519033  75.9810654  53.3950270  46.3703578  75.3170921
  52.4406670  46.5332489  76.2879497  52.9862631  46.0996892  75.9287395
  63.5200187  36.1478207  79.5752893  62.6493745  36.1216928  79.5286202
  63.7740528  35.9755399  78.7578739  63.4293747  36.1188350  79.4473030
  60.4918166  48.2046174  68.5126036  60.7810691  48.9811056  68.7869610
  60.5789965  47.6934905  69.2140535  60.5472422  48.2438092  68.6568534
  59.5264869  42.7561357  74.4268447  59.8024603  42.0380270  74.0146015
  60.1263538  43.3546277  74.2189553  59.6558134  42.7381728  74.3349209
  63.0275390  40.4274875  72.7015042  63.4819136  40.5985435  73.4262887
  63.5015435  39.8142985  72.3012818  63.1643710  40.3625760  72.7488804
  60.3688410  47.1317409  73.8060050  61.1130455  47.5191685  74.0442999
  60.5149106  46.2874834  73.9700537  60.4998995  47.0647882  73.8654019
  62.2867985  38.9267668  78.8391911  61.4404030  39.0990476  78.7133261
  62.2839118  38.1217011  79.1757739  62.1615135  38.8328697  78.8703038
  65.2849785  43.5979437  72.7679723  64.7572804  43.6808181  72.0785432
  65.7445493  44.3397308  72.7644367  65.2751636  43.7200099  72.6654418
  57.2782850  41.8681956  67.7920618  56.9295655  42.5201682  68.2552167
  56.7979296  41.8539069  67.0644489  57.1553094  41.9625010  67.7531709
  57.6506759  44.4940487  73.3046662  57.7909720  44.9912951  74.0075304
  58.1489292  43.7926781  73.4460876  57.7447840  44.4642466  73.4298241
  57.6806981  45.3607598  70.6339239  58.3152061  45.9568023  70.5688701
  57.7632592  45.0611055  71.4485109  57.7863532  45.4048506  70.7442326
  59.2585964  41.2921573  70.6084681  59.5801805  40.8124656  69.9543944
  59.5212908  42.1021219  70.4175493  59.3451990  41.3411471  70.4840173
  54.1859969  47.5575439  73.9028785  54.6952199  48.1539946  74.2840091
  54.6594242  47.2901412  73.2205205  54.3303345  47.6061254  73.8583308
  63.0939342  37.1508867  76.3798737  62.4507660  37.0006513  76.9483876
  62.7538749  36.9051212  75.6147842  62.9484419  37.0920989  76.3501752
  56.5450501  44.1931697  76.7701966  55.8262490  44.6095830  77.0374829
  56.9162863  44.7585936  76.2193604  56.4942433  44.3380979  76.7284773
  62.3197075  43.2329697  72.1075345  61.7261915  43.5546693  71.5559912
  62.3572353  42.3870792  71.8996451  62.2371465  43.1554025  71.9958116
  58.2499654  41.7285748  76.8331291  58.7257021  42.0902828  76.1981472
  57.7488254  42.3842215  77.1131434  58.2465013  41.8779937  76.7808032
  60.2926308  43.8726948  70.2004675  60.6725272  43.8906577  69.4155790
  59.5518904  44.3180936  70.0795522  60.2395145  43.9408722  70.0668243
  61.0911062  50.7104454  71.5913465  60.2822384  50.3871127  71.5446775
  61.5985971  50.0037676  71.5241714  61.0460729  50.5585770  71.5743759
  60.2845478  40.0988476  72.8832307  61.1061173  40.2686789  72.6414001
  59.8215129  40.2535737  72.1598604  60.3376641  40.1470209  72.7403951
  35.3322689   0.7839027  62.1704866  34.5805589   0.4054565  61.9420911
  35.7808701   0.8157461  61.4223676  35.2872356   0.7324634  62.0262368
  40.7847649   1.2064397  57.5990413  40.4499018   1.8841318  57.1634635
  41.2974520   0.8169708  57.0107285  40.8113230   1.2488975  57.4477204
  40.3251940   3.1578665  63.5401524  40.7091320   3.7265564  63.0006300
  40.2611082   2.4328176  63.0607341  40.3725368   3.1354129  63.3895387
  36.7508185   5.7135008  65.8382494  37.3945641   6.1548173  66.2278653
  37.0764441   4.9088435  65.7512753  36.8940014   5.6600203  65.8827972
  37.4528765  -1.2753017  61.2102356  37.7744606  -0.7347809  60.6063664
  38.1000861  -1.8456245  61.3424646  37.5954820  -1.2793842  61.1409391
  37.5487166   1.5301806  60.1792739  37.8385465   1.1390787  59.4551966
  38.2790647   1.7118511  60.6198014  37.6994051   1.4995620  60.1375546
  35.4893082   3.5069188  63.2452889  35.2693377   3.2166543  64.0379556
  35.2687604   2.8484143  62.7170801  35.4240676   3.3668897  63.2841797
  37.6561038   4.8798578  62.0283581  38.3085096   4.3475020  62.2574607
  36.9586646   4.5267230  62.4151455  37.6491756   4.7488101  62.1195749
  42.1207534   0.1441776  60.7951640  41.8794210  -0.5890363  60.3878705
  42.3008867   0.6928633  60.1417973  42.1115158   0.1164168  60.6381863
  39.6710562   0.8022739  62.0029023  40.4360453   0.5332383  61.6811687
  39.5688652   0.3172749  62.7199086  39.7692058   0.6912304  62.0608851
  38.8968295  -0.5633167  58.7523324  38.9661116  -1.4218628  58.8916325
  39.6756750  -0.3461286  58.4242349  39.0221145  -0.6580303  58.7240482
  43.2875783   1.8604535  62.9659818  42.8955575   1.5571250  62.2482684
  43.4428855   2.6973625  62.7764772  43.2529373   1.9388371  62.8316315
  44.0566088   1.2640027  66.3989852  43.8585777   1.7530842  65.7046063
  43.4353799   1.4681269  66.9773986  43.9353653   1.3656566  66.3813075
  42.8476374   2.1311221  58.9927488  42.1305684   1.9572083  58.5274725
  43.4983112   1.8963793  58.4602974  42.8378225   2.0707013  58.8456706
  38.1289536   3.3672979  65.4217636  37.7149935   2.7047109  65.0321477
  38.8136910   3.5150838  64.9013330  38.1687908   3.2913637  65.2874133
  41.4954830   2.5263064  66.1741252  41.0971113   2.6365335  65.4062073
  40.8806050   2.7345131  66.7567812  41.3453719   2.5736632  66.1472552
  58.7214448   7.6785966  61.6514704  58.6908453   8.5330603  61.8232973
  59.3195797   7.3781259  62.2100847  58.8051606   7.7602463  61.7589506
  51.9214133   6.7661617  66.4067634  51.0652029   6.9270115  66.4576751
  51.9681787   5.8953681  66.4272695  51.8013245   6.6612419  66.4173700
  46.3055273  16.3024335  62.1704866  45.5538172  15.9239873  61.9420911
  46.7541285  16.3342769  61.4223676  46.2604940  16.2509942  62.0262368
  51.7580233  16.7249705  57.5990413  51.4231601  17.4026626  57.1634635
  52.2707103  16.3355016  57.0107285  51.7845814  16.7674283  57.4477204
  51.2984524  18.6763973  63.5401524  51.6823903  19.2450872  63.0006300
  51.2343665  17.9513484  63.0607341  51.3457951  18.6539437  63.3895387
  54.7665954   8.8253661  69.0499286  55.3121914   9.5038748  69.1093256
  54.7082831   8.6841122  68.1900867  54.8381869   8.9045663  68.9311346
  47.8840029  16.3142727  64.4367638  47.9850392  15.5043081  64.7464766
  47.2881774  16.2199674  63.8067317  47.8112568  16.1807755  64.3893877
  56.5431023  10.2538268  59.9233014  56.4270549  11.0045954  60.3525152
  57.3386910   9.9962222  60.1729101  56.6435612  10.3273115  60.0237105
  47.7240769  21.2320316  65.8382494  48.3678224  21.6733480  66.2278653
  48.0497024  20.4273743  65.7512753  47.8672597  21.1785511  65.8827972
  41.0805073  12.3363014  64.0619972  40.8455258  11.5030666  63.9552241
  41.2190714  12.6167680  63.2481173  41.0660736  12.2546517  63.9262327
  43.3795161   4.5048744  66.9604280  42.7600192   3.9141392  66.7914294
  43.2779024   5.0960180  66.3268603  43.2732836   4.5052827  66.8409269
  48.4261348  14.2432291  61.2102356  48.7477189  14.7837499  60.6063664
  49.0733445  13.6729063  61.3424646  48.5687404  14.2391466  61.1409391
  50.4763056   6.2448286  61.2936743  51.1743221   6.4236414  61.7858206
  50.7915389   5.7218626  60.6707132  50.6258394   6.1942058  61.2738753
  43.1064294   8.0501026  69.2047849  42.9822991   8.6363472  69.8397667
  43.7582578   7.5561222  69.5060124  43.1837943   8.0639831  69.3433778
  50.6650992  12.6318731  61.2816534  51.1044627  12.0235832  61.7271307
  50.5155655  12.2526105  60.5101999  50.7072458  12.4857202  61.2335702
  48.1322635  11.2262743  68.4835360  48.7771637  10.7335186  68.1646308
  48.3724412  11.3687530  69.3101438  48.2633220  11.1740185  68.5584893
  50.6708726  14.0717649  68.1342252  50.9531969  13.2769055  67.9129008
  51.3994887  14.5498236  68.1547313  50.8198290  14.0252246  68.1045267
  48.6489920   1.6140683  65.3758017  48.3193250   2.0651826  64.7061716
  47.9734922   1.5356846  65.9231024  48.5000356   1.6691818  65.3581241
  54.2660328  10.9845913  58.2347303  54.1811623  11.8406879  58.3796872
  54.7544712  10.7090237  58.9029463  54.3249226  11.0703234  58.3549385
  55.1978762   7.6030707  59.7345039  54.6690233   7.8190340  60.3942345
  55.7203782   8.2966845  59.6546008  55.1967215   7.7373844  59.8200638
  60.6526815  13.1777011  65.1078083  59.8224518  13.3887655  65.2711500
  60.6036067  12.3514066  64.8320367  60.5233550  13.0866617  65.0915448
  47.0878369  11.4993923  58.5352507  46.5035585  12.0043955  58.9418370
  46.6848465  11.2736310  57.7949099  46.9417673  11.5402172  58.4857532
  42.6422398  17.2148685  65.3376178  42.1589976  17.9399174  65.3135762
  43.4545716  17.5124815  65.4486336  42.6913146  17.3651038  65.3503457
  48.7136552  16.0080865  67.9425993  48.1963494  15.6488280  67.3387301
  49.4110943  15.4843040  67.9532059  48.7402133  15.8778553  67.8556251
  52.3700144  16.4575679  73.9042166  52.4583490  16.2701820  74.7520376
  52.7989857  15.8113109  73.5047012  52.4462246  16.3338687  73.9713917
  49.9370604  15.7406839  72.8859828  49.3741439  15.3279449  73.4099489
  50.6991627  15.6659745  73.3052971  49.9665052  15.6684240  73.0252828
  51.5455584   7.7459576  57.0121427  51.7851588   7.9537559  56.1996770
  51.8671425   6.9417084  57.1210372  51.6292742   7.6573677  56.9081980
  45.4966595  17.7304861  65.4896458  46.1987175  17.2156850  65.5469215
  45.4164078  18.0579012  66.2943333  45.5890356  17.7019087  65.6169250
  45.2102939   2.0823290  57.5559078  45.0278512   2.2995171  56.7300071
  46.0728552   2.1962303  57.6117693  45.3107528   2.1313188  57.4413565
  44.8217371  13.9211212  64.9982066  45.6606270  14.1534145  65.0455828
  44.8529140  13.0515524  64.9289101  44.9499088  13.8268159  64.9946711
  45.4470074  14.3412088  69.2995372  45.9868299  14.1983219  69.9698744
  44.7640020  14.7408838  69.6679398  45.4262228  14.3791759  69.4529793
  54.8710959  10.0203088  64.4940396  55.6268474  10.4534603  64.5329305
  54.9773283   9.3707858  65.0675032  54.9981129   9.9880572  64.5838421
  57.9091130  13.8476366  65.2442799  57.4726362  13.8513108  66.0001770
  57.5754045  14.5281865  64.8122376  57.7953750  13.9488821  65.2923631
  52.4820203  15.8884698  76.5685949  53.2660620  16.0015546  76.9341691
  52.2816798  15.0625835  76.7644635  52.5686229  15.7831418  76.6520335
  40.8507219  10.5612378  69.4529793  40.5845634   9.7451495  69.6120783
  40.8645783  10.6065534  68.5825309  40.8131941  10.4469283  69.3483275
  44.7564966   5.3597463  56.0681551  44.0423143   5.0735642  56.4803984
  45.2408934   5.6994089  56.7087939  44.7224329   5.3679113  56.2237186
  52.6390597  17.7994800  70.2152405  51.8405842  17.5594301  70.4726273
  53.0876608  17.8509193  70.9619452  52.5865208  17.7717192  70.3637329
  61.0435476  10.5657285  64.1362436  61.7051910  10.0047954  64.0358345
  60.4026888  10.0709316  64.4615127  61.0464343  10.4093694  64.1694776
  51.9312284  13.8627417  56.4443359  52.3463432  13.5312441  55.7527855
  51.1004213  13.6296319  56.3163496  51.8700292  13.7798673  56.3234207
  41.2600632  11.3471158  66.7341537  41.0776206  11.3218044  65.8813830
  41.9950301  11.8170096  66.7730446  41.3414696  11.4132520  66.6139456
  57.3300307  11.5822668  63.8774425  57.5655896  11.7267867  63.0501276
  57.4789870  12.3465076  64.2705939  57.3866110  11.7161722  63.8138029
  59.1590763  10.4224334  61.7144029  59.4898980  10.9551974  61.1084124
  59.7323851  10.4763222  62.3705980  59.2924442  10.5093903  61.7221810
  54.3722652   8.2689237  62.3967609  54.4669507   9.0078531  62.8507234
  53.7481496   7.8406712  62.8302173  54.2931683   8.3150557  62.5275756
  52.6275126  11.4475449  73.0457890  53.2013988  10.8102693  73.2006454
  52.5489930  11.4479532  72.1767547  52.7008361  11.3540561  72.9404301
  41.2271543   8.2264659  66.8840604  41.8045045   8.0901109  67.5232849
  40.5285604   7.7700443  67.1386188  41.2092564   8.1386925  67.0162894
  54.6245674  10.1137976  55.6304561  54.5425836  10.1840163  56.4959548
  55.2625394  10.6767720  55.4388301  54.7065511  10.2076947  55.7294510
  47.9838845   9.8798714  65.0979087  47.7258089   9.0470449  65.0710387
  48.0387328  10.1056327  64.2571587  47.9538623   9.7896486  64.9699224
  46.9573557   7.4336477  65.5843982  46.3823148   7.5928645  66.2207943
  46.5809233   6.7971886  65.1212432  46.8176369   7.3634290  65.6098540
  50.6246846   5.9059826  70.4436360  50.2361278   5.4814044  69.7888552
  49.9601544   6.1541976  70.9513387  50.4693774   5.8798547  70.4224228
  36.7030376   7.0776551  63.5988422  36.7890628   6.7008420  64.3801952
  37.3306173   6.7036997  63.1208381  36.8086927   6.9662034  63.6433900
  51.7285784  10.1358431  58.6413167  52.5426423  10.4273323  58.5295939
  51.6644925   9.4818293  58.0671460  51.8388523  10.0823625  58.5402005
  47.5993692  13.6079948  63.7685479  48.2367639  13.3691696  64.3137273
  48.0248764  13.8117107  63.0338640  47.7569859  13.6030958  63.7402637
  42.2906335  15.8468285  67.6519783  42.3310480  16.1183136  66.8239563
  42.8500859  16.3710193  68.0677571  42.3789681  15.9644040  67.5911671
  48.2396507   8.8282238  58.1060369  48.6241660   8.6089945  58.8576914
  47.9908128   9.6545183  58.2361445  48.2598580   8.9180384  58.2361445
  58.9731695  12.6028875  69.1171037  58.6677512  13.3356932  69.4784353
  58.2537910  12.1966805  68.8363823  58.8219037  12.6510608  69.1284175
  49.9815164  14.0852371  65.4479266  50.0554172  13.9227543  66.3021116
  50.7984671  14.2742560  65.2039747  50.1131523  14.0889113  65.5377291
  43.7420921  14.4310233  62.4773709  42.9159039  14.6771971  62.3507988
  43.8032912  14.3522314  63.3435767  43.6295088  14.4555182  62.5862654
  45.9596945   0.4979174  63.4369149  45.0919370   0.5701774  63.5026759
  46.2472149   1.3001253  63.6257124  45.8736693   0.6273322  63.4743916
  48.5219750  17.0487114  60.1792739  48.8118048  16.6576095  59.4551966
  49.2523231  17.2303819  60.6198014  48.6726634  17.0180927  60.1375546
  49.1114495  11.8504860  71.2645869  48.6126189  12.5620627  71.3430758
  49.9214719  12.1705526  71.2264032  49.1570602  12.0031708  71.2702438
  46.4625666  19.0254496  63.2452889  46.2425961  18.7351851  64.0379556
  46.2420188  18.3669451  62.7170801  46.3973260  18.8854205  63.2841797
  45.3742613  11.1127813  65.5108590  45.0855861  10.4865284  66.0454318
  46.2425961  11.0548100  65.5773271  45.4602865  11.0115357  65.5999545
  56.1620511   6.2562596  65.8290572  55.8185276   5.5352931  66.1797822
  56.2613553   6.0476447  64.9868931  56.1262553   6.1186799  65.7562252
  48.6293621  20.3983886  62.0283581  49.2817679  19.8660328  62.2574607
  47.9319230  20.0452538  62.4151455  48.6224339  20.2673409  62.1195749
  45.5774886  12.7523064  61.4350955  46.3320854  13.1336103  61.6486418
  44.9845499  13.2034207  61.8897652  45.6011600  12.8751891  61.5333834
  56.6233540  12.7188300  61.3714560  57.1891572  13.3781510  61.2873103
  55.9761443  13.0637998  61.8430963  56.6112296  12.8670241  61.4287317
  46.8973113  13.9231625  66.8091071  46.3753866  14.0631917  67.4942936
  47.2847133  13.1642289  66.9993188  46.8776814  13.8317149  66.9392147
  43.8864297   3.9737434  60.8786026  43.5989092   3.6038704  60.1417973
  44.5734765   4.4432289  60.6169730  43.9453194   3.9884403  60.7301101
  53.0940118  15.6627084  60.7951640  52.8526794  14.9294945  60.3878705
  53.2741451  16.2113941  60.1417973  53.0847742  15.6349475  60.6381863
  48.3239438  10.9535644  62.2072562  48.1282221  11.5610379  61.6132865
  48.5473784  10.2603588  61.7264236  48.3274079  10.9413170  62.0488643
  46.7217968   7.8390382  62.3253430  47.4440620   8.0031540  61.8657236
  46.2425961   8.5600047  62.2192770  46.7581699   7.9688612  62.2419044
  54.6811476   4.1754181  67.7050115  53.8422577   4.2015460  67.4688378
  54.7515843   4.8224916  68.2855462  54.5679869   4.2750307  67.7559232
  44.3725585  10.2448454  71.4307570  44.8846682  10.5232708  70.7816330
  44.0861928  10.9837748  71.7970383  44.4060448  10.3950808  71.3897448
  58.5569000   9.3822168  64.9911357  58.4702974   9.5377594  65.8446136
  58.1019480  10.0260243  64.6170762  58.4772256   9.4997923  65.0618464
  41.4592491   4.7518646  61.7271307  41.5608628   5.5544808  62.0552282
  42.2548378   4.5505982  61.4294387  41.5920397   4.8404545  61.7306662
  52.4294816   6.7032915  63.6136916  52.1829530   6.6228666  64.4473705
  52.7579939   5.9186382  63.4199444  52.4416059   6.5759180  63.7084440
  56.3242865  13.4116274  67.4023698  56.1857224  14.1097320  67.9072440
  55.5442863  13.2564930  67.0459879  56.1886091  13.4916441  67.4249972
  48.3891843   9.4389633  73.0259900  48.5335219  10.0190841  72.3903010
  48.7367492   9.8165930  73.7309754  48.4619304   9.5810337  73.0358894
  50.5611760   8.6379802  70.8085031  49.8135074   8.8310816  70.4033309
  50.7153286   7.8125021  70.5709152  50.4734188   8.5444913  70.7130437
  47.4619598  17.6292405  69.8920926  47.6109162  17.0695321  69.2394331
  48.2419600  17.7084407  70.2753445  47.5993692  17.5577971  69.8517875
  57.8196237  12.7694528  58.1640197  57.4403046  11.9831666  58.1569486
  57.1562483  13.3181385  58.0211841  57.6654712  12.7339352  58.1420994
  49.9872899  17.8007048  71.1705417  49.9116570  17.1315859  71.7256205
  49.9162758  18.5024836  71.6846083  49.9653506  17.8051955  71.3282265
  50.6443146  16.3208047  62.0029023  51.4093037  16.0517691  61.6811687
  50.5421236  15.8358057  62.7199086  50.7424641  16.2097611  62.0608851
  48.6795915   4.5232456  68.5422259  47.8891990   4.3423916  68.8639595
  49.0756538   3.7459409  68.5252553  48.6212792   4.3819917  68.5874807
  53.1661806  13.3520231  53.9828972  53.9334791  13.4120356  53.5734824
  52.7193115  12.7800672  53.4985291  53.2135233  13.2756806  53.8506683
  54.0639602  12.1574886  66.2681705  53.3884603  11.9260119  66.7695092
  54.0731978  11.5496069  65.6423810  53.9658106  12.0333812  66.2497857
  51.1933746   6.9992715  73.0245758  51.1292887   7.8602672  72.8965894
  51.3330933   6.6824709  72.2241309  51.2049216   7.0792882  72.8873971
  56.0656336  15.0140019  58.4991883  56.1476174  15.8207005  58.1753334
  56.5506078  15.0335978  59.2232656  56.1493494  15.1360681  58.5578781
  49.8752840   9.6924855  67.1661961  49.4515089   9.8929354  66.4300979
  49.6997695   8.8453703  67.2786261  49.7863720   9.5973636  67.0735651
  49.3764533  21.2075368  69.6283418  49.8660463  20.5086157  69.4459083
  48.8048765  20.9099238  70.2159475  49.3649063  21.0601591  69.6884459
  45.1635285  10.1876906  62.5989933  45.3199904  10.1223709  63.4545925
  45.5035878  10.9625459  62.3868613  45.2368519  10.2926104  62.6944527
  51.7014429   9.5634790  61.4683296  52.2429975   9.0605171  61.9321917
  52.0160988   9.5099984  60.6572782  51.8278826   9.4814211  61.4167108
  49.8700879  14.9552141  58.7523324  49.9393699  14.0966680  58.8916325
  50.6489334  15.1724022  58.4242349  49.9953729  14.8605005  58.7240482
  52.8503699   4.4571094  71.5205597  53.0645668   3.8182008  70.9668951
  52.2337598   4.9016918  71.0913459  52.7909028   4.4281238  71.3756028
  54.2608366  17.3789843  62.9659818  53.8688158  17.0756558  62.2482684
  54.4161439  18.2158933  62.7764772  54.2261956  17.4573679  62.8316315
  41.7369546   7.3711857  62.9150700  42.1168511   7.7896402  62.2510968
  41.1624911   7.9525312  63.2219544  41.7080871   7.5189715  62.8627441
  54.4248041  13.9439831  62.9065848  54.0662696  14.1154474  63.6829881
  53.9386752  14.4053037  62.3493847  54.3006738  14.0378802  62.9391117
  49.2136407   9.6238997  55.4466083  49.5028931  10.4003879  55.7209657
  49.3008205   9.1127728  56.1480582  49.2690663   9.6630915  55.5908581
  55.5852781  14.8343727  73.8533049  56.2232501  14.3403923  73.5195505
  54.9426872  14.7621128  73.2685276  55.5847007  14.7502736  73.7175404
  57.3109781   6.6832873  68.4198965  56.8837389   6.5959222  67.6647064
  56.6735834   6.7910649  69.0053809  57.1539388   6.6865533  68.3944406
  55.6407037  15.5263536  70.4938406  56.4299415  15.1752600  70.6140488
  55.8150635  16.3399924  70.2315040  55.7827319  15.5949393  70.4726274
  45.3800348   8.9372261  67.5466195  44.5388354   8.8376136  67.7545089
  45.5890356   9.7067742  67.8980515  45.2865040   9.0364305  67.6293510
  42.8575915   6.5591798  65.3750945  42.4632612   6.6334810  64.6001055
  42.3016031   6.9449745  65.9259307  42.7178727   6.6273573  65.3418605
  49.1917012   6.8653661  66.7963792  48.8880150   6.3109649  67.3974200
  48.4896433   7.0445871  66.3091827  49.0433222   6.8098443  66.8133498
  48.2483110   4.1754180  61.3608494  48.5242844   3.4573093  60.9486062
  48.8481779   4.7739100  61.1529600  48.3776374   4.1574551  61.2689255
  47.2535363  14.0803381  71.5035890  47.1455718  14.0905443  72.3697948
  47.4631145  14.9058162  71.3140844  47.2685474  14.2044456  71.6039982
  45.2709155  11.3316024  68.9657828  44.6797089  11.9725522  68.9360843
  46.0330179  11.7553641  68.9389127  45.2957416  11.4891862  68.9572975
  55.0298672  16.7825335  66.3989852  54.8318360  17.2716150  65.7046063
  54.4086383  16.9866577  66.9773986  54.9086236  16.8841874  66.3813075
  49.0906650   8.5510232  60.7400096  49.8348695   8.9384508  60.9783046
  49.2367346   7.7067657  60.9040584  49.2217235   8.4840705  60.7994066
  52.0784526   4.1235705  66.6394016  51.6044480   3.5977467  67.1499327
  52.4502662   3.5765178  66.0708877  52.0634415   3.9651702  66.6309163
  58.3421256   9.1838081  68.0500796  58.1019479   8.3444496  68.0543223
  58.8213264   9.2638248  68.7741570  58.3773440   9.0719481  68.1575599
  54.0068026   5.0172260  59.7019770  53.4791044   5.1001004  59.0125478
  54.4663734   5.7590131  59.6984414  53.9969876   5.1392922  59.5994465
  60.3426443   5.9639538  66.0030055  60.1036213   5.9235372  65.1650840
  60.5060345   6.8110690  66.1295776  60.3316747   6.0831623  65.8983537
  56.9472474  10.3489488  71.9335100  57.6706672   9.8962014  71.7546120
  56.6822436  10.6294153  71.1507428  57.0153747  10.3240456  71.7913816
  45.8159342   4.9449661  68.6687980  45.1912412   4.9568053  68.0613932
  45.4804937   5.4209836  69.3179220  45.6744834   5.0168178  68.6744548
  46.0001091   3.2874780  54.7260665  45.6513895   3.9394505  55.1892214
  45.5197537   3.2731893  53.9984536  45.8771335   3.3817833  54.6871756
  42.5285018  13.0050121  70.1091744  41.9984942  12.3142560  70.1586719
  42.8010111  12.9960307  69.2804453  42.4909740  12.9017253  69.9939160
  53.5605108  13.5875824  58.8329427  54.2839307  14.0533937  58.6894000
  53.1205699  13.6549433  58.0827024  53.6020800  13.6659660  58.7014208
  52.7291263  10.4473366  70.0830116  52.1148256   9.9031416  70.3778751
  53.2458548   9.9337602  69.6035932  52.7146926  10.2909775  70.0554344
  51.9687560  11.5177636  67.8174414  51.5415168  10.8927354  67.3839850
  51.9612505  11.2352558  68.6433421  51.9046701  11.3830416  67.8754242
  37.8080860   9.6777885  67.4660092  37.7024309   9.6324730  66.6012176
  37.0581080  10.0231666  67.7474377  37.6816463   9.7218794  67.3797422
  46.5774592   1.1217209  67.4122693  46.6172964   1.6226415  68.1257400
  45.7524257   1.2127602  67.1428616  46.4614118   1.2099025  67.4773231
  47.9988956   7.6377718  69.7096592  47.1680885   7.8051536  69.5031840
  47.9440473   7.2613669  70.4945477  47.8678370   7.6067450  69.7945120
  46.3724999   5.9133310  60.2386709  46.5127960   6.4105774  60.9415351
  46.8707532   5.2119604  60.3800923  46.4666080   5.8835289  60.3638288
  46.4025222   6.7800421  57.5679286  47.0370301   7.3760846  57.5028748
  46.4850833   6.4803879  58.3825156  46.5081773   6.8241329  57.6782373
  47.9804205   2.7114396  57.5424728  48.3020046   2.2317479  56.8883990
  48.2431148   3.5214042  57.3515540  48.0670230   2.7604294  57.4180220
  51.2101177  13.7333271  71.0623544  50.7026269  14.2869118  71.5064175
  50.9127824  13.7941561  70.2442319  51.0906062  13.8239582  71.0072001
  42.9078210   8.9768262  60.8368832  43.4170439   9.5732769  61.2180138
  43.3812482   8.7094235  60.1545252  43.0521585   9.0254077  60.7923355
  53.8208958  17.6496528  58.9927488  53.1038267  17.4757391  58.5274725
  54.4715695  17.4149101  58.4602974  53.8110808  17.5892321  58.8456706
  56.4056929   6.5261117  62.7368793  55.7348119   7.0690819  62.6081858
  57.0996679   6.9955972  62.4950488  56.4085796   6.6759388  62.6824321
  50.4543663  18.6657829  67.9680551  50.2309317  17.9076658  68.3364577
  49.9653506  18.6955850  67.2460991  50.3487112  18.5580054  67.9157292
  45.2668741   5.6124520  63.7042013  44.5480731   6.0288653  63.9714876
  45.6381104   6.1778759  63.1533651  45.2160673   5.7573802  63.6624819
  54.5668322   6.2452369  69.5944008  54.5466250   6.0635664  70.4478787
  54.6147523   7.1164388  69.5703592  54.5702963   6.3468907  69.7167303
  52.5114652  12.8339561  75.5192485  52.4710507  12.1889238  74.9337641
  53.3237970  12.7776179  75.8317897  52.6257806  12.7298528  75.4789434
  49.1022120  18.8858287  65.4217636  48.6882518  18.2232417  65.0321477
  49.7869494  19.0336146  64.9013330  49.1420491  18.8098945  65.2874133
  52.4687414  18.0448372  66.1741252  52.0703697  18.1550643  65.4062073
  51.8538633  18.2530439  66.7567812  52.3186303  18.0921940  66.1472552
  51.0415316   4.6522520  59.0415392  50.4480155   4.9739517  58.4899959
  51.0790593   3.8063616  58.8336498  50.9589705   4.5746848  58.9298163
  53.9173132   4.6102025  62.4717142  53.6886825   4.6334726  61.6295500
  54.1771209   3.7859492  62.5912153  53.9219320   4.4918105  62.3642340
  46.9717895   3.1478571  63.7671338  47.4475261   3.5095651  63.1321519
  46.4706494   3.8035039  64.0471481  46.9683254   3.2972760  63.7148079
  60.2029256  12.6200339  59.5584343  60.5862862  13.3691695  59.7882440
  59.4073370  12.8666159  59.2996332  60.1423039  12.7670033  59.5541916
  49.0144548   5.2919771  57.1344722  49.3943513   5.3099400  56.3495837
  48.2737144   5.7373760  57.0135569  48.9613386   5.3601545  57.0008290
  38.7047109   7.0241746  67.1379117  38.5268871   6.5718355  67.8634033
  38.4166132   7.8267908  67.3217595  38.6360063   7.0764304  67.2722620
  54.3670691   8.2799464  66.3756507  54.8624356   7.5622459  66.3360528
  53.5570466   7.9770261  66.2610994  54.3214584   8.1297110  66.3530233
  49.8129302  12.1297277  58.5253512  49.0040625  11.8063951  58.4786821
  50.3204211  11.4230499  58.4581761  49.7678969  11.9778593  58.5083806
  40.4419579   9.5569470  64.2500876  39.5765099   9.5455161  64.1383647
  40.5418395   9.3699693  65.0972015  40.3293746   9.5275531  64.3589821
  56.4322509  11.0303151  69.0633636  56.8577581  10.5077573  68.5104061
  56.0679429  11.6283989  68.5422259  56.4409112  11.0413378  68.9042646
  46.0676589  19.3267369  67.8230982  46.3823148  20.1403757  67.8308763
  46.4770003  18.9417587  68.4913141  46.1744687  19.3896071  67.9235073
  53.0201109  14.7437416  65.3934794  53.4912287  15.4577678  65.5624779
  53.3561287  14.1436166  65.9294663  53.1396224  14.7608880  65.4967170
  53.6575055  14.5355350  72.1562486  53.1096001  13.9113233  71.8882552
  54.1188084  14.7249622  71.4406566  53.6442265  14.4714400  72.0112917
  43.4089609  13.2740477  67.4709590  44.0134467  13.2336311  66.8423411
  43.2016922  14.1211629  67.5013646  43.4678507  13.3928480  67.3825707
  53.2233382  15.5406422  68.6871827  54.0431755  15.3969388  68.9488123
  52.9427459  16.1652621  69.2288265  53.3030125  15.6116774  68.8059767
  38.6440892  12.2575095  67.3408513  38.5465170  11.4471366  67.6498570
  39.4269761  12.2366888  66.9554781  38.7457028  12.1342185  67.3295376
  69.6947032  23.1971274  61.6514704  69.6641036  24.0515911  61.8232973
  70.2928381  22.8966567  62.2100847  69.7784190  23.2787771  61.7589506
  62.8946717  22.2846925  66.4067634  62.0384612  22.4455423  66.4576751
  62.9414370  21.4138989  66.4272695  62.7745828  22.1797727  66.4173700
  57.2787856  31.8209643  62.1704866  56.5270756  31.4425181  61.9420911
  57.7273868  31.8528077  61.4223676  57.2337523  31.7695250  62.0262368
  62.7312816  32.2435013  57.5990413  62.3964185  32.9211934  57.1634635
  63.2439687  31.8540324  57.0107285  62.7578397  32.2859591  57.4477204
  62.2717108  34.1949281  63.5401524  62.6556487  34.7636180  63.0006300
  62.2076249  33.4698792  63.0607341  62.3190535  34.1724745  63.3895387
  65.7398538  24.3438969  69.0499286  66.2854498  25.0224056  69.1093256
  65.6815414  24.2026430  68.1900867  65.8114452  24.4230971  68.9311346
  58.8572613  31.8328035  64.4367638  58.9582976  31.0228389  64.7464766
  58.2614358  31.7384982  63.8067317  58.7845151  31.6993063  64.3893877
  67.5163606  25.7723576  59.9233014  67.4003132  26.5231262  60.3525152
  68.3119493  25.5147529  60.1729101  67.6168196  25.8458423  60.0237105
  58.6973352  36.7505624  65.8382494  59.3410808  37.1918788  66.2278653
  59.0229608  35.9459051  65.7512753  58.8405181  36.6970819  65.8827972
  52.0537657  27.8548322  64.0619972  51.8187841  27.0215974  63.9552241
  52.1923298  28.1352987  63.2481173  52.0393319  27.7731825  63.9262327
  54.3527744  20.0234052  66.9604280  53.7332776  19.4326700  66.7914294
  54.2511608  20.6145488  66.3268603  54.2465420  20.0238135  66.8409269
  59.3993932  29.7617599  61.2102356  59.7209773  30.3022807  60.6063664
  60.0466028  29.1914371  61.3424646  59.5419987  29.7576774  61.1409391
  61.4495640  21.7633594  61.2936743  62.1475805  21.9421722  61.7858206
  61.7647973  21.2403933  60.6707132  61.5990977  21.7127366  61.2738753
  54.0796877  23.5686334  69.2047849  53.9555574  24.1548780  69.8397667
  54.7315162  23.0746530  69.5060124  54.1570527  23.5825138  69.3433778
  61.6383575  28.1504039  61.2816534  62.0777211  27.5421140  61.7271307
  61.4888238  27.7711412  60.5101999  61.6805041  28.0042510  61.2335702
  59.1055218  26.7448051  68.4835360  59.7504221  26.2520494  68.1646308
  59.3456995  26.8872838  69.3101438  59.2365803  26.6925493  68.5584893
  61.6441310  29.5902957  68.1342252  61.9264553  28.7954363  67.9129008
  62.3727470  30.0683544  68.1547313  61.7930873  29.5437554  68.1045267
  59.6222504  17.1325991  65.3758017  59.2925834  17.5837134  64.7061716
  58.9467505  17.0542154  65.9231024  59.4732940  17.1877126  65.3581241
  65.2392912  26.5031220  58.2347303  65.1544207  27.3592187  58.3796872
  65.7277295  26.2275545  58.9029463  65.2981809  26.5888542  58.3549385
  66.8298911  13.1211514  63.6207628  66.5152352  13.8114992  64.0528050
  66.3125853  13.0656296  62.9193129  66.7063382  13.2146402  63.5804577
  66.1711345  23.1216015  59.7345039  65.6422817  23.3375648  60.3942345
  66.6936365  23.8152153  59.6546008  66.1699798  23.2559152  59.8200638
  71.6259398  28.6962319  65.1078083  70.7957101  28.9072963  65.2711500
  71.5768650  27.8699374  64.8320367  71.4966133  28.6051925  65.0915448
  58.0610953  27.0179231  58.5352507  57.4768168  27.5229263  58.9418370
  57.6581048  26.7921618  57.7949099  57.9150257  27.0587480  58.4857532
  53.6154982  32.7333993  65.3376178  53.1322560  33.4584482  65.3135762
  54.4278300  33.0310123  65.4486336  53.6645729  32.8836346  65.3503457
  59.6869136  31.5266173  67.9425993  59.1696077  31.1673588  67.3387301
  60.3843527  31.0028348  67.9532059  59.7134717  31.3963861  67.8556251
  63.3432728  31.9760987  73.9042166  63.4316073  31.7887128  74.7520376
  63.7722440  31.3298417  73.5047012  63.4194830  31.8523995  73.9713917
  60.9103187  31.2592147  72.8859828  60.3474022  30.8464757  73.4099489
  61.6724211  31.1845053  73.3052971  60.9397636  31.1869548  73.0252828
  62.5188167  23.2644883  57.0121427  62.7584171  23.4722867  56.1996770
  62.8404008  22.4602392  57.1210372  62.6025325  23.1758985  56.9081980
  57.8278458  15.1938279  60.8580965  58.5824426  15.5616596  60.6198015
  57.6505992  15.5677834  61.6260145  57.9132936  15.3036467  60.9365854
  56.4699179  33.2490168  65.4896458  57.1719758  32.7342158  65.5469215
  56.3896662  33.5764320  66.2943333  56.5622939  33.2204395  65.6169250
  57.5178085  23.4865755  74.6176873  57.6898589  23.3771650  75.4662154
  58.0547443  24.1320161  74.3808065  57.6223089  23.5657757  74.7081970
  56.1835522  17.6008598  57.5559078  56.0011096  17.8180479  56.7300071
  57.0461135  17.7147611  57.6117693  56.2840112  17.6498496  57.4413565
  55.7949954  29.4396520  64.9982066  56.6338854  29.6719453  65.0455828
  55.8261723  28.5700832  64.9289101  55.9231672  29.3453467  64.9946711
  56.4202657  29.8597396  69.2995372  56.9600882  29.7168527  69.9698744
  55.7372604  30.2594146  69.6679398  56.3994811  29.8977067  69.4529793
  61.8635241  14.6035009  60.5908102  62.5921402  14.4250964  60.1446258
  61.9530134  15.4453089  60.8015280  61.9841904  14.7018887  60.5561620
  65.8443542  25.5388396  64.4940396  66.6001057  25.9719911  64.5329305
  65.9505867  24.8893166  65.0675032  65.9713713  25.5065880  64.5838421
  68.8823713  29.3661674  65.2442799  68.4458945  29.3698416  66.0001770
  68.5486629  30.0467172  64.8122376  68.7686333  29.4674129  65.2923631
  63.4552787  31.4070006  76.5685949  64.2393204  31.5200854  76.9341691
  63.2549381  30.5811143  76.7644635  63.5418812  31.3016726  76.6520335
  51.8239802  26.0797686  69.4529793  51.5578218  25.2636803  69.6120783
  51.8378366  26.1250842  68.5825309  51.7864525  25.9654591  69.3483275
  55.7297549  20.8782771  56.0681551  55.0155726  20.5920950  56.4803984
  56.2141518  21.2179397  56.7087939  55.6956913  20.8864421  56.2237186
  56.5738409  19.6176065  72.0996801  55.8810205  19.1473044  72.3457532
  57.1898736  19.3914369  72.6738508  56.5622939  19.5143197  72.2205953
  63.6123180  33.3180108  70.2152405  62.8138426  33.0779608  70.4726273
  64.0609192  33.3694501  70.9619452  63.5597791  33.2902500  70.3637329
  72.0168059  26.0842593  64.1362436  72.6784494  25.5233262  64.0358345
  71.3759471  25.5894624  64.4615127  72.0196927  25.9279002  64.1694776
  62.9044867  29.3812725  56.4443359  63.3196016  29.0497749  55.7527855
  62.0736797  29.1481627  56.3163496  62.8432876  29.2983981  56.3234207
  52.2333216  26.8656466  66.7341537  52.0508789  26.8403352  65.8813830
  52.9682885  27.3355404  66.7730446  52.3147280  26.9317828  66.6139456
  68.3032890  27.1007976  63.8774425  68.5388479  27.2453175  63.0501276
  68.4522454  27.8650384  64.2705939  68.3598693  27.2347030  63.8138029
  55.2978968  23.5841469  73.2423646  56.0218940  23.5694499  73.7288541
  55.3995104  24.2936824  72.7445614  55.4197177  23.6866172  73.2402433
  70.1323347  25.9409642  61.7144029  70.4631564  26.4737282  61.1084124
  70.7056435  25.9948530  62.3705980  70.2657026  26.0279211  61.7221810
  65.3455236  23.7874544  62.3967609  65.4402090  24.5263839  62.8507234
  64.7214080  23.3592020  62.8302173  65.2664266  23.8335865  62.5275756
  63.6007710  26.9660757  73.0457890  64.1746572  26.3288001  73.2006454
  63.5222514  26.9664839  72.1767547  63.6740945  26.8725868  72.9404301
  52.2004126  23.7449967  66.8840604  52.7777629  23.6086417  67.5232849
  51.5018188  23.2885751  67.1386188  52.1825148  23.6572233  67.0162894
  65.5978257  25.6323284  55.6304561  65.5158420  25.7025471  56.4959548
  66.2357978  26.1953028  55.4388301  65.6798095  25.7262255  55.7294510
  58.9571429  25.3984022  65.0979087  58.6990673  24.5655757  65.0710387
  59.0119911  25.6241635  64.2571587  58.9271206  25.3081793  64.9699224
  64.0372479  17.5012473  65.1983180  63.3328805  17.0121658  65.3567099
  64.0857453  17.5134947  64.3271624  63.9402530  17.4302121  65.0922520
  61.5979429  21.4245134  70.4436360  61.2093862  20.9999352  69.7888552
  60.9334128  21.6727284  70.9513387  61.4426357  21.3983855  70.4224228
  71.2402698  21.1820139  63.2184190  70.9839263  20.3700080  63.0282073
  72.0832012  21.1897706  62.9914378  71.3268724  21.0632136  63.1569007
  62.7018368  25.6543739  58.6413167  63.5159006  25.9458631  58.5295939
  62.6377509  25.0003601  58.0671460  62.8121107  25.6008933  58.5402005
  58.5726276  29.1265256  63.7685479  59.2100223  28.8877003  64.3137273
  58.9981347  29.3302415  63.0338640  58.7302442  29.1216266  63.7402637
  53.2638918  31.3653592  67.6519783  53.3043063  31.6368444  66.8239563
  53.8233442  31.8895501  68.0677571  53.3522264  31.4829348  67.5911671
  59.2129091  24.3467546  58.1060369  59.5974244  24.1275252  58.8576914
  58.9640711  25.1730491  58.2361445  59.2331163  24.4365692  58.2361445
  69.9464278  28.1214183  69.1171037  69.6410095  28.8542240  69.4784353
  69.2270494  27.7152113  68.8363823  69.7951621  28.1695916  69.1284175
  60.9547748  29.6037679  65.4479266  61.0286756  29.4412850  66.3021116
  61.7717254  29.7927868  65.2039747  61.0864106  29.6074421  65.5377291
  54.7153504  29.9495541  62.4773709  53.8891622  30.1957279  62.3507988
  54.7765496  29.8707622  63.3435767  54.6027671  29.9740490  62.5862654
  56.9329528  16.0164482  63.4369149  56.0651954  16.0887082  63.5026759
  57.2204733  16.8186561  63.6257124  56.8469276  16.1458630  63.4743916
  59.4952333  32.5672422  60.1792739  59.7850632  32.1761403  59.4551966
  60.2255814  32.7489127  60.6198014  59.6459218  32.5366235  60.1375546
  60.0847079  27.3690168  71.2645869  59.5858772  28.0805935  71.3430758
  60.8947303  27.6890834  71.2264032  60.1303185  27.5217016  71.2702438
  57.4358249  34.5439804  63.2452889  57.2158544  34.2537159  64.0379556
  57.2152771  33.8854759  62.7170801  57.3705843  34.4039512  63.2841797
  56.3475196  26.6313121  65.5108590  56.0588445  26.0050592  66.0454318
  57.2158544  26.5733408  65.5773271  56.4335448  26.5300665  65.5999545
  67.1353094  21.7747904  65.8290572  66.7917860  21.0538239  66.1797822
  67.2346137  21.5661755  64.9868931  67.0995137  21.6372107  65.7562252
  59.6026205  35.9169194  62.0283581  60.2550263  35.3845636  62.2574607
  58.9051814  35.5637846  62.4151455  59.5956923  35.7858717  62.1195749
  56.5507470  28.2708372  61.4350955  57.3053438  28.6521411  61.6486418
  55.9578082  28.7219515  61.8897652  56.5744183  28.3937199  61.5333834
  67.5966123  28.2373608  61.3714560  68.1624156  28.8966818  61.2873103
  66.9494027  28.5823306  61.8430963  67.5844880  28.3855549  61.4287317
  57.8705696  29.4416933  66.8091071  57.3486450  29.5817225  67.4942936
  58.2579717  28.6827597  66.9993188  57.8509397  29.3502457  66.9392147
  54.8596880  19.4922742  60.8786026  54.5721676  19.1224012  60.1417973
  55.5467349  19.9617597  60.6169730  54.9185778  19.5069711  60.7301101
  64.0672701  31.1812392  60.7951640  63.8259377  30.4480253  60.3878705
  64.2474034  31.7299249  60.1417973  64.0580325  31.1534783  60.6381863
  59.2972022  26.4720952  62.2072562  59.1014805  27.0795687  61.6132865
  59.5206367  25.7788896  61.7264236  59.3006663  26.4598478  62.0488643
  57.6950552  23.3575690  62.3253430  58.4173204  23.5216848  61.8657236
  57.2158545  24.0785355  62.2192770  57.7314283  23.4873919  62.2419044
  65.6544059  19.6939489  67.7050115  64.8155160  19.7200768  67.4688378
  65.7248427  20.3410224  68.2855462  65.5412453  19.7935615  67.7559232
  55.3458169  25.7633762  71.4307570  55.8579266  26.0418016  70.7816330
  55.0594511  26.5023056  71.7970383  55.3793032  25.9136116  71.3897448
  64.1013338  16.5924866  62.4377731  64.8039691  16.3932614  61.9597689
  63.8357526  15.8200808  62.7446575  64.1659970  16.4487832  62.4123173
  69.5301583  24.9007475  64.9911357  69.4435558  25.0562902  65.8446136
  69.0752063  25.5445551  64.6170762  69.4504840  25.0183231  65.0618464
  52.4325075  20.2703954  61.7271307  52.5341211  21.0730116  62.0552282
  53.2280962  20.0691290  61.4294387  52.5652981  20.3589853  61.7306662
  58.8641894  17.8560151  71.4908612  58.6725091  17.8715285  72.3408035
  59.7140490  18.0523825  71.4675267  58.9617616  17.8874502  71.6131906
  53.2488807  20.3851132  69.4692428  53.1074299  19.5335073  69.5936936
  53.5329370  20.4279793  68.6454634  53.2696653  20.2650882  69.3660052
  63.4027399  22.2218223  63.6136916  63.1562114  22.1413974  64.4473705
  63.7312522  21.4371690  63.4199444  63.4148643  22.0944488  63.7084440
  67.2975448  28.9301582  67.4023698  67.1589807  29.6282628  67.9072440
  66.5175446  28.7750238  67.0459879  67.1618675  29.0101749  67.4249972
  59.3624427  24.9574941  73.0259900  59.5067802  25.5376149  72.3903010
  59.7100075  25.3351238  73.7309754  59.4351888  25.0995645  73.0358894
  61.5344344  24.1565110  70.8085031  60.7867658  24.3496124  70.4033309
  61.6885869  23.3310329  70.5709152  61.4466772  24.0630221  70.7130437
  58.4352182  33.1477713  69.8920926  58.5841745  32.5880629  69.2394331
  59.2152184  33.2269715  70.2753445  58.5726275  33.0763278  69.8517875
  68.7928821  28.2879836  58.1640197  68.4135630  27.5016974  58.1569486
  68.1295066  28.8366693  58.0211841  68.6387296  28.2524660  58.1420994
  60.9605482  33.3192356  71.1705417  60.8849153  32.6501166  71.7256205
  60.8895341  34.0210144  71.6846083  60.9386089  33.3237263  71.3282265
  61.7746121  18.0515660  71.6980435  62.2318735  18.7839635  71.8253227
  61.8502450  17.6282126  72.4567691  61.8537091  18.0972898  71.8281511
  54.0179112  18.2981480  72.7869879  53.4821302  17.6861838  73.1030646
  54.0796877  18.8729616  73.4403545  53.9474745  18.2928408  72.9305305
  61.6175729  31.8393355  62.0029023  62.3825620  31.5702998  61.6811687
  61.5153819  31.3543365  62.7199086  61.7157225  31.7282919  62.0608851
  59.6528499  20.0417764  68.5422259  58.8624574  19.8609224  68.8639595
  60.0489122  19.2644717  68.5252553  59.5945375  19.9005225  68.5874807
  64.1394390  28.8705539  53.9828972  64.9067375  28.9305663  53.5734824
  63.6925699  28.2985980  53.4985291  64.1867817  28.7942114  53.8506683
  65.0372185  27.6760194  66.2681705  64.3617187  27.4445427  66.7695092
  65.0464561  27.0681377  65.6423810  64.9390690  27.5519120  66.2497857
  62.1666329  22.5178023  73.0245758  62.1025470  23.3787980  72.8965894
  62.3063517  22.2010017  72.2241309  62.1781799  22.5978190  72.8873971
  67.0388920  30.5325327  58.4991883  67.1208757  31.3392313  58.1753334
  67.5238662  30.5521286  59.2232656  67.1226078  30.6545989  58.5578781
  60.8485423  25.2110163  67.1661961  60.4247672  25.4114662  66.4300979
  60.6730278  24.3639011  67.2786261  60.7596304  25.1158944  67.0735651
  60.3497117  36.7260676  69.6283418  60.8393047  36.0271465  69.4459083
  59.7781349  36.4284546  70.2159475  60.3381647  36.5786899  69.6884459
  56.1367868  25.7062214  62.5989933  56.2932487  25.6409017  63.4545925
  56.4768461  26.4810767  62.3868613  56.2101103  25.8111412  62.6944527
  62.6747013  25.0820098  61.4683296  63.2162558  24.5790479  61.9321917
  62.9893572  25.0285292  60.6572782  62.8011410  24.9999519  61.4167108
  60.8433462  30.4737449  58.7523324  60.9126283  29.6151988  58.8916325
  61.6221918  30.6909330  58.4242349  60.9686312  30.3790313  58.7240482
  63.8236282  19.9756402  71.5205597  64.0378252  19.3367316  70.9668951
  63.2070181  20.4202226  71.0913459  63.7641611  19.9466546  71.3756028
  65.2340950  32.8975150  62.9659818  64.8420742  32.5941866  62.2482684
  65.3894022  33.7344240  62.7764772  65.1994540  32.9758987  62.8316315
  52.7102130  22.8897165  62.9150700  53.0901094  23.3081709  62.2510968
  52.1357494  23.4710620  63.2219544  52.6813454  23.0375023  62.8627441
  65.3980625  29.4625139  62.9065848  65.0395280  29.6339782  63.6829881
  64.9119336  29.9238345  62.3493847  65.2739322  29.5564110  62.9391117
  63.2151011  13.0856338  66.5092940  62.3444569  13.0595059  66.4626249
  63.4691352  12.9133530  65.6918785  63.1244571  13.0566482  66.3813076
  60.1868990  25.1424305  55.4466083  60.4761515  25.9189187  55.7209657
  60.2740789  24.6313036  56.1480582  60.2423246  25.1816223  55.5908581
  60.2400151  15.0962566  67.9666410  59.7238640  14.4042758  68.0917989
  59.6794080  15.7633343  67.9129009  60.0806664  15.0925824  67.9772476
  62.3092385  15.6355526  69.7959263  61.9224138  15.6604558  70.5772793
  61.8225322  15.0697205  69.3433779  62.1804894  15.5551277  69.8447166
  66.5585364  30.3529035  73.8533049  67.1965085  29.8589231  73.5195505
  65.9159456  30.2806436  73.2685276  66.5579591  30.2688044  73.7175404
  68.2842364  22.2018181  68.4198965  67.8569972  22.1144530  67.6647064
  67.6468417  22.3095957  69.0053809  68.1271971  22.2050841  68.3944406
  66.6139621  31.0448844  70.4938406  67.4031999  30.6937908  70.6140488
  66.7883219  31.8585232  70.2315040  66.7559902  31.1134701  70.4726274
  56.3532931  24.4557569  67.5466195  55.5120938  24.3561443  67.7545089
  56.5622939  25.2253050  67.8980515  56.2597624  24.5549613  67.6293510
  53.8308498  22.0777106  65.3750945  53.4365196  22.1520118  64.6001055
  53.2748615  22.4635053  65.9259307  53.6911310  22.1458881  65.3418605
  65.4673445  15.0558400  65.0554824  65.6723038  14.9880708  65.9011822
  65.1399869  15.8617222  64.9876002  65.4488693  15.1644341  65.1714479
  60.1649596  22.3838969  66.7963792  59.8612734  21.8294957  67.3974200
  59.4629017  22.5631178  66.3091827  60.0165806  22.3283751  66.8133498
  59.2215693  19.6939488  61.3608494  59.4975427  18.9758401  60.9486062
  59.8214362  20.2924408  61.1529600  59.3508958  19.6759859  61.2689255
  58.2267947  29.5988689  71.5035890  58.1188302  29.6090751  72.3697948
  58.4363728  30.4243470  71.3140844  58.2418058  29.7229764  71.6039982
  68.7207133  15.6090165  64.5357590  68.1081446  16.0960567  64.9211322
  68.8171307  14.9333655  65.0795241  68.6445030  15.5808473  64.6736448
  62.7226214  17.3653006  59.6355089  63.1769960  17.5363566  60.3602934
  63.1966259  16.7521116  59.2352865  62.8594534  17.3003891  59.6828851
  56.2441739  26.8501332  68.9657828  55.6529672  27.4910830  68.9360843
  57.0062763  27.2738949  68.9389127  56.2690000  27.0077170  68.9572975
  56.6402362  18.0103329  69.6325845  57.1003843  18.0842259  70.3700969
  56.6858469  18.8084583  69.2825667  56.7152917  18.1397476  69.6898602
  58.2885712  18.6770024  74.1997872  57.8971277  18.0303371  74.6353650
  58.4571574  19.2681460  74.8192128  58.2556622  18.6684292  74.3560578
  66.0031255  32.3010643  66.3989852  65.8050944  32.7901458  65.7046063
  65.3818966  32.5051885  66.9773986  65.8818820  32.4027181  66.3813075
  60.0639234  24.0695540  60.7400096  60.8081279  24.4569816  60.9783046
  60.2099930  23.2252965  60.9040584  60.1949819  24.0026013  60.7994066
  61.9818809  15.8645799  65.7731958  61.1354854  16.0368607  65.6473308
  61.9789942  15.0595143  66.1097786  61.8565959  15.7706828  65.8043085
  63.0517109  19.6421013  66.6394016  62.5777064  19.1162775  67.1499327
  63.4235245  19.0950486  66.0708877  63.0366998  19.4837010  66.6309163
  53.4290140  21.6392520  72.0077562  54.2915753  21.5388229  71.9214891
  53.0981923  21.0587229  71.4463134  53.5075336  21.5384147  71.9122967
  69.3153840  24.7023389  68.0500796  69.0752063  23.8629804  68.0543223
  69.7945847  24.7823556  68.7741570  69.3506024  24.5904789  68.1575599
  64.9800609  20.5357568  59.7019770  64.4523628  20.6186312  59.0125478
  65.4396317  21.2775439  59.6984414  64.9702460  20.6578230  59.5994465
  71.3159027  21.4824846  66.0030055  71.0768797  21.4420680  65.1650840
  71.4792928  22.3295998  66.1295776  71.3049331  21.6016931  65.8983537
  67.9205057  25.8674795  71.9335100  68.6439256  25.4147322  71.7546120
  67.6555019  26.1479461  71.1507428  67.9886330  25.8425764  71.7913816
  56.7891926  20.4634969  68.6687980  56.1644996  20.4753361  68.0613932
  56.4537520  20.9395144  69.3179220  56.6477417  20.5353486  68.6744548
  56.9733674  18.8060088  54.7260665  56.6246479  19.4579813  55.1892214
  56.4930120  18.7917201  53.9984536  56.8503918  18.9003141  54.6871756
  53.5017601  28.5235429  70.1091744  52.9717526  27.8327868  70.1586719
  53.7742694  28.5145614  69.2804453  53.4642323  28.4202561  69.9939160
  64.5337692  29.1061131  58.8329427  65.2571890  29.5719244  58.6894000
  64.0938283  29.1734741  58.0827024  64.5753384  29.1844968  58.7014208
  63.7023847  25.9658674  70.0830116  63.0880840  25.4216724  70.3778751
  64.2191132  25.4522910  69.6035932  63.6879509  25.8095083  70.0554344
  62.9420144  27.0362944  67.8174414  62.5147752  26.4112662  67.3839850
  62.9345088  26.7537866  68.6433421  62.8779285  26.9015724  67.8754242
  56.0582671  22.0728117  70.8862848  56.2176158  21.3171441  71.2914570
  55.8775565  22.6219056  71.5403586  56.0548030  22.0421931  71.0425554
  61.2705854  17.9131698  68.0316948  61.2948341  17.3791811  67.3429728
  61.5217327  17.4049007  68.6942539  61.3115772  17.7592602  68.0281593
  48.7813443  25.1963193  67.4660092  48.6756892  25.1510038  66.6012176
  48.0313663  25.5416974  67.7474377  48.6549046  25.2404101  67.3797422
  57.5507176  16.6402517  67.4122693  57.5905547  17.1411723  68.1257400
  56.7256840  16.7312910  67.1428616  57.4346702  16.7284333  67.4773231
  59.7336789  26.2063257  75.5142987  58.8832419  26.3434971  75.6500632
  59.8964916  25.4727035  75.9590689  59.6320652  26.1177358  75.5998586
  58.9721539  23.1563026  69.7096592  58.1413469  23.3236844  69.5031840
  58.9173056  22.7798977  70.4945477  58.8410954  23.1252758  69.7945120
  57.3457583  21.4318618  60.2386709  57.4860544  21.9291082  60.9415351
  57.8440116  20.7304912  60.3800923  57.4398664  21.4020597  60.3638288
  57.3757805  22.2985729  57.5679286  58.0102885  22.8946154  57.5028748
  57.4583416  21.9989187  58.3825156  57.4814356  22.3426637  57.6782373
  58.9536788  18.2299704  57.5424728  59.2752629  17.7502787  56.8883990
  59.2163732  19.0399350  57.3515540  59.0402814  18.2789602  57.4180220
  62.1833761  29.2518579  71.0623544  61.6758852  29.8054426  71.5064175
  61.8860407  29.3126869  70.2442319  62.0638646  29.3424890  71.0072001
  64.3495943  17.6171898  69.9048207  64.7751015  17.1644425  69.2931734
  63.7352936  17.0631969  70.1812995  64.3224589  17.4685875  69.8553232
  53.8810793  24.4953570  60.8368832  54.3903023  25.0918077  61.2180138
  54.3545066  24.2279543  60.1545252  54.0254169  24.5439385  60.7923355
  64.7941541  33.1681836  58.9927488  64.0770851  32.9942699  58.5274725
  65.4448279  32.9334409  58.4602974  64.7843392  33.1077629  58.8456706
  62.7890166  14.0886998  63.3138784  62.1458484  13.9384644  63.8823923
  62.4489573  13.8429343  62.5487889  62.6435243  14.0299121  63.2841799
  67.3789513  22.0446425  62.7368793  66.7080702  22.5876127  62.6081858
  68.0729263  22.5141280  62.4950488  67.3818380  22.1944696  62.6824321
  61.4276246  34.1843137  67.9680551  61.2041901  33.4261966  68.3364577
  60.9386090  34.2141158  67.2460991  61.3219695  34.0765361  67.9157292
  67.5417640  18.5002309  65.6459166  67.8945250  18.0732031  66.3204965
  66.6832441  18.4153152  65.7760242  67.4667085  18.4247049  65.7654176
  56.2401325  21.1309828  63.7042013  55.5213314  21.5473961  63.9714876
  56.6113687  21.6964067  63.1533651  56.1893257  21.2759110  63.6624819
  65.5400906  21.7637677  69.5944008  65.5198833  21.5820972  70.4478787
  65.5880107  22.6349696  69.5703592  65.5435547  21.8654215  69.7167303
  63.4847236  28.3524869  75.5192485  63.4443091  27.7074546  74.9337641
  64.2970554  28.2961487  75.8317897  63.5990389  28.2483836  75.4789434
  60.0754703  34.4043595  65.4217636  59.6615102  33.7417725  65.0321477
  60.7602077  34.5521454  64.9013330  60.1153075  34.3284253  65.2874133
  63.4419997  33.5633680  66.1741252  63.0436281  33.6735951  65.4062073
  62.8271217  33.7715747  66.7567812  63.2918887  33.6107248  66.1472552
  62.0147899  20.1707828  59.0415392  61.4212739  20.4924825  58.4899959
  62.0523177  19.3248924  58.8336498  61.9322288  20.0932156  58.9298163
  64.8905716  20.1287333  62.4717142  64.6619409  20.1520034  61.6295500
  65.1503792  19.3044800  62.5912153  64.8951904  20.0103413  62.3642340
  59.1724944  21.9821806  72.0742242  58.6603847  21.3742989  72.4327274
  59.0004441  22.6978398  72.5416218  59.0714581  21.9985105  72.1958466
  54.0190659  20.4259381  74.7244604  53.8493249  21.0860756  74.1792811
  53.5756609  20.6365942  75.4457093  53.9289993  20.5545363  74.7506234
  57.9450478  18.6663879  63.7671338  58.4207845  19.0280959  63.1321519
  57.4439078  19.3220347  64.0471481  57.9415837  18.8158068  63.7148079
  71.1761840  28.1385647  59.5584343  71.5595446  28.8877003  59.7882440
  70.3805953  28.3851467  59.2996332  71.1155622  28.2855341  59.5541916
  50.9192724  23.3306247  69.9833094  50.3719443  22.6606892  70.1013962
  51.7085102  22.9636094  70.0476561  50.9544907  23.1771233  70.0101795
  60.7677132  22.9913704  75.4796505  61.5188459  23.3065380  75.7936059
  60.9599708  22.7892875  74.6530427  60.9068546  23.0081085  75.4039901
  59.9877132  20.8105079  57.1344722  60.3676096  20.8284708  56.3495837
  59.2469728  21.2559068  57.0135569  59.9345969  20.8786853  57.0008290
  67.6162422  19.1187270  62.7220301  67.6156649  18.9635927  63.5804577
  67.4118602  19.9650257  62.6661686  67.5862200  19.2207891  62.8408240
  49.6779693  22.5427054  67.1379117  49.5001454  22.0903663  67.8634033
  49.3898715  23.3453216  67.3217595  49.6092646  22.5949612  67.2722620
  65.3403274  23.7984772  66.3756507  65.8356939  23.0807767  66.3360528
  64.5303050  23.4955569  66.2610994  65.2947167  23.6482418  66.3530233
  60.7861886  27.6482585  58.5253512  59.9773208  27.3249259  58.4786821
  61.2936795  26.9415807  58.4581761  60.7411552  27.4963901  58.5083806
  51.4152163  25.0754778  64.2500876  50.5497682  25.0640469  64.1383647
  51.5150979  24.8885001  65.0972015  51.3026330  25.0460839  64.3589821
  67.4055093  26.5488459  69.0633636  67.8310165  26.0262881  68.5104061
  67.0412013  27.1469297  68.5422259  67.4141696  26.5598686  68.9042646
  57.0409173  34.8452677  67.8230982  57.3555732  35.6589065  67.8308763
  57.4502586  34.4602895  68.4913141  57.1477271  34.9081379  67.9235073
  63.9933692  30.2622724  65.3934794  64.4644871  30.9762986  65.5624779
  64.3293871  29.6621474  65.9294663  64.1128808  30.2794188  65.4967170
  64.6307639  30.0540658  72.1562486  64.0828585  29.4298541  71.8882552
  65.0920668  30.2434930  71.4406566  64.6174848  29.9899708  72.0112917
  59.9796302  17.0366607  59.8172353  60.8011997  17.2064920  59.5754048
  59.5165953  17.1913868  59.0938651  60.0327465  17.0848340  59.6743998
  58.5691634  15.0309369  70.5970782  59.1136047  14.6900496  71.1875124
  58.6228570  15.8894831  70.7392067  58.6580754  15.1064629  70.7052656
  54.3822193  28.7925785  67.4709590  54.9867050  28.7521619  66.8423411
  54.1749505  29.6396937  67.5013646  54.4411090  28.9113788  67.3825707
  64.1965965  31.0591730  68.6871827  65.0164339  30.9154696  68.9488123
  63.9160043  31.6837929  69.2288265  64.2762708  31.1302082  68.8059767
  49.6173475  27.7760403  67.3408513  49.5197753  26.9656674  67.6498570
  50.4002345  27.7552196  66.9554781  49.7189612  27.6527493  67.3295376
  73.8679300  37.8032233  66.4067634  73.0117196  37.9640731  66.4576751
  73.9146954  36.9324297  66.4272695  73.7478412  37.6983035  66.4173700
  68.2520440  47.3394951  62.1704866  67.5003340  46.9610489  61.9420911
  68.7006452  47.3713385  61.4223676  68.2070107  47.2880558  62.0262368
  73.7045400  47.7620320  57.5990413  73.3696768  48.4397242  57.1634635
  74.2172270  47.3725632  57.0107285  73.7310981  47.8044899  57.4477204
  73.2449691  49.7134589  63.5401524  73.6289071  50.2821488  63.0006300
  73.1808832  48.9884099  63.0607341  73.2923118  49.6910053  63.3895387
  76.7131121  39.8624277  69.0499286  77.2587081  40.5409364  69.1093256
  76.6547998  39.7211738  68.1900867  76.7847036  39.9416279  68.9311346
  69.8305196  47.3513343  64.4367638  69.9315559  46.5413697  64.7464766
  69.2346941  47.2570290  63.8067317  69.7577735  47.2178371  64.3893877
  69.6705936  52.2690932  65.8382494  70.3143391  52.7104096  66.2278653
  69.9962191  51.4644358  65.7512753  69.8137764  52.2156127  65.8827972
  63.0270241  43.3733630  64.0619972  62.7920425  42.5401282  63.9552241
  63.1655881  43.6538295  63.2481173  63.0125903  43.2917133  63.9262327
  65.3260328  35.5419360  66.9604280  64.7065360  34.9512008  66.7914294
  65.2244192  36.1330795  66.3268603  65.2198003  35.5423443  66.8409269
  70.3726516  45.2802907  61.2102356  70.6942357  45.8208114  60.6063664
  71.0198612  44.7099679  61.3424646  70.5152571  45.2762082  61.1409391
  72.4228224  37.2818902  61.2936743  73.1208388  37.4607030  61.7858206
  72.7380556  36.7589241  60.6707132  72.5723561  37.2312674  61.2738753
  65.0529461  39.0871642  69.2047849  64.9288158  39.6734087  69.8397667
  65.7047745  38.5931838  69.5060124  65.1303110  39.1010446  69.3433778
  72.6116159  43.6689347  61.2816534  73.0509794  43.0606448  61.7271307
  72.4620822  43.2896720  60.5101999  72.6537625  43.5227818  61.2335702
  70.0787802  42.2633359  68.4835360  70.7236805  41.7705802  68.1646308
  70.3189579  42.4058146  69.3101438  70.2098387  42.2110801  68.5584893
  72.6173893  45.1088265  68.1342252  72.8997136  44.3139671  67.9129008
  73.3460054  45.5868852  68.1547313  72.7663457  45.0622862  68.1045267
  70.5955087  32.6511299  65.3758017  70.2658417  33.1022442  64.7061716
  69.9200089  32.5727462  65.9231024  70.4465523  32.7062434  65.3581241
  76.2125496  42.0216528  58.2347303  76.1276791  42.8777495  58.3796872
  76.7009879  41.7460852  58.9029463  76.2714393  42.1073850  58.3549385
  77.8031495  28.6396822  63.6207628  77.4884936  29.3300300  64.0528050
  77.2858437  28.5841604  62.9193129  77.6795965  28.7331710  63.5804577
  77.1443929  38.6401323  59.7345039  76.6155400  38.8560956  60.3942345
  77.6668949  39.3337461  59.6546008  77.1432382  38.7744459  59.8200638
  69.0343537  42.5364539  58.5352507  68.4500752  43.0414571  58.9418370
  68.6313632  42.3106926  57.7949099  68.8882840  42.5772788  58.4857532
  64.5887565  48.2519300  65.3376178  64.1055143  48.9769790  65.3135762
  65.4010883  48.5495430  65.4486336  64.6378313  48.4021654  65.3503457
  70.6601719  47.0451481  67.9425993  70.1428661  46.6858896  67.3387301
  71.3576110  46.5213656  67.9532059  70.6867300  46.9149169  67.8556251
  73.4920751  38.7830191  57.0121427  73.7316755  38.9908175  56.1996770
  73.8136592  37.9787700  57.1210372  73.5757909  38.6944293  56.9081980
  68.8011041  30.7123587  60.8580965  69.5557009  31.0801904  60.6198015
  68.6238576  31.0863142  61.6260145  68.8865520  30.8221775  60.9365854
  67.4431762  48.7675476  65.4896458  68.1452342  48.2527465  65.5469215
  67.3629246  49.0949628  66.2943333  67.5355523  48.7389703  65.6169250
  68.4910669  39.0051063  74.6176873  68.6631173  38.8956958  75.4662154
  69.0280027  39.6505469  74.3808065  68.5955673  39.0843065  74.7081970
  67.1568106  33.1193906  57.5559078  66.9743679  33.3365787  56.7300071
  68.0193719  33.2332919  57.6117693  67.2572695  33.1683804  57.4413565
  66.7682538  44.9581828  64.9982066  67.6071437  45.1904761  65.0455828
  66.7994307  44.0886140  64.9289101  66.8964255  44.8638775  64.9946711
  67.3935241  45.3782704  69.2995372  67.9333466  45.2353835  69.9698744
  66.7105187  45.7779454  69.6679398  67.3727395  45.4162374  69.4529793
  72.8367825  30.1220317  60.5908102  73.5653986  29.9436272  60.1446258
  72.9262718  30.9638397  60.8015280  72.9574487  30.2204195  60.5561620
  76.8176126  41.0573704  64.4940396  77.5733641  41.4905219  64.5329305
  76.9238450  40.4078474  65.0675032  76.9446296  41.0251188  64.5838421
  62.7972386  41.5982994  69.4529793  62.5310801  40.7822111  69.6120783
  62.8110950  41.6436150  68.5825309  62.7597108  41.4839899  69.3483275
  66.7030133  36.3968079  56.0681551  65.9888310  36.1106258  56.4803984
  67.1874102  36.7364705  56.7087939  66.6689496  36.4049728  56.2237186
  67.5470992  35.1361373  72.0996801  66.8542789  34.6658352  72.3457532
  68.1631320  34.9099677  72.6738508  67.5355522  35.0328504  72.2205953
  73.8777451  44.8998033  56.4443359  74.2928599  44.5683057  55.7527855
  73.0469380  44.6666935  56.3163496  73.8165460  44.8169289  56.3234207
  63.2065800  42.3841774  66.7341537  63.0241373  42.3588660  65.8813830
  63.9415469  42.8540712  66.7730446  63.2879863  42.4503136  66.6139456
  66.2711551  39.1026777  73.2423646  66.9951524  39.0879807  73.7288541
  66.3727688  39.8122132  72.7445614  66.3929760  39.2051480  73.2402433
  76.3187820  39.3059852  62.3967609  76.4134674  40.0449146  62.8507234
  75.6946663  38.8777328  62.8302173  76.2396850  39.3521173  62.5275756
  63.1736710  39.2635274  66.8840604  63.7510213  39.1271725  67.5232849
  62.4750772  38.8071059  67.1386188  63.1557731  39.1757541  67.0162894
  76.5710841  41.1508592  55.6304561  76.4891003  41.2210779  56.4959548
  77.2090561  41.7138336  55.4388301  76.6530678  41.2447563  55.7294510
  69.9304012  40.9169330  65.0979087  69.6723256  40.0841065  65.0710387
  69.9852495  41.1426943  64.2571587  69.9003790  40.8267101  64.9699224
  75.0105062  33.0197781  65.1983180  74.3061389  32.5306966  65.3567099
  75.0590037  33.0320255  64.3271624  74.9135114  32.9487429  65.0922520
  68.9038724  38.4707093  65.5843982  68.3288316  38.6299261  66.2207943
  68.5274401  37.8342502  65.1212432  68.7641537  38.4004905  65.6098540
  72.5712013  36.9430442  70.4436360  72.1826446  36.5184660  69.7888552
  71.9066711  37.1912591  70.9513387  72.4158941  36.9169163  70.4224228
  58.6495543  38.1147167  63.5988422  58.7355795  37.7379036  64.3801952
  59.2771341  37.7407613  63.1208381  58.7552094  38.0032650  63.6433900
  73.6750951  41.1729046  58.6413167  74.4891590  41.4643939  58.5295939
  73.6110092  40.5188909  58.0671460  73.7853690  41.1194241  58.5402005
  69.5458859  44.6450564  63.7685479  70.1832806  44.4062311  64.3137273
  69.9713931  44.8487723  63.0338640  69.7035026  44.6401574  63.7402637
  64.2371502  46.8838900  67.6519783  64.2775647  47.1553751  66.8239563
  64.7966026  47.4080808  68.0677571  64.3254848  47.0014655  67.5911671
  70.1861674  39.8652854  58.1060369  70.5706827  39.6460560  58.8576914
  69.9373295  40.6915799  58.2361445  70.2063747  39.9551000  58.2361445
  71.9280331  45.1222987  65.4479266  72.0019340  44.9598158  66.3021116
  72.7449838  45.3113176  65.2039747  72.0596690  45.1259729  65.5377291
  65.6886088  45.4680849  62.4773709  64.8624206  45.7142587  62.3507988
  65.7498079  45.3892930  63.3435767  65.5760255  45.4925798  62.5862654
  67.9062112  31.5349790  63.4369149  67.0384537  31.6072390  63.5026759
  68.1937316  32.3371869  63.6257124  67.8201860  31.6643937  63.4743916
  70.4684917  48.0857730  60.1792739  70.7583215  47.6946711  59.4551966
  71.1988398  48.2674434  60.6198014  70.6191801  48.0551543  60.1375546
  71.0579662  42.8875475  71.2645869  70.5591356  43.5991243  71.3430758
  71.8679887  43.2076142  71.2264032  71.1035769  43.0402324  71.2702438
  68.4090833  50.0625112  63.2452889  68.1891128  49.7722467  64.0379556
  68.1885355  49.4040067  62.7170801  68.3438427  49.9224820  63.2841797
  67.3207780  42.1498428  65.5108590  67.0321028  41.5235900  66.0454318
  68.1891128  42.0918716  65.5773271  67.4068032  42.0485973  65.5999545
  78.1085678  37.2933212  65.8290572  77.7650444  36.5723547  66.1797822
  78.2078720  37.0847063  64.9868931  78.0727720  37.1557415  65.7562252
  70.5758788  51.4354502  62.0283581  71.2282846  50.9030944  62.2574607
  69.8784397  51.0823154  62.4151455  70.5689506  51.3044025  62.1195749
  67.5240053  43.7893680  61.4350955  68.2786021  44.1706719  61.6486418
  66.9310666  44.2404823  61.8897652  67.5476767  43.9122507  61.5333834
  68.8438280  44.9602241  66.8091071  68.3219033  45.1002533  67.4942936
  69.2312300  44.2012905  66.9993188  68.8241981  44.8687765  66.9392147
  65.8329464  35.0108050  60.8786026  65.5454260  34.6409320  60.1417973
  66.5199932  35.4802905  60.6169730  65.8918361  35.0255019  60.7301101
  75.0405285  46.6997700  60.7951640  74.7991961  45.9665561  60.3878705
  75.2206618  47.2484557  60.1417973  75.0312909  46.6720091  60.6381863
  70.2704605  41.9906260  62.2072562  70.0747388  42.5980994  61.6132865
  70.4938951  41.2974204  61.7264236  70.2739246  41.9783785  62.0488643
  68.6683135  38.8760998  62.3253430  69.3905787  39.0402156  61.8657236
  68.1891128  39.5970663  62.2192770  68.7046866  39.0059227  62.2419044
  76.6276643  35.2124797  67.7050115  75.7887744  35.2386076  67.4688378
  76.6981010  35.8595532  68.2855462  76.5145037  35.3120922  67.7559232
  66.3190752  41.2819070  71.4307570  66.8311849  41.5603324  70.7816330
  66.0327095  42.0208364  71.7970383  66.3525615  41.4321424  71.3897448
  75.0745921  32.1110174  62.4377731  75.7772274  31.9117922  61.9597689
  74.8090110  31.3386116  62.7446575  75.1392554  31.9673140  62.4123173
  63.4057658  35.7889262  61.7271307  63.5073795  36.5915424  62.0552282
  64.2013545  35.5876598  61.4294387  63.5385564  35.8775161  61.7306662
  69.8374478  33.3745459  71.4908612  69.6457675  33.3900593  72.3408035
  70.6873074  33.5709133  71.4675267  69.9350199  33.4059810  71.6131906
  64.2221391  35.9036440  69.4692428  64.0806882  35.0520381  69.5936936
  64.5061954  35.9465101  68.6454634  64.2429237  35.7836190  69.3660052
  74.3759983  37.7403531  63.6136916  74.1294697  37.6599281  64.4473705
  74.7045106  36.9556998  63.4199444  74.3881227  37.6129796  63.7084440
  78.2708032  44.4486890  67.4023698  78.1322391  45.1467936  67.9072440
  77.4908030  44.2935546  67.0459879  78.1351259  44.5287057  67.4249972
  70.3357010  40.4760249  73.0259900  70.4800386  41.0561457  72.3903010
  70.6832659  40.8536546  73.7309754  70.4084472  40.6180953  73.0358894
  72.5076928  39.6750417  70.8085031  71.7600242  39.8681432  70.4033309
  72.6618453  38.8495637  70.5709152  72.4199355  39.5815529  70.7130437
  72.7478705  33.5700968  71.6980435  73.2051319  34.3024943  71.8253227
  72.8235033  33.1467433  72.4567691  72.8269674  33.6158206  71.8281511
  64.9911696  33.8166788  72.7869879  64.4553885  33.2047146  73.1030646
  65.0529461  34.3914924  73.4403545  64.9207328  33.8113716  72.9305305
  72.5908313  47.3578663  62.0029023  73.3558204  47.0888306  61.6811687
  72.4886403  46.8728673  62.7199086  72.6889808  47.2468227  62.0608851
  70.6261083  35.5603072  68.5422259  69.8357157  35.3794532  68.8639595
  71.0221705  34.7830025  68.5252553  70.5677959  35.4190533  68.5874807
  75.1126973  44.3890846  53.9828972  75.8799958  44.4490971  53.5734824
  74.6658282  43.8171288  53.4985291  75.1600401  44.3127422  53.8506683
  76.0104769  43.1945502  66.2681705  75.3349771  42.9630735  66.7695092
  76.0197145  42.5866685  65.6423810  75.9123273  43.0704427  66.2497857
  73.1398913  38.0363331  73.0245758  73.0758054  38.8973288  72.8965894
  73.2796101  37.7195324  72.2241309  73.1514383  38.1163498  72.8873971
  78.0121503  46.0510635  58.4991883  78.0941341  46.8577621  58.1753334
  78.4971246  46.0706594  59.2232656  78.0958661  46.1731297  58.5578781
  71.8218007  40.7295471  67.1661961  71.3980256  40.9299970  66.4300979
  71.6462862  39.8824319  67.2786261  71.7328887  40.6344252  67.0735651
  67.1100452  41.2247522  62.5989933  67.2665071  41.1594325  63.4545925
  67.4501045  41.9996075  62.3868613  67.1833687  41.3296720  62.6944527
  73.6479596  40.6005406  61.4683296  74.1895142  40.0975787  61.9321917
  73.9626155  40.5470600  60.6572782  73.7743993  40.5184827  61.4167108
  71.8166046  45.9922757  58.7523324  71.8858866  45.1337296  58.8916325
  72.5954501  46.2094638  58.4242349  71.9418896  45.8975621  58.7240482
  74.7968866  35.4941710  71.5205597  75.0110835  34.8552624  70.9668951
  74.1802765  35.9387534  71.0913459  74.7374195  35.4651854  71.3756028
  76.2073534  48.4160458  62.9659818  75.8153325  48.1127174  62.2482684
  76.3626606  49.2529548  62.7764772  76.1727123  48.4944295  62.8316315
  63.6834713  38.4082472  62.9150700  64.0633678  38.8267017  62.2510968
  63.1090078  38.9895928  63.2219544  63.6546038  38.5560331  62.8627441
  76.3713208  44.9810447  62.9065848  76.0127863  45.1525090  63.6829881
  75.8851919  45.4423653  62.3493847  76.2471905  45.0749418  62.9391117
  74.1883594  28.6041646  66.5092940  73.3177152  28.5780367  66.4626249
  74.4423936  28.4318838  65.6918785  74.0977154  28.5751789  66.3813076
  71.1601574  40.6609613  55.4466083  71.4494099  41.4374495  55.7209657
  71.2473373  40.1498344  56.1480582  71.2155830  40.7001531  55.5908581
  71.2132735  30.6147874  67.9666410  70.6971223  29.9228066  68.0917989
  70.6526664  31.2818651  67.9129009  71.0539248  30.6111132  67.9772476
  73.2824968  31.1540834  69.7959263  72.8956721  31.1789866  70.5772793
  72.7957906  30.5882513  69.3433779  73.1537477  31.0736585  69.8447166
  67.3265515  39.9742877  67.5466195  66.4853521  39.8746751  67.7545089
  67.5355523  40.7438358  67.8980515  67.2330207  40.0734921  67.6293510
  64.8041082  37.5962414  65.3750945  64.4097779  37.6705426  64.6001055
  64.2481199  37.9820361  65.9259307  64.6643894  37.6644189  65.3418605
  76.4406028  30.5743708  65.0554824  76.6455622  30.5066016  65.9011822
  76.1132452  31.3802529  64.9876002  76.4221276  30.6829649  65.1714479
  71.1382180  37.9024276  66.7963792  70.8345317  37.3480265  67.3974200
  70.4361600  38.0816486  66.3091827  70.9898389  37.8469059  66.8133498
  70.1948277  35.2124796  61.3608494  70.4708011  34.4943709  60.9486062
  70.7946946  35.8109716  61.1529600  70.3241541  35.1945167  61.2689255
  69.2000531  45.1173997  71.5035890  69.0920885  45.1276059  72.3697948
  69.4096312  45.9428778  71.3140844  69.2150642  45.2415072  71.6039982
  73.6958797  32.8838314  59.6355089  74.1502544  33.0548874  60.3602934
  74.1698843  32.2706424  59.2352865  73.8327117  32.8189199  59.6828851
  67.2174323  42.3686640  68.9657828  66.6262256  43.0096138  68.9360843
  67.9795346  42.7924257  68.9389127  67.2422583  42.5262478  68.9572975
  67.6134945  33.5288637  69.6325845  68.0736427  33.6027567  70.3700969
  67.6591052  34.3269891  69.2825667  67.6885501  33.6582784  69.6898602
  69.2618295  34.1955332  74.1997872  68.8703860  33.5488679  74.6353650
  69.4304158  34.7866767  74.8192128  69.2289205  34.1869600  74.3560578
  76.9763839  47.8195951  66.3989852  76.7783527  48.3086766  65.7046063
  76.3551550  48.0237193  66.9773986  76.8551403  47.9212489  66.3813075
  71.0371817  39.5880848  60.7400096  71.7813862  39.9755124  60.9783046
  71.1832513  38.7438273  60.9040584  71.1682402  39.5211321  60.7994066
  72.9551393  31.3831107  65.7731958  72.1087438  31.5553915  65.6473308
  72.9522525  30.5780451  66.1097786  72.8298543  31.2892136  65.8043085
  74.0249693  35.1606321  66.6394016  73.5509647  34.6348083  67.1499327
  74.3967829  34.6135794  66.0708877  74.0099582  35.0022318  66.6309163
  64.4022723  37.1577828  72.0077562  65.2648336  37.0573537  71.9214891
  64.0714506  36.5772537  71.4463134  64.4807920  37.0569455  71.9122967
  75.9533193  36.0542876  59.7019770  75.4256211  36.1371620  59.0125478
  76.4128901  36.7960747  59.6984414  75.9435043  36.1763538  59.5994465
  67.7624509  35.9820277  68.6687980  67.1377579  35.9938669  68.0613932
  67.4270104  36.4580452  69.3179220  67.6210001  36.0538794  68.6744548
  67.9466258  34.3245395  54.7260665  67.5979062  34.9765121  55.1892214
  67.4662704  34.3102508  53.9984536  67.8236502  34.4188449  54.6871756
  64.4750185  44.0420737  70.1091744  63.9450109  43.3513176  70.1586719
  64.7475278  44.0330922  69.2804453  64.4374907  43.9387869  69.9939160
  75.5070275  44.6246439  58.8329427  76.2304474  45.0904552  58.6894000
  75.0670866  44.6920049  58.0827024  75.5485967  44.7030276  58.7014208
  74.6756430  41.4843982  70.0830116  74.0613423  40.9402032  70.3778751
  75.1923715  40.9708218  69.6035932  74.6612093  41.3280391  70.0554344
  73.9152727  42.5548252  67.8174414  73.4880335  41.9297970  67.3839850
  73.9077672  42.2723174  68.6433421  73.8511869  42.4201032  67.8754242
  67.0315255  37.5913425  70.8862848  67.1908741  36.8356749  71.2914570
  66.8508148  38.1404364  71.5403586  67.0280613  37.5607239  71.0425554
  72.2438437  33.4317006  68.0316948  72.2680924  32.8977119  67.3429728
  72.4949911  32.9234315  68.6942539  72.2848356  33.2777910  68.0281593
  59.7546027  40.7148501  67.4660092  59.6489476  40.6695346  66.6012176
  59.0046247  41.0602282  67.7474377  59.6281630  40.7589409  67.3797422
  68.5239759  32.1587824  67.4122693  68.5638131  32.6597031  68.1257400
  67.6989424  32.2498218  67.1428616  68.4079285  32.2469641  67.4773231
  69.9454123  38.6748334  69.7096592  69.1146052  38.8422152  69.5031840
  69.8905640  38.2984285  70.4945477  69.8143538  38.6438066  69.7945120
  68.3190167  36.9503926  60.2386709  68.4593128  37.4476390  60.9415351
  68.8172699  36.2490220  60.3800923  68.4131247  36.9205905  60.3638288
  68.3490389  37.8171037  57.5679286  68.9835468  38.4131462  57.5028748
  68.4316000  37.5174494  58.3825156  68.4546940  37.8611945  57.6782373
  69.9269372  33.7485012  57.5424728  70.2485213  33.2688095  56.8883990
  70.1896316  34.5584658  57.3515540  70.0135397  33.7974910  57.4180220
  75.3228527  33.1357206  69.9048207  75.7483598  32.6829733  69.2931734
  74.7085520  32.5817277  70.1812995  75.2957172  32.9871182  69.8553232
  64.8543377  40.0138878  60.8368832  65.3635606  40.6103385  61.2180138
  65.3277649  39.7464851  60.1545252  64.9986753  40.0624693  60.7923355
  75.7674125  48.6867144  58.9927488  75.0503435  48.5128007  58.5274725
  76.4180862  48.4519717  58.4602974  75.7575975  48.6262937  58.8456706
  73.7622750  29.6072306  63.3138784  73.1191068  29.4569952  63.8823923
  73.4222157  29.3614651  62.5487889  73.6167827  29.5484429  63.2841799
  72.4008830  49.7028445  67.9680551  72.1774484  48.9447274  68.3364577
  71.9118673  49.7326466  67.2460991  72.2952279  49.5950669  67.9157292
  67.2133909  36.6495136  63.7042013  66.4945898  37.0659269  63.9714876
  67.5846271  37.2149375  63.1533651  67.1625840  36.7944418  63.6624819
  76.5133489  37.2822985  69.5944008  76.4931417  37.1006280  70.4478787
  76.5612690  38.1535004  69.5703592  76.5168130  37.3839523  69.7167303
  71.0487287  49.9228903  65.4217636  70.6347685  49.2603033  65.0321477
  71.7334661  50.0706762  64.9013330  71.0885658  49.8469561  65.2874133
  74.4152581  49.0818988  66.1741252  74.0168864  49.1921259  65.4062073
  73.8003800  49.2901055  66.7567812  74.2651470  49.1292556  66.1472552
  72.9880483  35.6893136  59.0415392  72.3945322  36.0110133  58.4899959
  73.0255761  34.8434231  58.8336498  72.9054872  35.6117464  58.9298163
  75.8638300  35.6472641  62.4717142  75.6351993  35.6705342  61.6295500
  76.1236376  34.8230108  62.5912153  75.8684488  35.5288721  62.3642340
  70.1457528  37.5007114  72.0742242  69.6336431  36.8928297  72.4327274
  69.9737024  38.2163706  72.5416218  70.0447165  37.5170413  72.1958466
  64.9923243  35.9444689  74.7244604  64.8225833  36.6046064  74.1792811
  64.5489193  36.1551250  75.4457093  64.9022576  36.0730671  74.7506234
  68.9183062  34.1849187  63.7671338  69.3940428  34.5466267  63.1321519
  68.4171662  34.8405654  64.0471481  68.9148421  34.3343376  63.7148079
  61.8925307  38.8491555  69.9833094  61.3452027  38.1792200  70.1013962
  62.6817685  38.4821402  70.0476561  61.9277491  38.6956541  70.0101795
  70.9609715  36.3290387  57.1344722  71.3408680  36.3470016  56.3495837
  70.2202311  36.7744376  57.0135569  70.9078553  36.3972161  57.0008290
  78.5895006  34.6372578  62.7220301  78.5889232  34.4821234  63.5804577
  78.3851186  35.4835565  62.6661686  78.5594784  34.7393199  62.8408240
  60.6512277  38.0612362  67.1379117  60.4734038  37.6088971  67.8634033
  60.3631299  38.8638524  67.3217595  60.5825230  38.1134920  67.2722620
  76.3135858  39.3170080  66.3756507  76.8089523  38.5993075  66.3360528
  75.5035633  39.0140877  66.2610994  76.2679751  39.1667726  66.3530233
  71.7594469  43.1667893  58.5253512  70.9505792  42.8434566  58.4786821
  72.2669378  42.4601115  58.4581761  71.7144136  43.0149209  58.5083806
  62.3884747  40.5940086  64.2500876  61.5230266  40.5825777  64.1383647
  62.4883562  40.4070309  65.0972015  62.2758913  40.5646147  64.3589821
  78.3787677  42.0673767  69.0633636  78.8042748  41.5448189  68.5104061
  78.0144596  42.6654605  68.5422259  78.3874279  42.0783994  68.9042646
  68.0141756  50.3637985  67.8230982  68.3288315  51.1774373  67.8308763
  68.4235170  49.9788203  68.4913141  68.1209854  50.4266687  67.9235073
  74.9666276  45.7808031  65.3934794  75.4377454  46.4948294  65.5624779
  75.3026455  45.1806782  65.9294663  75.0861391  45.7979496  65.4967170
  70.9528886  32.5551915  59.8172353  71.7744580  32.7250228  59.5754048
  70.4898537  32.7099176  59.0938651  71.0060048  32.6033648  59.6743998
  69.5424218  30.5494677  70.5970782  70.0868631  30.2085804  71.1875124
  69.5961154  31.4080139  70.7392067  69.6313337  30.6249936  70.7052656
  65.3554777  44.3111093  67.4709590  65.9599634  44.2706927  66.8423411
  65.1482089  45.1582245  67.5013646  65.4143674  44.4299096  67.3825707
  60.5906059  43.2945711  67.3408513  60.4930337  42.4841982  67.6498570
  61.3734929  43.2737504  66.9554781  60.6922195  43.1712801  67.3295376
  77.6762716  51.9153387  56.0681551  76.9620894  51.6291566  56.4803984
  78.1606685  52.2550013  56.7087939  77.6422080  51.9235036  56.2237186
  69.6228127  53.6332475  63.5988422  69.7088379  53.2564344  64.3801952
  70.2503924  53.2592921  63.1208381  69.7284678  53.5217957  63.6433900
  76.8062047  50.5293358  60.8786026  76.5186843  50.1594628  60.1417973
  77.4932516  50.9988213  60.6169730  76.8650945  50.5440327  60.7301101
  74.3790242  51.3074570  61.7271307  74.4806379  52.1100731  62.0552282
  75.1746129  51.1061906  61.4294387  74.5118148  51.3960469  61.7306662
  74.6567297  53.9267780  62.9150700  75.0366262  54.3452325  62.2510968
  74.0822662  54.5081236  63.2219544  74.6278622  54.0745639  62.8627441
  75.8275960  55.5324186  60.8368832  76.3368190  56.1288693  61.2180138
  76.3010233  55.2650159  60.1545252  75.9719336  55.5810001  60.7923355
  78.1866492  52.1680444  63.7042013  77.4678481  52.5844577  63.9714876
  78.5578854  52.7334683  63.1533651  78.1358424  52.3129726  63.6624819
  56.9738680   8.7587774  49.1044913  56.2221580   8.3803313  48.8760958
  57.4224692   8.7906208  48.3563723  56.9288347   8.7073381  48.9602415
  62.4263640   9.1813144  44.5330460  62.0915009   9.8590065  44.0974682
  62.9390511   8.7918455  43.9447331  62.4529221   9.2237722  44.3817251
  61.9667932  11.1327412  50.4741571  62.3507311  11.7014311  49.9346347
  61.9027073  10.4076923  49.9947387  62.0141359  11.1102876  50.3235434
  58.5523437   8.7706166  51.3707685  58.6533799   7.9606520  51.6804813
  57.9565182   8.6763113  50.7407364  58.4795975   8.6371194  51.3233924
  58.3924176  13.6883756  52.7722541  59.0361632  14.1296920  53.1618700
  58.7180432  12.8837182  52.6852800  58.5356005  13.6348950  52.8168018
  51.7488481   4.7926453  50.9960019  51.5138665   3.9594105  50.8892288
  51.8874122   5.0731119  50.1821220  51.7344143   4.7109956  50.8602374
  59.0944756   6.6995730  48.1442403  59.4160597   7.2400938  47.5403711
  59.7416852   6.1292502  48.2764693  59.2370811   6.6954906  48.0749438
  53.3105806   9.6712124  52.2716225  52.8273384  10.3962613  52.2475809
  54.1229124   9.9688254  52.3826383  53.3596553   9.8214477  52.2843504
  59.3819960   8.4644304  54.8766039  58.8646901   8.1051719  54.2727347
  60.0794351   7.9406479  54.8872106  59.4085541   8.3341992  54.7896298
  63.0383552   8.9139118  60.8382212  63.1266897   8.7265259  61.6860423
  63.4673264   8.2676548  60.4387059  63.1145654   8.7902126  60.9053964
  60.6054011   8.1970278  59.8199875  60.0424846   7.7842888  60.3439536
  61.3675035   8.1223184  60.2393018  60.6348460   8.1247679  59.9592875
  56.1650003  10.1868300  52.4236505  56.8670582   9.6720289  52.4809261
  56.0847486  10.5142451  53.2283380  56.2573763  10.1582526  52.5509297
  55.4900778   6.3774652  51.9322113  56.3289678   6.6097584  51.9795874
  55.5212547   5.5078963  51.8629148  55.6182496   6.2831598  51.9286757
  56.1153481   6.7975527  56.2335418  56.6551706   6.6546658  56.9038791
  55.4323428   7.1972278  56.6019445  56.0945635   6.8355198  56.3869840
  63.1503611   8.3448137  63.5025996  63.9344027   8.4578985  63.8681738
  62.9500205   7.5189275  63.6984682  63.2369636   8.2394857  63.5860382
  63.3074004  10.2558240  57.1492452  62.5089250  10.0157740  57.4066320
  63.7560016  10.3072632  57.8959499  63.2548615  10.2280631  57.2977376
  51.9284040   3.8034597  53.6681584  51.7459613   3.7781483  52.8153876
  52.6633709   4.2733535  53.7070493  52.0098104   3.8695959  53.5479503
  58.2677100   6.0643387  50.7025526  58.9051047   5.8255135  51.2477320
  58.6932171   6.2680546  49.9678687  58.4253266   6.0594397  50.6742683
  52.9589742   8.3031724  54.5859830  52.9993887   8.5746575  53.7579610
  53.5184266   8.8273632  55.0017618  53.0473088   8.4207479  54.5251718
  60.6498572   6.5415810  52.3819312  60.7237580   6.3790982  53.2361162
  61.4668078   6.7305999  52.1379794  60.7814930   6.5452552  52.4717338
  54.4104328   6.8873673  49.4113756  53.5842446   7.1335410  49.2848035
  54.4716320   6.8085753  50.2775814  54.2978495   6.9118622  49.5202700
  59.1903157   9.5050553  47.1132786  59.4801456   9.1139534  46.3892012
  59.9206638   9.6867258  47.5538061  59.3410042   9.4744367  47.0715593
  57.1309073  11.4817935  50.1792936  56.9109368  11.1915290  50.9719603
  56.9103595  10.8232890  49.6510848  57.0656667  11.3417644  50.2181844
  59.2977029  12.8547325  48.9623628  59.9501087  12.3223767  49.1914654
  58.6002637  12.5015977  49.3491502  59.2907747  12.7236848  49.0535796
  56.2458294   5.2086503  48.3691002  57.0004262   5.5899542  48.5826465
  55.6528906   5.6597646  48.8237699  56.2695007   5.3315330  48.4673881
  57.5656520   6.3795064  53.7431118  57.0437274   6.5195356  54.4282982
  57.9530541   5.6205728  53.9333235  57.5460221   6.2880588  53.8732194
  63.7623525   8.1190523  47.7291686  63.5210201   7.3858384  47.3218751
  63.9424858   8.6677380  47.0758020  63.7531149   8.0912915  47.5721909
  58.1303006  10.0855844  56.8260973  58.2792569   9.5258760  56.1734378
  58.9103008  10.1647846  57.2093492  58.2677099  10.0141410  56.7857922
  60.6556306  10.2570487  58.1045464  60.5799977   9.5879298  58.6596252
  60.5846165  10.9588275  58.6186130  60.6336913  10.2615394  58.2622312
  61.3126553   8.7771486  48.9369070  62.0776444   8.5081130  48.6151734
  61.2104643   8.2921496  49.6539133  61.4108049   8.6661051  48.9948898
  60.0447941  13.6638807  56.5623465  60.5343871  12.9649596  56.3799129
  59.4732173  13.3662677  57.1499522  60.0332470  13.5165030  56.6224506
  60.5384286   7.4115580  45.6863371  60.6077107   6.5530119  45.8256372
  61.3172742   7.6287461  45.3582396  60.6637136   7.3168444  45.6580529
  64.9291774   9.8353282  49.8999865  64.5371566   9.5319997  49.1822731
  65.0844846  10.6722372  49.7104818  64.8945364   9.9137118  49.7656362
  57.9218771   6.5366820  58.4375937  57.8139126   6.5468883  59.3037995
  58.1314552   7.3621601  58.2480891  57.9368882   6.6607895  58.5380029
  65.6982079   9.2388774  53.3329899  65.5001768   9.7279589  52.6386110
  65.0769790   9.4430016  53.9114032  65.5769644   9.3405313  53.3153122
  53.1968425   5.4613560  57.0431791  52.6668350   4.7705999  57.0926766
  53.4693518   5.4523746  56.2144499  53.1593147   5.3580692  56.9279207
  48.4764267   2.1341324  54.4000139  48.3707716   2.0888169  53.5352223
  47.7264487   2.4795105  54.6814424  48.3499870   2.1782233  54.3137469
  61.8784585   6.1896710  57.9963591  61.3709676   6.7432557  58.4404221
  61.5811231   6.2505000  57.1782365  61.7589470   6.2803021  57.9412048
  64.4892365  10.1059968  45.9267534  63.7721675   9.9320830  45.4614772
  65.1399103   9.8712540  45.3943021  64.4794216  10.0455760  45.7796752
  61.1227070  11.1221268  54.9020598  60.8992725  10.3640097  55.2704624
  60.6336913  11.1519289  54.1801038  61.0170519  11.0143493  54.8497339
  59.7705527  11.3421726  52.3557683  59.3565926  10.6795856  51.9661524
  60.4552901  11.4899585  51.8353377  59.8103899  11.2662384  52.2214180
  63.1370821  10.5011812  53.1081299  62.7387104  10.6114082  52.3402119
  62.5222041  10.7093878  53.6907859  62.9869711  10.5485380  53.0812598
  56.7359997  11.7830808  54.7571028  57.0506556  12.5967196  54.7648810
  57.1453410  11.3981027  55.4253188  56.8428095  11.8459510  54.8575120
  54.0773017   5.7303916  54.4049637  54.6817874   5.6899751  53.7763458
  53.8700329   6.5775068  54.4353693  54.1361914   5.8491919  54.3165753
  63.8916789   7.9969862  55.6211874  64.7115163   7.8532828  55.8828169
  63.6110867   8.6216060  56.1628312  63.9713532   8.0680214  55.7399814
  49.3124299   4.7138534  54.2748560  49.2148577   3.9034805  54.5838617
  50.0953169   4.6930327  53.8894828  49.4140436   4.5905624  54.2635423
  73.5630124  14.7410364  53.3407681  72.7068020  14.9018863  53.3916798
  73.6097778  13.8702428  53.3612742  73.4429236  14.6361166  53.3513747
  67.9471264  24.2773082  49.1044913  67.1954164  23.8988620  48.8760958
  68.3957276  24.3091516  48.3563723  67.9020931  24.2258689  48.9602415
  73.3996224  24.6998452  44.5330460  73.0647592  25.3775373  44.0974682
  73.9123094  24.3103763  43.9447331  73.4261805  24.7423030  44.3817251
  72.9400515  26.6512720  50.4741571  73.3239894  27.2199619  49.9346347
  72.8759656  25.9262231  49.9947387  72.9873942  26.6288184  50.3235434
  76.4081945  16.8002408  55.9839333  76.9537905  17.4787495  56.0433302
  76.3498822  16.6589869  55.1240914  76.4797860  16.8794410  55.8651393
  69.5256020  24.2891474  51.3707685  69.6266383  23.4791828  51.6804813
  68.9297765  24.1948421  50.7407364  69.4528559  24.1556502  51.3233924
  69.3656760  29.2069063  52.7722541  70.0094215  29.6482227  53.1618700
  69.6913015  28.4022490  52.6852800  69.5088588  29.1534258  52.8168018
  62.7221064  20.3111761  50.9960019  62.4871249  19.4779413  50.8892288
  62.8606705  20.5916427  50.1821220  62.7076727  20.2295264  50.8602374
  65.0211152  12.4797491  53.8944326  64.4016184  11.8890139  53.7254341
  64.9195015  13.0708927  53.2608650  64.9148827  12.4801574  53.7749316
  70.0677339  22.2181038  48.1442403  70.3893181  22.7586246  47.5403711
  70.7149436  21.6477810  48.2764693  70.2103395  22.2140213  48.0749438
  72.1179048  14.2197033  48.2276790  72.8159212  14.3985161  48.7198253
  72.4331380  13.6967373  47.6047179  72.2674385  14.1690805  48.2078800
  64.7480285  16.0249773  56.1387895  64.6238982  16.6112219  56.7737714
  65.3998569  15.5309969  56.4400170  64.8253934  16.0388578  56.2773825
  72.3066983  20.6067478  48.2156581  72.7460618  19.9984579  48.6611354
  72.1571646  20.2274852  47.4442046  72.3488449  20.4605949  48.1675748
  69.7738626  19.2011490  55.4175407  70.4187628  18.7083933  55.0986355
  70.0140403  19.3436277  56.2441485  69.9049211  19.1488932  55.4924940
  72.3124717  22.0466396  55.0682299  72.5947960  21.2517802  54.8469055
  73.0410878  22.5246983  55.0887360  72.4614281  22.0000993  55.0385314
  70.2905911   9.5889430  52.3098064  69.9609241  10.0400573  51.6401763
  69.6150913   9.5105593  52.8571071  70.1416347   9.6440565  52.2921288
  75.9076319  18.9594660  45.1687350  75.8227615  19.8155626  45.3136919
  76.3960703  18.6838984  45.8369509  75.9665217  19.0451981  45.2889432
  76.8394753  15.5779454  46.6685085  76.3106224  15.7939087  47.3282392
  77.3619773  16.2715592  46.5886055  76.8383206  15.7122591  46.7540685
  68.7294360  19.4742671  45.4692553  68.1451576  19.9792702  45.8758417
  68.3264456  19.2485057  44.7289145  68.5833664  19.5150919  45.4197579
  64.2838389  25.1897432  52.2716225  63.8005967  25.9147921  52.2475809
  65.0961707  25.4873562  52.3826383  64.3329137  25.3399785  52.2843504
  70.3552543  23.9829612  54.8766039  69.8379485  23.6237027  54.2727347
  71.0526934  23.4591787  54.8872106  70.3818124  23.8527300  54.7896298
  74.0116135  24.4324426  60.8382212  74.0999481  24.2450567  61.6860423
  74.4405848  23.7861856  60.4387059  74.0878237  24.3087434  60.9053964
  71.5786595  23.7155586  59.8199875  71.0157430  23.3028196  60.3439536
  72.3407618  23.6408492  60.2393018  71.6081044  23.6432987  59.9592875
  73.1871575  15.7208323  43.9461474  73.4267579  15.9286306  43.1336817
  73.5087416  14.9165831  44.0550419  73.2708733  15.6322424  43.8422027
  67.1382586  25.7053608  52.4236505  67.8403166  25.1905597  52.4809261
  67.0580069  26.0327759  53.2283380  67.2306347  25.6767834  52.5509297
  68.1861493  15.9429194  61.5516920  68.3581997  15.8335089  62.4002201
  68.7230850  16.5883600  61.3148112  68.2906497  16.0221196  61.6422017
  66.8518930  10.0572037  44.4899125  66.6694503  10.2743918  43.6640118
  67.7144543  10.1711050  44.5457739  66.9523519  10.1061935  44.3753612
  66.4633362  21.8959960  51.9322113  67.3022261  22.1282892  51.9795874
  66.4945131  21.0264271  51.8629148  66.5915079  21.8016906  51.9286757
  67.0886065  22.3160835  56.2335418  67.6284290  22.1731966  56.9038791
  66.4056011  22.7157586  56.6019445  67.0678219  22.3540506  56.3869840
  76.5126950  17.9951835  51.4280443  77.2684465  18.4283350  51.4669351
  76.6189274  17.3456605  52.0015079  76.6397120  17.9629319  51.5178468
  74.1236194  23.8633445  63.5025996  74.9076611  23.9764293  63.8681738
  73.9232789  23.0374583  63.6984682  74.2102220  23.7580165  63.5860382
  62.4923210  18.5361126  56.3869840  62.2261625  17.7200242  56.5460830
  62.5061774  18.5814281  55.5165355  62.4547932  18.4218030  56.2823322
  66.3980957  13.3346210  43.0021598  65.6839134  13.0484389  43.4144030
  66.8824926  13.6742836  43.6427985  66.3640320  13.3427860  43.1577233
  67.2421816  12.0739504  59.0336848  66.5493613  11.6036484  59.2797579
  67.8582144  11.8477808  59.6078555  67.2306346  11.9706636  59.1546000
  74.2806588  25.7743547  57.1492452  73.4821834  25.5343048  57.4066320
  74.7292599  25.8257940  57.8959499  74.2281199  25.7465939  57.2977376
  73.5728275  21.8376164  43.3783406  73.9879423  21.5061188  42.6867902
  72.7420204  21.6045066  43.2503543  73.5116283  21.7547420  43.2574254
  62.9016624  19.3219905  53.6681584  62.7192197  19.2966791  52.8153876
  63.6366292  19.7918843  53.7070493  62.9830687  19.3881267  53.5479503
  65.9662375  16.0404908  60.1763693  66.6902348  16.0257938  60.6628588
  66.0678512  16.7500263  59.6785661  66.0880584  16.1429611  60.1742480
  76.0138644  16.2437984  49.3307656  76.1085498  16.9827278  49.7847281
  75.3897487  15.8155459  49.7642220  75.9347674  16.2899304  49.4615803
  74.2691117  19.4224196  59.9797936  74.8429979  18.7851440  60.1346500
  74.1905921  19.4228279  59.1107594  74.3424352  19.3289308  59.8744347
  62.8687534  16.2013406  53.8180651  63.4461036  16.0649856  54.4572896
  62.1701596  15.7449190  54.0726235  62.8508555  16.1135672  53.9502940
  76.2661665  18.0886723  42.5644608  76.1841827  18.1588910  43.4299595
  76.9041385  18.6516467  42.3728348  76.3481502  18.1825694  42.6634557
  69.6254836  17.8547461  52.0319134  69.3674080  17.0219196  52.0050433
  69.6803319  18.0805074  51.1911634  69.5954614  17.7645233  51.9039271
  68.5989548  15.4085224  52.5184029  68.0239139  15.5677392  53.1547990
  68.2225224  14.7720633  52.0552479  68.4592361  15.3383037  52.5438587
  72.2662837  13.8808573  57.3776407  71.8777270  13.4562791  56.7228598
  71.6017535  14.1290723  57.8853434  72.1109765  13.8547294  57.3564275
  58.3446367  15.0525299  50.5328469  58.4306619  14.6757167  51.3141999
  58.9722165  14.6785744  50.0548428  58.4502918  14.9410781  50.5773947
  73.3701775  18.1107178  45.5753214  74.1842414  18.4022070  45.4635985
  73.3060916  17.4567040  45.0011507  73.4804514  18.0572372  45.4742051
  69.2409683  21.5828695  50.7025526  69.8783630  21.3440443  51.2477320
  69.6664755  21.7865854  49.9678687  69.3985850  21.5779705  50.6742683
  63.9322326  23.8217032  54.5859830  63.9726471  24.0931883  53.7579610
  64.4916850  24.3458940  55.0017618  64.0205672  23.9392787  54.5251718
  69.8812498  16.8030985  45.0400416  70.2657651  16.5838692  45.7916961
  69.6324119  17.6293930  45.1701492  69.9014571  16.8929131  45.1701492
  71.6231155  22.0601118  52.3819312  71.6970164  21.8976290  53.2361162
  72.4400662  22.2491307  52.1379794  71.7547514  22.0637860  52.4717338
  65.3836912  22.4058981  49.4113756  64.5575030  22.6520718  49.2848035
  65.4448903  22.3271061  50.2775814  65.2711079  22.4303929  49.5202700
  67.6012936   8.4727922  50.3709196  66.7335361   8.5450521  50.4366805
  67.8888140   9.2750000  50.5597171  67.5152684   8.6022069  50.4083963
  70.1635741  25.0235861  47.1132786  70.4534039  24.6324842  46.3892012
  70.8939222  25.2052566  47.5538061  70.3142625  24.9929675  47.0715593
  70.7530486  19.8253607  58.1985916  70.2542180  20.5369374  58.2770805
  71.5630710  20.1454273  58.1604079  70.7986593  19.9780455  58.2042485
  68.1041657  27.0003243  50.1792936  67.8841952  26.7100598  50.9719603
  67.8836179  26.3418198  49.6510848  68.0389251  26.8602952  50.2181844
  67.0158604  19.0876560  52.4448637  66.7271852  18.4614031  52.9794365
  67.8841952  19.0296847  52.5113318  67.1018856  18.9864104  52.5339592
  77.8036502  14.2311343  52.7630619  77.4601267  13.5101678  53.1137869
  77.9029544  14.0225194  51.9208977  77.7678544  14.0935546  52.6902299
  70.2709612  28.3732633  48.9623628  70.9233670  27.8409075  49.1914654
  69.5735221  28.0201285  49.3491502  70.2640330  28.2422156  49.0535796
  67.2190877  20.7271811  48.3691002  67.9736845  21.1084850  48.5826465
  66.6261490  21.1782954  48.8237699  67.2427591  20.8500638  48.4673881
  78.2649531  20.6937047  48.3054607  78.8307563  21.3530257  48.2213150
  77.6177434  21.0386745  48.7771009  78.2528287  20.8418988  48.3627364
  68.5389104  21.8980372  53.7431118  68.0169857  22.0380664  54.4282982
  68.9263124  21.1391036  53.9333235  68.5192805  21.8065896  53.8732194
  65.5280288  11.9486181  47.8126072  65.2405084  11.5787451  47.0758020
  66.2150756  12.4181036  47.5509777  65.5869185  11.9633150  47.6641148
  74.7356109  23.6375831  47.7291686  74.4942785  22.9043692  47.3218751
  74.9157442  24.1862688  47.0758020  74.7263733  23.6098222  47.5721909
  69.9655429  18.9284391  49.1412609  69.7698212  19.5359126  48.5472912
  70.1889775  18.2352335  48.6604283  69.9690070  18.9161917  48.9828690
  68.3633959  15.8139129  49.2593477  69.0856611  15.9780287  48.7997283
  67.8841952  16.5348794  49.1532817  68.3997690  15.9437359  49.1759091
  76.3227467  12.1502928  54.6390162  75.4838568  12.1764207  54.4028425
  76.3931834  12.7973663  55.2195509  76.2095860  12.2499054  54.6899279
  63.1008482  12.7267393  48.6611353  63.2024619  13.5293555  48.9892329
  63.8964369  12.5254729  48.3634434  63.2336388  12.8153292  48.6646709
  69.5325301  10.3123590  58.4248659  69.3408499  10.3278724  59.2748082
  70.3823897  10.5087264  58.4015313  69.6301023  10.3437941  58.5471953
  63.9172215  12.8414571  56.4032475  63.7757706  11.9898512  56.5276983
  64.2012778  12.8843232  55.5794681  63.9380061  12.7214322  56.3000099
  74.0710807  14.6781662  50.5476963  73.8245521  14.5977413  51.3813752
  74.3995930  13.8935130  50.3539491  74.0832050  14.5507927  50.6424486
  77.9658856  21.3865021  54.3363745  77.8273215  22.0846067  54.8412487
  77.1858854  21.2313677  53.9799926  77.8302083  21.4665188  54.3590019
  70.0307834  17.4138380  59.9599946  70.1751210  17.9939588  59.3243056
  70.3783483  17.7914677  60.6649801  70.1035296  17.5559084  59.9698941
  72.2027752  16.6128549  57.7425078  71.4551066  16.8059563  57.3373356
  72.3569277  15.7873768  57.5049199  72.1150179  16.5193660  57.6470484
  69.1035589  25.6041152  56.8260973  69.2525153  25.0444068  56.1734378
  69.8835591  25.6833154  57.2093492  69.2409683  25.5326718  56.7857922
  71.6288890  25.7755795  58.1045464  71.5532561  25.1064606  58.6596252
  71.5578749  26.4773583  58.6186130  71.6069497  25.7800702  58.2622312
  72.4429529  10.5079099  58.6320482  72.9002143  11.2403074  58.7593274
  72.5185857  10.0845565  59.3907737  72.5220498  10.5536337  58.7621558
  64.6862520  10.7544919  59.7209925  64.1504709  10.1425277  60.0370693
  64.7480285  11.3293055  60.3743592  64.6158152  10.7491847  59.8645352
  72.2859137  24.2956794  48.9369070  73.0509028  24.0266438  48.6151734
  72.1837227  23.8106804  49.6539133  72.3840632  24.1846358  48.9948898
  70.3211906  12.4981203  55.4762306  69.5307981  12.3172663  55.7979641
  70.7172529  11.7208156  55.4592600  70.2628783  12.3568664  55.5214854
  74.8077797  21.3268978  40.9169019  75.5750782  21.3869103  40.5074871
  74.3609106  20.7549419  40.4325338  74.8551224  21.2505553  40.7846730
  75.7055593  20.1323633  53.2021752  75.0300595  19.9008866  53.7035139
  75.7147969  19.5244816  52.5763857  75.6074097  20.0082559  53.1837904
  72.8349737  14.9741462  59.9585805  72.7708878  15.8351419  59.8305941
  72.9746924  14.6573456  59.1581356  72.8465207  15.0541629  59.8214017
  77.7072327  22.9888766  45.4331930  77.7892165  23.7955752  45.1093380
  78.1922070  23.0084725  46.1572703  77.7909485  23.1109428  45.4918828
  71.5168831  17.6673602  54.1002007  71.0931080  17.8678101  53.3641026
  71.3413686  16.8202450  54.2126307  71.4279711  17.5722383  54.0075698
  71.0180524  29.1824115  56.5623465  71.5076454  28.4834904  56.3799129
  70.4464756  28.8847985  57.1499522  71.0065054  29.0350338  56.6224506
  66.8051276  18.1625653  49.5329980  66.9615895  18.0972456  50.3885972
  67.1451869  18.9374206  49.3208660  66.8784510  18.2674851  49.6284574
  73.3430420  17.5383537  48.4023343  73.8845966  17.0353918  48.8661964
  73.6576979  17.4848731  47.5912828  73.4694817  17.4562958  48.3507155
  71.5116870  22.9300888  45.6863371  71.5809690  22.0715427  45.8256372
  72.2905325  23.1472769  45.3582396  71.6369720  22.8353752  45.6580529
  74.4919690  12.4319841  58.4545644  74.7061659  11.7930755  57.9008998
  73.8753589  12.8765665  58.0253505  74.4325019  12.4029985  58.3096075
  75.9024358  25.3538590  49.8999865  75.5104149  25.0505305  49.1822731
  76.0577430  26.1907680  49.7104818  75.8677947  25.4322426  49.7656362
  63.3785537  15.3460604  49.8490747  63.7584502  15.7645149  49.1851015
  62.8040902  15.9274059  50.1559591  63.3496862  15.4938462  49.7967488
  76.0664032  21.9188578  49.8405895  75.7078687  22.0903221  50.6169928
  75.5802743  22.3801784  49.2833894  75.9422729  22.0127550  49.8731164
  70.8552398  17.5987744  42.3806130  71.1444923  18.3752626  42.6549704
  70.9424197  17.0876475  43.0820629  70.9106654  17.6379662  42.5248627
  77.2268772  22.8092474  60.7873096  77.8648492  22.3152670  60.4535552
  76.5842863  22.7369875  60.2025323  77.2262998  22.7251483  60.6515451
  77.2823028  23.5012283  57.4278453  78.0715406  23.1501347  57.5480534
  77.4566626  24.3148671  57.1655087  77.4243310  23.5698140  57.4066321
  67.0216339  16.9121008  54.4806242  66.1804345  16.8124883  54.6885135
  67.2306347  17.6816489  54.8320562  66.9281031  17.0113052  54.5633557
  64.4991906  14.5340545  52.3090992  64.1048603  14.6083557  51.5341102
  63.9432022  14.9198492  52.8599354  64.3594718  14.6022320  52.2758652
  70.8333004  14.8402408  53.7303839  70.5296141  14.2858396  54.3314247
  70.1312424  15.0194618  53.2431873  70.6849213  14.7847190  53.7473545
  69.8899101  12.1502927  48.2948541  70.1658835  11.4321840  47.8826109
  70.4897770  12.7487847  48.0869647  70.0192365  12.1323298  48.2029302
  68.8951355  22.0552128  58.4375937  68.7871709  22.0654190  59.3037995
  69.1047136  22.8806909  58.2480891  68.9101466  22.1793203  58.5380029
  66.9125147  19.3064771  55.8997875  66.3213080  19.9474269  55.8700890
  67.6746170  19.7302388  55.8729174  66.9373407  19.4640609  55.8913022
  67.3085769  10.4666768  56.5665892  67.7687251  10.5405698  57.3041016
  67.3541876  11.2648022  56.2165713  67.3836325  10.5960916  56.6238649
  68.9569119  11.1333463  61.1337919  68.5654684  10.4866810  61.5693697
  69.1254982  11.7244899  61.7532175  68.9240029  11.1247731  61.2900625
  76.6714663  24.7574082  53.3329899  76.4734351  25.2464897  52.6386110
  76.0502374  24.9615324  53.9114032  76.5502227  24.8590621  53.3153122
  70.7322641  16.5258979  47.6740143  71.4764686  16.9133255  47.9123093
  70.8783337  15.6816404  47.8380631  70.8633226  16.4589452  47.7334113
  73.7200517  12.0984452  53.5734063  73.2460471  11.5726214  54.0839374
  74.0918653  11.5513925  53.0048924  73.7050406  11.9400449  53.5649210
  64.0973547  14.0955959  58.9417608  64.9599160  13.9951668  58.8554938
  63.7665330  13.5150668  58.3803181  64.1758743  13.9947586  58.8463014
  75.6484017  12.9921007  46.6359816  75.1207035  13.0749751  45.9465525
  76.1079725  13.7338878  46.6324461  75.6385867  13.1141669  46.5334512
  67.4575333  12.9198408  55.6028027  66.8328403  12.9316800  54.9953979
  67.1220928  13.3958583  56.2519267  67.3160825  12.9916925  55.6084595
  67.6417082  11.2623527  41.6600712  67.2929886  11.9143252  42.1232261
  67.1613528  11.2480640  40.9324583  67.5187326  11.3566580  41.6211803
  64.1701009  20.9798868  57.0431791  63.6400933  20.2891307  57.0926766
  64.4426102  20.9709054  56.2144499  64.1325731  20.8766000  56.9279207
  75.2021099  21.5624571  45.7669473  75.9255298  22.0282684  45.6234047
  74.7621690  21.6298180  45.0167070  75.2436791  21.6408407  45.6354255
  74.3707254  18.4222113  57.0170162  73.7564247  17.8780163  57.3118798
  74.8874539  17.9086349  56.5375979  74.3562917  18.2658522  56.9894391
  73.6103551  19.4926383  54.7514461  73.1831159  18.8676102  54.3179896
  73.6028496  19.2101305  55.5773468  73.5462693  19.3579164  54.8094289
  66.7266078  14.5291556  57.8202895  66.8859565  13.7734880  58.2254617
  66.5458972  15.0782495  58.4743633  66.7231437  14.4985370  57.9765601
  71.9389261  10.3695137  54.9656995  71.9631748   9.8355250  54.2769775
  72.1900735   9.8612446  55.6282586  71.9799180  10.2156041  54.9621640
  59.4496851  17.6526632  54.4000139  59.3440300  17.6073477  53.5352223
  58.6997071  17.9980413  54.6814424  59.3232454  17.6967541  54.3137469
  68.2190583   9.0965956  54.3462739  68.2588955   9.5975162  55.0597447
  67.3940248   9.1876349  54.0768662  68.1030109   9.1847772  54.4113278
  70.4020196  18.6626696  62.4483034  69.5515827  18.7998410  62.5840679
  70.5648324  17.9290474  62.8930736  70.3004060  18.5740797  62.5338633
  69.6404947  15.6126465  56.6436638  68.8096876  15.7800283  56.4371886
  69.5856464  15.2362416  57.4285524  69.5094362  15.5816197  56.7285166
  68.0140990  13.8882057  47.1726756  68.1543952  14.3854521  47.8755397
  68.5123523  13.1868351  47.3140970  68.1082071  13.8584036  47.2978335
  68.0441213  14.7549168  44.5019333  68.6786292  15.3509593  44.4368795
  68.1266824  14.4552626  45.3165203  68.1497764  14.7990076  44.6122419
  69.6220196  10.6863143  44.4764775  69.9436037  10.2066226  43.8224037
  69.8847139  11.4962790  44.2855587  69.7086221  10.7353041  44.3520267
  72.8517169  21.7082018  57.9963591  72.3442260  22.2617865  58.4404221
  72.5543815  21.7690308  57.1782365  72.7322053  21.7988329  57.9412048
  64.5494201  16.9517009  47.7708879  65.0586430  17.5481516  48.1520184
  65.0228473  16.6842982  47.0885299  64.6937576  17.0002824  47.7263402
  75.4624949  25.6245275  45.9267534  74.7454259  25.4506138  45.4614772
  76.1131686  25.3897848  45.3943021  75.4526799  25.5641068  45.7796752
  78.0472920  14.5009864  49.6708840  77.3764110  15.0439566  49.5421905
  78.7412670  14.9704719  49.4290534  78.0501788  14.6508135  49.6164367
  72.0959654  26.6406576  54.9020598  71.8725308  25.8825405  55.2704624
  71.6069497  26.6704597  54.1801038  71.9903103  26.5328801  54.8497339
  66.9084732  13.5873267  50.6382059  66.1896722  14.0037400  50.9054923
  67.2797095  14.1527506  50.0873697  66.8576664  13.7322549  50.5964866
  76.2084313  14.2201116  56.5284055  76.1882241  14.0384411  57.3818834
  76.2563514  15.0913135  56.5043639  76.2118954  14.3217655  56.6507350
  74.1530643  20.8088308  62.4532532  74.1126498  20.1637985  61.8677687
  74.9653961  20.7524926  62.7657944  74.2673797  20.7047275  62.4129481
  70.7438111  26.8607034  52.3557683  70.3298509  26.1981164  51.9661524
  71.4285485  27.0084893  51.8353377  70.7836482  26.7847692  52.2214180
  74.1103405  26.0197119  53.1081299  73.7119688  26.1299390  52.3402119
  73.4954624  26.2279186  53.6907859  73.9602294  26.0670687  53.0812598
  72.6831307  12.6271267  45.9755439  72.0896146  12.9488264  45.4240006
  72.7206585  11.7812363  45.7676545  72.6005696  12.5495596  45.8638210
  75.5589123  12.5850772  49.4057189  75.3302816  12.6083473  48.5635547
  75.8187200  11.7608239  49.5252200  75.5635311  12.4666852  49.2982387
  69.8408352  14.4385245  59.0082289  69.3287255  13.8306428  59.3667321
  69.6687848  15.1541837  59.4756265  69.7397989  14.4548544  59.1298513
  64.6874067  12.8822820  61.6584651  64.5176657  13.5424195  61.1132858
  64.2440016  13.0929381  62.3797140  64.5973400  13.0108802  61.6846280
  68.6133886  11.1227318  50.7011385  69.0891252  11.4844398  50.0661566
  68.1122486  11.7783786  50.9811527  68.6099245  11.2721507  50.6488126
  61.5876131  15.7869686  56.9173141  61.0402851  15.1170331  57.0354009
  62.3768509  15.4199534  56.9816608  61.6228315  15.6334672  56.9441841
  71.4360539  15.4477143  62.4136552  72.1871866  15.7628820  62.7276106
  71.6283116  15.2456314  61.5870474  71.5751954  15.4644525  62.3379948
  70.6560539  13.2668518  44.0684769  71.0359504  13.2848147  43.2835883
  69.9153135  13.7122507  43.9475616  70.6029377  13.3350292  43.9348337
  60.3463101  14.9990493  54.0719164  60.1684862  14.5467102  54.7974079
  60.0582123  15.8016655  54.2557641  60.2776054  15.0513051  54.2062667
  76.0086682  16.2548211  53.3096554  76.5040347  15.5371206  53.2700574
  75.1986457  15.9519009  53.1951041  75.9630575  16.1045857  53.2870280
  71.4545293  20.1046024  45.4593559  70.6456616  19.7812698  45.4126868
  71.9620202  19.3979246  45.3921807  71.4094960  19.9527340  45.4423853
  62.0835570  17.5318217  51.1840923  61.2181090  17.5203908  51.0723694
  62.1834386  17.3448440  52.0312062  61.9709737  17.5024278  51.2929867
  78.0738501  19.0051898  55.9973683  78.4993572  18.4826320  55.4444108
  77.7095420  19.6032736  55.4762306  78.0825103  19.0162125  55.8382693
  67.7092580  27.3016116  54.7571028  68.0239139  28.1152504  54.7648810
  68.1185994  26.9166335  55.4253188  67.8160678  27.3644818  54.8575120
  74.6617100  22.7186163  52.3274840  75.1328278  23.4326425  52.4964826
  74.9977279  22.1184913  52.8634710  74.7812215  22.7357627  52.4307216
  75.2991046  22.5104097  59.0902533  74.7511992  21.8861980  58.8222598
  75.7604075  22.6998369  58.3746612  75.2858256  22.4463147  58.9452964
  70.6479710   9.4930046  46.7512400  71.4695404   9.6628359  46.5094095
  70.1849361   9.6477307  46.0278698  70.7010872   9.5411779  46.6084044
  65.0505600  21.2489224  54.4049637  65.6550458  21.2085058  53.7763458
  64.8432913  22.0960376  54.4353693  65.1094498  21.3677227  54.3165753
  74.8649373  23.5155169  55.6211874  75.6847746  23.3718135  55.8828169
  74.5843450  24.1401368  56.1628312  74.9446116  23.5865521  55.7399814
  60.2856883  20.2323842  54.2748560  60.1881161  19.4220113  54.5838617
  61.0685752  20.2115635  53.8894828  60.3873019  20.1090932  54.2635423
  73.6953648  35.8297069  50.9960019  73.4603832  34.9964721  50.8892288
  73.8339289  36.1101734  50.1821220  73.6809310  35.7480572  50.8602374
  75.9943735  27.9982799  53.8944326  75.3748767  27.4075447  53.7254341
  75.8927599  28.5894235  53.2608650  75.8881411  27.9986882  53.7749316
  75.7212868  31.5435081  56.1387895  75.5971565  32.1297527  56.7737714
  76.3731153  31.0495277  56.4400170  75.7986518  31.5573886  56.2773825
  75.2570973  40.7082740  52.2716225  74.7738551  41.4333229  52.2475809
  76.0694291  41.0058870  52.3826383  75.3061720  40.8585093  52.2843504
  78.1115170  41.2238915  52.4236505  78.8135749  40.7090905  52.4809261
  78.0312653  41.5513067  53.2283380  78.2038930  41.1953142  52.5509297
  77.8251513  25.5757345  44.4899125  77.6427087  25.7929226  43.6640118
  78.6877126  25.6896358  44.5457739  77.9256103  25.6247243  44.3753612
  77.4365945  37.4145267  51.9322113  78.2754845  37.6468200  51.9795874
  77.4677715  36.5449579  51.8629148  77.5647663  37.3202214  51.9286757
  78.0618648  37.8346143  56.2335418  78.6016873  37.6917274  56.9038791
  77.3788595  38.2342893  56.6019445  78.0410802  37.8725814  56.3869840
  73.4655793  34.0546433  56.3869840  73.1994209  33.2385550  56.5460830
  73.4794358  34.0999589  55.5165355  73.4280516  33.9403338  56.2823322
  77.3713540  28.8531518  43.0021598  76.6571718  28.5669697  43.4144030
  77.8557509  29.1928144  43.6427985  77.3372904  28.8613168  43.1577233
  78.2154400  27.5924812  59.0336848  77.5226197  27.1221791  59.2797579
  78.8314727  27.3663116  59.6078555  78.2038930  27.4891944  59.1546000
  73.8749207  34.8405213  53.6681584  73.6924780  34.8152099  52.8153876
  74.6098876  35.3104151  53.7070493  73.9563271  34.9066575  53.5479503
  76.9394959  31.5590216  60.1763693  77.6634931  31.5443246  60.6628588
  77.0411095  32.2685571  59.6785661  77.0613168  31.6614919  60.1742480
  73.8420117  31.7198714  53.8180651  74.4193620  31.5835164  54.4572896
  73.1434179  31.2634498  54.0726235  73.8241139  31.6320980  53.9502940
  69.3178951  30.5710606  50.5328469  69.4039202  30.1942475  51.3141999
  69.9454748  30.1971052  50.0548428  69.4235502  30.4596089  50.5773947
  74.9054909  39.3402339  54.5859830  74.9459055  39.6117191  53.7579610
  75.4649433  39.8644248  55.0017618  74.9938255  39.4578095  54.5251718
  76.3569496  37.9244288  49.4113756  75.5307613  38.1706026  49.2848035
  76.4181487  37.8456369  50.2775814  76.2443663  37.9489237  49.5202700
  78.5745519  23.9913229  50.3709196  77.7067945  24.0635829  50.4366805
  78.8620724  24.7935308  50.5597171  78.4885267  24.1207377  50.4083963
  77.9891187  34.6061868  52.4448637  77.7004436  33.9799339  52.9794365
  78.8574535  34.5482155  52.5113318  78.0751439  34.5049412  52.5339592
  76.5012871  27.4671489  47.8126072  76.2137667  27.0972759  47.0758020
  77.1883340  27.9366344  47.5509777  76.5601769  27.4818458  47.6641148
  76.9874160  33.7382509  58.3647617  77.4995257  34.0166763  57.7156377
  76.7010502  34.4771803  58.7310430  77.0209023  33.8884863  58.3237495
  74.0741066  28.2452701  48.6611353  74.1757202  29.0478863  48.9892329
  74.8696953  28.0440037  48.3634434  74.2068972  28.3338600  48.6646709
  74.8904798  28.3599879  56.4032475  74.7490290  27.5083820  56.5276983
  75.1745361  28.4028540  55.5794681  74.9112644  28.2399629  56.3000099
  75.6595103  26.2730227  59.7209925  75.1237293  25.6610585  60.0370693
  75.7212868  26.8478363  60.3743592  75.5890736  26.2677155  59.8645352
  77.7783859  33.6810961  49.5329980  77.9348478  33.6157764  50.3885972
  78.1184452  34.4559514  49.3208660  77.8517094  33.7860159  49.6284574
  74.3518121  30.8645912  49.8490747  74.7317086  31.2830457  49.1851015
  73.7773485  31.4459367  50.1559591  74.3229446  31.0123770  49.7967488
  77.9948922  32.4306316  54.4806242  77.1536929  32.3310191  54.6885135
  78.2038930  33.2001797  54.8320562  77.9013615  32.5298360  54.5633557
  75.4724489  30.0525853  52.3090992  75.0781187  30.1268865  51.5341102
  74.9164606  30.4383800  52.8599354  75.3327302  30.1207628  52.2758652
  77.8857730  34.8250079  55.8997875  77.2945663  35.4659577  55.8700890
  78.6478754  35.2487696  55.8729174  77.9105991  34.9825917  55.8913022
  78.2818353  25.9852076  56.5665892  78.7419834  26.0591006  57.3041016
  78.3274460  26.7833330  56.2165713  78.3568908  26.1146223  56.6238649
  75.0706131  29.6141267  58.9417608  75.9331744  29.5136976  58.8554938
  74.7397914  29.0335976  58.3803181  75.1491327  29.5132894  58.8463014
  78.4307917  28.4383716  55.6028027  77.8060987  28.4502108  54.9953979
  78.0953512  28.9143891  56.2519267  78.2893409  28.5102233  55.6084595
  78.6149665  26.7808835  41.6600712  78.2662470  27.4328560  42.1232261
  78.1346111  26.7665948  40.9324583  78.4919909  26.8751888  41.6211803
  75.1433592  36.4984176  57.0431791  74.6133517  35.8076615  57.0926766
  75.4158686  36.4894361  56.2144499  75.1058315  36.3951308  56.9279207
  77.6998662  30.0476864  57.8202895  77.8592149  29.2920188  58.2254617
  77.5191556  30.5967803  58.4743633  77.6964021  30.0170678  57.9765601
  70.4229434  33.1711940  54.4000139  70.3172884  33.1258785  53.5352223
  69.6729654  33.5165721  54.6814424  70.2965037  33.2152848  54.3137469
  75.5226784  32.4702317  47.7708879  76.0319014  33.0666824  48.1520184
  75.9961057  32.2028290  47.0885299  75.6670160  32.5188132  47.7263402
  77.8817316  29.1058575  50.6382059  77.1629305  29.5222708  50.9054923
  78.2529678  29.6712814  50.0873697  77.8309248  29.2507857  50.5964866
  75.6606650  28.4008128  61.6584651  75.4909240  29.0609503  61.1132858
  75.2172600  28.6114689  62.3797140  75.5705984  28.5294110  61.6846280
  72.5608715  31.3054994  56.9173141  72.0135434  30.6355639  57.0354009
  73.3501093  30.9384841  56.9816608  72.5960898  31.1519980  56.9441841
  71.3195684  30.5175801  54.0719164  71.1417445  30.0652410  54.7974079
  71.0314706  31.3201963  54.2557641  71.2508637  30.5698359  54.2062667
  73.0568154  33.0503525  51.1840923  72.1913674  33.0389216  51.0723694
  73.1566970  32.8633748  52.0312062  72.9442321  33.0209586  51.2929867
  76.0238184  36.7674532  54.4049637  76.6283041  36.7270366  53.7763458
  75.8165497  37.6145684  54.4353693  76.0827081  36.8862535  54.3165753
  71.2589466  35.7509150  54.2748560  71.1613744  34.9405421  54.5838617
  72.0418336  35.7300943  53.8894828  71.3605603  35.6276240  54.2635423
  73.3904472  12.7675200  37.9300066  73.1554656  11.9342852  37.8232334
  73.5290113  13.0479866  37.1161267  73.3760134  12.6858703  37.7942421
  74.9521797  17.6460871  39.2056272  74.4689375  18.3711360  39.1815855
  75.7645115  17.9437001  39.3166429  75.0012544  17.7963224  39.2183551
  77.8065994  18.1617047  39.3576552  78.5086573  17.6469036  39.4149308
  77.7263477  18.4891198  40.1623427  77.8989754  18.1331273  39.4849344
  77.1316769  14.3523399  38.8662160  77.9705669  14.5846331  38.9135921
  77.1628538  13.4827710  38.7969195  77.2598487  14.2580345  38.8626804
  77.7569472  14.7724274  43.1675465  78.2967697  14.6295405  43.8378838
  77.0739419  15.1721025  43.5359491  77.7361626  14.8103945  43.3209887
  73.1606617  10.9924565  43.3209887  72.8945033  10.1763681  43.4800877
  73.1745182  11.0377720  42.4505402  73.1231340  10.8781469  43.2163369
  73.5700031  11.7783344  40.6021631  73.3875604  11.7530230  39.7493923
  74.3049700  12.2482282  40.6410540  73.6514095  11.8444706  40.4819549
  74.6005733  16.2780471  41.5199877  74.6409879  16.5495322  40.6919656
  75.1600257  16.8022379  41.9357665  74.6889079  16.3956226  41.4591765
  76.0520320  14.8622420  36.3453803  75.2258437  15.1084157  36.2188082
  76.1132311  14.7834500  37.2115861  75.9394486  14.8867369  36.4542747
  78.7725064  19.4566682  37.1132982  78.5525360  19.1664037  37.9059649
  78.5519586  18.7981637  36.5850895  78.7072658  19.3166391  37.1521891
  77.8874285  13.1835250  35.3031049  78.6420253  13.5648289  35.5166512
  77.2944897  13.6346393  35.7577746  77.9110998  13.3064077  35.4013927
  77.5808554  11.7628210  42.8337921  76.9896487  12.4037708  42.8040936
  78.3429578  12.1865827  42.8069221  77.6056815  11.9204048  42.8253069
  74.8384416  13.4362307  43.9771838  74.3084341  12.7454746  44.0266812
  75.1109509  13.4272493  43.1484546  74.8009138  13.3329439  43.8619254
  70.1180258  10.1090071  41.3340186  70.0123707  10.0636916  40.4692270
  69.3680478  10.4543852  41.6154471  69.9915861  10.1530980  41.2477516
  78.3775988  19.7579555  41.6911075  78.6922547  20.5715943  41.6988857
  78.7869401  19.3729774  42.3593234  78.4844086  19.8208257  41.7915167
  75.7189008  13.7052663  41.3389684  76.3233865  13.6648498  40.7103504
  75.5116321  14.5523815  41.3693740  75.7777905  13.8240666  41.2505800
  70.9540290  12.6887281  41.2088607  70.8564568  11.8783552  41.5178663
  71.7369160  12.6679074  40.8234875  71.0556427  12.5654371  41.1975470
  26.4931407  30.4674490  74.4440017  26.4625411  31.3219127  74.6158287
  27.0912756  30.1669783  75.0026161  26.5768565  30.5490987  74.5514820
  14.0772232  39.0912859  74.9630179  13.3255131  38.7128397  74.7346224
  14.5258243  39.1231293  74.2148990  14.0321898  39.0398466  74.8187682
  19.5297191  39.5138229  70.3915727  19.1948560  40.1915150  69.9559949
  20.0424062  39.1243540  69.8032598  19.5562772  39.5562807  70.2402518
  19.0701483  41.4652497  76.3326838  19.4540862  42.0339396  75.7931613
  19.0060624  40.7402008  75.8532654  19.1174910  41.4427961  76.1820701
  24.3147981  33.0426792  72.7158327  24.1987507  33.7934478  73.1450465
  25.1103868  32.7850746  72.9654414  24.4152571  33.1161639  72.8162419
  15.4957727  44.0208840  78.6307808  16.1395183  44.4622004  79.0203966
  15.8213983  43.2162267  78.5438067  15.6389556  43.9674035  78.6753285
  16.1978307  37.0320815  74.0027670  16.5194148  37.5726023  73.3988978
  16.8450403  36.4617587  74.1349959  16.3404362  37.0279990  73.9334705
  18.4367950  35.4207255  74.0741848  18.8761586  34.8124356  74.5196621
  18.2872613  35.0414629  73.3027313  18.4789416  35.2745726  74.0261015
  22.0377287  33.7734437  71.0272617  21.9528582  34.6295403  71.1722186
  22.5261670  33.4978761  71.6954776  22.0966184  33.8591758  71.1474699
  22.9695720  30.3919231  72.5270352  22.4407192  30.6078864  73.1867658
  23.4920740  31.0855369  72.4471322  22.9684173  30.5262368  72.6125951
  28.4243773  35.9665535  77.9003397  27.5941476  36.1776179  78.0636813
  28.3753025  35.1402590  77.6245680  28.2950509  35.8755141  77.8840762
  14.8595328  34.2882448  71.3277820  14.2752543  34.7932479  71.7343684
  14.4565423  34.0624834  70.5874412  14.7134632  34.3290696  71.2782845
  19.3172542  30.5348100  69.8046741  19.5568546  30.7426083  68.9922084
  19.6388383  29.7305608  69.9135685  19.4009700  30.4462201  69.7007294
  25.6808088  36.6364890  78.0368112  25.2443320  36.6401632  78.7927084
  25.3471004  37.3170389  77.6047690  25.5670708  36.7377345  78.0848945
  12.5281924  28.1485987  68.8606865  11.8140101  27.8624166  69.2729297
  13.0125893  28.4882613  69.5013252  12.4941288  28.1567637  69.0162500
  28.8152435  33.3545809  76.9287750  29.4768869  32.7936478  76.8283658
  28.1743847  32.8597840  77.2540441  28.8181302  33.1982219  76.9620090
  19.7029242  36.6515941  69.2368673  20.1180391  36.3200965  68.5453169
  18.8721172  36.4184843  69.1088810  19.6417251  36.5687197  69.1159520
  25.1017265  34.3711192  76.6699739  25.3372854  34.5156391  75.8426589
  25.2506829  35.1353600  77.0631252  25.1583069  34.5050246  76.6063342
  26.9307722  33.2112858  74.5069342  27.2615939  33.7440498  73.9009437
  27.5040810  33.2651746  75.1631293  27.0641401  33.2982427  74.5147124
  22.3962632  32.9026500  68.4229874  22.3142795  32.9728687  69.2884861
  23.0342353  33.4656244  68.2313615  22.4782470  32.9965471  68.5219824
  28.0387074  28.4523355  76.0109504  27.7823638  27.6403296  75.8207387
  28.8816387  28.4600922  75.7839691  28.1253099  28.3335352  75.9494321
  19.5002743  32.9246955  71.4338481  20.3143381  33.2161847  71.3221252
  19.4361884  32.2706817  70.8596774  19.6105482  32.8712149  71.3327318
  16.0113466  31.6170762  70.8985682  16.3958619  31.3978469  71.6502227
  15.7625086  32.4433707  71.0286759  16.0315538  31.7068908  71.0286759
  16.2936709  39.8375638  72.9718053  16.5835007  39.4464619  72.2477279
  17.0240189  40.0192343  73.4123328  16.4443593  39.8069452  72.9300860
  14.2342624  41.8143020  76.0378202  14.0142920  41.5240375  76.8304869
  14.0137146  41.1557975  75.5096115  14.1690218  41.6742729  76.0767111
  16.4010580  43.1872410  74.8208895  17.0534638  42.6548852  75.0499921
  15.7036189  42.8341062  75.2076769  16.3941298  43.0561933  74.9121063
  24.3950498  35.5076824  74.1639874  24.9608531  36.1670034  74.0798417
  23.7478402  35.8526522  74.6356276  24.3829255  35.6558765  74.2212631
  20.8657076  38.4515608  73.5876953  20.6243752  37.7183469  73.1804018
  21.0458409  39.0002465  72.9343287  20.8564700  38.4237999  73.4307176
  25.5913196  35.5583052  70.9565511  25.2120005  34.7720190  70.9494800
  24.9279441  36.1069909  70.8137155  25.4371671  35.5227876  70.9346307
  18.4160104  39.1096571  74.7954337  19.1809995  38.8406215  74.4737001
  18.3138194  38.6246581  75.5124400  18.5141600  38.9986135  74.8534164
  20.9378765  36.1408755  66.7754286  21.7051750  36.2008880  66.3660138
  20.4910074  35.5689196  66.2910605  20.9852192  36.0645330  66.6431996
  23.8373295  37.8028543  71.2917196  23.9193132  38.6095529  70.9678647
  24.3223037  37.8224502  72.0157970  23.9210453  37.9249205  71.3504095
  19.4731388  32.3523314  74.2608610  20.0146933  31.8493695  74.7247231
  19.7877947  32.2988508  73.4498095  19.5995785  32.2702735  74.2092422
  17.6417837  37.7440665  71.5448638  17.7110658  36.8855204  71.6841638
  18.4206293  37.9612546  71.2167663  17.7670688  37.6493529  71.5165795
  22.0325325  40.1678367  75.7585131  21.6405117  39.8645082  75.0407998
  22.1878397  41.0047457  75.5690085  21.9978915  40.2462203  75.6241629
  22.1965000  36.7328355  75.6991162  21.8379655  36.9042998  76.4755194
  21.7103711  37.1941561  75.1419160  22.0723697  36.8267326  75.7316431
  16.9853365  32.4127521  68.2391396  17.2745890  33.1892403  68.5134971
  17.0725164  31.9016252  68.9405896  17.0407621  32.4519439  68.3833894
  22.8015630  39.5713859  79.1915166  22.6035319  40.0604674  78.4971377
  22.1803341  39.7755101  79.7699299  22.6803195  39.6730398  79.1738389
  21.7784984  27.8060784  72.4945083  21.2508003  27.8889528  71.8050792
  22.2380692  28.5478655  72.4909728  21.7686835  27.9281446  72.3919778
  13.7718049  26.0763304  67.5185978  13.4230854  26.7283029  67.9817528
  13.2914495  26.0620417  66.7909850  13.6488293  26.1706357  67.4797070
  21.3322067  36.3764348  71.6254740  22.0556266  36.8422461  71.4819314
  20.8922658  36.4437957  70.8752337  21.3737759  36.4548184  71.4939522
  14.1742180  29.5688945  70.3604600  14.8087260  30.1649370  70.2954061
  14.2567791  29.2692403  71.1750470  14.2798731  29.6129853  70.4707686
  21.5925916  40.4385052  71.7852801  20.8755226  40.2645915  71.3200039
  22.2432654  40.2037625  71.2528287  21.5827767  40.3780845  71.6382019
  16.8739078  41.6746811  78.2142949  16.4599477  41.0120941  77.8246791
  17.5586452  41.8224670  77.6938643  16.9137450  41.5987469  78.0799446
  20.2404372  40.8336896  78.9666566  19.8420656  40.9439167  78.1987386
  19.6255592  41.0418963  79.5493126  20.0903262  40.8810464  78.9397865
  27.9746215  35.4088863  72.3509657  28.3579821  36.1580219  72.5807754
  27.1790328  35.6554683  72.0921646  27.9139997  35.5558557  72.3467230
  16.7861507  28.0808295  69.9270035  17.1660471  28.0987924  69.1421150
  16.0454103  28.5262284  69.8060883  16.7330344  28.1490069  69.7933604
  17.5846261  34.9185801  71.3178825  16.7757583  34.5952475  71.2712135
  18.0921170  34.2119023  71.2507074  17.5395927  34.7667117  71.3009120
  37.4663991  45.9859798  74.4440017  37.4357995  46.8404435  74.6158287
  38.0645339  45.6855091  75.0026161  37.5501148  46.0676295  74.5514820
  30.6663675  45.0735449  79.1992948  29.8101571  45.2343947  79.2502065
  30.7131329  44.2027513  79.2198009  30.5462787  44.9686251  79.2099014
  25.0504815  54.6098167  74.9630179  24.2987715  54.2313705  74.7346224
  25.4990827  54.6416601  74.2148990  25.0054482  54.5583774  74.8187682
  30.5029775  55.0323537  70.3915727  30.1681143  55.7100458  69.9559949
  31.0156645  54.6428848  69.8032598  30.5295356  55.0748115  70.2402518
  30.0434066  56.9837805  76.3326838  30.4273446  57.5524704  75.7931613
  29.9793207  56.2587316  75.8532654  30.0907493  56.9613269  76.1820701
  33.5115496  47.1327493  81.8424599  34.0571456  47.8112580  81.9018569
  33.4532373  46.9914954  80.9826181  33.5831411  47.2119495  81.7236660
  26.6289571  54.6216559  77.2292952  26.7299934  53.8116913  77.5390080
  26.0331317  54.5273506  76.5992630  26.5562110  54.4881587  77.1819190
  35.2880565  48.5612100  72.7158327  35.1720091  49.3119786  73.1450465
  36.0836452  48.3036053  72.9654414  35.3885154  48.6346947  72.8162419
  26.4690311  59.5394148  78.6307808  27.1127766  59.9807312  79.0203966
  26.7946566  58.7347575  78.5438067  26.6122140  59.4859343  78.6753285
  19.8254616  50.6436846  76.8545286  19.5904800  49.8104498  76.7477554
  19.9640256  50.9241511  76.0406487  19.8110278  50.5620349  76.7187641
  22.1244703  42.8122576  79.7529593  21.5049735  42.2215224  79.5839608
  22.0228567  43.4034012  79.1193917  22.0182379  42.8126659  79.6334583
  27.1710891  52.5506123  74.0027670  27.4926732  53.0911331  73.3988978
  27.8182987  51.9802895  74.1349959  27.3136946  52.5465298  73.9334705
  29.2212599  44.5522118  74.0862056  29.9192763  44.7310246  74.5783520
  29.5364931  44.0292458  73.4632446  29.3707936  44.5015890  74.0664067
  21.8513836  46.3574858  81.9973162  21.7272533  46.9437304  82.6322981
  22.5032121  45.8635054  82.2985437  21.9287485  46.3713663  82.1359092
  29.4100534  50.9392563  74.0741848  29.8494169  50.3309664  74.5196621
  29.2605197  50.5599937  73.3027313  29.4522000  50.7931034  74.0261015
  26.8772177  49.5336575  81.2760673  27.5221180  49.0409018  80.9571622
  27.1173954  49.6761362  82.1026752  27.0082762  49.4814017  81.3510207
  29.4158268  52.3791481  80.9267566  29.6981511  51.5842887  80.7054322
  30.1444429  52.8572068  80.9472627  29.5647832  52.3326078  80.8970581
  27.3939462  39.9214515  78.1683331  27.0642792  40.3725658  77.4987030
  26.7184464  39.8430678  78.7156337  27.2449899  39.9765650  78.1506554
  33.0109871  49.2919744  71.0272617  32.9261166  50.1480711  71.1722186
  33.4994254  49.0164069  71.6954776  33.0698768  49.3777066  71.1474699
  34.6015870  35.9100038  76.4132942  34.2869311  36.6003516  76.8453364
  34.0842812  35.8544820  75.7118442  34.4780340  36.0034926  76.3729891
  33.9428304  45.9104539  72.5270352  33.4139775  46.1264172  73.1867658
  34.4653324  46.6040677  72.4471322  33.9416757  46.0447676  72.6125951
  39.3976357  51.4850843  77.9003397  38.5674060  51.6961487  78.0636813
  39.3485609  50.6587898  77.6245680  39.2683092  51.3940449  77.8840762
  25.8327912  49.8067755  71.3277820  25.2485127  50.3117787  71.7343684
  25.4298007  49.5810142  70.5874412  25.6867215  49.8476004  71.2782845
  21.3871940  55.5222517  78.1301492  20.9039518  56.2473006  78.1061075
  22.1995258  55.8198647  78.2411649  21.4362688  55.6724870  78.1428771
  27.4586094  54.3154697  80.7351306  26.9413036  53.9562112  80.1312614
  28.1560486  53.7916872  80.7457372  27.4851675  54.1852385  80.6481565
  30.2905126  46.0533408  69.8046741  30.5301130  46.2611391  68.9922084
  30.6120967  45.2490916  69.9135685  30.3742284  45.9647509  69.7007294
  25.5995416  37.9826803  73.6506279  26.3541384  38.3505120  73.4123329
  25.4222951  38.3566358  74.4185458  25.6849895  38.0924991  73.7291167
  24.2416137  56.0378692  78.2821772  24.9436717  55.5230682  78.3394528
  24.1613621  56.3652844  79.0868647  24.3339898  56.0092919  78.4094564
  38.8930315  44.1321244  81.6953818  38.0558736  44.2023431  81.9301413
  38.8618546  44.1345739  80.8228120  38.7648597  44.1431471  81.6013366
  23.9552481  40.3897122  70.3484392  23.7728054  40.6069003  69.5225385
  24.8178094  40.5036135  70.4043006  24.0557070  40.4387020  70.2338879
  23.5666913  52.2285044  77.7907380  24.4055812  52.4607977  77.8381141
  23.5978682  51.3589356  77.7214415  23.6948630  52.1341991  77.7872024
  24.1919616  52.6485920  82.0920685  24.7317841  52.5057051  82.7624058
  23.5089562  53.0482670  82.4604711  24.1711770  52.6865591  82.2455107
  29.6352200  37.3923533  73.3833416  30.3638361  37.2139488  72.9371572
  29.7247093  38.2341613  73.5940594  29.7558862  37.4907411  73.3486933
  33.6160501  48.3276920  77.2865710  34.3718016  48.7608435  77.3254618
  33.7222825  47.6781690  77.8600346  33.7430671  48.2954404  77.3763735
  36.6540672  52.1550198  78.0368112  36.2175904  52.1586940  78.7927084
  36.3203587  52.8355697  77.6047690  36.5403292  52.2562653  78.0848945
  36.5738155  39.1964025  80.2797540  37.2164063  39.2662130  80.8659456
  36.8261176  38.5293248  79.7777082  36.7060287  39.1090374  80.2924820
  23.5014508  43.6671295  68.8606865  22.7872685  43.3809474  69.2729297
  23.9858477  44.0067921  69.5013252  23.4673871  43.6752945  69.0162500
  39.7885018  48.8731117  76.9287750  40.4501452  48.3121786  76.8283658
  39.1476430  48.3783148  77.2540441  39.7913886  48.7167526  76.9620090
  30.6761826  52.1701249  69.2368673  31.0912974  51.8386273  68.5453169
  29.8453755  51.9370151  69.1088810  30.6149835  52.0872505  69.1159520
  20.0050175  49.6544990  79.5266851  19.8225748  49.6291876  78.6739143
  20.7399844  50.1243928  79.5655760  20.0864239  49.7206352  79.4064769
  36.0749849  49.8896500  76.6699739  36.3105438  50.0341699  75.8426589
  36.2239412  50.6538908  77.0631252  36.1315652  50.0235554  76.6063342
  37.9040306  48.7298166  74.5069342  38.2348523  49.2625806  73.9009437
  38.4773394  48.7837054  75.1631293  38.0373985  48.8167735  74.5147124
  33.1172195  46.5763068  75.1892922  33.2119049  47.3152363  75.6432548
  32.4931038  46.1480544  75.6227487  33.0381225  46.6224389  75.3201070
  19.9721085  46.5338491  79.6765918  20.5494588  46.3974941  80.3158163
  19.2735147  46.0774275  79.9311502  19.9542106  46.4460757  79.8088207
  33.3695216  48.4211808  68.4229874  33.2875379  48.4913995  69.2884861
  34.0074936  48.9841552  68.2313615  33.4515053  48.5150779  68.5219824
  26.7288387  48.1872546  77.8904401  26.4707631  47.3544281  77.8635700
  26.7836870  48.4130159  77.0496901  26.6988165  48.0970317  77.7624538
  31.8089437  40.2900997  77.9908493  31.1045764  39.8010182  78.1492413
  31.8574412  40.3023471  77.1196938  31.7119489  40.2190645  77.8847833
  25.7023099  45.7410309  78.3769295  25.1272691  45.9002477  79.0133256
  25.3258776  45.1045718  77.9137746  25.5625912  45.6708122  78.4023854
  29.3696388  44.2133658  83.2361674  28.9810821  43.7887876  82.5813865
  28.7051086  44.4615808  83.7438701  29.2143316  44.1872379  83.2149542
  39.0119657  43.9708663  76.0109504  38.7556222  43.1588604  75.8207387
  39.8548971  43.9786230  75.7839691  39.0985682  43.8520660  75.9494321
  15.4479918  45.3850383  76.3913736  15.5340170  45.0082252  77.1727266
  16.0755716  45.0110829  75.9133694  15.5536469  45.2735866  76.4359213
  33.1922749  37.9108287  80.7485658  33.5733261  37.2286458  81.1353532
  32.3886034  37.6217889  80.5661323  33.1299211  37.7675335  80.7789714
  30.4735326  48.4432263  71.4338481  31.2875965  48.7347155  71.3221252
  30.4094467  47.7892125  70.8596774  30.5838065  48.3897457  71.3327318
  26.3443234  51.9153780  76.5610793  26.9817181  51.6765528  77.1062586
  26.7698306  52.1190939  75.8263954  26.5019401  51.9104790  76.5327950
  26.9846049  47.1356070  70.8985682  27.3691202  46.9163776  71.6502227
  26.7357670  47.9619015  71.0286759  27.0048122  47.2254216  71.0286759
  28.7264706  52.3926203  78.2404579  28.8003715  52.2301374  79.0946429
  29.5434213  52.5816392  77.9965061  28.8581065  52.3962945  78.3302605
  22.4870463  52.7384065  75.2699023  21.6608581  52.9845803  75.1433302
  22.5482454  52.6596146  76.1361081  22.3744630  52.7629014  75.3787967
  24.7046487  38.8053006  76.2294463  23.8368912  38.8775606  76.2952072
  24.9921691  39.6075085  76.4182438  24.6186235  38.9347154  76.2669230
  33.8279376  38.9530866  84.5605785  34.5732968  38.7640676  84.1469210
  33.4116680  39.4789104  84.0019641  33.8764350  39.0033011  84.4170358
  27.2669292  55.3560946  72.9718053  27.5567591  54.9649927  72.2477279
  27.9972773  55.5377651  73.4123328  27.4176176  55.3254759  72.9300860
  41.2041646  46.3240094  79.5111290  41.7549568  45.6908163  79.7508382
  41.1885762  46.8555487  80.2026794  41.2826843  46.3089042  79.6490148
  27.8564037  50.1578692  84.0571183  27.3575731  50.8694459  84.1356072
  28.6664262  50.4779358  84.0189346  27.9020144  50.3105540  84.0627752
  25.2075208  57.3328328  76.0378202  24.9875503  57.0425683  76.8304869
  24.9869730  56.6743283  75.5096115  25.1422802  57.1928036  76.0767111
  24.1192155  49.4201645  78.3033904  23.8305404  48.7939116  78.8379631
  24.9875503  49.3621932  78.3698585  24.2052407  49.3189189  78.3924859
  34.9070053  44.5636428  78.6215886  34.5634819  43.8426763  78.9723136
  35.0063095  44.3550279  77.7794244  34.8712096  44.4260631  78.5487566
  27.3743163  58.7057718  74.8208895  28.0267221  58.1734160  75.0499921
  26.6768772  58.3526370  75.2076769  27.3673881  58.5747241  74.9121063
  24.3224428  51.0596896  74.2276269  25.0770396  51.4409935  74.4411732
  23.7295041  51.5108039  74.6822966  24.3461142  51.1825723  74.3259148
  35.3683082  51.0262132  74.1639874  35.9341114  51.6855342  74.0798417
  34.7210985  51.3711830  74.6356276  35.3561838  51.1744073  74.2212631
  25.6422655  52.2305457  79.6016385  25.1203408  52.3705749  80.2868249
  26.0296675  51.4716121  79.7918502  25.6226356  52.1390981  79.7317461
  22.6313839  42.2811266  73.6711339  22.3438635  41.9112536  72.9343286
  23.3184307  42.7506121  73.4095044  22.6902736  42.2958235  73.5226415
  31.8389660  53.9700916  73.5876953  31.5976336  53.2368777  73.1804018
  32.0190993  54.5187773  72.9343287  31.8297284  53.9423307  73.4307176
  27.0688980  49.2609476  74.9997876  26.8731763  49.8684211  74.4058179
  27.2923326  48.5677420  74.5189549  27.0723622  49.2487002  74.8413956
  25.4667511  46.1464214  75.1178744  26.1890162  46.3105372  74.6582550
  24.9875503  46.8673879  75.0118084  25.5031241  46.2762444  75.0344358
  33.4261018  42.4828013  80.4975429  32.5872119  42.5089292  80.2613692
  33.4965385  43.1298748  81.0780775  33.3129412  42.5824139  80.5484546
  31.8730296  39.3813390  75.2303045  32.5756649  39.1821138  74.7523003
  31.6074485  38.6089332  75.5371888  31.9376929  39.2376356  75.2048486
  37.3018542  47.6896000  77.7836671  37.2152516  47.8451426  78.6371449
  36.8469022  48.3334075  77.4096076  37.2221799  47.8071755  77.8543777
  20.2042034  43.0592478  74.5196620  20.3058170  43.8618640  74.8477596
  20.9997920  42.8579814  74.2219701  20.3369939  43.1478377  74.5231976
  31.1744358  45.0106747  76.4062230  30.9279072  44.9302498  77.2399019
  31.5029481  44.2260214  76.2124758  31.1865602  44.8833012  76.5009753
  35.0692407  51.7190106  80.1949011  34.9306766  52.4171152  80.6997754
  34.2892405  51.5638762  79.8385193  34.9335634  51.7990273  80.2175285
  27.1341385  47.7463465  85.8185213  27.2784761  48.3264673  85.1828323
  27.4817034  48.1239762  86.5235068  27.2068847  47.8884169  85.8284208
  29.3061303  46.9453634  83.6010345  28.5584617  47.1384648  83.1958623
  29.4602828  46.1198853  83.3634466  29.2183730  46.8518745  83.5055751
  26.2069140  55.9366237  82.6846240  26.3558704  55.3769153  82.0319644
  26.9869142  56.0158239  83.0678759  26.3443234  55.8651802  82.6443189
  36.5645780  51.0768360  70.9565511  36.1852588  50.2905498  70.9494800
  35.9012025  51.6255217  70.8137155  36.4104254  51.0413184  70.9346307
  34.0190406  34.0194059  78.3599591  34.1373974  34.4770523  77.6266894
  33.8452581  33.2139321  78.0735809  34.0109577  33.9687832  78.2100525
  29.3892688  54.6281879  74.7954337  30.1542579  54.3591523  74.4737001
  29.2870778  54.1431889  75.5124400  29.4874183  54.5171443  74.8534164
  27.4245458  42.8306288  81.3347573  26.6341532  42.6497748  81.6564908
  27.8206080  42.0533241  81.3177867  27.3662334  42.6893749  81.3800121
  32.8089144  50.4648718  79.0607018  32.1334146  50.2333951  79.5620405
  32.8181520  49.8569901  78.4349123  32.7107648  50.3407644  79.0423171
  29.9383288  45.3066547  85.8171071  29.8742429  46.1676504  85.6891208
  30.0780476  44.9898541  85.0166623  29.9498758  45.3866714  85.6799284
  34.8105878  53.3213851  71.2917196  34.8925716  54.1280837  70.9678647
  35.2955621  53.3409810  72.0157970  34.8943036  53.4434513  71.3504095
  28.6202382  47.9998687  79.9587274  28.1964631  48.2003186  79.2226293
  28.4447237  47.1527535  80.0711574  28.5313262  47.9047468  79.8660964
  23.9084827  48.4950738  75.3915247  24.0649446  48.4297541  76.2471239
  24.2485420  49.2699291  75.1793926  23.9818062  48.5999936  75.4869841
  30.4463971  47.8708622  74.2608610  30.9879517  47.3679003  74.7247231
  30.7610530  47.8173816  73.4498095  30.5728368  47.7888043  74.2092422
  28.6150421  53.2625973  71.5448638  28.6843241  52.4040512  71.6841638
  29.3938876  53.4797854  71.2167663  28.7403271  53.1678837  71.5165795
  31.5953241  42.7644926  84.3130911  31.8095210  42.1255840  83.7594265
  30.9787140  43.2090750  83.8838772  31.5358570  42.7355070  84.1681342
  33.0057909  55.6863675  75.7585131  32.6137700  55.3830390  75.0407998
  33.1610981  56.5232764  75.5690085  32.9711498  55.7647511  75.6241629
  20.4819088  45.6785689  75.7076014  20.8618053  46.0970234  75.0436281
  19.9074453  46.2599144  76.0144857  20.4530413  45.8263547  75.6552755
  33.7592329  44.3733991  85.2514218  32.9469010  44.0659882  85.3327390
  34.2182263  43.8932992  85.8156930  33.7072713  44.2570484  85.3468812
  33.1697583  52.2513663  75.6991162  32.8112238  52.4228306  76.4755194
  32.6836294  52.7126869  75.1419160  33.0456280  52.3452634  75.7316431
  30.9867969  35.8744862  79.3018253  30.1161527  35.8483583  79.2551563
  31.2408311  35.7022054  78.4844099  30.8961529  35.8455006  79.1738390
  27.9585949  47.9312829  68.2391396  28.2478474  48.7077711  68.5134971
  28.0457748  47.4201560  68.9405896  28.0140205  47.9704747  68.3833894
  28.0117110  37.8851090  80.7591724  27.4955598  37.1931282  80.8843303
  27.4511039  38.5521867  80.7054322  27.8523623  37.8814348  80.7697790
  36.0559323  44.9906705  81.2124278  35.6286931  44.9033054  80.4572378
  35.4185376  45.0984481  81.7979123  35.8988930  44.9939365  81.1869720
  24.1249890  47.2446093  80.3391508  23.2837896  47.1449968  80.5470402
  24.3339898  48.0141574  80.6905829  24.0314582  47.3438137  80.4218823
  21.6025457  44.8665630  78.1676259  21.2082154  44.9408642  77.3926369
  21.0465574  45.2523577  78.7184621  21.4628269  44.9347405  78.1343919
  33.2390403  37.8446924  77.8480138  33.4439997  37.7769232  78.6937135
  32.9116827  38.6505746  77.7801315  33.2205651  37.9532865  77.9639793
  27.9366555  45.1727493  79.5889106  27.6329692  44.6183481  80.1899514
  27.2345975  45.3519702  79.1017140  27.7882764  45.1172275  79.6058812
  26.9932652  42.4828012  74.1533808  27.2692386  41.7646925  73.7411375
  27.5931321  43.0812932  73.9454914  27.1225916  42.4648383  74.0614569
  36.4924091  38.3978689  77.3282903  35.8798405  38.8849091  77.7136635
  36.5888266  37.7222179  77.8720555  36.4161989  38.3696997  77.4661762
  30.4943172  40.1541530  72.4280403  30.9486919  40.3252090  73.1528247
  30.9683218  39.5409640  72.0278179  30.6311492  40.0892415  72.4754164
  24.0158698  49.6389856  81.7583141  23.4246631  50.2799354  81.7286156
  24.7779721  50.0627473  81.7314441  24.0406958  49.7965694  81.7498289
  33.7748214  55.0899167  79.1915166  33.5767903  55.5789982  78.4971377
  33.1535925  55.2940409  79.7699299  33.6535778  55.1915705  79.1738389
  27.8356192  46.8584064  73.5325410  28.5798237  47.2458340  73.7708360
  27.9816888  46.0141489  73.6965898  27.9666777  46.7914537  73.5919380
  29.7535768  38.6534323  78.5657271  28.9071813  38.8257131  78.4398621
  29.7506900  37.8483667  78.9023100  29.6282918  38.5595352  78.5968398
  30.8234068  42.4309537  79.4319329  30.3494022  41.9051299  79.9424640
  31.1952204  41.8839010  78.8634191  30.8083957  42.2725534  79.4234477
  37.0870799  47.4911913  80.8426110  36.8469022  46.6518328  80.8468536
  37.5662806  47.5712080  81.5666883  37.1222982  47.3793313  80.9500912
  32.7517568  43.3246092  72.4945083  32.2240586  43.4074836  71.8050792
  33.2113276  44.0663963  72.4909728  32.7419418  43.4466754  72.3919778
  39.0875986  44.2713370  78.7955369  38.8485756  44.2309204  77.9576154
  39.2509887  45.1184522  78.9221090  39.0766289  44.3905455  78.6908851
  24.5608884  43.2523493  81.4613293  23.9361954  43.2641885  80.8539246
  24.2254479  43.7283668  82.1104534  24.4194376  43.3242010  81.4669862
  24.7450633  41.5948612  67.5185978  24.3963437  42.2468337  67.9817528
  24.2647079  41.5805725  66.7909850  24.6220877  41.6891665  67.4797070
  32.3054650  51.8949656  71.6254740  33.0288849  52.3607768  71.4819314
  31.8655241  51.9623265  70.8752337  32.3470342  51.9733492  71.4939522
  31.4740805  48.7547198  82.8755429  30.8597798  48.2105248  83.1704065
  31.9908090  48.2411434  82.3961245  31.4596468  48.5983607  82.8479658
  30.7137102  49.8251468  80.6099728  30.2864711  49.2001186  80.1765163
  30.7062047  49.5426390  81.4358735  30.6496244  49.6904248  80.6679555
  29.0422812  40.7020222  80.8242262  29.0665299  40.1680335  80.1355042
  29.2934286  40.1937531  81.4867852  29.0832731  40.5481126  80.8206907
  25.3224134  39.4291041  80.2048006  25.3622506  39.9300247  80.9182714
  24.4973799  39.5201434  79.9353929  25.2063660  39.5172857  80.2698544
  26.7438498  45.9451550  82.5021905  25.9130427  46.1125368  82.2957153
  26.6890015  45.5687501  83.2870790  26.6127913  45.9141282  82.5870433
  25.1174542  44.2207142  73.0312023  25.2577503  44.7179606  73.7340664
  25.6157074  43.5193436  73.1726237  25.2115623  44.1909121  73.1563602
  25.1474764  45.0874253  70.3604600  25.7819843  45.6834678  70.2954061
  25.2300375  44.7877711  71.1750470  25.2531315  45.1315161  70.4707686
  26.7253747  41.0188228  70.3350042  27.0469588  40.5391311  69.6809304
  26.9880691  41.8287874  70.1440853  26.8119772  41.0678126  70.2105534
  29.9550720  52.0407103  83.8548858  29.4475811  52.5942950  84.2989488
  29.6577366  52.1015393  83.0367632  29.8355605  52.1313414  83.7997315
  32.1212902  40.4060422  82.6973521  32.5467973  39.9532949  82.0857047
  31.5069895  39.8520493  82.9738308  32.0941547  40.2574399  82.6478546
  21.6527752  47.2842094  73.6294146  22.1619981  47.8806601  74.0105451
  22.1262024  47.0168067  72.9470565  21.7971128  47.3327909  73.5848668
  32.5658500  55.9570360  71.7852801  31.8487810  55.7831223  71.3200039
  33.2165238  55.7222933  71.2528287  32.5560350  55.8966153  71.6382019
  30.5607125  36.8775522  76.1064098  29.9175443  36.7273168  76.6749236
  30.2206532  36.6317867  75.3413202  30.4152202  36.8187645  76.0767113
  35.1506471  44.8334949  75.5294106  34.4797661  45.3764651  75.4007172
  35.8446221  45.3029804  75.2875801  35.1535339  44.9833220  75.4749634
  29.1993205  56.9731661  80.7605865  28.9758859  56.2150490  81.1289891
  28.7103048  57.0029682  80.0386304  29.0936654  56.8653885  80.7082606
  35.3134599  41.2890833  78.4384480  35.6662209  40.8620556  79.1130278
  34.4549400  41.2041676  78.5685556  35.2384043  41.2135573  78.5579490
  24.0118284  43.9198352  76.4967326  23.2930273  44.3362485  76.7640190
  24.3830646  44.4852591  75.9458964  23.9610215  44.0647634  76.4550133
  33.3117864  44.5526201  82.3869322  33.2915792  44.3709496  83.2404101
  33.3597065  45.4238220  82.3628906  33.3152505  44.6542739  82.5092617
  27.8471662  57.1932119  78.2142949  27.4332060  56.5306249  77.8246791
  28.5319036  57.3409978  77.6938643  27.8870034  57.1172777  78.0799446
  31.2136956  56.3522204  78.9666566  30.8153239  56.4624475  78.1987386
  30.5988176  56.5604271  79.5493126  31.0635845  56.3995772  78.9397865
  29.7864858  42.9596352  71.8340706  29.1929697  43.2813349  71.2825273
  29.8240136  42.1137448  71.6261812  29.7039247  42.8820680  71.7223477
  36.7458659  36.4109244  79.3668792  36.2389523  35.7038384  79.2989970
  37.5426092  36.0802433  79.4969869  36.7885898  36.2582396  79.3767787
  32.6622675  42.9175857  75.2642456  32.4336368  42.9408558  74.4220814
  32.9220751  42.0933324  75.3837466  32.6668863  42.7991937  75.1567654
  25.7167437  41.4552403  76.5596652  26.1924803  41.8169483  75.9246833
  25.2156037  42.1108871  76.8396794  25.7132796  41.6046592  76.5073392
  38.9478799  50.9274171  72.3509657  39.3312404  51.6765527  72.5807754
  38.1522912  51.1739991  72.0921646  38.8872581  51.0743865  72.3467230
  27.7594090  43.5993603  69.9270035  28.1393055  43.6173232  69.1421150
  27.0186686  44.0447592  69.8060883  27.7062928  43.6675377  69.7933604
  35.3879381  41.9075794  75.5145614  35.3873607  41.7524451  76.3729891
  35.1835561  42.7538781  75.4587000  35.3579159  42.0096415  75.6333554
  17.4496652  45.3315578  79.9304431  17.2718413  44.8792187  80.6559346
  17.1615674  46.1341740  80.1142908  17.3809605  45.3838136  80.0647934
  33.1120233  46.5873296  79.1681821  33.6073898  45.8696291  79.1285841
  32.3020009  46.2844093  79.0536308  33.0664126  46.4370942  79.1455547
  28.5578844  50.4371109  71.3178825  27.7490167  50.1137783  71.2712135
  29.0653753  49.7304331  71.2507074  28.5128511  50.2852425  71.3009120
  19.1869122  47.8643302  77.0426190  18.3214641  47.8528993  76.9308961
  19.2867937  47.6773525  77.8897329  19.0743289  47.8349363  77.1515134
  24.8126131  57.6341201  80.6156295  25.1272690  58.4477589  80.6234077
  25.2219545  57.2491419  81.2838454  24.9194229  57.6969903  80.7160387
  31.7650651  53.0511248  78.1860107  32.2361829  53.7651510  78.3550092
  32.1010830  52.4509998  78.7219977  31.8845766  53.0682712  78.2892483
  35.2118462  40.9114536  82.3338992  34.6281451  41.4123743  81.9216560
  35.5322756  40.4044092  81.7003316  35.1731637  40.9106371  82.1797499
  27.7513261  39.8255131  72.6097667  28.5728955  39.9953444  72.3679362
  27.2882912  39.9802392  71.8863965  27.8044423  39.8736864  72.4669311
  22.1539152  51.5814309  80.2634904  22.7584009  51.5410143  79.6348724
  21.9466464  52.4285461  80.2938960  22.2128049  51.7002312  80.1751020
  31.9682924  53.8480254  81.4797141  32.7881298  53.7043220  81.7413436
  31.6877001  54.4726453  82.0213579  32.0479667  53.9190606  81.5985081
  40.1945182  60.0707426  74.0862056  40.8925347  60.2495554  74.5783520
  40.5097515  59.5477765  73.4632446  40.3440519  60.0201198  74.0664067
  38.3672046  55.4399823  78.1683331  38.0375376  55.8910966  77.4987030
  37.6917048  55.3615986  78.7156337  38.2182482  55.4950958  78.1506554
  45.5748454  51.4285346  76.4132942  45.2601895  52.1188824  76.8453364
  45.0575395  51.3730128  75.7118442  45.4512924  51.5220234  76.3729891
  36.8060495  65.3253063  71.3277820  36.2217710  65.8303095  71.7343684
  36.4030590  65.0995450  70.5874412  36.6599799  65.3661312  71.2782845
  41.2637710  61.5718715  69.8046741  41.5033713  61.7796699  68.9922084
  41.5853551  60.7676224  69.9135685  41.3474867  61.4832817  69.7007294
  36.5728000  53.5012111  73.6506279  37.3273968  53.8690428  73.4123329
  36.3955534  53.8751666  74.4185458  36.6582478  53.6110299  73.7291167
  34.9285064  55.9082430  70.3484392  34.7460638  56.1254311  69.5225385
  35.7910678  56.0221443  70.4043006  35.0289654  55.9572328  70.2338879
  40.6084784  52.9108841  73.3833416  41.3370944  52.7324796  72.9371572
  40.6979677  53.7526921  73.5940594  40.7291446  53.0092719  73.3486933
  34.4747092  59.1856603  68.8606865  33.7605269  58.8994782  69.2729297
  34.9591060  59.5253229  69.5013252  34.4406455  59.1938252  69.0162500
  41.6494409  67.6886557  69.2368673  42.0645558  67.3571581  68.5453169
  40.8186339  67.4555459  69.1088810  41.5882418  67.6057813  69.1159520
  44.3427800  63.9397116  68.4229874  44.2607962  64.0099303  69.2884861
  44.9807520  64.5026860  68.2313615  44.4247637  64.0336087  68.5219824
  26.4212502  60.9035691  76.3913736  26.5072754  60.5267560  77.1727266
  27.0488299  60.5296137  75.9133694  26.5269053  60.7921174  76.4359213
  41.4467910  63.9617570  71.4338481  42.2608549  64.2532463  71.3221252
  41.3827051  63.3077433  70.8596774  41.5570649  63.9082765  71.3327318
  37.9578633  62.6541378  70.8985682  38.3423786  62.4349084  71.6502227
  37.7090253  63.4804323  71.0286759  37.9780706  62.7439524  71.0286759
  35.6779070  54.3238314  76.2294463  34.8101496  54.3960914  76.2952072
  35.9654275  55.1260393  76.4182438  35.5918819  54.4532461  76.2669230
  33.6046423  57.7996574  73.6711339  33.3171218  57.4297844  72.9343286
  34.2916891  58.2691429  73.4095044  33.6635320  57.8143543  73.5226415
  36.4400094  61.6649522  75.1178744  37.1622746  61.8290680  74.6582550
  35.9608087  62.3859187  75.0118084  36.4763825  61.7947751  75.0344358
  42.8462880  54.8998698  75.2303045  43.5489233  54.7006446  74.7523003
  42.5807069  54.1274640  75.5371888  42.9109512  54.7561664  75.2048486
  31.1774617  58.5777786  74.5196620  31.2790754  59.3803948  74.8477596
  31.9730504  58.3765122  74.2219701  31.3102523  58.6663685  74.5231976
  44.9922989  49.5379367  78.3599591  45.1106557  49.9955831  77.6266894
  44.8185165  48.7324629  78.0735809  44.9842160  49.4873140  78.2100525
  42.8843932  67.1779370  66.7754286  43.6516917  67.2379495  66.3660138
  42.4375241  66.6059812  66.2910605  42.9317359  67.1015946  66.6431996
  31.4551672  61.1970997  75.7076014  31.8350637  61.6155541  75.0436281
  30.8807037  61.7784452  76.0144857  31.4262997  61.3448855  75.6552755
  41.9600553  51.3930170  79.3018253  41.0894111  51.3668891  79.2551563
  42.2140894  51.2207362  78.4844099  41.8694113  51.3640314  79.1738390
  38.9318532  63.4498137  68.2391396  39.2211057  64.2263019  68.5134971
  39.0190331  62.9386868  68.9405896  38.9872789  63.4890055  68.3833894
  37.9665235  58.0013320  74.1533808  38.2424970  57.2832233  73.7411375
  38.5663905  58.5998240  73.9454914  38.0958500  57.9833691  74.0614569
  41.4675756  55.6726838  72.4280403  41.9219502  55.8437398  73.1528247
  41.9415802  55.0594948  72.0278179  41.6044076  55.6077723  72.4754164
  38.8088776  62.3769372  73.5325410  39.5530821  62.7643648  73.7708360
  38.9549472  61.5326797  73.6965898  38.9399361  62.3099845  73.5919380
  40.7268351  54.1719631  78.5657271  39.8804396  54.3442439  78.4398621
  40.7239484  53.3668975  78.9023100  40.6015501  54.0780660  78.5968398
  43.7250151  58.8431400  72.4945083  43.1973170  58.9260144  71.8050792
  44.1845859  59.5849271  72.4909728  43.7152002  58.9652062  72.3919778
  35.7183216  57.1133919  67.5185978  35.3696021  57.7653645  67.9817528
  35.2379662  57.0991033  66.7909850  35.5953460  57.2076973  67.4797070
  36.0907125  59.7392450  73.0312023  36.2310086  60.2364914  73.7340664
  36.5889658  59.0378744  73.1726237  36.1848206  59.7094429  73.1563602
  36.1207348  60.6059561  70.3604600  36.7552427  61.2019986  70.2954061
  36.2032958  60.3063019  71.1750470  36.2263899  60.6500469  70.4707686
  37.6986330  56.5373536  70.3350042  38.0202171  56.0576619  69.6809304
  37.9613274  57.3473182  70.1440853  37.7852356  56.5863434  70.2105534
  32.6260335  62.8027402  73.6294146  33.1352565  63.3991909  74.0105451
  33.0994608  62.5353375  72.9470565  32.7703711  62.8513217  73.5848668
  41.5339708  52.3960830  76.1064098  40.8908026  52.2458476  76.6749236
  41.1939115  52.1503175  75.3413202  41.3884786  52.3372953  76.0767113
  40.7597442  58.4781660  71.8340706  40.1662281  58.7998657  71.2825273
  40.7972719  57.6322756  71.6261812  40.6771831  58.4005988  71.7223477
  43.6355258  58.4361165  75.2642456  43.4068951  58.4593866  74.4220814
  43.8953334  57.6118632  75.3837466  43.6401446  58.3177245  75.1567654
  36.6900021  56.9737711  76.5596652  37.1657387  57.3354791  75.9246833
  36.1888620  57.6294178  76.8396794  36.6865380  57.1231900  76.5073392
  38.7326674  59.1178911  69.9270035  39.1125639  59.1358540  69.1421150
  37.9919270  59.5632900  69.8060883  38.6795512  59.1860685  69.7933604
  39.5311428  65.9556417  71.3178825  38.7222751  65.6323090  71.2712135
  40.0386337  65.2489639  71.2507074  39.4861095  65.8037733  71.3009120
  30.1601705  63.3828610  77.0426190  29.2947225  63.3714301  76.9308961
  30.2600521  63.1958833  77.8897329  30.0475872  63.3534671  77.1515134
  38.7245844  55.3440439  72.6097667  39.5461539  55.5138752  72.3679362
  38.2615495  55.4987700  71.8863965  38.7777007  55.3922172  72.4669311
  26.1882231   7.4052621  61.3780064  26.1576235   8.2597258  61.5498334
  26.7863580   7.1047914  61.9366208  26.2719389   7.4869118  61.4854867
  13.7723055  16.0290990  61.8970226  13.0205955  15.6506529  61.6686271
  14.2209067  16.0609424  61.1489037  13.7272722  15.9776597  61.7527728
  19.2248015  16.4516360  57.3255773  18.8899384  17.1293281  56.8899995
  19.7374886  16.0621671  56.7372645  19.2513596  16.4940938  57.1742565
  18.7652307  18.4030628  63.2666885  19.1491686  18.9717527  62.7271660
  18.7011448  17.6780139  62.7872701  18.8125734  18.3806092  63.1160747
  24.0098805   9.9804923  59.6498374  23.8938331  10.7312610  60.0790512
  24.8054692   9.7228877  59.8994461  24.1103395  10.0539770  59.7502466
  15.1908551  20.9586972  65.5647855  15.8346007  21.4000136  65.9544013
  15.5164807  20.1540398  65.4778114  15.3340380  20.9052166  65.6093332
  15.8929131  13.9698946  60.9367717  16.2144972  14.5104154  60.3329025
  16.5401227  13.3995718  61.0690006  16.0355186  13.9658122  60.8674752
  18.1318774  12.3585386  61.0081895  18.5712410  11.7502487  61.4536667
  17.9823437  11.9792760  60.2367360  18.1740240  12.2123858  60.9601062
  21.7328111  10.7112568  57.9612664  21.6479406  11.5673534  58.1062233
  22.2212494  10.4356892  58.6294823  21.7917008  10.7969889  58.0814745
  22.6646544   7.3297362  59.4610399  22.1358016   7.5456995  60.1207705
  23.1871564   8.0233500  59.3811368  22.6634997   7.4640499  59.5465998
  28.1194597  12.9043666  64.8343444  27.2892300  13.1154310  64.9976860
  28.0703849  12.0780721  64.5585727  27.9901332  12.8133273  64.8180809
  14.5546152  11.2260579  58.2617867  13.9703367  11.7310610  58.6683731
  14.1516247  11.0002966  57.5214459  14.4085456  11.2668827  58.2122892
  19.0123366   7.4726231  56.7386788  19.2519370   7.6804214  55.9262131
  19.3339207   6.6683739  56.8475732  19.0960524   7.3840332  56.6347341
  25.3758912  13.5743021  64.9708159  24.9394144  13.5779763  65.7267131
  25.0421828  14.2548520  64.5387737  25.2621532  13.6755477  65.0188992
  28.5103258  10.2923941  63.8627797  29.1719693   9.7314609  63.7623705
  27.8694670   9.7975971  64.1880488  28.5132126  10.1360350  63.8960137
  19.3980066  13.5894072  56.1708720  19.8131215  13.2579096  55.4793216
  18.5671996  13.3562974  56.0428856  19.3368075  13.5065328  56.0499567
  24.7968089  11.3089323  63.6039785  25.0323678  11.4534522  62.7766636
  24.9457653  12.0731731  63.9971299  24.8533892  11.4428377  63.5403389
  26.6258546  10.1490989  61.4409389  26.9566763  10.6818629  60.8349484
  27.1991634  10.2029877  62.0971340  26.7592225  10.2360558  61.4487171
  22.0913456   9.8404632  55.3569921  22.0093619   9.9106819  56.2224908
  22.7293177  10.4034375  55.1653662  22.1733294   9.9343603  55.4559871
  19.1953567   9.8625086  58.3678528  20.0094205  10.1539979  58.2561299
  19.1312708   9.2084948  57.7936821  19.3056306   9.8090281  58.2667365
  15.7064290   8.5548893  57.8325729  16.0909443   8.3356600  58.5842274
  15.4575910   9.3811838  57.9626806  15.7266362   8.6447039  57.9626806
  15.9887532  16.7753769  59.9058099  16.2785831  16.3842750  59.1817326
  16.7191013  16.9570474  60.3463375  16.1394417  16.7447583  59.8640906
  13.9293448  18.7521151  62.9718249  13.7093743  18.4618506  63.7644916
  13.7087970  18.0936106  62.4436162  13.8641042  18.6120860  63.0107158
  16.0961404  20.1250541  61.7548942  16.7485462  19.5926984  61.9839968
  15.3987013  19.7719194  62.1416816  16.0892122  19.9940064  61.8461109
  24.0901322  12.4454955  61.0979921  24.6559355  13.1048165  61.0138464
  23.4429226  12.7904653  61.5696323  24.0780079  12.5936897  61.1552677
  20.5607900  15.3893739  60.5217000  20.3194576  14.6561600  60.1144065
  20.7409233  15.9380596  59.8683333  20.5515524  15.3616131  60.3647223
  25.2864020  12.4961183  57.8905557  24.9070829  11.7098321  57.8834847
  24.6230265  13.0448040  57.7477202  25.1322495  12.4606007  57.8686354
  18.1110928  16.0474702  61.7294384  18.8760819  15.7784346  61.4077048
  18.0089018  15.5624712  62.4464446  18.2092424  15.9364267  61.7874211
  20.6329589  13.0786886  53.7094333  21.4002574  13.1387011  53.3000185
  20.1860898  12.5067327  53.2250651  20.6803016  13.0023461  53.5772043
  23.5324119  14.7406674  58.2257243  23.6143956  15.5473660  57.9018694
  24.0173861  14.7602633  58.9498017  23.6161277  14.8627336  58.2844142
  19.1682212   9.2901445  61.1948657  19.7097757   8.7871826  61.6587277
  19.4828771   9.2366640  60.3838142  19.2946609   9.2080866  61.1432469
  17.3368661  14.6818796  58.4788685  17.4061482  13.8233335  58.6181685
  18.1157117  14.8990677  58.1507709  17.4621511  14.5871660  58.4505842
  21.7276149  17.1056498  62.6925178  21.3355941  16.8023213  61.9748044
  21.8829221  17.9425588  62.5030132  21.6929739  17.1840334  62.5581675
  21.8915824  13.6706487  62.6331209  21.5330478  13.8421129  63.4095241
  21.4054535  14.1319692  62.0759207  21.7674521  13.7645458  62.6656478
  16.6804189   9.3505652  55.1731443  16.9696714  10.1270535  55.4475017
  16.7675988   8.8394383  55.8745942  16.7358445   9.3897570  55.3173941
  22.4966454  16.5091990  66.1255213  22.2986143  16.9982805  65.4311424
  21.8754165  16.7133232  66.7039346  22.3754019  16.6108529  66.1078436
  21.4735808   4.7438915  59.4285130  20.9458827   4.8267659  58.7390839
  21.9331516   5.4856787  59.4249775  21.4637659   4.8659578  59.3259825
  21.0272891  13.3142479  58.5594787  21.7507089  13.7800592  58.4159360
  20.5873482  13.3816088  57.8092384  21.0688583  13.3926315  58.4279568
  21.2876740  17.3763184  58.7192848  20.5706050  17.2024046  58.2540085
  21.9383478  17.1415756  58.1868334  21.2778591  17.3158976  58.5722066
  16.5689902  18.6124942  65.1482996  16.1550301  17.9499073  64.7586838
  17.2537276  18.7602801  64.6278690  16.6088274  18.5365601  65.0139493
  19.9355196  17.7715028  65.9006613  19.5371480  17.8817298  65.1327433
  19.3206416  17.9797094  66.4833172  19.7854086  17.8188596  65.8737912
  27.6697039  12.3466994  59.2849703  28.0530645  13.0958350  59.5147800
  26.8741152  12.5932814  59.0261692  27.6090821  12.4936688  59.2807277
  16.4812331   5.0186426  56.8610082  16.8611295   5.0366055  56.0761197
  15.7404927   5.4640415  56.7400930  16.4281168   5.0868201  56.7273650
  17.2797085  11.8563932  58.2518872  16.4708407  11.5330606  58.2052182
  17.7871994  11.1497154  58.1847121  17.2346751  11.7045249  58.2349167
  37.1614814  22.9237929  61.3780064  37.1308819  23.7782566  61.5498334
  37.7596163  22.6233222  61.9366208  37.2451972  23.0054426  61.4854867
  30.3614499  22.0113580  66.1332995  29.5052395  22.1722079  66.1842111
  30.4082153  21.1405644  66.1538056  30.2413611  21.9064382  66.1439061
  24.7455639  31.5476298  61.8970226  23.9938539  31.1691837  61.6686271
  25.1941651  31.5794732  61.1489037  24.7005306  31.4961905  61.7527728
  33.6708216  28.2800106  75.7393451  34.3774983  27.7852137  75.8680385
  33.8596151  28.7209187  75.0096109  33.8036121  28.2718456  75.6502496
  30.1980599  31.9701668  57.3255773  29.8631967  32.6478589  56.8899995
  30.7107469  31.5806979  56.7372645  30.2246180  32.0126246  57.1742565
  29.7384890  33.9215936  63.2666885  30.1224270  34.4902835  62.7271660
  29.6744031  33.1965447  62.7872701  29.7858317  33.8991400  63.1160747
  33.2066320  24.0705624  68.7764646  33.7522280  24.7490711  68.8358616
  33.1483197  23.9293085  67.9166228  33.2782235  24.1497626  68.6576707
  26.3240395  31.5594690  64.1632999  26.4250758  30.7495044  64.4730127
  25.7282140  31.4651637  63.5332677  26.2512934  31.4259718  64.1159237
  34.9831389  25.4990231  59.6498374  34.8670915  26.2497917  60.0790512
  35.7787276  25.2414185  59.8994461  35.0835978  25.5725078  59.7502466
  26.1641135  36.4772280  65.5647855  26.8078590  36.9185444  65.9544013
  26.4897390  35.6725706  65.4778114  26.3072963  36.4237474  65.6093332
  19.5205439  27.5814977  63.7885332  19.2855624  26.7482629  63.6817601
  19.6591080  27.8619643  62.9746533  19.5061102  27.4998480  63.6527687
  21.8195527  19.7500708  66.6869640  21.2000559  19.1593355  66.5179655
  21.7179391  20.3412143  66.0533963  21.7133202  19.7504790  66.5674630
  26.8661715  29.4884254  60.9367717  27.1877556  30.0289462  60.3329025
  27.5133811  28.9181026  61.0690006  27.0087770  29.4843430  60.8674752
  28.9163423  21.4900249  61.0202103  29.6143587  21.6688377  61.5123566
  29.2315755  20.9670589  60.3972493  29.0658760  21.4394021  61.0004113
  21.5464660  23.2952989  68.9313209  21.4223357  23.8815435  69.5663028
  22.1982944  22.8013185  69.2325484  21.6238309  23.3091794  69.0699138
  29.1051358  27.8770694  61.0081895  29.5444993  27.2687795  61.4536667
  28.9556021  27.4978068  60.2367360  29.1472824  27.7309165  60.9601062
  26.5723001  26.4714706  68.2100720  27.2172003  25.9787149  67.8911669
  26.8124778  26.6139493  69.0366798  26.7033586  26.4192148  68.2850253
  29.1109092  29.3169612  67.8607613  29.3932335  28.5221018  67.6394369
  29.8395253  29.7950200  67.8812674  29.2598656  29.2704209  67.8310628
  27.0890286  16.8592646  65.1023378  26.7593616  17.3103790  64.4327077
  26.4135288  16.7808809  65.6496384  26.9400722  16.9143781  65.0846601
  32.7060695  26.2297876  57.9612664  32.6211990  27.0858842  58.1062233
  33.1945078  25.9542200  58.6294823  32.7649592  26.3155197  58.0814745
  34.2966694  12.8478169  63.3472989  33.9820135  13.5381647  63.7793411
  33.7793636  12.7922951  62.6458489  34.1731164  12.9413057  63.3069938
  33.6379128  22.8482670  59.4610399  33.1090599  23.0642303  60.1207705
  34.1604148  23.5418808  59.3811368  33.6367581  22.9825807  59.5465998
  39.0927181  28.4228974  64.8343444  38.2624884  28.6339618  64.9976860
  39.0436433  27.5966029  64.5585727  38.9633916  28.3318581  64.8180809
  25.5278736  26.7445887  58.2617867  24.9435951  27.2495918  58.6683731
  25.1248831  26.5188274  57.5214459  25.3818039  26.7854135  58.2122892
  21.0822764  32.4600648  65.0641539  20.5990342  33.1851137  65.0401122
  21.8946082  32.7576778  65.1751696  21.1313512  32.6103001  65.0768818
  27.1536918  31.2532828  67.6691353  26.6363860  30.8940243  67.0652661
  27.8511309  30.7295003  67.6797419  27.1802499  31.1230516  67.5821612
  30.8100510  31.7027643  73.6307526  30.8983856  31.5153783  74.4785736
  31.2390223  31.0565072  73.2312373  30.8862613  31.5790650  73.6979278
  28.3770970  30.9858802  72.6125188  27.8141805  30.5731412  73.1364849
  29.1391993  30.9111708  73.0318332  28.4065419  30.9136203  72.7518189
  29.9855950  22.9911539  56.7386788  30.2251954  23.1989522  55.9262131
  30.3071791  22.1869047  56.8475732  30.0693108  22.9025640  56.6347341
  25.2946240  14.9204934  60.5846326  26.0492208  15.2883251  60.3463376
  25.1173775  15.2944489  61.3525505  25.3800719  15.0303122  60.6631214
  23.9366961  32.9756824  65.2161818  24.6387541  32.4608813  65.2734575
  23.8564444  33.3030975  66.0208694  24.0290722  32.9471050  65.3434611
  38.5881139  21.0699375  68.6293865  37.7509560  21.1401562  68.8641459
  38.5569370  21.0723870  67.7568167  38.4599421  21.0809602  68.5353413
  23.6503305  17.3275253  57.2824439  23.4678878  17.5447134  56.4565431
  24.5128918  17.4414266  57.3383053  23.7507894  17.3765151  57.1678926
  23.2617737  29.1663176  64.7247426  24.1006636  29.3986108  64.7721188
  23.2929506  28.2967487  64.6554462  23.3899454  29.0720122  64.7212071
  23.8870440  29.5864051  69.0260732  24.4268665  29.4435182  69.6964104
  23.2040386  29.9860802  69.3944758  23.8662594  29.6243722  69.1795154
  29.3303024  14.3301664  60.3173462  30.0589184  14.1517619  59.8711619
  29.4197917  15.1719744  60.5280641  29.4509686  14.4285542  60.2826980
  33.3111325  25.2655051  64.2205756  34.0668840  25.6986566  64.2594665
  33.4173649  24.6159821  64.7940392  33.4381495  25.2332535  64.3103782
  36.3491496  29.0928329  64.9708159  35.9126728  29.0965071  65.7267131
  36.0154411  29.7733828  64.5387737  36.2354116  29.1940784  65.0188992
  30.9220569  31.1336662  76.2951310  31.7060986  31.2467509  76.6607052
  30.7217164  30.3077799  76.4909995  31.0086595  31.0283381  76.3785696
  19.2907585  25.8064342  69.1795154  19.0246000  24.9903458  69.3386144
  19.3046149  25.8517497  68.3090669  19.2532307  25.6921246  69.0748635
  36.2688979  16.1342157  67.2137587  36.9114887  16.2040261  67.7999503
  36.5211999  15.4671379  66.7117129  36.4011111  16.0468505  67.2264867
  23.1965332  20.6049426  55.7946912  22.4823509  20.3187606  56.2069344
  23.6809301  20.9446052  56.4353299  23.1624695  20.6131076  55.9502547
  31.0790963  33.0446764  69.9417765  30.2806209  32.8046264  70.1991634
  31.5276974  33.0961156  70.6884813  31.0265574  33.0169155  70.0902689
  39.4835842  25.8109249  63.8627797  40.1452276  25.2499917  63.7623705
  38.8427254  25.3161279  64.1880488  39.4864710  25.6545658  63.8960137
  30.3712650  29.1079380  56.1708720  30.7863798  28.7764404  55.4793216
  29.5404579  28.8748282  56.0428856  30.3100659  29.0250636  56.0499567
  19.7000999  26.5923121  66.4606898  19.5176572  26.5670007  65.6079190
  20.4350667  27.0622059  66.4995807  19.7815062  26.6584483  66.3404816
  35.7700673  26.8274631  63.6039785  36.0056262  26.9719830  62.7766636
  35.9190236  27.5917039  63.9971299  35.8266476  26.9613685  63.5403389
  37.5991129  25.6676297  61.4409389  37.9299347  26.2003937  60.8349484
  38.1724218  25.7215185  62.0971340  37.7324809  25.7545866  61.4487171
  32.8123019  23.5141200  62.1232969  32.9069873  24.2530494  62.5772595
  32.1881862  23.0858675  62.5567534  32.7332049  23.5602520  62.2541117
  31.0675492  26.6927412  72.7723250  31.6414354  26.0554656  72.9271814
  30.9890296  26.6931495  71.9032908  31.1408727  26.5992524  72.6669661
  19.6671909  23.4716622  66.6105964  20.2445412  23.3353072  67.2498210
  18.9685971  23.0152406  66.8651549  19.6492930  23.3838888  66.7428254
  33.0646040  25.3589939  55.3569921  32.9826202  25.4292127  56.2224908
  33.7025760  25.9219683  55.1653662  33.1465877  25.4528911  55.4559871
  26.4239211  25.1250677  64.8244448  26.1658455  24.2922412  64.7975747
  26.4787694  25.3508290  63.9836948  26.3938989  25.0348449  64.6964584
  31.5040261  17.2279128  64.9248540  30.7996588  16.7388314  65.0832459
  31.5525236  17.2401602  64.0536985  31.4070313  17.1568776  64.8187880
  25.3973923  22.6788440  65.3109342  24.8223514  22.8380608  65.9473303
  25.0209600  22.0423849  64.8477793  25.2576736  22.6086253  65.3363901
  29.0647212  21.1511789  70.1701721  28.6761645  20.7266007  69.5153912
  28.4001910  21.3993939  70.6778747  28.9094140  21.1250510  70.1489589
  38.7070481  20.9086794  62.9449551  38.4507046  20.0966735  62.7547434
  39.5499795  20.9164361  62.7179738  38.7936506  20.7898791  62.8834368
  15.1430742  22.3228515  63.3253783  15.2290994  21.9460383  64.1067313
  15.7706540  21.9488960  62.8473741  15.2487293  22.2113997  63.3699260
  32.8873573  14.8486418  67.6825705  33.2684085  14.1664589  68.0693579
  32.0836858  14.5596020  67.5001369  32.8250035  14.7053466  67.7129761
  30.1686150  25.3810394  58.3678528  30.9826789  25.6725286  58.2561299
  30.1045291  24.7270256  57.7936821  30.2788889  25.3275588  58.2667365
  36.3895640  28.0636390  72.7808103  36.1534278  27.2324455  72.6620164
  37.0338869  28.0121997  73.3662948  36.4490311  27.9334078  72.8493997
  26.0394058  28.8531911  63.4950840  26.6768005  28.6143659  64.0402633
  26.4649130  29.0569070  62.7604000  26.1970225  28.8482921  63.4667997
  20.7306701  31.0920248  67.3785144  20.7710846  31.3635099  66.5504923
  21.2901225  31.6162156  67.7942931  20.8190047  31.2096003  67.3177032
  26.6796873  24.0734201  57.8325729  27.0642026  23.8541908  58.5842274
  26.4308494  24.8997146  57.9626806  26.6998946  24.1632347  57.9626806
  37.4132061  27.8480839  68.8436398  37.1077878  28.5808895  69.2049713
  36.6938277  27.4418768  68.5629184  37.2619403  27.8962572  68.8549535
  28.4215530  29.3304334  65.1744626  28.4954539  29.1679506  66.0286476
  29.2385037  29.5194523  64.9305108  28.5531889  29.3341076  65.2642652
  43.1133853  24.4873839  68.1704742  43.0458353  24.5069798  67.3007329
  43.0989515  25.3304167  68.3960413  43.1012610  24.6147574  68.0757219
  22.1821287  29.6762197  62.2039070  21.3559405  29.9223934  62.0773348
  22.2433278  29.5974277  63.0701128  22.0695454  29.7007146  62.3128014
  24.3997311  15.7431138  63.1634510  23.5319736  15.8153737  63.2292119
  24.6872515  16.5453217  63.3522485  24.3137059  15.8725285  63.2009276
  26.9620116  32.2939077  59.9058099  27.2518414  31.9028058  59.1817326
  27.6923597  32.4755782  60.3463375  27.1127000  32.2632891  59.8640906
  40.8992470  23.2618225  66.4451337  41.4500392  22.6286295  66.6848429
  40.8836586  23.7933618  67.1366841  40.9777667  23.2467174  66.5830195
  27.5514861  27.0956823  70.9911230  27.0526555  27.8072590  71.0696118
  28.3615086  27.4157489  70.9529392  27.5970968  27.2483671  70.9967798
  24.9026032  34.2706459  62.9718249  24.6826327  33.9803814  63.7644916
  24.6820554  33.6121414  62.4436162  24.8373626  34.1306168  63.0107158
  23.8142979  26.3579776  65.2373951  23.5256227  25.7317247  65.7719678
  24.6826327  26.3000063  65.3038631  23.9003231  26.2567320  65.3264905
  34.6020877  21.5014559  65.5555933  34.2585642  20.7804894  65.9063182
  34.7013919  21.2928410  64.7134291  34.5662919  21.3638762  65.4827613
  27.0693987  35.6435849  61.7548942  27.7218045  35.1112292  61.9839968
  26.3719596  35.2904502  62.1416816  27.0624705  35.5125372  61.8461109
  24.0175252  27.9975027  61.1616316  24.7721220  28.3788066  61.3751778
  23.4245865  28.4486170  61.6163012  24.0411966  28.1203854  61.2599194
  35.0633906  27.9640263  61.0979921  35.6291938  28.6233473  61.0138464
  34.4161809  28.3089961  61.5696323  35.0512662  28.1122205  61.1552677
  25.3373479  29.1683588  66.5356431  24.8154232  29.3083880  67.2208296
  25.7247499  28.4094252  66.7258549  25.3177180  29.0769112  66.6657508
  22.3264663  19.2189397  60.6051386  22.0389459  18.8490667  59.8683333
  23.0135131  19.6884252  60.3435091  22.3853560  19.2336366  60.4566462
  31.5340484  30.9079047  60.5217000  31.2927160  30.1746908  60.1144065
  31.7141817  31.4565904  59.8683333  31.5248108  30.8801439  60.3647223
  26.7639804  26.1987607  61.9337922  26.5682587  26.8062342  61.3398225
  26.9874150  25.5055551  61.4529596  26.7674445  26.1865133  61.7754003
  25.1618334  23.0842345  62.0518791  25.8840986  23.2483503  61.5922597
  24.6826327  23.8052010  61.9458130  25.1982065  23.2140575  61.9684405
  33.1211842  19.4206144  67.4315476  32.2822943  19.4467423  67.1953739
  33.1916209  20.0676879  68.0120822  33.0080236  19.5202270  67.4824592
  22.8125951  25.4900418  71.1572931  23.3247048  25.7684671  70.5081690
  22.5262294  26.2289712  71.5235744  22.8460814  25.6402771  71.1162809
  31.5681120  16.3191521  62.1643092  32.2707473  16.1199269  61.6863050
  31.3025309  15.5467463  62.4711935  31.6327753  16.1754487  62.1388533
  36.9969366  24.6274131  64.7176717  36.9103340  24.7829557  65.5711496
  36.5419846  25.2712206  64.3436122  36.9172622  24.7449886  64.7883824
  19.8992857  19.9970609  61.4536667  20.0008994  20.7996771  61.7817642
  20.6948744  19.7957945  61.1559748  20.0320763  20.0856508  61.4572022
  30.8695182  21.9484878  63.3402277  30.6229896  21.8680629  64.1739066
  31.1980305  21.1638346  63.1464804  30.8816425  21.8211143  63.4349800
  34.7643231  28.6568237  67.1289058  34.6257590  29.3549283  67.6337801
  33.9843229  28.5016894  66.7725240  34.6286458  28.7368404  67.1515332
  33.1021316  24.9564612  73.3811440  33.0969354  24.0844429  73.3853866
  33.8082310  25.1552782  72.9080896  33.2066320  24.8568487  73.3118475
  26.8292209  24.6841596  72.7525260  26.9735585  25.2642805  72.1168370
  27.1767858  25.0617893  73.4575115  26.9019671  24.8262300  72.7624255
  29.0012127  23.8831765  70.5350392  28.2535441  24.0762779  70.1298670
  29.1553652  23.0576984  70.2974513  28.9134554  23.7896876  70.4395797
  25.9019964  32.8744368  69.6186287  26.0509528  32.3147284  68.9659691
  26.6819966  32.9536370  70.0018806  26.0394058  32.8029934  69.5783236
  36.2596604  28.0146491  57.8905557  35.8803412  27.2283629  57.8834847
  35.5962849  28.5633348  57.7477202  36.1055078  27.9791315  57.8686354
  28.4273265  33.0459011  70.8970778  28.3516936  32.3767822  71.4521566
  28.3563124  33.7476799  71.4111444  28.4053872  33.0503918  71.0547626
  33.7141230  10.9572191  65.2939638  33.8324798  11.4148654  64.5606941
  33.5403405  10.1517452  65.0075856  33.7060400  10.9065963  65.1440572
  29.0843512  31.5660010  61.7294384  29.8493403  31.2969654  61.4077048
  28.9821602  31.0810020  62.4464446  29.1825007  31.4549575  61.7874211
  27.1196281  19.7684419  68.2687619  26.3292356  19.5875879  68.5904955
  27.5156904  18.9911372  68.2517914  27.0613158  19.6271880  68.3140168
  31.6062172  28.5972194  53.7094333  32.3735157  28.6572319  53.3000185
  31.1593481  28.0252635  53.2250651  31.6535600  28.5208769  53.5772043
  32.5039968  27.4026850  65.9947065  31.8284970  27.1712082  66.4960452
  32.5132344  26.7948032  65.3689170  32.4058472  27.2785775  65.9763217
  29.6334112  22.2444679  72.7511118  29.5693253  23.1054635  72.6231255
  29.7731300  21.9276672  71.9506670  29.6449582  22.3244845  72.6139331
  34.5056702  30.2591982  58.2257243  34.5876540  31.0658968  57.9018694
  34.9906445  30.2787941  58.9498017  34.5893860  30.3812644  58.2844142
  28.3153206  24.9376818  66.8927321  27.8915455  25.1381317  66.1566339
  28.1398061  24.0905666  67.0051621  28.2264086  24.8425599  66.8001011
  27.8164899  36.4527331  69.3548778  28.3060829  35.7538120  69.1724443
  27.2449131  36.1551201  69.9424836  27.8049429  36.3053554  69.4149819
  23.6035651  25.4328869  62.3255294  23.7600270  25.3675672  63.1811286
  23.9436244  26.2077422  62.1133973  23.6768885  25.5378067  62.4209888
  30.1414795  24.8086753  61.1948657  30.6830341  24.3057134  61.6587277
  30.4561354  24.7551948  60.3838142  30.2679192  24.7266174  61.1432469
  34.0131903  29.0189400  78.3075569  34.8266768  28.7474549  78.4680702
  33.8526869  28.7196940  77.5035765  34.1101851  28.9344326  78.2120975
  28.3101245  30.2004104  58.4788685  28.3794065  29.3418643  58.6181685
  29.0889700  30.4175985  58.1507709  28.4354095  30.1056968  58.4505842
  31.2904065  19.7023057  71.2470957  31.5046034  19.0633972  70.6934311
  30.6737964  20.1468881  70.8178819  31.2309394  19.6733201  71.1021388
  32.7008733  32.6241806  62.6925178  32.3088524  32.3208521  61.9748044
  32.8561805  33.4610896  62.5030132  32.6662322  32.7025642  62.5581675
  20.1769912  22.6163820  62.6416061  20.5568877  23.0348365  61.9776328
  19.6025277  23.1977275  62.9484904  20.1481237  22.7641679  62.5892802
  33.4543153  21.3112123  72.1854264  32.6419834  21.0038013  72.2667437
  33.9133087  20.8311123  72.7496977  33.4023537  21.1948615  72.2808859
  32.8648407  29.1891795  62.6331209  32.5063062  29.3606437  63.4095241
  32.3787118  29.6505000  62.0759207  32.7407104  29.2830766  62.6656478
  30.6818793  12.8122993  66.2358300  29.8112351  12.7861714  66.1891610
  30.9359135  12.6400185  65.4184146  30.5912353  12.7833137  66.1078437
  27.6536773  24.8690960  55.1731443  27.9429298  25.6455842  55.4475017
  27.7408572  24.3579691  55.8745942  27.7091029  24.9082878  55.3173941
  34.0253147  30.0795690  73.5798410  34.6632867  29.5855886  73.2460866
  33.3827238  30.0073091  72.9950636  34.0247373  29.9954699  73.4440765
  35.7510147  21.9284836  68.1464325  35.3237755  21.8411185  67.3912425
  35.1136200  22.0362612  68.7319169  35.5939754  21.9317496  68.1209767
  34.0807403  30.7715499  70.2203766  34.8699781  30.4204563  70.3405848
  34.2551001  31.5851887  69.9580400  34.2227685  30.8401356  70.1991634
  23.8200714  24.1824224  67.2731555  22.9788720  24.0828099  67.4810449
  24.0290722  24.9519705  67.6245876  23.7265406  24.2816268  67.3558870
  21.2976281  21.8043761  65.1016306  20.9032978  21.8786773  64.3266416
  20.7416397  22.1901708  65.6524668  21.1579093  21.8725536  65.0683966
  32.9341227  14.7825055  64.7820185  33.1390821  14.7147363  65.6277182
  32.6067651  15.5883877  64.7141362  32.9156475  14.8910996  64.8979840
  27.6317379  22.1105624  66.5229153  27.3280516  21.5561612  67.1239560
  26.9296799  22.2897834  66.0357187  27.4833588  22.0550406  66.5398858
  26.6883476  19.4206143  61.0873855  26.9643210  18.7025056  60.6751422
  27.2882145  20.0191063  60.8794961  26.8176740  19.4026514  60.9954616
  25.6935730  29.3255344  71.2301251  25.5856084  29.3357407  72.0963309
  25.9031511  30.1510125  71.0406204  25.7085841  29.4496419  71.3305342
  36.1874915  15.3356820  64.2622950  35.5749229  15.8227222  64.6476682
  36.2839090  14.6600311  64.8060601  36.1112813  15.3075128  64.4001808
  30.1893996  17.0919661  59.3620450  30.6437743  17.2630221  60.0868294
  30.6634042  16.4787772  58.9618225  30.3262316  17.0270546  59.4094211
  23.7109522  26.5767987  68.6923188  23.1197455  27.2177485  68.6626203
  24.4730545  27.0005604  68.6654488  23.7357782  26.7343825  68.6838335
  39.8299943  26.4073756  69.6900466  39.8883067  26.8560405  70.4360443
  39.1966411  26.8172569  69.2530546  39.7451238  26.5347491  69.7353015
  33.4699038  32.0277298  66.1255213  33.2718726  32.5168113  65.4311424
  32.8486749  32.2318540  66.7039346  33.3486602  32.1293837  66.1078436
  27.5307016  23.7962195  60.4665457  28.2749061  24.1836472  60.7048407
  27.6767712  22.9519621  60.6305945  27.6617601  23.7292668  60.5259427
  29.4486592  15.5912454  65.4997318  28.6022637  15.7635262  65.3738668
  29.4457724  14.7861798  65.8363147  29.3233742  15.4973483  65.5308445
  30.5184892  19.3687669  66.3659376  30.0444846  18.8429431  66.8764687
  30.8903028  18.8217141  65.7974238  30.5034781  19.2103665  66.3574523
  36.7821623  24.4290044  67.7766157  36.5419845  23.5896459  67.7808583
  37.2613630  24.5090211  68.5006930  36.8173806  24.3171444  67.8840959
  32.4468392  20.2624223  59.4285130  31.9191410  20.3452967  58.7390839
  32.9064100  21.0042095  59.4249775  32.4370242  20.3844886  59.3259825
  38.7826810  21.2091501  65.7295416  38.5436580  21.1687336  64.8916200
  38.9460711  22.0562653  65.8561137  38.7717113  21.3283586  65.6248898
  35.3872840  25.5941451  71.6600461  36.1107039  25.1413977  71.4811481
  35.1222802  25.8746116  70.8772789  35.4554113  25.5692419  71.5179176
  24.2559708  20.1901624  68.3953340  23.6312778  20.2020016  67.7879293
  23.9205303  20.6661799  69.0444580  24.1145200  20.2620141  68.4009909
  24.4401457  18.5326743  54.4526025  24.0914261  19.1846468  54.9157575
  23.9597903  18.5183856  53.7249896  24.3171701  18.6269796  54.4137116
  20.9685384  28.2502084  69.8357104  20.4385308  27.5594523  69.8852079
  21.2410477  28.2412270  69.0069813  20.9310106  28.1469216  69.7204520
  32.0005474  28.8327787  58.5594787  32.7239673  29.2985900  58.4159360
  31.5606065  28.9001396  57.8092384  32.0421166  28.9111623  58.4279568
  31.1691629  25.6925329  69.8095476  30.5548622  25.1483379  70.1044111
  31.6858914  25.1789565  69.3301292  31.1547292  25.5361738  69.7819704
  30.4087926  26.7629599  67.5439775  29.9815534  26.1379318  67.1105210
  30.4012871  26.4804521  68.3698782  30.3447068  26.6282380  67.6019602
  28.7373636  17.6398354  67.7582309  28.7616123  17.1058466  67.0695089
  28.9885110  17.1315662  68.4207899  28.7783555  17.4859257  67.7546953
  16.2481226  24.9229848  67.1925453  16.1424675  24.8776693  66.3277537
  15.4981446  25.2683629  67.4739738  16.1216829  24.9670757  67.1062782
  25.0174958  16.3669172  67.1388053  25.0573330  16.8678378  67.8522760
  24.1924623  16.4579565  66.8693976  24.9014484  16.4550988  67.2038591
  26.4389322  22.8829682  69.4361952  25.6081251  23.0503500  69.2297200
  26.3840839  22.5065632  70.2210837  26.3078737  22.8519413  69.5210480
  24.8125366  21.1585273  59.9652070  24.9528327  21.6557737  60.6680711
  25.3107898  20.4571568  60.1066283  24.9066446  21.1287252  60.0903649
  24.8425588  22.0252384  57.2944647  25.4770667  22.6212809  57.2294108
  24.9251199  21.7255842  58.1090517  24.9482139  22.0693292  57.4047733
  37.8208154  24.5567862  70.1631011  38.4125994  25.1965112  70.1949209
  38.2567148  23.8590898  70.4523078  37.9726585  24.5486212  70.2111843
  26.4204571  17.9566360  57.2690089  26.7420412  17.4769442  56.6149351
  26.6831515  18.7666006  57.0780900  26.5070596  18.0056257  57.1445581
  29.6501544  28.9785234  70.7888905  29.1426635  29.5321081  71.2329535
  29.3528190  29.0393524  69.9707679  29.5306428  29.0691545  70.7337361
  31.8163726  17.3438554  69.6313568  32.2418797  16.8911080  69.0197094
  31.2020719  16.7898624  69.9078355  31.7892371  17.1952530  69.5818593
  21.3478576  24.2220225  60.5634193  21.8570805  24.8184732  60.9445498
  21.8212848  23.9546199  59.8810612  21.4921951  24.2706040  60.5188715
  32.2609324  32.8948492  58.7192848  31.5438634  32.7209354  58.2540085
  32.9116061  32.6601064  58.1868334  32.2511174  32.8344284  58.5722066
  30.2557949  13.8153653  63.0404145  29.6126267  13.6651300  63.6089283
  29.9157356  13.5695999  62.2753249  30.1103026  13.7565776  63.0107160
  34.8457295  21.7713080  62.4634153  34.1748485  22.3142782  62.3347219
  35.5397045  22.2407935  62.2215848  34.8486163  21.9211351  62.4089681
  28.8944029  33.9109792  67.6945911  28.6709683  33.1528621  68.0629938
  28.4053872  33.9407813  66.9726351  28.7887478  33.8032017  67.6422652
  35.0085423  18.2268964  65.3724526  35.3613033  17.7998687  66.0470325
  34.1500224  18.1419807  65.5025603  34.9334867  18.1513704  65.4919537
  23.7069108  20.8576483  63.4307373  22.9881097  21.2740616  63.6980236
  24.0781470  21.4230722  62.8799011  23.6561039  21.0025765  63.3890180
  33.0068688  21.4904332  69.3209369  32.9866616  21.3087628  70.1744148
  33.0547889  22.3616351  69.2968952  33.0103329  21.5920871  69.4432663
  30.9515018  28.0791524  75.2457845  30.9110873  27.4341201  74.6603001
  31.7638336  28.0228142  75.5583257  31.0658172  27.9750491  75.2054794
  27.5422486  34.1310250  65.1482996  27.1282884  33.4684380  64.7586838
  28.2269860  34.2788109  64.6278690  27.5820857  34.0550908  65.0139493
  30.9087780  33.2900336  65.9006613  30.5104063  33.4002606  65.1327433
  30.2938999  33.4982402  66.4833172  30.7586669  33.3373904  65.8737912
  29.4815682  19.8974483  58.7680752  28.8880521  20.2191480  58.2165319
  29.5190960  19.0515579  58.5601859  29.3990071  19.8198812  58.6563524
  36.4409483  13.3487376  66.3008839  35.9340347  12.6416515  66.2330016
  37.2376916  13.0180564  66.4309915  36.4836722  13.1960527  66.3107834
  32.3573498  19.8553988  62.1982503  32.1287191  19.8786689  61.3560861
  32.6171575  19.0311455  62.3177513  32.3619687  19.7370068  62.0907700
  25.4118261  18.3930534  63.4936698  25.8875627  18.7547614  62.8586879
  24.9106861  19.0487002  63.7736841  25.4083620  18.5424723  63.4413439
  38.6429623  27.8652302  59.2849703  39.0263228  28.6143658  59.5147800
  37.8473736  28.1118122  59.0261692  38.5823405  28.0121996  59.2807277
  27.4544914  20.5371734  56.8610082  27.8343879  20.5551363  56.0761197
  26.7137510  20.9825723  56.7400930  27.4013752  20.6053509  56.7273650
  35.0830205  18.8453925  62.4485661  35.0824431  18.6902582  63.3069937
  34.8786385  19.6916912  62.3927047  35.0529983  18.9474546  62.5673600
  17.1447476  22.2693710  66.8644478  16.9669237  21.8170319  67.5899393
  16.8566498  23.0719871  67.0482955  17.0760429  22.3216267  66.9987980
  32.8071057  23.5251427  66.1021868  33.3024722  22.8074422  66.0625888
  31.9970832  23.2222225  65.9876355  32.7614950  23.3749073  66.0795594
  28.2529668  27.3749240  58.2518872  27.4440991  27.0515914  58.2052182
  28.7604577  26.6682462  58.1847121  28.2079335  27.2230557  58.2349167
  18.8819945  24.8021433  63.9766237  18.0165465  24.7907124  63.8649008
  18.9818761  24.6151656  64.8237376  18.7694112  24.7727495  64.0855181
  34.8722876  26.2755114  68.7898997  35.2977947  25.7529536  68.2369422
  34.5079795  26.8735952  68.2687620  34.8809478  26.2865341  68.6308006
  24.5076955  34.5719332  67.5496342  24.8223514  35.3855720  67.5574124
  24.9170369  34.1869551  68.2178501  24.6145053  34.6348034  67.6500434
  31.4601475  29.9889379  65.1200154  31.9312653  30.7029641  65.2890139
  31.7961654  29.3888129  65.6560024  31.5796590  30.0060843  65.2232530
  33.5478460  31.5990692  77.2992226  33.6575425  30.8099253  77.6548973
  33.8769356  31.5096628  76.4966564  33.6130865  31.4696545  77.2334617
  32.0975421  29.7807313  71.8827847  31.5496367  29.1565197  71.6147912
  32.5588450  29.9701585  71.1671926  32.0842631  29.7166363  71.7378278
  34.9069286  17.8492667  69.2679039  34.3232275  18.3501874  68.8556606
  35.2273580  17.3422224  68.6343362  34.8682461  17.8484502  69.1137546
  27.4464085  16.7633262  59.5437714  28.2679779  16.9331575  59.3019409
  26.9833736  16.9180523  58.8204011  27.4995247  16.8114995  59.4009358
  21.8489976  28.5192440  67.1974951  22.4534833  28.4788275  66.5688771
  21.6417288  29.3663592  67.2279006  21.9078873  28.6380443  67.1091067
  31.6633748  30.7858386  68.4137188  32.4832121  30.6421352  68.6753483
  31.3827825  31.4104584  68.9553626  31.7430491  30.8568738  68.5325127
  17.0841258  27.5027058  67.0673874  16.9865536  26.6923329  67.3763930
  17.8670127  27.4818851  66.6820142  17.1857394  27.3794148  67.0560737
  41.3347083  37.5298888  66.1332995  40.4784978  37.6907387  66.1842111
  41.3814737  36.6590952  66.1538056  41.2146194  37.4249690  66.1439061
  44.6440799  43.7985414  75.7393451  45.3507567  43.3037445  75.8680385
  44.8328735  44.2394495  75.0096109  44.7768705  43.7903764  75.6502496
  44.1798904  39.5890932  68.7764646  44.7254864  40.2676019  68.8358616
  44.1215780  39.4478393  67.9166228  44.2514818  39.6682934  68.6576707
  37.2972979  47.0779998  64.1632999  37.3983342  46.2680352  64.4730127
  36.7014724  46.9836945  63.5332677  37.2245517  46.9445026  64.1159237
  37.1373718  51.9957587  65.5647855  37.7811174  52.4370752  65.9544013
  37.4629974  51.1911014  65.4778114  37.2805547  51.9422782  65.6093332
  30.4938023  43.1000285  63.7885332  30.2588207  42.2667937  63.6817601
  30.6323664  43.3804951  62.9746533  30.4793686  43.0183788  63.6527687
  32.7928111  35.2686015  66.6869640  32.1733142  34.6778663  66.5179655
  32.6911974  35.8597451  66.0533963  32.6865786  35.2690098  66.5674630
  39.8896006  37.0085557  61.0202103  40.5876171  37.1873685  61.5123566
  40.2048339  36.4855897  60.3972493  40.0391343  36.9579329  61.0004113
  32.5197244  38.8138297  68.9313209  32.3955940  39.4000743  69.5663028
  33.1715528  38.3198493  69.2325484  32.5970893  38.8277102  69.0699138
  37.5455585  41.9900014  68.2100720  38.1904587  41.4972457  67.8911669
  37.7857362  42.1324801  69.0366798  37.6766170  41.9377456  68.2850253
  40.0841676  44.8354920  67.8607613  40.3664919  44.0406326  67.6394369
  40.8127836  45.3135507  67.8812674  40.2331240  44.7889517  67.8310628
  38.0622870  32.3777954  65.1023378  37.7326200  32.8289098  64.4327077
  37.3867872  32.2994117  65.6496384  37.9133306  32.4329089  65.0846601
  45.2699277  28.3663477  63.3472989  44.9552718  29.0566955  63.7793411
  44.7526219  28.3108259  62.6458489  45.1463748  28.4598365  63.3069938
  32.0555348  47.9785956  65.0641539  31.5722926  48.7036445  65.0401122
  32.8678666  48.2762086  65.1751696  32.1046095  48.1288309  65.0768818
  38.1269502  46.7718136  67.6691353  37.6096443  46.4125551  67.0652661
  38.8243893  46.2480311  67.6797419  38.1535083  46.6415824  67.5821612
  41.7833094  47.2212950  73.6307526  41.8716440  47.0339091  74.4785736
  42.2122806  46.5750380  73.2312373  41.8595196  47.0975958  73.6979278
  39.3503554  46.5044110  72.6125188  38.7874388  46.0916720  73.1364849
  40.1124577  46.4297016  73.0318332  39.3798002  46.4321511  72.7518189
  36.2678824  30.4390242  60.5846326  37.0224792  30.8068559  60.3463376
  36.0906358  30.8129797  61.3525505  36.3533302  30.5488430  60.6631214
  34.9099545  48.4942132  65.2161818  35.6120124  47.9794121  65.2734575
  34.8297028  48.8216283  66.0208694  35.0023305  48.4656358  65.3434611
  49.5613723  36.5884683  68.6293865  48.7242144  36.6586870  68.8641459
  49.5301953  36.5909178  67.7568167  49.4332005  36.5994910  68.5353413
  35.9578452  38.7317718  74.3442234  36.1298955  38.6223613  75.1927515
  36.4947809  39.3772124  74.1073426  36.0623456  38.8109720  74.4347330
  34.6235888  32.8460561  57.2824439  34.4411462  33.0632442  56.4565431
  35.4861501  32.9599574  57.3383053  34.7240478  32.8950459  57.1678926
  34.2350320  44.6848484  64.7247426  35.0739220  44.9171416  64.7721188
  34.2662090  43.8152795  64.6554462  34.3632038  44.5905430  64.7212071
  34.8603023  45.1049359  69.0260732  35.4001248  44.9620490  69.6964104
  34.1772970  45.5046110  69.3944758  34.8395177  45.1429030  69.1795154
  40.3035608  29.8486972  60.3173462  41.0321768  29.6702927  59.8711619
  40.3930501  30.6905052  60.5280641  40.4242270  29.9470850  60.2826980
  44.2843908  40.7840359  64.2205756  45.0401423  41.2171874  64.2594665
  44.3906233  40.1345129  64.7940392  44.4114079  40.7517843  64.3103782
  47.3224079  44.6113637  64.9708159  46.8859311  44.6150379  65.7267131
  46.9886995  45.2919136  64.5387737  47.2086699  44.7126092  65.0188992
  41.8953153  46.6521969  76.2951310  42.6793570  46.7652817  76.6607052
  41.6949748  45.8263107  76.4909995  41.9819178  46.5468689  76.3785696
  30.2640168  41.3249650  69.1795154  29.9978584  40.5088766  69.3386144
  30.2778733  41.3702805  68.3090669  30.2264891  41.2106554  69.0748635
  47.2421562  31.6527464  67.2137587  47.8847471  31.7225569  67.7999503
  47.4944583  30.9856687  66.7117129  47.3743694  31.5653813  67.2264867
  35.0138775  34.8628028  71.8262161  34.3210572  34.3925008  72.0722893
  35.6299102  34.6366332  72.4003868  35.0023305  34.7595160  71.9471314
  42.0523546  48.5632072  69.9417765  41.2538792  48.3231572  70.1991634
  42.5009558  48.6146464  70.6884813  41.9998158  48.5354463  70.0902689
  30.6733582  42.1108429  66.4606898  30.4909155  42.0855315  65.6079190
  31.4083251  42.5807367  66.4995807  30.7547646  42.1769791  66.3404816
  46.7433256  42.3459939  63.6039785  46.9788846  42.4905138  62.7766636
  46.8922820  43.1102347  63.9971299  46.7999060  42.4798993  63.5403389
  33.7379334  38.8293432  72.9689006  34.4619306  38.8146462  73.4553901
  33.8395470  39.5388787  72.4710975  33.8597543  38.9318135  72.9667793
  41.1124283  42.3092516  77.8337953  40.3197264  42.6236028  78.0190573
  41.2273210  42.5243985  76.9958738  41.0119694  42.3876353  77.7376288
  42.0408076  42.2112720  72.7723250  42.6146938  41.5739964  72.9271814
  41.9622880  42.2116803  71.9032908  42.1141311  42.1177832  72.6669661
  30.6404492  38.9901930  66.6105964  31.2177995  38.8538380  67.2498210
  29.9418554  38.5337714  66.8651549  30.6225514  38.9024196  66.7428254
  37.3971795  40.6435985  64.8244448  37.1391039  39.8107720  64.7975747
  37.4520277  40.8693598  63.9836948  37.3671573  40.5533757  64.6964584
  42.4772845  32.7464436  64.9248540  41.7729172  32.2573621  65.0832459
  42.5257819  32.7586910  64.0536985  42.3802896  32.6754084  64.8187880
  36.3706507  38.1973748  65.3109342  35.7956098  38.3565916  65.9473303
  35.9942183  37.5609157  64.8477793  36.2309319  38.1271561  65.3363901
  40.0379795  36.6697097  70.1701721  39.6494228  36.2451315  69.5153912
  39.3734494  36.9179247  70.6778747  39.8826723  36.6435818  70.1489589
  49.6803065  36.4272102  62.9449551  49.4239629  35.6152043  62.7547434
  50.5232379  36.4349669  62.7179738  49.7669090  36.3084099  62.8834368
  26.1163326  37.8413823  63.3253783  26.2023578  37.4645691  64.1067313
  26.7439123  37.4674268  62.8473741  26.2219877  37.7299305  63.3699260
  43.8606157  30.3671726  67.6825705  44.2416669  29.6849897  68.0693579
  43.0569441  30.0781328  67.5001369  43.7982619  30.2238774  67.7129761
  47.3628224  43.5821698  72.7808103  47.1266861  42.7509763  72.6620164
  48.0071453  43.5307305  73.3662948  47.4222895  43.4519386  72.8493997
  37.0126642  44.3717219  63.4950840  37.6500589  44.1328967  64.0402633
  37.4381714  44.5754378  62.7604000  37.1702808  44.3668229  63.4667997
  31.7039284  46.6105556  67.3785144  31.7443430  46.8820407  66.5504923
  32.2633808  47.1347464  67.7942931  31.7922630  46.7281311  67.3177032
  37.6529457  39.5919509  57.8325729  38.0374610  39.3727216  58.5842274
  37.4041077  40.4182454  57.9626806  37.6731530  39.6817655  57.9626806
  37.8197997  32.8725924  77.5488313  37.5051438  33.6425487  77.2857876
  37.4987930  32.3096180  76.9640540  37.7256916  32.9036193  77.4229663
  48.3864645  43.3666147  68.8436398  48.0810462  44.0994203  69.2049713
  47.6670860  42.9604076  68.5629184  48.2351987  43.4147880  68.8549535
  39.3948114  44.8489642  65.1744626  39.4687122  44.6864814  66.0286476
  40.2117620  45.0379831  64.9305108  39.5264473  44.8526384  65.2642652
  54.0866437  40.0059147  68.1704742  54.0190937  40.0255106  67.3007329
  54.0722099  40.8489474  68.3960413  54.0745193  40.1332882  68.0757219
  33.1553871  45.1947505  62.2039070  32.3291988  45.4409242  62.0773348
  33.2165862  45.1159585  63.0701128  33.0428038  45.2192454  62.3128014
  35.3729894  31.2616446  63.1634510  34.5052320  31.3339045  63.2292119
  35.6605099  32.0638524  63.3522485  35.2869642  31.3910593  63.2009276
  44.4962783  31.4094305  71.4945832  45.2416375  31.2204115  71.0809257
  44.0800088  31.9352543  70.9359688  44.5447757  31.4596450  71.3510405
  51.8725054  38.7803533  66.4451337  52.4232976  38.1471602  66.6848429
  51.8569169  39.3118926  67.1366841  51.9510250  38.7652482  66.5830195
  38.5247445  42.6142131  70.9911230  38.0259138  43.3257898  71.0696118
  39.3347669  42.9342797  70.9529392  38.5703552  42.7668979  70.9967798
  35.8758615  49.7891767  62.9718249  35.6558911  49.4989122  63.7644916
  35.6553137  49.1306722  62.4436162  35.8106209  49.6491476  63.0107158
  34.7875562  41.8765084  65.2373951  34.4988811  41.2502555  65.7719678
  35.6558910  41.8185371  65.3038631  34.8735814  41.7752628  65.3264905
  45.5753460  37.0199867  65.5555933  45.2318226  36.2990202  65.9063182
  45.6746503  36.8113718  64.7134291  45.5395503  36.8824070  65.4827613
  38.0426571  51.1621157  61.7548942  38.6950629  50.6297599  61.9839968
  37.3452180  50.8089809  62.1416816  38.0357289  51.0310680  61.8461109
  34.9907836  43.5160335  61.1616316  35.7453804  43.8973374  61.3751778
  34.3978448  43.9671478  61.6163012  35.0144549  43.6389162  61.2599194
  37.4514503  35.4723175  76.2873528  36.6414279  35.7780955  76.1763370
  37.9289190  36.1928757  76.4026112  37.4017982  35.6237776  76.2880599
  36.3106062  44.6868896  66.5356431  35.7886816  44.8269188  67.2208296
  36.6980083  43.9279560  66.7258549  36.2909763  44.5954420  66.6657508
  33.2997246  34.7374705  60.6051386  33.0122042  34.3675975  59.8683333
  33.9867715  35.2069560  60.3435091  33.3586144  34.7521674  60.4566462
  37.7372388  41.7172915  61.9337922  37.5415171  42.3247650  61.3398225
  37.9606734  41.0240859  61.4529596  37.7407029  41.7050441  61.7754003
  36.1350918  38.6027653  62.0518791  36.8573570  38.7668811  61.5922597
  35.6558911  39.3237318  61.9458130  36.1714649  38.7325883  61.9684405
  44.0944426  34.9391452  67.4315476  43.2555526  34.9652731  67.1953739
  44.1648793  35.5862187  68.0120822  43.9812819  35.0387578  67.4824592
  33.7858535  41.0085725  71.1572931  34.2979632  41.2869979  70.5081690
  33.4994877  41.7475020  71.5235744  33.8193398  41.1588079  71.1162809
  42.5413704  31.8376829  62.1643092  43.2440057  31.6384577  61.6863050
  42.2757893  31.0652771  62.4711935  42.6060336  31.6939795  62.1388533
  47.9701949  40.1459439  64.7176717  47.8835924  40.3014865  65.5711496
  47.5152429  40.7897514  64.3436122  47.8905206  40.2635194  64.7883824
  30.8725441  35.5155917  61.4536667  30.9741577  36.3182079  61.7817642
  31.6681328  35.3143253  61.1559748  31.0053347  35.6041816  61.4572022
  37.3042260  33.1012114  71.2173972  37.1125457  33.1167248  72.0673396
  38.1540856  33.2975788  71.1940627  37.4017982  33.1326465  71.3397267
  31.6889173  35.6303096  69.1957789  31.5474665  34.7787036  69.3202297
  31.9729737  35.6731756  68.3719995  31.7097019  35.5102846  69.0925413
  41.8427766  37.4670186  63.3402277  41.5962480  37.3865937  64.1739066
  42.1712889  36.6823654  63.1464804  41.8549009  37.3396451  63.4349800
  45.7375814  44.1753545  67.1289058  45.5990174  44.8734591  67.6337801
  44.9575812  44.0202202  66.7725240  45.6019041  44.2553712  67.1515332
  44.0753899  40.4749920  73.3811440  44.0701938  39.6029737  73.3853866
  44.7814893  40.6738090  72.9080896  44.1798903  40.3753795  73.3118475
  37.8024793  40.2026904  72.7525260  37.9468169  40.7828112  72.1168370
  38.1500441  40.5803201  73.4575115  37.8752254  40.3447608  72.7624255
  39.9744710  39.4017073  70.5350392  39.2268024  39.5948087  70.1298670
  40.1286235  38.5762292  70.2974513  39.8867138  39.3082184  70.4395797
  36.8752548  48.3929676  69.6186287  37.0242112  47.8332592  68.9659691
  37.6552550  48.4721678  70.0018806  37.0126641  48.3215242  69.5783236
  39.4005848  48.5644319  70.8970778  39.3249520  47.8953130  71.4521566
  39.3295708  49.2662107  71.4111444  39.3786455  48.5689226  71.0547626
  40.2146487  33.2967623  71.4245795  40.6719101  34.0291598  71.5518588
  40.2902816  32.8734089  72.1833051  40.2937457  33.3424861  71.5546872
  32.4579478  33.5433443  72.5135239  31.9221668  32.9313801  72.8296006
  32.5197243  34.1181579  73.1668906  32.3875111  33.5380371  72.6570666
  44.6873813  26.4757499  65.2939638  44.8057381  26.9333962  64.5606941
  44.5135989  25.6702760  65.0075856  44.6792984  26.4251271  65.1440572
  38.0928865  35.2869727  68.2687619  37.3024940  35.1061187  68.5904955
  38.4889488  34.5096680  68.2517914  38.0345741  35.1457188  68.3140168
  43.4772551  42.9212157  65.9947065  42.8017553  42.6897390  66.4960452
  43.4864927  42.3133340  65.3689170  43.3791056  42.7971083  65.9763217
  40.6066695  37.7629986  72.7511118  40.5425837  38.6239943  72.6231255
  40.7463883  37.4461980  71.9506670  40.6182165  37.8430153  72.6139331
  39.2885789  40.4562126  66.8927321  38.8648038  40.6566625  66.1566339
  39.1130644  39.6090974  67.0051621  39.1996670  40.3610907  66.8001011
  38.7897483  51.9712639  69.3548778  39.2793413  51.2723428  69.1724443
  38.2181715  51.6736509  69.9424836  38.7782013  51.8238862  69.4149819
  34.5768234  40.9514177  62.3255294  34.7332853  40.8860980  63.1811286
  34.9168827  41.7262730  62.1133973  34.6501469  41.0563375  62.4209888
  44.9864486  44.5374708  78.3075569  45.7999352  44.2659857  78.4680702
  44.8259453  44.2382248  77.5035765  45.0834435  44.4529634  78.2120975
  42.2636648  35.2208365  71.2470957  42.4778618  34.5819280  70.6934311
  41.6470547  35.6654189  70.8178819  42.2041977  35.1918509  71.1021388
  43.6741316  48.1427114  62.6925178  43.2821108  47.8393829  61.9748044
  43.8294388  48.9796204  62.5030132  43.6394906  48.2210950  62.5581675
  31.1502496  38.1349128  62.6416061  31.5301461  38.5533673  61.9776328
  30.5757861  38.7162583  62.9484904  31.1213821  38.2826987  62.5892802
  44.4275736  36.8297430  72.1854264  43.6152418  36.5223321  72.2667437
  44.8865671  36.3496431  72.7496977  44.3756121  36.7133923  72.2808859
  43.8380991  44.7077102  62.6331209  43.4795646  44.8791745  63.4095241
  43.3519702  45.1690308  62.0759207  43.7139688  44.8016074  62.6656478
  41.6551377  28.3308301  66.2358300  40.7844935  28.3047022  66.1891610
  41.9091718  28.1585493  65.4184146  41.5644937  28.3018445  66.1078437
  41.5229244  38.2357502  76.9682967  41.9928875  38.8599618  77.3550841
  41.5691124  37.5674477  77.5276181  41.5997120  38.2292182  77.1083038
  38.6800517  30.3414529  67.6931771  38.1639006  29.6494721  67.8183350
  38.1194446  31.0085306  67.6394369  38.5207031  30.3377787  67.7037837
  40.7492751  30.8807489  69.5224623  40.3624504  30.9056521  70.3038153
  40.2625688  30.3149168  69.0699140  40.6205260  30.8003240  69.5712527
  44.9985730  45.5980998  73.5798410  45.6365451  45.1041194  73.2460866
  44.3559822  45.5258399  72.9950636  44.9979957  45.5140007  73.4440765
  46.7242730  37.4470144  68.1464325  46.2970338  37.3596493  67.3912425
  46.0868783  37.5547920  68.7319169  46.5672338  37.4502804  68.1209767
  40.4149893  27.7674475  71.8134883  41.0443011  28.3034775  71.5355953
  40.5835755  27.6751834  72.6648449  40.5327687  27.8335837  71.8983411
  40.2163807  32.5545670  74.0861295  41.0437237  32.2830819  74.1419909
  40.2371653  33.3506511  74.4425113  40.3416657  32.6325424  74.1476478
  45.0539987  46.2900807  70.2203766  45.8432365  45.9389871  70.3405848
  45.2283585  47.1037195  69.9580400  45.1960269  46.3586664  70.1991634
  34.7933297  39.7009532  67.2731555  33.9521304  39.6013407  67.4810449
  35.0023305  40.4705013  67.6245876  34.6997990  39.8001576  67.3558870
  32.2708864  37.3229069  65.1016306  31.8765562  37.3972081  64.3266416
  31.7148981  37.7087016  65.6524668  32.1311677  37.3910844  65.0683966
  43.9073811  30.3010363  64.7820185  44.1123404  30.2332671  65.6277182
  43.5800235  31.1069185  64.7141362  43.8889059  30.4096304  64.8979840
  38.6049962  37.6290932  66.5229153  38.3013100  37.0746920  67.1239560
  37.9029383  37.8083142  66.0357187  38.4566172  37.5735714  66.5398858
  37.6616059  34.9391451  61.0873855  37.9375794  34.2210364  60.6751422
  38.2614729  35.5376371  60.8794961  37.7909324  34.9211822  60.9954616
  36.6668313  44.8440652  71.2301251  36.5588668  44.8542714  72.0963309
  36.8764095  45.6695433  71.0406204  36.6818424  44.9681727  71.3305342
  47.1607499  30.8542128  64.2622950  46.5481812  31.3412530  64.6476682
  47.2571674  30.1785619  64.8060601  47.0845396  30.8260436  64.4001808
  41.1626580  32.6104969  59.3620450  41.6170326  32.7815529  60.0868294
  41.6366625  31.9973079  58.9618225  41.2994900  32.5455854  59.4094211
  34.6842105  42.0953295  68.6923188  34.0930038  42.7362793  68.6626203
  35.4463129  42.5190912  68.6654488  34.7090366  42.2529133  68.6838335
  35.0802728  33.2555292  69.3591206  35.5404209  33.3294222  70.0966330
  35.1258835  34.0536547  69.0091027  35.1553283  33.3849440  69.4163962
  36.7286078  33.9221987  73.9263233  36.3371643  33.2755334  74.3619011
  36.8971940  34.5133423  74.5457488  36.6956988  33.9136255  74.0825939
  50.8032527  41.9259064  69.6900466  50.8615650  42.3745713  70.4360443
  50.1698994  42.3357877  69.2530546  50.7183822  42.0532799  69.7353015
  44.4431621  47.5462606  66.1255213  44.2451310  48.0353421  65.4311424
  43.8219332  47.7503848  66.7039346  44.3219186  47.6479145  66.1078436
  38.5039600  39.3147503  60.4665457  39.2481645  39.7021779  60.7048407
  38.6500296  38.4704929  60.6305945  38.6350185  39.2477976  60.5259427
  40.4219175  31.1097762  65.4997318  39.5755220  31.2820570  65.3738668
  40.4190308  30.3047106  65.8363147  40.2966325  31.0158791  65.5308445
  41.4917476  34.8872976  66.3659376  41.0177430  34.3614738  66.8764687
  41.8635611  34.3402449  65.7974238  41.4767365  34.7288973  66.3574523
  31.8690506  36.8844483  71.7342922  32.7316119  36.7840192  71.6480252
  31.5382289  36.3039192  71.1728494  31.9475702  36.7836110  71.6388328
  47.7554206  39.9475352  67.7766157  47.5152429  39.1081767  67.7808583
  48.2346213  40.0275519  68.5006930  47.7906390  39.8356752  67.8840959
  49.7559393  36.7276809  65.7295416  49.5169163  36.6872643  64.8916200
  49.9193294  37.5747961  65.8561137  49.7449697  36.8468894  65.6248898
  46.3605423  41.1126759  71.6600461  47.0839622  40.6599285  71.4811481
  46.0955386  41.3931424  70.8772789  46.4286697  41.0877727  71.5179176
  35.2292292  35.7086932  68.3953340  34.6045362  35.7205324  67.7879293
  34.8937887  36.1847107  69.0444580  35.0877784  35.7805449  68.4009909
  31.9417967  43.7687392  69.8357104  31.4117892  43.0779831  69.8852079
  32.2143061  43.7597578  69.0069813  31.9042690  43.6654524  69.7204520
  42.1424213  41.2110637  69.8095476  41.5281206  40.6668687  70.1044111
  42.6591498  40.6974873  69.3301292  42.1279875  41.0547046  69.7819704
  41.3820510  42.2814907  67.5439775  40.9548118  41.6564626  67.1105210
  41.3745454  41.9989829  68.3698782  41.3179651  42.1467688  67.6019602
  34.4983037  37.3180080  70.6128209  34.6576524  36.5623404  71.0179931
  34.3175931  37.8671019  71.2668946  34.4948396  37.2873894  70.7690915
  42.4403340  29.4841316  71.1678998  41.9443901  29.6804990  70.4770565
  43.1972402  29.8833984  70.9967800  42.4790165  29.5719049  71.0399135
  39.7106220  33.1583661  67.7582309  39.7348707  32.6243774  67.0695089
  39.9617693  32.6500970  68.4207899  39.7516138  33.0044565  67.7546953
  27.2213809  40.4415156  67.1925453  27.1157259  40.3962001  66.3277537
  26.4714029  40.7868937  67.4739738  27.0949412  40.4856065  67.1062782
  35.9907542  31.8854480  67.1388053  36.0305913  32.3863686  67.8522760
  35.1657207  31.9764873  66.8693976  35.8747068  31.9736296  67.2038591
  38.1737155  41.4515220  75.2408348  37.3232785  41.5886934  75.3765992
  38.3365282  40.7178998  75.6856049  38.0721018  41.3629321  75.3263947
  37.4121905  38.4014989  69.4361952  36.5813835  38.5688807  69.2297200
  37.3573422  38.0250940  70.2210837  37.2811320  38.3704721  69.5210480
  35.2205689  31.8923882  75.0718363  35.8458392  31.3486015  75.3447795
  34.7656168  31.4118800  74.5026153  35.2453949  31.7413364  75.0279957
  35.7857949  36.6770581  59.9652070  35.9260910  37.1743045  60.6680711
  36.2840482  35.9756875  60.1066283  35.8799030  36.6472560  60.0903649
  35.8158171  37.5437692  57.2944647  36.4503251  38.1398117  57.2294108
  35.8983782  37.2441150  58.1090517  35.9214722  37.5878600  57.4047733
  48.7940737  40.0753169  70.1631011  49.3858578  40.7150420  70.1949209
  49.2299732  39.3776206  70.4523078  48.9459168  40.0671520  70.2111843
  37.3937154  33.4751667  57.2690089  37.7152995  32.9954750  56.6149351
  37.6564098  34.2851314  57.0780900  37.4803180  33.5241565  57.1445581
  40.6234127  44.4970542  70.7888905  40.1159218  45.0506389  71.2329535
  40.3260773  44.5578832  69.9707679  40.5039012  44.5876853  70.7337361
  42.7896309  32.8623861  69.6313568  43.2151381  32.4096388  69.0197094
  42.1753302  32.3083932  69.9078355  42.7624955  32.7137838  69.5818593
  32.3211159  39.7405533  60.5634193  32.8303389  40.3370040  60.9445498
  32.7945432  39.4731506  59.8810612  32.4654535  39.7891348  60.5188715
  41.2290532  29.3338961  63.0404145  40.5858850  29.1836608  63.6089283
  40.8889939  29.0881307  62.2753249  41.0835610  29.2751084  63.0107160
  39.8676612  49.4295100  67.6945911  39.6442267  48.6713929  68.0629938
  39.3786456  49.4593121  66.9726351  39.7620061  49.3217325  67.6422652
  45.9818006  33.7454272  65.3724526  46.3345616  33.3183995  66.0470325
  45.1232808  33.6605115  65.5025603  45.9067451  33.6699012  65.4919537
  34.6801691  36.3761791  63.4307373  33.9613680  36.7925924  63.6980236
  35.0514053  36.9416030  62.8799011  34.6293623  36.5211073  63.3890180
  43.9801272  37.0089640  69.3209369  43.9599199  36.8272935  70.1744148
  44.0280473  37.8801659  69.2968952  43.9835913  37.1106179  69.4432663
  41.9247602  43.5976832  75.2457845  41.8843457  42.9526509  74.6603001
  42.7370920  43.5413450  75.5583257  42.0390755  43.4935799  75.2054794
  38.5155069  49.6495558  65.1482996  38.1015468  48.9869688  64.7586838
  39.2002444  49.7973417  64.6278690  38.5553441  49.5736216  65.0139493
  41.8820363  48.8085643  65.9006613  41.4836647  48.9187914  65.1327433
  41.2671583  49.0167710  66.4833172  41.7319253  48.8559211  65.8737912
  40.4548265  35.4159791  58.7680752  39.8613105  35.7376788  58.2165319
  40.4923543  34.5700887  58.5601859  40.3722655  35.3384120  58.6563524
  47.4142066  28.8672684  66.3008839  46.9072931  28.1601823  66.2330016
  48.2109500  28.5365872  66.4309915  47.4569305  28.7145835  66.3107834
  37.6125310  37.2273769  71.8007603  37.1004214  36.6194952  72.1592634
  37.4404807  37.9430361  72.2681579  37.5114948  37.2437068  71.9223827
  32.4591025  35.6711344  74.4509965  32.2893615  36.3312719  73.9058171
  32.0156975  35.8817905  75.1722454  32.3690359  35.7997326  74.4771594
  36.3850845  33.9115842  63.4936698  36.8608211  34.2732922  62.8586879
  35.8839444  34.5672310  63.7736841  36.3816204  34.0610031  63.4413439
  41.4894381  35.1498013  74.2409858  42.0465811  34.9211823  73.6088324
  41.1655446  35.9103679  73.9645071  41.5240791  35.2281850  74.1066356
  29.3593090  38.5758210  69.7098454  28.8119809  37.9058855  69.8279323
  30.1485468  38.2088058  69.7741922  29.3945273  38.4223196  69.7367155
  39.2077498  38.2365667  75.2061866  39.9588825  38.5517344  75.5201420
  39.4000075  38.0344838  74.3795787  39.3468912  38.2533049  75.1305261
  46.0562788  34.3639233  62.4485661  46.0557015  34.2087890  63.3069937
  45.8518968  35.2102220  62.3927047  46.0262566  34.4659854  62.5673600
  28.1180059  37.7879018  66.8644478  27.9401820  37.3355626  67.5899393
  27.8299081  38.5905179  67.0482955  28.0493012  37.8401575  66.9987980
  43.7803640  39.0436735  66.1021868  44.2757306  38.3259730  66.0625888
  42.9703416  38.7407533  65.9876355  43.7347534  38.8934381  66.0795594
  29.8552529  40.3206741  63.9766237  28.9898049  40.3092432  63.8649008
  29.9551345  40.1336964  64.8237376  29.7426696  40.2912802  64.0855181
  45.8455459  41.7940422  68.7898997  46.2710531  41.2714844  68.2369422
  45.4812379  42.3921260  68.2687620  45.8542062  41.8050649  68.6308006
  35.4809539  50.0904640  67.5496342  35.7956098  50.9041028  67.5574124
  35.8902952  49.7054859  68.2178501  35.5877637  50.1533342  67.6500434
  42.4334059  45.5074687  65.1200154  42.9045237  46.2214949  65.2890139
  42.7694237  44.9073437  65.6560024  42.5529174  45.5246151  65.2232530
  44.5211043  47.1176000  77.2992226  44.6308009  46.3284561  77.6548973
  44.8501940  47.0281936  76.4966564  44.5863449  46.9881853  77.2334617
  39.3503554  30.2802157  72.0758249  39.4831459  29.4833151  72.4039224
  39.7348706  30.8068560  72.6556524  39.4259882  30.2402074  72.2101752
  43.0708005  45.2992621  71.8827847  42.5228951  44.6750504  71.6147912
  43.5321034  45.4886893  71.1671926  43.0575214  45.2351671  71.7378278
  42.4235909  27.2032483  68.6739342  41.6181872  27.0930213  68.9907180
  42.2942644  27.3044939  67.8169208  42.2856042  27.2016153  68.5947383
  45.8801869  33.3677975  69.2679039  45.2964858  33.8687182  68.8556606
  46.2006163  32.8607531  68.6343362  45.8415045  33.3669810  69.1137546
  38.4196668  32.2818570  59.5437714  39.2412363  32.4516883  59.3019409
  37.9566319  32.4365831  58.8204011  38.4727831  32.3300303  59.4009358
  37.0092000  30.2761332  70.3236143  37.5536413  29.9352459  70.9140484
  37.0628936  31.1346794  70.4657427  37.0981120  30.3516592  70.4318016
  32.8222559  44.0377748  67.1974951  33.4267416  43.9973582  66.5688771
  32.6149872  44.8848900  67.2279006  32.8811456  44.1565751  67.1091067
  42.6366331  46.3043693  68.4137188  43.4564705  46.1606660  68.6753483
  42.3560409  46.9289892  68.9553626  42.7163075  46.3754046  68.5325127
  28.0573841  43.0212366  67.0673874  27.9598119  42.2108637  67.3763930
  28.8402711  43.0004159  66.6820142  28.1589978  42.8979456  67.0560737
  59.1079982  53.9608545  61.3780064  59.0773986  54.8153182  61.5498334
  59.7061330  53.6603838  61.9366208  59.1917139  54.0425042  61.4854867
  52.3079666  53.0484196  66.1332995  51.4517562  53.2092694  66.1842111
  52.3547320  52.1776260  66.1538056  52.1878778  52.9434998  66.1439061
  46.6920806  62.5846914  61.8970226  45.9403706  62.2062452  61.6686271
  47.1406818  62.6165348  61.1489037  46.6470473  62.5332521  61.7527728
  52.1445766  63.0072284  57.3255773  51.8097135  63.6849205  56.8899995
  52.6572636  62.6177595  56.7372645  52.1711347  63.0496862  57.1742565
  51.6850057  64.9586552  63.2666885  52.0689437  65.5273451  62.7271660
  51.6209199  64.2336063  62.7872701  51.7323485  64.9362016  63.1160747
  55.1531487  55.1076240  68.7764646  55.6987448  55.7861327  68.8358616
  55.0948364  54.9663701  67.9166228  55.2247402  55.1868242  68.6576707
  48.2705562  62.5965306  64.1632999  48.3715925  61.7865660  64.4730127
  47.6747308  62.5022253  63.5332677  48.1978101  62.4630334  64.1159237
  56.9296556  56.5360847  59.6498374  56.8136082  57.2868533  60.0790512
  57.7252443  56.2784801  59.8994461  57.0301146  56.6095694  59.7502466
  48.1106302  67.5142895  65.5647855  48.7543757  67.9556059  65.9544013
  48.4362557  66.7096322  65.4778114  48.2538131  67.4608090  65.6093332
  41.4670607  58.6185593  63.7885332  41.2320791  57.7853245  63.6817601
  41.6056247  58.8990258  62.9746533  41.4526269  58.5369096  63.6527687
  43.7660694  50.7871323  66.6869640  43.1465726  50.1963971  66.5179655
  43.6644558  51.3782759  66.0533963  43.6598370  50.7875406  66.5674630
  48.8126882  60.5254870  60.9367717  49.1342723  61.0660078  60.3329025
  49.4598978  59.9551642  61.0690006  48.9552937  60.5214045  60.8674752
  50.8628590  52.5270865  61.0202103  51.5608754  52.7058993  61.5123566
  51.1780922  52.0041205  60.3972493  51.0123927  52.4764637  61.0004113
  43.4929827  54.3323605  68.9313209  43.3688524  54.9186051  69.5663028
  44.1448112  53.8383801  69.2325484  43.5703476  54.3462410  69.0699138
  51.0516525  58.9141310  61.0081895  51.4910161  58.3058411  61.4536667
  50.9021188  58.5348684  60.2367360  51.0937991  58.7679781  60.9601062
  48.5188168  57.5085322  68.2100720  49.1637171  57.0157765  67.8911669
  48.7589945  57.6510109  69.0366798  48.6498753  57.4562764  68.2850253
  51.0574259  60.3540228  67.8607613  51.3397502  59.5591634  67.6394369
  51.7860420  60.8320815  67.8812674  51.2063823  60.3074825  67.8310628
  54.6525862  57.2668491  57.9612664  54.5677157  58.1229458  58.1062233
  55.1410245  56.9912816  58.6294823  54.7114759  57.3525813  58.0814745
  56.2431861  43.8848785  63.3472989  55.9285302  44.5752263  63.7793411
  55.7258803  43.8293567  62.6458489  56.1196331  43.9783673  63.3069938
  55.5844295  53.8853286  59.4610399  55.0555766  54.1012919  60.1207705
  56.1069315  54.5789424  59.3811368  55.5832748  54.0196423  59.5465998
  61.0392348  59.4599590  64.8343444  60.2090051  59.6710234  64.9976860
  60.9901600  58.6336645  64.5585727  60.9099083  59.3689196  64.8180809
  47.4743903  57.7816502  58.2617867  46.8901118  58.2866534  58.6683731
  47.0713998  57.5558889  57.5214459  47.3283206  57.8224751  58.2122892
  43.0287931  63.4971264  65.0641539  42.5455510  64.2221753  65.0401122
  43.8411250  63.7947394  65.1751696  43.0778679  63.6473617  65.0768818
  49.1002085  62.2903444  67.6691353  48.5829027  61.9310859  67.0652661
  49.7976477  61.7665619  67.6797419  49.1267666  62.1601132  67.5821612
  51.9321117  54.0282155  56.7386788  52.1717121  54.2360138  55.9262131
  52.2536958  53.2239663  56.8475732  52.0158275  53.9396256  56.6347341
  45.8832129  64.0127440  65.2161818  46.5852708  63.4979429  65.2734575
  45.8029612  64.3401591  66.0208694  45.9755889  63.9841666  65.3434611
  60.5346306  52.1069991  68.6293865  59.6974727  52.1772178  68.8641459
  60.5034537  52.1094486  67.7568167  60.4064588  52.1180218  68.5353413
  46.9311035  54.2503026  74.3442234  47.1031539  54.1408921  75.1927515
  47.4680393  54.8957432  74.1073426  47.0356039  54.3295028  74.4347330
  45.2082904  60.2033791  64.7247426  46.0471803  60.4356724  64.7721188
  45.2394673  59.3338103  64.6554462  45.3364622  60.1090738  64.7212071
  45.8335607  60.6234667  69.0260732  46.3733832  60.4805798  69.6964104
  45.1505553  61.0231417  69.3944758  45.8127761  60.6614338  69.1795154
  55.2576492  56.3025667  64.2205756  56.0134007  56.7357182  64.2594665
  55.3638816  55.6530437  64.7940392  55.3846662  56.2703151  64.3103782
  58.2956663  60.1298945  64.9708159  57.8591895  60.1335687  65.7267131
  57.9619578  60.8104444  64.5387737  58.1819283  60.2311400  65.0188992
  41.2372752  56.8434957  69.1795154  40.9711167  56.0274074  69.3386144
  41.2511316  56.8888113  68.3090669  41.1997474  56.7291862  69.0748635
  58.2154146  47.1712772  67.2137587  58.8580054  47.2410877  67.7999503
  58.4677167  46.5041995  66.7117129  58.3476278  47.0839121  67.2264867
  45.9871358  50.3813336  71.8262161  45.2943155  49.9110315  72.0722893
  46.6031686  50.1551640  72.4003868  45.9755888  50.2780468  71.9471314
  61.4301009  56.8479864  63.8627797  62.0917443  56.2870533  63.7623705
  60.7892421  56.3531895  64.1880488  61.4329877  56.6916273  63.8960137
  52.3177817  60.1449996  56.1708720  52.7328965  59.8135020  55.4793216
  51.4869747  59.9118898  56.0428856  52.2565826  60.0621252  56.0499567
  41.6466166  57.6293737  66.4606898  41.4641739  57.6040623  65.6079190
  42.3815835  58.0992675  66.4995807  41.7280230  57.6955099  66.3404816
  57.7165840  57.8645247  63.6039785  57.9521429  58.0090446  62.7766636
  57.8655404  58.6287655  63.9971299  57.7731643  57.9984301  63.5403389
  44.7111917  54.3478740  72.9689006  45.4351890  54.3331770  73.4553901
  44.8128054  55.0574095  72.4710975  44.8330126  54.4503443  72.9667793
  59.5456297  56.7046913  61.4409389  59.8764514  57.2374553  60.8349484
  60.1189385  56.7585801  62.0971340  59.6789976  56.7916482  61.4487171
  54.7588186  54.5511815  62.1232969  54.8535040  55.2901110  62.5772595
  54.1347029  54.1229291  62.5567534  54.6797216  54.5973136  62.2541117
  41.6137076  54.5087238  66.6105964  42.1910579  54.3723688  67.2498210
  40.9151138  54.0523022  66.8651549  41.5958097  54.4209504  66.7428254
  55.0111207  56.3960555  55.3569921  54.9291370  56.4662742  56.2224908
  55.6490928  56.9590299  55.1653662  55.0931044  56.4899526  55.4559871
  48.3704378  56.1621293  64.8244448  48.1123623  55.3293028  64.7975747
  48.4252861  56.3878906  63.9836948  48.3404156  56.0719064  64.6964584
  47.3439090  53.7159056  65.3109342  46.7688682  53.8751224  65.9473303
  46.9674767  53.0794465  64.8477793  47.2041903  53.6456869  65.3363901
  51.0112379  52.1882405  70.1701721  50.6226812  51.7636623  69.5153912
  50.3467077  52.4364555  70.6778747  50.8559307  52.1621126  70.1489589
  60.6535648  51.9457410  62.9449551  60.3972213  51.1337351  62.7547434
  61.4964962  51.9534977  62.7179738  60.7401674  51.8269407  62.8834368
  37.0895909  53.3599130  63.3253783  37.1756161  52.9830999  64.1067313
  37.7171707  52.9859576  62.8473741  37.1952460  53.2484613  63.3699260
  54.8338741  45.8857034  67.6825705  55.2149252  45.2035205  68.0693579
  54.0302025  45.5966636  67.5001369  54.7715202  45.7424082  67.7129761
  52.1151317  56.4181010  58.3678528  52.9291956  56.7095902  58.2561299
  52.0510459  55.7640872  57.7936821  52.2254056  56.3646204  58.2667365
  47.9859226  59.8902527  63.4950840  48.6233172  59.6514275  64.0402633
  48.4114297  60.0939686  62.7604000  48.1435392  59.8853537  63.4667997
  42.6771868  62.1290864  67.3785144  42.7176013  62.4005715  66.5504923
  43.2366392  62.6532772  67.7942931  42.7655214  62.2466619  67.3177032
  48.6262041  55.1104817  57.8325729  49.0107193  54.8912524  58.5842274
  48.3773661  55.9367762  57.9626806  48.6464113  55.2002963  57.9626806
  48.7930581  48.3911232  77.5488313  48.4784022  49.1610795  77.2857876
  48.4720514  47.8281488  76.9640540  48.6989500  48.4221501  77.4229663
  50.3680698  60.3674950  65.1744626  50.4419706  60.2050122  66.0286476
  51.1850204  60.5565139  64.9305108  50.4997056  60.3711692  65.2642652
  44.1286454  60.7132812  62.2039070  43.3024572  60.9594550  62.0773348
  44.1898445  60.6344893  63.0701128  44.0160621  60.7377761  62.3128014
  46.3462478  46.7801753  63.1634510  45.4784903  46.8524353  63.2292119
  46.6337682  47.5823832  63.3522485  46.2602226  46.9095901  63.2009276
  55.4695367  46.9279613  71.4945832  56.2148959  46.7389423  71.0809257
  55.0532671  47.4537851  70.9359688  55.5180341  46.9781758  71.3510405
  48.9085283  63.3309693  59.9058099  49.1983582  62.9398674  59.1817326
  49.6388764  63.5126398  60.3463375  49.0592167  63.3003506  59.8640906
  62.8457638  54.2988841  66.4451337  63.3965559  53.6656910  66.6848429
  62.8301753  54.8304234  67.1366841  62.9242834  54.2837789  66.5830195
  49.4980028  58.1327439  70.9911230  48.9991722  58.8443206  71.0696118
  50.3080253  58.4528105  70.9529392  49.5436135  58.2854287  70.9967798
  46.8491199  65.3077075  62.9718249  46.6291494  65.0174430  63.7644916
  46.6285721  64.6492030  62.4436162  46.7838793  65.1676783  63.0107158
  45.7608146  57.3950392  65.2373951  45.4721395  56.7687863  65.7719678
  46.6291494  57.3370679  65.3038631  45.8468398  57.2937936  65.3264905
  56.5486044  52.5385175  65.5555933  56.2050810  51.8175510  65.9063182
  56.6479086  52.3299026  64.7134291  56.5128087  52.4009378  65.4827613
  49.0159155  66.6806465  61.7548942  49.6683213  66.1482907  61.9839968
  48.3184763  66.3275117  62.1416816  49.0089872  66.5495988  61.8461109
  45.9640419  59.0345643  61.1616316  46.7186387  59.4158682  61.3751778
  45.3711032  59.4856786  61.6163012  45.9877133  59.1574470  61.2599194
  57.0099073  59.0010879  61.0979921  57.5757106  59.6604089  61.0138464
  56.3626976  59.3460577  61.5696323  56.9977829  59.1492820  61.1552677
  48.4247086  50.9908483  76.2873528  47.6146862  51.2966263  76.1763370
  48.9021773  51.7114065  76.4026112  48.3750565  51.1423084  76.2880599
  47.2838646  60.2054204  66.5356431  46.7619399  60.3454496  67.2208296
  47.6712666  59.4464868  66.7258549  47.2642347  60.1139728  66.6657508
  44.2729830  50.2560013  60.6051386  43.9854626  49.8861283  59.8683333
  44.9600298  50.7254868  60.3435091  44.3318727  50.2706982  60.4566462
  53.4805651  61.9449663  60.5217000  53.2392327  61.2117524  60.1144065
  53.6606984  62.4936520  59.8683333  53.4713275  61.9172054  60.3647223
  48.7104972  57.2358223  61.9337922  48.5147754  57.8432958  61.3398225
  48.9339317  56.5426167  61.4529596  48.7139613  57.2235749  61.7754003
  47.1083502  54.1212961  62.0518791  47.8306154  54.2854119  61.5922597
  46.6291494  54.8422626  61.9458130  47.1447232  54.2511191  61.9684405
  55.0677009  50.4576760  67.4315476  54.2288110  50.4838039  67.1953739
  55.1381376  51.1047495  68.0120822  54.9545403  50.5572886  67.4824592
  44.7591118  56.5271033  71.1572931  45.2712215  56.8055287  70.5081690
  44.4727461  57.2660327  71.5235744  44.7925981  56.6773387  71.1162809
  58.9434533  55.6644747  64.7176717  58.8568508  55.8200173  65.5711496
  58.4885013  56.3082822  64.3436122  58.8637790  55.7820502  64.7883824
  48.2774844  48.6197422  71.2173972  48.0858041  48.6352556  72.0673396
  49.1273440  48.8161096  71.1940627  48.3750566  48.6511773  71.3397267
  42.6621757  51.1488403  69.1957789  42.5207249  50.2972344  69.3202297
  42.9462320  51.1917064  68.3719995  42.6829603  51.0288153  69.0925413
  52.8160349  52.9855494  63.3402277  52.5695063  52.9051245  64.1739066
  53.1445472  52.2008961  63.1464804  52.8281593  52.8581759  63.4349800
  56.7108398  59.6938853  67.1289058  56.5722757  60.3919899  67.6337801
  55.9308396  59.5387509  66.7725240  56.5751625  59.7739020  67.1515332
  48.7757376  55.7212212  72.7525260  48.9200752  56.3013420  72.1168370
  49.1233025  56.0988509  73.4575115  48.8484838  55.8632916  72.7624255
  50.9477294  54.9202381  70.5350392  50.2000608  55.1133395  70.1298670
  51.1018819  54.0947600  70.2974513  50.8599721  54.8267492  70.4395797
  47.8485131  63.9114984  69.6186287  47.9974695  63.3517900  68.9659691
  48.6285133  63.9906986  70.0018806  47.9859225  63.8400550  69.5783236
  58.2061771  59.0517107  57.8905557  57.8268579  58.2654245  57.8834847
  57.5428016  59.6003964  57.7477202  58.0520246  59.0161931  57.8686354
  51.1879071  48.8152931  71.4245795  51.6451685  49.5476906  71.5518588
  51.2635400  48.3919397  72.1833051  51.2670041  48.8610169  71.5546872
  43.4312062  49.0618751  72.5135239  42.8954251  48.4499109  72.8296006
  43.4929827  49.6366887  73.1668906  43.3607695  49.0565679  72.6570666
  55.6606397  41.9942807  65.2939638  55.7789965  42.4519270  64.5606941
  55.4868572  41.1888068  65.0075856  55.6525568  41.9436579  65.1440572
  51.0308679  62.6030626  61.7294384  51.7958570  62.3340270  61.4077048
  50.9286769  62.1180636  62.4464446  51.1290174  62.4920190  61.7874211
  49.0661449  50.8055035  68.2687619  48.2757523  50.6246495  68.5904955
  49.4622071  50.0281988  68.2517914  49.0078325  50.6642496  68.3140168
  53.5527339  59.6342810  53.7094333  54.3200325  59.6942935  53.3000185
  53.1058648  59.0623251  53.2250651  53.6000767  59.5579385  53.5772043
  54.4505135  58.4397465  65.9947065  53.7750137  58.2082698  66.4960452
  54.4597511  57.8318648  65.3689170  54.3523640  58.3156391  65.9763217
  51.5799279  53.2815294  72.7511118  51.5158420  54.1425251  72.6231255
  51.7196467  52.9647288  71.9506670  51.5914749  53.3615461  72.6139331
  56.4521870  61.2962598  58.2257243  56.5341707  62.1029584  57.9018694
  56.9371612  61.3158557  58.9498017  56.5359027  61.4183260  58.2844142
  50.2618373  55.9747434  66.8927321  49.8380622  56.1751933  66.1566339
  50.0863228  55.1276282  67.0051621  50.1729253  55.8796215  66.8001011
  45.5500818  56.4699485  62.3255294  45.7065437  56.4046288  63.1811286
  45.8901411  57.2448038  62.1133973  45.6234053  56.5748683  62.4209888
  52.0879962  55.8457369  61.1948657  52.6295508  55.3427750  61.6587277
  52.4026521  55.7922563  60.3838142  52.2144359  55.7636790  61.1432469
  50.2566412  61.2374720  58.4788685  50.3259232  60.3789259  58.6181685
  51.0354867  61.4546601  58.1507709  50.3819262  61.1427584  58.4505842
  53.2369232  50.7393673  71.2470957  53.4511201  50.1004587  70.6934311
  52.6203131  51.1839497  70.8178819  53.1774561  50.7103817  71.1021388
  54.6473900  63.6612422  62.6925178  54.2553691  63.3579137  61.9748044
  54.8026972  64.4981511  62.5030132  54.6127490  63.7396258  62.5581675
  42.1235079  53.6534436  62.6416061  42.5034044  54.0718981  61.9776328
  41.5490444  54.2347891  62.9484904  42.0946404  53.8012294  62.5892802
  55.4008320  52.3482738  72.1854264  54.5885002  52.0408629  72.2667437
  55.8598254  51.8681739  72.7496977  55.3488705  52.2319231  72.2808859
  54.8113574  60.2262410  62.6331209  54.4528229  60.3977053  63.4095241
  54.3252285  60.6875616  62.0759207  54.6872271  60.3201381  62.6656478
  52.6283960  43.8493609  66.2358300  51.7577518  43.8232330  66.1891610
  52.8824302  43.6770801  65.4184146  52.5377521  43.8203753  66.1078437
  49.6001940  55.9061576  55.1731443  49.8894465  56.6826458  55.4475017
  49.6873739  55.3950307  55.8745942  49.6556196  55.9453494  55.3173941
  49.6533101  45.8599837  67.6931771  49.1371590  45.1680029  67.8183350
  49.0927030  46.5270614  67.6394369  49.4939614  45.8563095  67.7037837
  51.7225334  46.3992797  69.5224623  51.3357088  46.4241829  70.3038153
  51.2358272  45.8334476  69.0699140  51.5937843  46.3188548  69.5712527
  57.6975314  52.9655452  68.1464325  57.2702922  52.8781801  67.3912425
  57.0601367  53.0733228  68.7319169  57.5404921  52.9688112  68.1209767
  51.3882476  43.2859783  71.8134883  52.0175594  43.8220083  71.5355953
  51.5568339  43.1937142  72.6648449  51.5060271  43.3521145  71.8983411
  51.1896391  48.0730978  74.0861295  52.0169820  47.8016126  74.1419909
  51.2104237  48.8691819  74.4425113  51.3149241  48.1510732  74.1476478
  45.7665881  55.2194840  67.2731555  44.9253887  55.1198715  67.4810449
  45.9755889  55.9890321  67.6245876  45.6730573  55.3186884  67.3558870
  43.2441448  52.8414377  65.1016306  42.8498146  52.9157389  64.3266416
  42.6881565  53.2272324  65.6524668  43.1044260  52.9096152  65.0683966
  54.8806395  45.8195671  64.7820185  55.0855988  45.7517979  65.6277182
  54.5532819  46.6254493  64.7141362  54.8621642  45.9281612  64.8979840
  49.5782546  53.1476240  66.5229153  49.2745683  52.5932228  67.1239560
  48.8761966  53.3268450  66.0357187  49.4298756  53.0921022  66.5398858
  47.6400897  60.3625960  71.2301251  47.5321252  60.3728022  72.0963309
  47.8496678  61.1880741  71.0406204  47.6551008  60.4867035  71.3305342
  58.1340082  46.3727436  64.2622950  57.5214396  46.8597838  64.6476682
  58.2304257  45.6970926  64.8060601  58.0577980  46.3445744  64.4001808
  45.6574689  57.6138603  68.6923188  45.0662622  58.2548101  68.6626203
  46.4195712  58.0376220  68.6654488  45.6822949  57.7714441  68.6838335
  46.0535311  48.7740600  69.3591206  46.5136793  48.8479530  70.0966330
  46.0991418  49.5721854  69.0091027  46.1285867  48.9034747  69.4163962
  47.7018661  49.4407295  73.9263233  47.3104226  48.7940642  74.3619011
  47.8704524  50.0318731  74.5457488  47.6689572  49.4321563  74.0825939
  55.4164205  63.0647914  66.1255213  55.2183894  63.5538729  65.4311424
  54.7951916  63.2689156  66.7039346  55.2951769  63.1664452  66.1078436
  49.4772183  54.8332811  60.4665457  50.2214228  55.2207087  60.7048407
  49.6232879  53.9890236  60.6305945  49.6082768  54.7663284  60.5259427
  52.4650059  50.4058284  66.3659376  51.9910013  49.8800046  66.8764687
  52.8368195  49.8587757  65.7974238  52.4499948  50.2474281  66.3574523
  42.8423089  52.4029791  71.7342922  43.7048702  52.3025500  71.6480252
  42.5114872  51.8224500  71.1728494  42.9208286  52.3021418  71.6388328
  58.7286790  55.4660660  67.7766157  58.4885013  54.6267075  67.7808583
  59.2078797  55.5460827  68.5006930  58.7638973  55.3542060  67.8840959
  60.7291977  52.2462117  65.7295416  60.4901747  52.2057951  64.8916200
  60.8925878  53.0933269  65.8561137  60.7182280  52.3654202  65.6248898
  46.2024875  51.2272240  68.3953340  45.5777945  51.2390632  67.7879293
  45.8670470  51.7032415  69.0444580  46.0610367  51.2990757  68.4009909
  42.9150551  59.2872700  69.8357104  42.3850475  58.5965139  69.8852079
  43.1875644  59.2782886  69.0069813  42.8775273  59.1839832  69.7204520
  53.9470641  59.8698403  58.5594787  54.6704840  60.3356516  58.4159360
  53.5071232  59.9372012  57.8092384  53.9886334  59.9482239  58.4279568
  53.1156796  56.7295945  69.8095476  52.5013789  56.1853995  70.1044111
  53.6324081  56.2160181  69.3301292  53.1012459  56.5732354  69.7819704
  52.3553094  57.8000215  67.5439775  51.9280702  57.1749933  67.1105210
  52.3478038  57.5175137  68.3698782  52.2912235  57.6652995  67.6019602
  45.4715621  52.8365388  70.6128209  45.6309107  52.0808712  71.0179931
  45.2908514  53.3856327  71.2668946  45.4680980  52.8059202  70.7690915
  53.4135924  45.0026623  71.1678998  52.9176485  45.1990298  70.4770565
  54.1704986  45.4019292  70.9967800  53.4522748  45.0904357  71.0399135
  50.6838803  48.6768969  67.7582309  50.7081290  48.1429082  67.0695089
  50.9350277  48.1686278  68.4207899  50.7248722  48.5229873  67.7546953
  38.1946393  55.9600464  67.1925453  38.0889842  55.9147309  66.3277537
  37.4446613  56.3054245  67.4739738  38.0681996  56.0041372  67.1062782
  46.9640125  47.4039788  67.1388053  47.0038497  47.9048994  67.8522760
  46.1389790  47.4950181  66.8693976  46.8479651  47.4921604  67.2038591
  48.3854489  53.9200297  69.4361952  47.5546419  54.0874115  69.2297200
  48.3306006  53.5436248  70.2210837  48.2543904  53.8890029  69.5210480
  46.1938272  47.4109190  75.0718363  46.8190975  46.8671323  75.3447795
  45.7388752  46.9304108  74.5026153  46.2186533  47.2598672  75.0279957
  46.7590533  52.1955889  59.9652070  46.8993494  52.6928353  60.6680711
  47.2573065  51.4942183  60.1066283  46.8531614  52.1657868  60.0903649
  46.7890755  53.0623000  57.2944647  47.4235835  53.6583425  57.2294108
  46.8716366  52.7626458  58.1090517  46.8947306  53.1063908  57.4047733
  48.3669738  48.9936975  57.2690089  48.6885579  48.5140058  56.6149351
  48.6296682  49.8036621  57.0780900  48.4535763  49.0426873  57.1445581
  53.7628893  48.3809169  69.6313568  54.1883964  47.9281696  69.0197094
  53.1485886  47.8269240  69.9078355  53.7357538  48.2323146  69.5818593
  43.2943743  55.2590841  60.5634193  43.8035972  55.8555348  60.9445498
  43.7678015  54.9916814  59.8810612  43.4387119  55.3076656  60.5188715
  54.2074491  63.9319107  58.7192848  53.4903801  63.7579970  58.2540085
  54.8581229  63.6971680  58.1868334  54.1976341  63.8714900  58.5722066
  56.7922462  52.8083696  62.4634153  56.1213652  53.3513398  62.3347219
  57.4862212  53.2778551  62.2215848  56.7951330  52.9581967  62.4089681
  50.8409196  64.9480408  67.6945911  50.6174850  64.1899237  68.0629938
  50.3519039  64.9778429  66.9726351  50.7352645  64.8402633  67.6422652
  56.9550590  49.2639580  65.3724526  57.3078200  48.8369303  66.0470325
  56.0965391  49.1790423  65.5025603  56.8800034  49.1884320  65.4919537
  45.6534275  51.8947099  63.4307373  44.9346264  52.3111232  63.6980236
  46.0246637  52.4601338  62.8799011  45.6026206  52.0396381  63.3890180
  54.9533855  52.5274948  69.3209369  54.9331783  52.3458243  70.1744148
  55.0013056  53.3986967  69.2968952  54.9568496  52.6291486  69.4432663
  49.4887653  65.1680866  65.1482996  49.0748052  64.5054996  64.7586838
  50.1735027  65.3158725  64.6278690  49.5286025  65.0921524  65.0139493
  52.8552947  64.3270951  65.9006613  52.4569230  64.4373222  65.1327433
  52.2404167  64.5353018  66.4833172  52.7051836  64.3744519  65.8737912
  58.3874650  44.3857991  66.3008839  57.8805514  43.6787131  66.2330016
  59.1842083  44.0551180  66.4309915  58.4301889  44.2331143  66.3107834
  54.3038666  50.8924604  62.1982503  54.0752359  50.9157305  61.3560861
  54.5636742  50.0682071  62.3177513  54.3084854  50.7740684  62.0907700
  48.5857894  52.7459077  71.8007603  48.0736797  52.1380260  72.1592634
  48.4137390  53.4615669  72.2681579  48.4847531  52.7622376  71.9223827
  43.4323609  51.1896652  74.4509965  43.2626199  51.8498027  73.9058171
  42.9889559  51.4003213  75.1722454  43.3422942  51.3182634  74.4771594
  47.3583428  49.4301150  63.4936698  47.8340794  49.7918230  62.8586879
  46.8572028  50.0857618  63.7736841  47.3548787  49.5795339  63.4413439
  60.5894790  58.9022918  59.2849703  60.9728395  59.6514274  59.5147800
  59.7938903  59.1488738  59.0261692  60.5288572  59.0492612  59.2807277
  52.4626964  50.6683321  74.2409858  53.0198395  50.4397131  73.6088324
  52.1388029  51.4288987  73.9645071  52.4973375  50.7467158  74.1066356
  40.3325673  54.0943518  69.7098454  39.7852393  53.4244163  69.8279323
  41.1218051  53.7273366  69.7741922  40.3677857  53.9408504  69.7367155
  49.4010081  51.5742350  56.8610082  49.7809046  51.5921979  56.0761197
  48.6602677  52.0196339  56.7400930  49.3478919  51.6424124  56.7273650
  57.0295372  49.8824541  62.4485661  57.0289598  49.7273198  63.3069937
  56.8251552  50.7287528  62.3927047  56.9995150  49.9845162  62.5673600
  39.0912643  53.3064325  66.8644478  38.9134404  52.8540934  67.5899393
  38.8031665  54.1090487  67.0482955  39.0225596  53.3586883  66.9987980
  54.7536224  54.5622043  66.1021868  55.2489889  53.8445038  66.0625888
  53.9436000  54.2592840  65.9876355  54.7080117  54.4119689  66.0795594
  50.1994835  58.4119856  58.2518872  49.3906158  58.0886530  58.2052182
  50.7069744  57.7053078  58.1847121  50.1544502  58.2601172  58.2349167
  40.8285113  55.8392049  63.9766237  39.9630632  55.8277740  63.8649008
  40.9283929  55.6522272  64.8237376  40.7159280  55.8098110  64.0855181
  56.8188043  57.3125730  68.7898997  57.2443114  56.7900152  68.2369422
  56.4544963  57.9106568  68.2687620  56.8274645  57.3235957  68.6308006
  46.4542123  65.6089948  67.5496342  46.7688681  66.4226336  67.5574124
  46.8635536  65.2240166  68.2178501  46.5610221  65.6718650  67.6500434
  53.4066642  61.0259995  65.1200154  53.8777820  61.7400257  65.2890139
  53.7426821  60.4258745  65.6560024  53.5261757  61.0431459  65.2232530
  50.3236137  45.7987465  72.0758249  50.4564043  45.0018459  72.4039224
  50.7081290  46.3253868  72.6556524  50.3992466  45.7587382  72.2101752
  53.3968492  42.7217791  68.6739342  52.5914456  42.6115521  68.9907180
  53.2675228  42.8230247  67.8169208  53.2588625  42.7201461  68.5947383
  56.8534453  48.8863283  69.2679039  56.2697442  49.3872490  68.8556606
  57.1738747  48.3792839  68.6343362  56.8147628  48.8855118  69.1137546
  47.9824584  45.7946640  70.3236143  48.5268997  45.4537767  70.9140484
  48.0361520  46.6532102  70.4657427  48.0713703  45.8701900  70.4318016
  43.7955143  59.5563056  67.1974951  44.4000000  59.5158890  66.5688771
  43.5882455  60.4034208  67.2279006  43.8544040  59.6751059  67.1091067
  53.6098915  61.8229001  68.4137188  54.4297289  61.6791967  68.6753483
  53.3292992  62.4475200  68.9553626  53.6895658  61.8939353  68.5325127
  39.0306425  58.5397674  67.0673874  38.9330703  57.7293945  67.3763930
  39.8135295  58.5189467  66.6820142  39.1322561  58.4164764  67.0560737
  61.8361173  68.0456173  61.0202103  62.5341338  68.2244301  61.5123566
  62.1513506  67.5226512  60.3972493  61.9856510  67.9949945  61.0004113
  60.0088037  63.4148570  65.1023378  59.6791367  63.8659713  64.4327077
  59.3333039  63.3364733  65.6496384  59.8598473  63.4699705  65.0846601
  67.2164445  59.4034093  63.3472989  66.9017886  60.0937571  63.7793411
  66.6991386  59.3478875  62.6458489  67.0928915  59.4968981  63.3069938
  58.4476486  73.3001810  58.2617867  57.8633701  73.8051842  58.6683731
  58.0446581  73.0744197  57.5214459  58.3015790  73.3410059  58.2122892
  62.9053701  69.5467462  56.7386788  63.1449704  69.7545446  55.9262131
  63.2269542  68.7424971  56.8475732  62.9890859  69.4581564  56.6347341
  58.2143991  61.4760858  60.5846326  58.9689959  61.8439175  60.3463376
  58.0371526  61.8500413  61.3525505  58.2998469  61.5859046  60.6631214
  56.5701056  63.8831177  57.2824439  56.3876629  64.1003058  56.4565431
  57.4326669  63.9970190  57.3383053  56.6705645  63.9321075  57.1678926
  62.2500775  60.8857588  60.3173462  62.9786935  60.7073543  59.8711619
  62.3395668  61.7275668  60.5280641  62.3707437  60.9841466  60.2826980
  56.1163083  67.1605350  55.7946912  55.4021260  66.8743529  56.2069344
  56.6007051  67.5001976  56.4353299  56.0822446  67.1686999  55.9502547
  63.2910401  75.6635304  56.1708720  63.7061549  75.3320328  55.4793216
  62.4602330  75.4304206  56.0428856  63.2298409  75.5806560  56.0499567
  65.9843791  71.9145863  55.3569921  65.9023953  71.9848050  56.2224908
  66.6223511  72.4775607  55.1653662  66.0663628  72.0084834  55.4559871
  48.0628493  68.8784438  63.3253783  48.1488745  68.5016307  64.1067313
  48.6904290  68.5044884  62.8473741  48.1685044  68.7669921  63.3699260
  63.0883901  71.9366317  58.3678528  63.9024540  72.2281210  58.2561299
  63.0243042  71.2826180  57.7936821  63.1986640  71.8831512  58.2667365
  59.5994624  70.6290125  57.8325729  59.9839777  70.4097831  58.5842274
  59.3506244  71.4553070  57.9626806  59.6196697  70.7188271  57.9626806
  57.3195062  62.2987061  63.1634510  56.4517487  62.3709661  63.2292119
  57.6070266  63.1009140  63.3522485  57.2334810  62.4281208  63.2009276
  55.2462414  65.7745321  60.6051386  54.9587209  65.4046591  59.8683333
  55.9332882  66.2440176  60.3435091  55.3051311  65.7892290  60.4566462
  58.0816085  69.6398269  62.0518791  58.8038737  69.8039427  61.5922597
  57.6024078  70.3607934  61.9458130  58.1179816  69.7696498  61.9684405
  64.4878871  62.8747445  62.1643092  65.1905224  62.6755193  61.6863050
  64.2223060  62.1023387  62.4711935  64.5525503  62.7310411  62.1388533
  52.8190608  66.5526533  61.4536667  52.9206745  67.3552695  61.7817642
  53.6146495  66.3513869  61.1559748  52.9518514  66.6412432  61.4572022
  66.6338980  57.5128114  65.2939638  66.7522548  57.9704578  64.5606941
  66.4601156  56.7073376  65.0075856  66.6258151  57.4621887  65.1440572
  64.5259923  75.1528118  53.7094333  65.2932908  75.2128242  53.3000185
  64.0791232  74.5808559  53.2250651  64.5733350  75.0764693  53.5772043
  53.0967663  69.1719744  62.6416061  53.4766628  69.5904288  61.9776328
  52.5223028  69.7533199  62.9484904  53.0678988  69.3197602  62.5892802
  63.6016544  59.3678917  66.2358300  62.7310102  59.3417638  66.1891610
  63.8556885  59.1956109  65.4184146  63.5110104  59.3389061  66.1078437
  60.5734523  71.4246884  55.1731443  60.8627048  72.2011766  55.4475017
  60.6606322  70.9135615  55.8745942  60.6288780  71.4638802  55.3173941
  59.6081226  65.9762067  61.0873855  59.8840961  65.2580980  60.6751422
  60.2079896  66.5746987  60.8794961  59.7374491  65.9582438  60.9954616
  63.1091747  63.6475585  59.3620450  63.5635493  63.8186145  60.0868294
  63.5831793  63.0343695  58.9618225  63.2460067  63.5826470  59.4094211
  60.4504767  70.3518119  60.4665457  61.1946812  70.7392395  60.7048407
  60.5965463  69.5075544  60.6305945  60.5815352  70.2848592  60.5259427
  65.3666142  66.8180147  59.4285130  64.8389161  66.9008891  58.7390839
  65.8261851  67.5598018  59.4249775  65.3567993  66.9400809  59.3259825
  57.3599208  65.0882667  54.4526025  57.0112012  65.7402392  54.9157575
  56.8795653  65.0739780  53.7249896  57.2369451  65.1825720  54.4137116
  57.7323116  67.7141197  59.9652070  57.8726077  68.2113661  60.6680711
  58.2305649  67.0127491  60.1066283  57.8264197  67.6843176  60.0903649
  57.7623339  68.5808308  57.2944647  58.3968418  69.1768733  57.2294108
  57.8448949  68.2811766  58.1090517  57.8679890  68.6249216  57.4047733
  59.3402321  64.5122283  57.2690089  59.6618163  64.0325366  56.6149351
  59.6029265  65.3221929  57.0780900  59.4268347  64.5612181  57.1445581
  54.2676327  70.7776149  60.5634193  54.7768556  71.3740656  60.9445498
  54.7410599  70.5102122  59.8810612  54.4119702  70.8261964  60.5188715
  63.1755699  60.3709577  63.0404145  62.5324017  60.2207223  63.6089283
  62.8355106  60.1251922  62.2753249  63.0300777  60.3121700  63.0107160
  56.6266858  67.4132407  63.4307373  55.9078847  67.8296540  63.6980236
  56.9979221  67.9786646  62.8799011  56.5758790  67.5581689  63.3890180
  62.4013433  66.4530407  58.7680752  61.8078272  66.7747404  58.2165319
  62.4388710  65.6071503  58.5601859  62.3187822  66.3754735  58.6563524
  58.3316012  64.9486458  63.4936698  58.8073378  65.3103538  62.8586879
  57.8304611  65.6042926  63.7736841  58.3281371  65.0980647  63.4413439
  60.3742665  67.0927658  56.8610082  60.7541630  67.1107287  56.0761197
  59.6335261  67.5381647  56.7400930  60.3211503  67.1609432  56.7273650
  61.1727419  73.9305164  58.2518872  60.3638742  73.6071838  58.2052182
  61.6802328  73.2238386  58.1847121  61.1277086  73.7786480  58.2349167
  60.3661836  63.3189186  59.5437714  61.1877530  63.4887499  59.3019409
  59.9031486  63.4736447  58.8204011  60.4192998  63.3670919  59.4009358
  36.8565638  -0.1383940  48.3120111  36.8259643   0.7160697  48.4838380
  37.4546987  -0.4388647  48.8706255  36.9402796  -0.0567443  48.4194913
  30.0565323  -1.0508288  53.0673042  29.2003219  -0.8899790  53.1182158
  30.1032977  -1.9216225  53.0878103  29.9364435  -1.1557487  53.0779108
  24.4406463   8.4854429  48.8310273  23.6889362   8.1069968  48.6026318
  24.8892475   8.5172863  48.0829083  24.3956130   8.4340037  48.6867775
  33.3659040   5.2178237  62.6733498  34.0725807   4.7230268  62.8020432
  33.5546975   5.6587319  61.9436156  33.4986945   5.2096587  62.5842543
  29.8931423   8.9079799  44.2595820  29.5582791   9.5856720  43.8240042
  30.4058293   8.5185110  43.6712692  29.9197004   8.9504377  44.1082612
  29.4335714  10.8594068  50.2006932  29.8175093  11.4280966  49.6611707
  29.3694855  10.1343578  49.7212748  29.4809141  10.8369531  50.0500794
  32.9017144   1.0083755  55.7104693  33.4473104   1.6868842  55.7698663
  32.8434021   0.8671216  54.8506275  32.9733059   1.0875757  55.5916754
  26.0191219   8.4972822  51.0973046  26.1201582   7.6873175  51.4070173
  25.4232964   8.4029768  50.4672724  25.9463758   8.3637850  51.0499284
  34.6782213   2.4368363  46.5838421  34.5621739   3.1876049  47.0130559
  35.4738100   2.1792316  46.8334508  34.7786802   2.5103209  46.6842513
  25.8591959  13.4150411  52.4987902  26.5029414  13.8563575  52.8884060
  26.1848214  12.6103837  52.4118160  26.0023787  13.3615605  52.5433379
  19.2156263   4.5193108  50.7225379  18.9806448   3.6860760  50.6157648
  19.3541904   4.7997774  49.9086580  19.2011926   4.4376612  50.5867734
  26.5612538   6.4262386  47.8707763  26.8828379   6.9667593  47.2669071
  27.2084635   5.8559157  48.0030053  26.7038594   6.4221561  47.8014799
  28.6114246  -1.5721619  47.9542150  29.3094411  -1.3933492  48.4463613
  28.9266579  -2.0951280  47.3312539  28.7609584  -1.6227847  47.9344160
  21.2415484   0.2331120  55.8653256  21.1174181   0.8193566  56.5003075
  21.8933768  -0.2608684  56.1665531  21.3189133   0.2469925  56.0039185
  28.8002182   4.8148826  47.9421941  29.2395817   4.2065926  48.3876714
  28.6506845   4.4356199  47.1707407  28.8423648   4.6687297  47.8941109
  26.2673825   3.4092837  55.1440767  26.9122827   2.9165280  54.8251716
  26.5075602   3.5517624  55.9706845  26.3984410   3.3570280  55.2190300
  28.8059916   6.2547743  54.7947660  29.0883159   5.4599149  54.5734415
  29.5346077   6.7328331  54.8152721  28.9549480   6.2082340  54.7650675
  32.4011518   3.1676007  44.8952711  32.3162814   4.0236973  45.0402280
  32.8895902   2.8920331  45.5634870  32.4600416   3.2533328  45.0154792
  33.3329952  -0.2139199  46.3950446  32.8041423   0.0020435  47.0547752
  33.8554972   0.4796939  46.3151415  33.3318405  -0.0796062  46.4806045
  38.7878005   5.3607105  51.7683490  37.9575708   5.5717749  51.9316907
  38.7387257   4.5344160  51.4925774  38.6584740   5.2696712  51.7520856
  25.2229559   3.6824018  45.1957914  24.6386775   4.1874049  45.6023778
  24.8199655   3.4566405  44.4554506  25.0768863   3.7232266  45.1462939
  20.7773588   9.3978779  51.9981585  20.2941166  10.1229269  51.9741169
  21.5896906   9.6954909  52.1091743  20.8264336   9.5481133  52.0108865
  26.8487742   8.1910960  54.6031400  26.3314684   7.8318375  53.9992708
  27.5462133   7.6673134  54.6137466  26.8753323   8.0608648  54.5161659
  30.5051334   8.6405774  60.5647573  30.5934680   8.4531914  61.4125783
  30.9341047   7.9943203  60.1652420  30.5813436   8.5168781  60.6319324
  28.0721794   7.9236934  59.5465235  27.5092629   7.5109543  60.0704896
  28.8342817   7.8489839  59.9658378  28.1016243   7.8514334  59.6858235
  29.6806774  -0.0710330  43.6726834  29.9202778   0.1367654  42.8602178
  30.0022615  -0.8752821  43.7815779  29.7643932  -0.1596229  43.5687388
  23.6317785   9.9134955  52.1501865  24.3338365   9.3986944  52.2074622
  23.5515268  10.2409106  52.9548740  23.7241546   9.8849181  52.2774657
  38.2831963  -1.9922494  55.5633912  37.4460384  -1.9220307  55.7981506
  38.2520194  -1.9897999  54.6908214  38.1550245  -1.9812267  55.4693460
  22.9568561   6.1041307  51.6587473  23.7957460   6.3364240  51.7061235
  22.9880330   5.2345618  51.5894509  23.0850278   6.0098253  51.6552118
  23.5821264   6.5242182  55.9600779  24.1219489   6.3813313  56.6304151
  22.8991210   6.9238933  56.3284805  23.5613418   6.5621853  56.1135201
  33.0062149   2.2033183  51.1545803  33.7619664   2.6364697  51.1934712
  33.1124473   1.5537952  51.7280439  33.1332319   2.1710666  51.2443829
  36.0442320   6.0306460  51.9048206  35.6077552   6.0343202  52.6607178
  35.7105235   6.7111959  51.4727784  35.9304940   6.1318916  51.9529039
  30.6171393   8.0714793  63.2291356  31.4011810   8.1845640  63.5947099
  30.4167988   7.2455930  63.4250042  30.7037419   7.9661512  63.3125742
  18.9858409   2.7442473  56.1135200  18.7196824   1.9281589  56.2726191
  18.9996973   2.7895628  55.2430716  18.9483131   2.6299378  56.0088682
  22.8916156  -2.4572443  42.7286958  22.1774333  -2.7434263  43.1409391
  23.3760125  -2.1175817  43.3693346  22.8575519  -2.4490793  42.8842593
  30.7741787   9.9824895  56.8757812  29.9757032   9.7424395  57.1331681
  31.2227798  10.0339288  57.6224860  30.7216398   9.9547286  57.0242736
  39.1786666   2.7487380  50.7967843  39.8403100   2.1878048  50.6963752
  38.5378078   2.2539410  51.1220535  39.1815534   2.5923789  50.8300184
  30.0663474   6.0457511  43.1048767  30.4814622   5.7142535  42.4133262
  29.2355403   5.8126413  42.9768903  30.0051482   5.9628767  42.9839614
  19.3951823   3.5301252  53.3946945  19.2127396   3.5048138  52.5419237
  20.1301491   4.0000190  53.4335853  19.4765886   3.5962614  53.2744863
  35.4651497   3.7652762  50.5379832  35.7007086   3.9097961  49.7106683
  35.6141060   4.5295170  50.9311346  35.5217300   3.8991817  50.4743436
  37.2941953   2.6054428  48.3749436  37.6250171   3.1382068  47.7689531
  37.8675042   2.6593316  49.0311387  37.4275633   2.6923997  48.3827218
  32.5073843   0.4519331  49.0573016  32.6020697   1.1908625  49.5112642
  31.8832686   0.0236806  49.4907581  32.4282873   0.4980651  49.1881164
  30.7626316   3.6305543  59.7063297  31.3365178   2.9932788  59.8611861
  30.6841120   3.6309626  58.8372955  30.8359551   3.5370655  59.6009708
  19.3622733   0.4094753  53.5446011  19.9396235   0.2731204  54.1838257
  18.6636795  -0.0469463  53.7991596  19.3443754   0.3217019  53.6768301
  32.7596864   2.2968071  42.2909968  32.6777026   2.3670258  43.1564955
  33.3976584   2.8597815  42.0993709  32.8416701   2.3907042  42.3899918
  26.1190035   2.0628809  51.7584494  25.8609279   1.2300543  51.7315794
  26.1738518   2.2886422  50.9176995  26.0889813   1.9726580  51.6304631
  25.0924747  -0.3833429  52.2449389  24.5174338  -0.2241261  52.8813350
  24.7160423  -1.0198020  51.7817840  24.9527560  -0.4535616  52.2703948
  28.7598036  -1.9110080  57.1041768  28.3712469  -2.3355862  56.4493959
  28.0952734  -1.6627930  57.6118794  28.6044964  -1.9371359  57.0829636
  29.8636974   2.3188525  45.3018575  30.6777613   2.6103418  45.1901346
  29.7996115   1.6648387  44.7276868  29.9739713   2.2653720  45.2007412
  36.0846464   5.0014521  59.7148150  35.8485102   4.1702586  59.5960211
  36.7289693   4.9500128  60.3002994  36.1441135   4.8712209  59.7834044
  25.7344882   5.7910042  50.4290887  26.3718829   5.5521790  50.9742680
  26.1599954   5.9947201  49.6944047  25.8921049   5.7861053  50.4008044
  20.4257525   8.0298379  54.3125190  20.4661670   8.3013230  53.4844970
  20.9852049   8.5540287  54.7282978  20.5140871   8.1474134  54.2517079
  26.3747697   1.0112332  44.7665776  26.7592850   0.7920039  45.5182321
  26.1259318   1.8375278  44.8966852  26.3949770   1.1010478  44.8966852
  37.1082885   4.7858970  55.7776445  36.8028702   5.5187027  56.1389760
  36.3889101   4.3796899  55.4969231  36.9570227   4.8340703  55.7889582
  28.1166354   6.2682465  52.1084673  28.1905363   6.1057637  52.9626523
  28.9335861   6.4572655  51.8645155  28.2482713   6.2719207  52.1982699
  42.8084677   1.4251970  55.1044789  42.7409177   1.4447930  54.2347375
  42.7940339   2.2682298  55.3300459  42.7963433   1.5525705  55.0097266
  21.8772111   6.6140328  49.1379116  21.0510229   6.8602065  49.0113395
  21.9384102   6.5352409  50.0041174  21.7646278   6.6385277  49.2468061
  26.6570940   9.2317208  46.8398146  26.9469238   8.8406189  46.1157373
  27.3874421   9.4133913  47.2803422  26.8077824   9.2011022  46.7980953
  40.5943294   0.1996357  53.3791383  41.1451216  -0.4335574  53.6188475
  40.5787410   0.7311749  54.0706888  40.6728491   0.1845305  53.5170242
  27.2465685   4.0334954  57.9251277  26.7477379   4.7450722  58.0036165
  28.0565909   4.3535621  57.8869439  27.2921792   4.1861803  57.9307845
  24.5976856  11.2084590  49.9058296  24.3777151  10.9181945  50.6984963
  24.3771378  10.5499545  49.3776208  24.5324450  11.0684299  49.9447205
  23.5093803   3.2957907  52.1713998  23.2207051   2.6695378  52.7059725
  24.3777151   3.2378194  52.2378678  23.5954055   3.1945451  52.2604952
  34.2971701  -1.5607310  52.4895980  33.9536466  -2.2816974  52.8403229
  34.3964743  -1.7693458  51.6474338  34.2613743  -1.6983106  52.4167660
  26.7644811  12.5813980  48.6888988  27.4168869  12.0490423  48.9180014
  26.0670420  12.2282633  49.0756862  26.7575529  12.4503503  48.7801156
  23.7126076   4.9353158  48.0956363  24.4672044   5.3166197  48.3091825
  23.1196689   5.3864302  48.5503059  23.7362790   5.0581985  48.1939241
  34.7584730   4.9018394  48.0319968  35.3242762   5.5611604  47.9478511
  34.1112633   5.2468092  48.5036370  34.7463486   5.0500336  48.0892724
  25.0324303   6.1061719  53.4696478  24.5105056   6.2462011  54.1548343
  25.4198323   5.3472384  53.6598595  25.0128004   6.0147243  53.5997555
  31.2291308   7.8457179  47.4557047  30.9877984   7.1125039  47.0484112
  31.4092641   8.3944036  46.8023380  31.2198932   7.8179570  47.2987270
  26.4590628   3.1365738  48.8677969  26.2633411   3.7440473  48.2738272
  26.6824974   2.4433682  48.3869643  26.4625269   3.1243264  48.7094050
  24.8569158   0.0220476  48.9858838  25.5791810   0.1861634  48.5262644
  24.3777151   0.7430141  48.8798177  24.8932889   0.1518706  48.9024452
  32.8162666  -3.6415725  54.3655522  31.9773767  -3.6154446  54.1293786
  32.8867033  -2.9944989  54.9460869  32.7031059  -3.5419599  54.4164639
  22.5076775   2.4278549  58.0912977  23.0197872   2.7062802  57.4421737
  22.2213118   3.1667843  58.4575790  22.5411638   2.5780902  58.0502855
  36.6920190   1.5652262  51.6516764  36.6054164   1.7207688  52.5051543
  36.2370670   2.2090337  51.2776169  36.6123446   1.6828017  51.7223871
  30.5646006  -1.1136991  50.2742324  30.3180720  -1.1941240  51.1079113
  30.8931129  -1.8983523  50.0804851  30.5767249  -1.2410726  50.3689847
  34.4594055   5.5946368  54.0629105  34.3208414   6.2927414  54.5677847
  33.6794053   5.4395025  53.7065287  34.3237282   5.6746535  54.0855379
  32.7972140   1.8942744  60.3151487  32.7920178   1.0222560  60.3193913
  33.5033134   2.0930913  59.8420942  32.9017144   1.7946618  60.2458522
  26.5243033   1.6219728  59.6865307  26.6686409   2.2020936  59.0508417
  26.8718682   1.9996024  60.3915161  26.5970494   1.7640432  59.6964302
  28.6962950   0.8209896  57.4690438  27.9486265   1.0140910  57.0638716
  28.8504476  -0.0044885  57.2314560  28.6085378   0.7275007  57.3735844
  25.5970788   9.8122499  56.5526334  25.7460352   9.2525415  55.8999738
  26.3770790   9.8914501  56.9358852  25.7344882   9.7408065  56.5123283
  35.9547428   4.9524622  44.8245604  35.5754236   4.1661760  44.8174894
  35.2913673   5.5011479  44.6817248  35.8005902   4.9169446  44.8026401
  28.1224089   9.9837142  57.8310824  28.0467760   9.3145953  58.3861613
  28.0513948  10.6854930  58.3451491  28.1004696   9.9882050  57.9887673
  28.7794336   8.5038141  48.6634430  29.5444227   8.2347785  48.3417095
  28.6772426   8.0188151  49.3804493  28.8775831   8.3927706  48.7214258
  26.8147105  -3.2937449  55.2027666  26.0243180  -3.4745989  55.5245002
  27.2107728  -4.0710497  55.1857961  26.7563982  -3.4349989  55.2480214
  31.3012996   5.5350325  40.6434380  32.0685981   5.5950450  40.2340232
  30.8544305   4.9630766  40.1590698  31.3486423   5.4586901  40.5112090
  32.1990792   4.3404981  52.9287112  31.5235794   4.1090213  53.4300499
  32.2083168   3.7326164  52.3029217  32.1009296   4.2163906  52.9103264
  29.3284936  -0.8177190  59.6851165  29.2644077   0.0432766  59.5571302
  29.4682123  -1.1345197  58.8846716  29.3400406  -0.7377024  59.5479378
  34.2007526   7.1970113  45.1597290  34.2827364   8.0037099  44.8358741
  34.6857269   7.2166072  45.8838063  34.2844684   7.3190775  45.2184189
  28.0104030   1.8754949  53.8267368  27.5866279   2.0759448  53.0906386
  27.8348885   1.0283797  53.9391668  27.9214910   1.7803731  53.7341058
  27.5115723  13.3905462  56.2888825  28.0011653  12.6916251  56.1064490
  26.9399955  13.0929332  56.8764883  27.5000253  13.2431686  56.3489866
  23.2986475   2.3707000  49.2595340  23.4551094   2.3053803  50.1151333
  23.6387068   3.1455553  49.0474020  23.3719709   2.4756199  49.3549935
  29.8365619   1.7464884  48.1288704  30.3781165   1.2435265  48.5927324
  30.1512178   1.6930079  47.3178189  29.9630016   1.6644305  48.0772516
  33.7082727   5.9567531  65.2415616  34.5217592   5.6852680  65.4020748
  33.5477693   5.6575071  64.4375812  33.8052675   5.8722457  65.1461022
  28.0052069   7.1382236  45.4128732  28.0744889   6.2796774  45.5521732
  28.7840524   7.3554116  45.0847756  28.1304919   7.0435100  45.3845889
  30.9854889  -3.3598811  58.1811004  31.1996858  -3.9987897  57.6274358
  30.3688788  -2.9152988  57.7518866  30.9260218  -3.3888668  58.0361435
  32.3959556   9.5619937  49.6265225  32.0039348   9.2586652  48.9088091
  32.5512629  10.3989027  49.4370179  32.3613146   9.6403774  49.4921722
  19.8720736  -0.4458049  49.5756108  20.2519701  -0.0273504  48.9116375
  19.2976101   0.1355407  49.8824951  19.8432061  -0.2980190  49.5232849
  33.1493977  -1.7509746  59.1194311  32.3370658  -2.0583856  59.2007484
  33.6083911  -2.2310746  59.6837023  33.0974361  -1.8673254  59.2148905
  32.5599231   6.1269926  49.5671256  32.2013886   6.2984569  50.3435288
  32.0737942   6.5883131  49.0099254  32.4357928   6.2208897  49.5996525
  27.3487597   1.8069091  42.1071490  27.6380121   2.5833974  42.3815064
  27.4359395   1.2957823  42.8085989  27.4041853   1.8461009  42.2513988
  33.7203971   7.0173822  60.5138456  34.3583691   6.5234017  60.1800913
  33.0778062   6.9451222  59.9290683  33.7198197   6.9332830  60.3780811
  35.4460971  -1.1337032  55.0804372  35.0188579  -1.2210684  54.3252472
  34.8087024  -1.0259257  55.6659216  35.2890578  -1.1304373  55.0549814
  33.7758227   7.7093630  57.1543813  34.5650605   7.3582695  57.2745895
  33.9501825   8.5230018  56.8920447  33.9178509   7.7779487  57.1331681
  23.5151538   1.1202356  54.2071602  22.6739544   1.0206230  54.4150496
  23.7241546   1.8897836  54.5585923  23.4216230   1.2194399  54.2898917
  20.9927105  -1.2578107  52.0356353  20.5983802  -1.1835096  51.2606462
  20.4367221  -0.8720161  52.5864714  20.8529917  -1.1896333  52.0024013
  27.3268202  -0.9516245  53.4569200  27.0231340  -1.5060257  54.0579607
  26.6247623  -0.7724035  52.9697234  27.1784412  -1.0071463  53.4738905
  26.3834300  -3.6415725  48.0213901  26.6594034  -4.3596813  47.6091469
  26.9832969  -3.0430805  47.8135008  26.5127564  -3.6595355  47.9294663
  25.3886553   6.2633476  58.1641297  25.2806908   6.2735538  59.0303355
  25.5982335   7.0888256  57.9746251  25.4036665   6.3874550  58.2645389
  23.4060345   3.5146118  55.6263235  22.8148279   4.1555616  55.5966250
  24.1681369   3.9383735  55.5994534  23.4308606   3.6721956  55.6178382
  39.5250767   3.3451888  56.6240513  39.5833891   3.7938536  57.3700490
  38.8917235   3.7550700  56.1870593  39.4402062   3.4725622  56.6693062
  33.1649862   8.9655430  53.0595259  32.9669550   9.4546244  52.3651471
  32.5437573   9.1696671  53.6379393  33.0437426   9.0671968  53.0418483
  27.2257840   0.7340326  47.4005504  27.9699885   1.1214603  47.6388454
  27.3718536  -0.1102248  47.5645991  27.3568425   0.6670799  47.4599473
  30.2135716  -3.6934200  53.2999423  29.7395670  -4.2192438  53.8104734
  30.5853852  -4.2404727  52.7314285  30.1985605  -3.8518204  53.2914570
  36.4772447   1.3668175  54.7106204  36.2370669   0.5274591  54.7148630
  36.9564454   1.4468342  55.4346977  36.5124630   1.2549575  54.8181006
  32.1419216  -2.7997646  46.3625177  31.6142234  -2.7168902  45.6730886
  32.6014924  -2.0579774  46.3589821  32.1321066  -2.6776983  46.2599872
  38.4777634  -1.8530367  52.6635463  38.2387404  -1.8934533  51.8256247
  38.6411535  -1.0059215  52.7901184  38.4667937  -1.7338282  52.5588945
  35.0823664   2.5319582  58.5940508  35.8057863   2.0792108  58.4151528
  34.8173626   2.8124248  57.8112836  35.1504937   2.5070550  58.4519223
  23.9510532  -2.8720245  55.3293387  23.3263602  -2.8601853  54.7219340
  23.6156127  -2.3960069  55.9784627  23.8096024  -2.8001728  55.3349956
  20.6636208   5.1880216  56.7697151  20.1336132   4.4972654  56.8192126
  20.9361301   5.1790401  55.9409860  20.6260930   5.0847347  56.6544567
  31.6956298   5.7705918  45.4934834  32.4190497   6.2364031  45.3499407
  31.2556889   5.8379527  44.7432431  31.7371990   5.8489755  45.3619615
  30.8642453   2.6303460  56.7435523  30.2499446   2.0861510  57.0384158
  31.3809738   2.1167697  56.2641339  30.8498116   2.4739869  56.7159751
  30.1038750   3.7007730  54.4779821  29.6766358   3.0757449  54.0445257
  30.0963695   3.4182652  55.3038829  30.0397892   3.5660511  54.5359649
  15.9432050   1.8607980  54.1265500  15.8375499   1.8154824  53.2617584
  15.1932270   2.2061760  54.4079784  15.8167653   1.9048888  54.0402829
  26.1340146  -0.1792187  56.3701999  25.3032075  -0.0118369  56.1637247
  26.0791663  -0.5556236  57.1550884  26.0029561  -0.2102456  56.4550527
  24.5076189  -1.9036596  46.8992117  24.6479151  -1.4064131  47.6020758
  25.0058722  -2.6050301  47.0406330  24.6017270  -1.9334617  47.0243696
  24.5376412  -1.0369485  44.2284693  25.1721491  -0.4409060  44.1634155
  24.6202023  -1.3366027  45.0430563  24.6432963  -0.9928576  44.3387780
  37.5158978   1.4945993  57.0971058  38.1076818   2.1343243  57.1289256
  37.9517972   0.7969029  57.3863124  37.6677409   1.4864343  57.1451890
  26.1155395  -5.1055509  44.2030135  26.4371236  -5.5852427  43.5489398
  26.3782338  -4.2955863  44.0120947  26.2021420  -5.0565611  44.0785627
  29.3452367   5.9163365  57.7228951  28.8377459   6.4699212  58.1669582
  29.0479014   5.9771655  56.9047726  29.2257252   6.0069676  57.6677408
  21.0429400   1.1598356  47.4974239  21.5521629   1.7562864  47.8785545
  21.5163672   0.8924330  46.8150659  21.1872775   1.2084172  47.4528762
  31.9560148   9.8326623  45.6532895  31.2389458   9.6587485  45.1880132
  32.6066885   9.5979195  45.1208381  31.9461998   9.7722415  45.5062113
  34.5408119  -1.2908789  49.3974200  33.8699309  -0.7479086  49.2687266
  35.2347869  -0.8213933  49.1555895  34.5436987  -1.1410517  49.3429728
  28.5894853  10.8487923  54.6285958  28.3660507  10.0906753  54.9969985
  28.1004696  10.8785945  53.9066398  28.4838302  10.7410148  54.5762699
  23.4019931  -2.2045385  50.3647420  22.6831921  -1.7881253  50.6320283
  23.7732294  -1.6391147  49.8139058  23.3511863  -2.0596104  50.3230227
  32.7019512  -1.5717536  56.2549415  32.6817440  -1.7534241  57.1084194
  32.7498713  -0.7005518  56.2308999  32.7054153  -1.4700998  56.3772710
  30.6465842   5.0169656  62.1797892  30.6061697   4.3719333  61.5943048
  31.4589160   4.9606273  62.4923304  30.7608996   4.9128622  62.1394841
  27.2373310  11.0688381  52.0823043  26.8233708  10.4062512  51.6926885
  27.9220684  11.2166240  51.5618737  27.2771681  10.9929040  51.9479540
  30.6038604  10.2278467  52.8346659  30.2054887  10.3380737  52.0667480
  29.9889823  10.4360533  53.4173219  30.4537493  10.2752035  52.8077959
  29.1766506  -3.1647385  45.7020799  28.5831345  -2.8430389  45.1505366
  29.2141784  -4.0106290  45.4941905  29.0940895  -3.2423057  45.5903571
  32.0524322  -3.2067881  49.1322549  31.8238015  -3.1835180  48.2900908
  32.3122399  -4.0310414  49.2517560  32.0570510  -3.3251801  49.0247747
  25.1069085  -4.6691335  50.4276745  25.5826451  -4.3074255  49.7926926
  24.6057685  -4.0134867  50.7076888  25.1034444  -4.5197146  50.3753486
  38.3380447   4.8030433  46.2189750  38.7214052   5.5521790  46.4487847
  37.5424560   5.0496253  45.9601739  38.2774229   4.9500127  46.2147324
  27.1495738  -2.5250135  43.7950129  27.5294703  -2.5070506  43.0101244
  26.4088334  -2.0796146  43.6740976  27.0964576  -2.4568360  43.6613697
  32.5021881   0.4629558  53.0361915  32.9975546  -0.2547447  52.9965935
  31.6921656   0.1600356  52.9216402  32.4565774   0.3127204  53.0135640
  27.9480492   4.3127371  45.1858919  27.1391815   3.9894045  45.1392229
  28.4555401   3.6060593  45.1187168  27.9030159   4.1608688  45.1689213
  18.5770769   1.7399565  50.9106283  17.7116289   1.7285255  50.7989055
  18.6769585   1.5529787  51.7577423  18.4644936   1.7105626  51.0195228
  34.5673700   3.2133246  55.7239043  34.9928771   2.6907667  55.1709468
  34.2030619   3.8114083  55.2027666  34.5760302   3.2243473  55.5648053
  24.2027779  11.5097463  54.4836389  24.5174338  12.3233852  54.4914171
  24.6121193  11.1247682  55.1518548  24.3095877  11.5726166  54.5840481
  31.1552299   6.9267510  52.0540201  31.6263477   7.6407772  52.2230186
  31.4912477   6.3266260  52.5900070  31.2747414   6.9438974  52.1572577
  33.2429284   8.5368823  64.2332273  33.3526249   7.7477384  64.5889020
  33.5720180   8.4474759  63.4306611  33.3081689   8.4074676  64.1674664
  31.7926245   6.7185444  58.8167894  31.2447191   6.0943328  58.5487959
  32.2539274   6.9079716  58.1011973  31.7793455   6.6544494  58.6718325
  21.5440799   5.4570572  54.1314997  22.1485657   5.4166406  53.5028818
  21.3368112   6.3041724  54.1619053  21.6029697   5.5758574  54.0431114
  31.3584572   7.7236517  55.3477235  32.1782945   7.5799483  55.6093530
  31.0778649   8.3482716  55.8893673  31.4381315   7.7946869  55.4665174
  16.7792082   4.4405189  54.0013920  16.6816360   3.6301461  54.3103977
  17.5620951   4.4196982  53.6160189  16.8808218   4.3172279  53.9900783
  41.0297907  14.4677019  53.0673042  40.1735802  14.6285518  53.1182158
  41.0765561  13.5969083  53.0878103  40.9097018  14.3627821  53.0779108
  44.3391623  20.7363545  62.6733498  45.0458391  20.2415576  62.8020432
  44.5279559  21.1772627  61.9436156  44.4719529  20.7281895  62.5842543
  43.8749728  16.5269063  55.7104693  44.4205688  17.2054150  55.7698663
  43.8166604  16.3856524  54.8506275  43.9465642  16.6061065  55.5916754
  36.8324542  28.9335719  52.4987902  37.4761998  29.3748883  52.8884060
  37.1580798  28.1289145  52.4118160  36.9756371  28.8800913  52.5433379
  30.1888847  20.0378416  50.7225379  29.9539031  19.2046068  50.6157648
  30.3274488  20.3183082  49.9086580  30.1744509  19.9561919  50.5867734
  32.4878934  12.2064147  53.6209687  31.8683966  11.6156794  53.4519702
  32.3862798  12.7975582  52.9874010  32.3816610  12.2068229  53.5014676
  39.5846830  13.9463688  47.9542150  40.2826995  14.1251816  48.4463613
  39.8999163  13.4234028  47.3312539  39.7342167  13.8957461  47.9344160
  32.2148067  15.7516428  55.8653256  32.0906764  16.3378874  56.5003075
  32.8666352  15.2576624  56.1665531  32.2921717  15.7655233  56.0039185
  39.7734765  20.3334133  47.9421941  40.2128401  19.7251234  48.3876714
  39.6239428  19.9541507  47.1707407  39.8156231  20.1872605  47.8941109
  37.2406408  18.9278145  55.1440767  37.8855411  18.4350588  54.8251716
  37.4808186  19.0702932  55.9706845  37.3716994  18.8755588  55.2190300
  39.7792500  21.7733051  54.7947660  40.0615743  20.9784457  54.5734415
  40.5078660  22.2513639  54.8152721  39.9282064  21.7267648  54.7650675
  37.7573694   9.3156085  52.0363425  37.4277024   9.7667229  51.3667123
  37.0818695   9.2372248  52.5836431  37.6084130   9.3707220  52.0186648
  44.9650101   5.3041608  50.2813035  44.6503542   5.9945087  50.7133458
  44.4477043   5.2486390  49.5798536  44.8414572   5.3976497  50.2409984
  49.7610588  20.8792413  51.7683490  48.9308291  21.0903057  51.9316907
  49.7119840  20.0529468  51.4925774  49.6317324  20.7882020  51.7520856
  36.1962143  19.2009326  45.1957914  35.6119358  19.7059357  45.6023778
  35.7932238  18.9751713  44.4554506  36.0501447  19.2417574  45.1462939
  31.7506172  24.9164087  51.9981585  31.2673750  25.6414576  51.9741169
  32.5629490  25.2140217  52.1091743  31.7996919  25.0666441  52.0108865
  37.8220326  23.7096268  54.6031400  37.3047267  23.3503683  53.9992708
  38.5194717  23.1858442  54.6137466  37.8485907  23.5793955  54.5161659
  41.4783918  24.1591082  60.5647573  41.5667264  23.9717222  61.4125783
  41.9073630  23.5128511  60.1652420  41.5546020  24.0354089  60.6319324
  39.0454377  23.4422242  59.5465235  38.4825212  23.0294851  60.0704896
  39.8075401  23.3675147  59.9658378  39.0748826  23.3699642  59.6858235
  40.6539357  15.4474978  43.6726834  40.8935361  15.6552962  42.8602178
  40.9755198  14.6432486  43.7815779  40.7376515  15.3589079  43.5687388
  35.9629648   7.3768373  47.5186372  36.7175616   7.7446691  47.2803423
  35.7857182   7.7507928  48.2865552  36.0484126   7.4866561  47.5971261
  34.6050369  25.4320263  52.1501865  35.3070948  24.9172252  52.2074622
  34.5247852  25.7594414  52.9548740  34.6974129  25.4034489  52.2774657
  49.2564546  13.5262814  55.5633912  48.4192968  13.5965001  55.7981506
  49.2252777  13.5287309  54.6908214  49.1282829  13.5373041  55.4693460
  35.6529275  15.6695850  61.2782280  35.8249779  15.5601744  62.1267562
  36.1898633  16.3150255  61.0413473  35.7574279  15.7487851  61.3687377
  34.3186712   9.7838692  44.2164485  34.1362286  10.0010573  43.3905478
  35.1812325   9.8977705  44.2723100  34.4191302   9.8328590  44.1018972
  33.9301144  21.6226615  51.6587473  34.7690044  21.8549548  51.7061235
  33.9612914  20.7530926  51.5894509  34.0582862  21.5283561  51.6552118
  34.5553847  22.0427490  55.9600779  35.0952072  21.8998621  56.6304151
  33.8723794  22.4424241  56.3284805  34.5346001  22.0807161  56.1135201
  39.9986432   6.7865103  47.2513509  40.7272592   6.6081058  46.8051665
  40.0881324   7.6283183  47.4620687  40.1193094   6.8848982  47.2167027
  43.9794732  17.7218491  51.1545803  44.7352247  18.1550005  51.1934712
  44.0857057  17.0723260  51.7280439  44.1064903  17.6895974  51.2443829
  47.0174903  21.5491768  51.9048206  46.5810135  21.5528510  52.6607178
  46.6837819  22.2297267  51.4727784  46.9037523  21.6504224  51.9529039
  41.5903977  23.5900101  63.2291356  42.3744394  23.7030948  63.5947099
  41.3900572  22.7641238  63.4250042  41.6770002  23.4846820  63.3125742
  29.9590992  18.2627781  56.1135200  29.6929408  17.4466897  56.2726191
  29.9729557  18.3080936  55.2430716  29.9215715  18.1484686  56.0088682
  46.9372386   8.5905596  54.1477634  47.5798295   8.6603700  54.7339549
  47.1895407   7.9234819  53.6457176  47.0694518   8.5031944  54.1604913
  33.8648739  13.0612865  42.7286958  33.1506917  12.7751045  43.1409391
  34.3492708  13.4009491  43.3693346  33.8308103  13.0694515  42.8842593
  34.7089599  11.8006159  58.7602208  34.0161396  11.3303139  59.0062940
  35.3249926  11.5744464  59.3343915  34.6974129  11.6973291  58.8811361
  41.7474370  25.5010203  56.8757812  40.9489616  25.2609703  57.1331681
  42.1960382  25.5524596  57.6224860  41.6948982  25.4732594  57.0242736
  50.1519250  18.2672688  50.7967843  50.8135684  17.7063356  50.6963752
  49.5110662  17.7724718  51.1220535  50.1548117  18.1109097  50.8300184
  30.3684406  19.0486560  53.3946945  30.1859979  19.0233446  52.5419237
  31.1034075  19.5185498  53.4335853  30.4498470  19.1147922  53.2744863
  46.4384080  19.2838070  50.5379832  46.6739669  19.4283269  49.7106683
  46.5873644  20.0480478  50.9311346  46.4949884  19.4177124  50.4743436
  33.4330158  15.7671563  59.9029053  34.1570130  15.7524594  60.3893948
  33.5346294  16.4766918  59.4051021  33.5548367  15.8696266  59.9007840
  40.8075107  19.2470648  64.7678000  40.0148088  19.5614159  64.9530620
  40.9224034  19.4622116  63.9298785  40.7070518  19.3254484  64.6716335
  43.4806426  15.9704639  49.0573016  43.5753281  16.7093933  49.5112642
  42.8565270  15.5422114  49.4907581  43.4015456  16.0165959  49.1881164
  41.7358900  19.1490851  59.7063297  42.3097762  18.5118096  59.8611861
  41.6573704  19.1494934  58.8372955  41.8092135  19.0555963  59.6009708
  30.3355316  15.9280061  53.5446011  30.9128819  15.7916512  54.1838257
  29.6369378  15.4715845  53.7991596  30.3176338  15.8402327  53.6768301
  37.0922619  17.5814116  51.7584494  36.8341863  16.7485851  51.7315794
  37.1471101  17.8071729  50.9176995  37.0622396  17.4911888  51.6304631
  42.1723669   9.6842567  51.8588587  41.4679995   9.1951753  52.0172506
  42.2208643   9.6965042  50.9877032  42.0753720   9.6132215  51.7527927
  36.0657331  15.1351879  52.2449389  35.4906922  15.2944047  52.8813350
  35.6893007  14.4987288  51.7817840  35.9260143  15.0649692  52.2703948
  39.7330619  13.6075228  57.1041768  39.3445052  13.1829446  56.4493959
  39.0685318  13.8557378  57.6118794  39.5777547  13.5813949  57.0829636
  49.3753889  13.3650233  49.8789598  49.1190453  12.5530174  49.6887480
  50.2183202  13.3727800  49.6519785  49.4619914  13.2462230  49.8174415
  25.8114150  14.7791954  50.2593830  25.8974401  14.4023822  51.0407360
  26.4389947  14.4052399  49.7813788  25.9170701  14.6677436  50.3039307
  43.5556981   7.3049857  54.6165752  43.9367493   6.6228028  55.0033626
  42.7520265   7.0159459  54.4341416  43.4933443   7.1616905  54.6469808
  40.8369558  17.8373833  45.3018575  41.6510196  18.1288726  45.1901346
  40.7728699  17.1833695  44.7276868  40.9472297  17.7839028  45.2007412
  47.0579048  20.5199829  59.7148150  46.8217685  19.6887894  59.5960211
  47.7022277  20.4685436  60.3002994  47.1173719  20.3897517  59.7834044
  36.7077466  21.3095350  50.4290887  37.3451413  21.0707098  50.9742680
  37.1332537  21.5132509  49.6944047  36.8653632  21.3046360  50.4008044
  31.3990108  23.5483687  54.3125190  31.4394254  23.8198538  53.4844970
  31.9584632  24.0725595  54.7282978  31.4873454  23.6659442  54.2517079
  37.3480281  16.5297640  44.7665776  37.7325434  16.3105347  45.5182321
  37.0991901  17.3560585  44.8966852  37.3682354  16.6195786  44.8966852
  37.5148821   9.8104055  64.4828360  37.2002262  10.5803618  64.2197923
  37.1938754   9.2474311  63.8980587  37.4207740   9.8414324  64.3569710
  48.0815468  20.3044278  55.7776445  47.7761285  21.0372335  56.1389760
  47.3621684  19.8982207  55.4969231  47.9302811  20.3526011  55.7889582
  39.0898938  21.7867773  52.1084673  39.1637946  21.6242945  52.9626523
  39.9068444  21.9757962  51.8645155  39.2215296  21.7904515  52.1982699
  53.7817261  16.9437278  55.1044789  53.7141761  16.9633238  54.2347375
  53.7672923  17.7867606  55.3300459  53.7696017  17.0711013  55.0097266
  32.8504695  22.1325636  49.1379116  32.0242812  22.3787373  49.0113395
  32.9116686  22.0537717  50.0041174  32.7378862  22.1570585  49.2468061
  35.0680718   8.1994577  50.0974557  34.2003144   8.2717176  50.1632166
  35.3555923   9.0016656  50.2862532  34.9820466   8.3288724  50.1349323
  44.1913607   8.3472436  58.4285878  44.9367199   8.1582246  58.0149304
  43.7750912   8.8730674  57.8699735  44.2398581   8.3974581  58.2850452
  51.5675878  15.7181665  53.3791383  52.1183799  15.0849734  53.6188475
  51.5519993  16.2497057  54.0706888  51.6461074  15.7030613  53.5170242
  38.2198269  19.5520262  57.9251277  37.7209962  20.2636030  58.0036165
  39.0298493  19.8720928  57.8869439  38.2654375  19.7047110  57.9307845
  34.4826386  18.8143215  52.1713998  34.1939635  18.1880686  52.7059725
  35.3509734  18.7563502  52.2378678  34.5686638  18.7130759  52.2604952
  45.2704284  13.9577998  52.4895980  44.9269050  13.2368333  52.8403229
  45.3697327  13.7491849  51.6474338  45.2346327  13.8202202  52.4167660
  45.7317313  20.4203702  48.0319968  46.2975346  21.0796912  47.9478511
  45.0845217  20.7653400  48.5036370  45.7196070  20.5685644  48.0892724
  37.1465327  12.4101306  63.2213575  36.3365102  12.7159086  63.1103417
  37.6240013  13.1306889  63.3366159  37.0968806  12.5615907  63.2220646
  36.0056886  21.6247027  53.4696478  35.4837640  21.7647319  54.1548343
  36.3930907  20.8657692  53.6598595  35.9860587  21.5332551  53.5997555
  32.9948070  11.6752836  47.5391433  32.7072866  11.3054106  46.8023380
  33.6818539  12.1447691  47.2775138  33.0536968  11.6899805  47.3906509
  37.4323212  18.6551046  48.8677969  37.2365995  19.2625781  48.2738272
  37.6557558  17.9618990  48.3869643  37.4357853  18.6428572  48.7094050
  35.8301742  15.5405784  48.9858838  36.5524394  15.7046942  48.5262644
  35.3509735  16.2615449  48.8798177  35.8665473  15.6704014  48.9024452
  43.7895250  11.8769583  54.3655522  42.9506350  11.9030862  54.1293786
  43.8599617  12.5240318  54.9460869  43.6763643  11.9765709  54.4164639
  33.4809359  17.9463857  58.0912977  33.9930456  18.2248110  57.4421737
  33.1945701  18.6853151  58.4575790  33.5144222  18.0966210  58.0502855
  42.2364528   8.7754960  49.0983138  42.9390881   8.5762708  48.6203097
  41.9708717   8.0030902  49.4051982  42.3011160   8.6317926  49.0728580
  47.6652773  17.0837570  51.6516764  47.5786748  17.2392996  52.5051543
  47.2103253  17.7275645  51.2776169  47.5856030  17.2013325  51.7223871
  30.5676265  12.4534048  48.3876714  30.6692401  13.2560210  48.7157689
  31.3632152  12.2521384  48.0899794  30.7004171  12.5419947  48.3912069
  36.9993084  10.0390245  58.1514019  36.8076281  10.0545380  59.0013442
  37.8491680  10.2353920  58.1280674  37.0968806  10.0704596  58.2737314
  31.3839997  12.5681227  56.1297835  31.2425489  11.7165167  56.2542343
  31.6680560  12.6109887  55.3060041  31.4047843  12.4480977  56.0265460
  41.5378589  14.4048317  50.2742324  41.2913304  14.3244068  51.1079113
  41.8663713  13.6201785  50.0804851  41.5499833  14.2774582  50.3689847
  45.4326638  21.1131676  54.0629105  45.2940998  21.8112722  54.5677847
  44.6526636  20.9580333  53.7065287  45.2969865  21.1931843  54.0855379
  43.7704723  17.4128052  60.3151487  43.7652762  16.5407868  60.3193913
  44.4765717  17.6116221  59.8420942  43.8749727  17.3131926  60.2458522
  37.4975617  17.1405035  59.6865307  37.6418992  17.7206244  59.0508417
  37.8451265  17.5181332  60.3915161  37.5703078  17.2825740  59.6964302
  39.6695534  16.3395204  57.4690438  38.9218848  16.5326218  57.0638716
  39.8237059  15.5140423  57.2314560  39.5817962  16.2460315  57.3735844
  36.5703372  25.3307807  56.5526334  36.7192935  24.7710723  55.8999738
  37.3503374  25.4099809  56.9358852  36.7077465  25.2593373  56.5123283
  39.0956672  25.5022450  57.8310824  39.0200343  24.8331261  58.3861613
  39.0246531  26.2040238  58.3451491  39.0737279  25.5067358  57.9887673
  39.9097311  10.2345755  58.3585842  40.3669925  10.9669729  58.4858634
  39.9853640   9.8112220  59.1173098  39.9888281  10.2802993  58.4886919
  32.1530302  10.4811574  59.4475286  31.6172492   9.8691932  59.7636053
  32.2148067  11.0559710  60.1008952  32.0825935  10.4758502  59.5910713
  44.3824637   3.4135630  52.2279685  44.5008205   3.8712093  51.4946988
  44.2086813   2.6080891  51.9415903  44.3743808   3.3629402  52.0780619
  37.7879689  12.2247859  55.2027666  36.9975764  12.0439319  55.5245002
  38.1840312  11.4474811  55.1857961  37.7296565  12.0835319  55.2480214
  43.1723375  19.8590289  52.9287112  42.4968377  19.6275521  53.4300499
  43.1815751  19.2511472  52.3029217  43.0741880  19.7349214  52.9103264
  40.3017519  14.7008118  59.6851165  40.2376661  15.5618074  59.5571302
  40.4414707  14.3840111  58.8846716  40.3132989  14.7808284  59.5479378
  38.9836613  17.3940257  53.8267368  38.5598862  17.5944756  53.0906386
  38.8081468  16.5469105  53.9391668  38.8947494  17.2989038  53.7341058
  38.4848307  28.9090770  56.2888825  38.9744237  28.2101559  56.1064490
  37.9132539  28.6114640  56.8764883  38.4732837  28.7616994  56.3489866
  34.2719058  17.8892308  49.2595340  34.4283677  17.8239111  50.1151333
  34.6119651  18.6640861  49.0474020  34.3452293  17.9941507  49.3549935
  40.8098203  17.2650192  48.1288704  41.3513748  16.7620573  48.5927324
  41.1244762  17.2115387  47.3178189  40.9362600  17.1829613  48.0772516
  44.6815310  21.4752839  65.2415616  45.4950175  21.2037988  65.4020748
  44.5210277  21.1760379  64.4375812  44.7785259  21.3907765  65.1461022
  41.9587472  12.1586496  58.1811004  42.1729442  11.5197411  57.6274358
  41.3421371  12.6032320  57.7518866  41.8992801  12.1296640  58.0361435
  30.8453320  15.0727259  49.5756108  31.2252285  15.4911804  48.9116375
  30.2708684  15.6540715  49.8824951  30.8164645  15.2205118  49.5232849
  44.1226560  13.7675562  59.1194311  43.3103242  13.4601452  59.2007484
  44.5816495  13.2874562  59.6837023  44.0706945  13.6512054  59.2148905
  43.5331815  21.6455234  49.5671256  43.1746470  21.8169877  50.3435288
  43.0470526  22.1068439  49.0099254  43.4090512  21.7394205  49.5996525
  41.3502201   5.2686432  53.1698347  40.4795759   5.2425153  53.1231656
  41.6042542   5.0963624  52.3524193  41.2595761   5.2396576  53.0418484
  38.3220180  17.3254399  42.1071490  38.6112705  18.1019282  42.3815064
  38.4091979  16.8143130  42.8085989  38.3774436  17.3646317  42.2513988
  41.2180068  15.1735633  63.9023014  41.6879699  15.7977749  64.2890888
  41.2641948  14.5052609  64.4616228  41.2947944  15.1670313  64.0423085
  38.3751341   7.2792661  54.6271817  37.8589830   6.5872852  54.7523396
  37.8145270   7.9463438  54.5734416  38.2157855   7.2755918  54.6377883
  40.4443575   7.8185621  56.4564670  40.0575328   7.8434652  57.2378200
  39.9576512   7.2527299  56.0039187  40.3156084   7.7381371  56.5052574
  44.6936554  22.5359130  60.5138456  45.3316275  22.0419325  60.1800913
  44.0510646  22.4636530  59.9290683  44.6930781  22.4518138  60.3780811
  46.4193554  14.3848276  55.0804372  45.9921162  14.2974624  54.3252472
  45.7819607  14.4926051  55.6659216  46.2623162  14.3880935  55.0549814
  40.1100716   4.7052606  58.7474930  40.7393834   5.2412906  58.4696000
  40.2786579   4.6129965  59.5988495  40.2278511   4.7713968  58.8323458
  39.9114631   9.4923801  61.0201341  40.7388061   9.2208950  61.0759956
  39.9322477  10.2884643  61.3765160  40.0367481   9.5703555  61.0816524
  44.7490811  23.2278938  57.1543813  45.5383189  22.8768003  57.2745895
  44.9234409  24.0415326  56.8920447  44.8911092  23.2964795  57.1331681
  34.4884121  16.6387664  54.2071602  33.6472128  16.5391538  54.4150496
  34.6974129  17.4083144  54.5585923  34.3948814  16.7379707  54.2898917
  31.9659688  14.2607201  52.0356353  31.5716386  14.3350212  51.2606462
  31.4099805  14.6465147  52.5864714  31.8262501  14.3288975  52.0024013
  43.6024635   7.2388495  51.7160232  43.8074228   7.1710802  52.5617229
  43.2751059   8.0447316  51.6481409  43.5839883   7.3474435  51.8319887
  38.3000786  14.5669063  53.4569200  37.9963924  14.0125051  54.0579607
  37.5980207  14.7461273  52.9697234  38.1516996  14.5113845  53.4738905
  37.3566883  11.8769583  48.0213901  37.6326618  11.1588495  47.6091469
  37.9565552  12.4754503  47.8135008  37.4860148  11.8589953  47.9294663
  36.3619137  21.7818784  58.1641297  36.2539492  21.7920846  59.0303355
  36.5714919  22.6073564  57.9746251  36.3769248  21.9059858  58.2645389
  46.8558323   7.7920259  51.1962997  46.2432636   8.2790661  51.5816729
  46.9522498   7.1163750  51.7400648  46.7796220   7.7638568  51.3341855
  40.8577404   9.5483100  46.2960496  41.3121150   9.7193660  47.0208341
  41.3317449   8.9351211  45.8958272  40.9945724   9.4833985  46.3434258
  34.3792929  19.0331426  55.6263235  33.7880862  19.6740924  55.5966250
  35.1413953  19.4569043  55.5994534  34.4041190  19.1907264  55.6178382
  34.7753552  10.1933424  56.2931253  35.2355033  10.2672353  57.0306376
  34.8209659  10.9914678  55.9431074  34.8504107  10.3227571  56.3504009
  36.4236902  10.8600119  60.8603280  36.0322467  10.2133466  61.2959057
  36.5922764  11.4511554  61.4797535  36.3907812  10.8514386  61.0165986
  50.4983351  18.8637196  56.6240513  50.5566474  19.3123844  57.3700490
  49.8649818  19.2736008  56.1870593  50.4134646  18.9910930  56.6693062
  44.1382445  24.4840738  53.0595259  43.9402134  24.9731552  52.3651471
  43.5170156  24.6881979  53.6379393  44.0170010  24.5857276  53.0418483
  38.1990424  16.2525634  47.4005504  38.9432469  16.6399911  47.6388454
  38.3451120  15.4083060  47.5645991  38.3301009  16.1856107  47.4599473
  40.1169999   8.0475893  52.4337365  39.2706044   8.2198701  52.3078715
  40.1141132   7.2425237  52.7703193  39.9917149   7.9536922  52.4648492
  41.1868300  11.8251108  53.2999423  40.7128254  11.2992870  53.8104734
  41.5586435  11.2780580  52.7314285  41.1718188  11.6667104  53.2914570
  31.5641330  13.8222614  58.6682969  32.4266943  13.7218324  58.5820299
  31.2333113  13.2417324  58.1068541  31.6426526  13.7214241  58.5728375
  47.4505030  16.8853483  54.7106204  47.2103253  16.0459898  54.7148630
  47.9297037  16.9653650  55.4346977  47.4857214  16.7734883  54.8181006
  43.1151799  12.7187662  46.3625177  42.5874818  12.8016406  45.6730886
  43.5747507  13.4605534  46.3589821  43.1053650  12.8408325  46.2599872
  49.4510217  13.6654941  52.6635463  49.2119987  13.6250775  51.8256247
  49.6144118  14.5126093  52.7901184  49.4400521  13.7847026  52.5588945
  46.0556247  18.0504890  58.5940508  46.7790446  17.5977416  58.4151528
  45.7906210  18.3309555  57.8112836  46.1237521  18.0255858  58.4519223
  34.9243116  12.6465063  55.3293387  34.2996186  12.6583455  54.7219340
  34.5888711  13.1225238  55.9784627  34.7828607  12.7183580  55.3349956
  35.1084864  10.9890182  41.3866072  34.7597669  11.6409907  41.8497621
  34.6281310  10.9747295  40.6589943  34.9855108  11.0833235  41.3477163
  41.8375037  18.1488768  56.7435523  41.2232030  17.6046818  57.0384158
  42.3542322  17.6353005  56.2641339  41.8230699  17.9925177  56.7159751
  41.0771334  19.2193038  54.4779821  40.6498942  18.5942757  54.0445257
  41.0696278  18.9367960  55.3038829  41.0130475  19.0845819  54.5359649
  34.1933861  14.2558211  57.5468255  34.3527348  13.5001535  57.9519977
  34.0126755  14.8049151  58.2008993  34.1899220  14.2252025  57.7030961
  42.1354164   6.4219447  58.1019045  41.6394725   6.6183121  57.4110612
  42.8923226   6.8212115  57.9307847  42.1740989   6.5097181  57.9739182
  39.4057044  10.0961793  54.6922355  39.4299531   9.5621905  54.0035135
  39.6568517   9.5879101  55.3547946  39.4466962   9.9422697  54.6887000
  26.9164633  17.3793288  54.1265500  26.8108083  17.3340132  53.2617584
  26.1664853  17.7247068  54.4079784  26.7900236  17.4234196  54.0402829
  35.6858366   8.8232611  54.0728100  35.7256737   9.3241817  54.7862807
  34.8608030   8.9143005  53.8034023  35.5697892   8.9114427  54.1378638
  37.8687979  18.3893351  62.1748394  37.0183609  18.5265065  62.3106039
  38.0316106  17.6557129  62.6196096  37.7671842  18.3007452  62.2603994
  37.1072729  15.3393121  56.3701999  36.2764659  15.5066939  56.1637247
  37.0524246  14.9629071  57.1550884  36.9762144  15.3082852  56.4550527
  34.9156512   8.8302014  62.0058410  35.5409216   8.2864146  62.2787842
  34.4606992   8.3496931  61.4366200  34.9404773   8.6791495  61.9620003
  35.5108995  14.4815823  44.2284693  36.1454075  15.0776248  44.1634155
  35.5934606  14.1819281  45.0430563  35.6165546  14.5256731  44.3387780
  48.4891561  17.0131301  57.0971058  49.0809401  17.6528551  57.1289256
  48.9250556  16.3154337  57.3863124  48.6409992  17.0049651  57.1451890
  37.0887978  10.4129799  44.2030135  37.4103819   9.9332881  43.5489398
  37.3514922  11.2229445  44.0120947  37.1754004  10.4619697  44.0785627
  40.3184951  21.4348673  57.7228951  39.8110042  21.9884520  58.1669582
  40.0211597  21.4956963  56.9047726  40.1989836  21.5254984  57.6677408
  42.4847133   9.8001993  56.5653614  42.9102205   9.3474519  55.9537141
  41.8704126   9.2462063  56.8418402  42.4575779   9.6515969  56.5158640
  32.0161983  16.6783664  47.4974239  32.5254213  17.2748172  47.8785545
  32.4896256  16.4109638  46.8150659  32.1605359  16.7269479  47.4528762
  40.9241356   6.2717092  49.9744191  40.2809674   6.1214739  50.5429330
  40.5840763   6.0259438  49.2093296  40.7786433   6.2129215  49.9447207
  45.5140703  14.2276519  49.3974200  44.8431892  14.7706222  49.2687266
  46.2080453  14.6971375  49.1555895  45.5169570  14.3774790  49.3429728
  39.5627436  26.3673231  54.6285958  39.3393091  25.6092061  54.9969985
  39.0737280  26.3971252  53.9066398  39.4570885  26.2595456  54.5762699
  34.3752515  13.3139923  50.3647420  33.6564504  13.7304055  50.6320283
  34.7464877  13.8794161  49.8139058  34.3244447  13.4589204  50.3230227
  43.6752096  13.9467771  56.2549415  43.6550023  13.7651067  57.1084194
  43.7231297  14.8179790  56.2308999  43.6786737  14.0484310  56.3772710
  41.6198426  20.5354963  62.1797892  41.5794281  19.8904640  61.5943048
  42.4321744  20.4791581  62.4923304  41.7341579  20.4313930  62.1394841
  41.5771187  25.7463775  52.8346659  41.1787471  25.8566045  52.0667480
  40.9622407  25.9545841  53.4173219  41.4270077  25.7937343  52.8077959
  40.1499089  12.3537922  45.7020799  39.5563929  12.6754919  45.1505366
  40.1874367  11.5079018  45.4941905  40.0673479  12.2762251  45.5903571
  47.1092890   5.8050815  53.2348886  46.6023755   5.0979954  53.1670063
  47.9060324   5.4744004  53.3649962  47.1520129   5.6523966  53.2447881
  43.0256906  12.3117427  49.1322549  42.7970599  12.3350128  48.2900908
  43.2854982  11.4874894  49.2517560  43.0303094  12.1933507  49.0247747
  37.3076134  14.1651900  58.7347650  36.7955038  13.5573083  59.0932681
  37.1355631  14.8808493  59.2021625  37.2065771  14.1815199  58.8563873
  32.1541849  12.6089475  61.3850011  31.9844439  13.2690850  60.8398218
  31.7107799  12.8196037  62.1062501  32.0641183  12.7375457  61.4111641
  36.0801668  10.8493973  50.4276745  36.5559035  11.2111053  49.7926926
  35.5790268  11.5050441  50.7076888  36.0767027  10.9988162  50.3753486
  41.1845205  12.0876145  61.1749905  41.7416635  11.8589954  60.5428371
  40.8606270  12.8481810  60.8985118  41.2191615  12.1659981  61.0406402
  29.0543914  15.5136341  56.6438501  28.5070633  14.8436986  56.7619370
  29.8436292  15.1466189  56.7081969  29.0896097  15.3601327  56.6707202
  38.9028322  15.1743798  62.1401912  39.6539649  15.4895475  62.4541467
  39.0950899  14.9722969  61.3135834  39.0419736  15.1911180  62.0645308
  38.1228322  12.9935173  43.7950129  38.5027286  13.0114802  43.0101244
  37.3820918  13.4389162  43.6740976  38.0697159  13.0616948  43.6613697
  45.7513612  11.3017364  49.3825708  45.7507839  11.1466021  50.2409984
  45.5469792  12.1480351  49.3267093  45.7213390  11.4037985  49.5013647
  27.8130883  14.7257149  53.7984524  27.6352644  14.2733758  54.5239440
  27.5249905  15.5283310  53.9823002  27.7443836  14.7779707  53.9328027
  43.4754464  15.9814866  53.0361915  43.9708130  15.2637861  52.9965935
  42.6654240  15.6785664  52.9216402  43.4298358  15.8312512  53.0135640
  29.5503353  17.2584872  50.9106283  28.6848872  17.2470563  50.7989055
  29.6502169  17.0715095  51.7577423  29.4377520  17.2290934  51.0195228
  45.5406283  18.7318554  55.7239043  45.9661355  18.2092975  55.1709468
  45.1763203  19.3299391  55.2027666  45.5492886  18.7428781  55.5648053
  35.1760363  27.0282771  54.4836389  35.4906922  27.8419159  54.4914171
  35.5853776  26.6432990  55.1518548  35.2828461  27.0911473  54.5840481
  42.1284883  22.4452818  52.0540201  42.5996061  23.1593080  52.2230186
  42.4645061  21.8451568  52.5900070  42.2479998  22.4624282  52.1572577
  44.2161867  24.0554131  64.2332273  44.3258833  23.2662692  64.5889020
  44.5452764  23.9660067  63.4306611  44.2814273  23.9259984  64.1674664
  39.0454378   7.2180288  59.0098296  39.1782283   6.4211282  59.3379271
  39.4299530   7.7446691  59.5896571  39.1210706   7.1780205  59.1441799
  42.7658829  22.2370752  58.8167894  42.2179775  21.6128636  58.5487959
  43.2271858  22.4265024  58.1011973  42.7526038  22.1729802  58.6718325
  45.5752693  10.3056106  56.2019086  44.9915682  10.8065313  55.7896653
  45.8956987   9.7985663  55.5683409  45.5365869  10.3047941  56.0477593
  38.1147492   9.2196701  46.4777761  38.9363187   9.3895014  46.2359456
  37.6517143   9.3743962  45.7544058  38.1678655   9.2678434  46.3349405
  36.7042824   7.2139463  57.2576189  37.2487237   6.8730590  57.8480531
  36.7579760   8.0724925  57.3997474  36.7931944   7.2894723  57.3658063
  32.5173383  20.9755879  54.1314997  33.1218240  20.9351714  53.5028818
  32.3100696  21.8227032  54.1619053  32.5762280  21.0943882  54.0431114
  42.3317155  23.2421825  55.3477235  43.1515529  23.0984791  55.6093530
  42.0511233  23.8668024  55.8893673  42.4113899  23.3132177  55.4665174
  27.7524665  19.9590497  54.0013920  27.6548943  19.1486769  54.3103977
  28.5353535  19.9382290  53.6160189  27.8540802  19.8357587  53.9900783
  58.8030806  30.8986676  48.3120111  58.7724810  31.7531313  48.4838380
  59.4012154  30.5981969  48.8706255  58.8867963  30.9803173  48.4194913
  52.0030490  29.9862327  53.0673042  51.1468386  30.1470826  53.1182158
  52.0498144  29.1154391  53.0878103  51.8829602  29.8813129  53.0779108
  55.3124207  36.2548853  62.6733498  56.0190974  35.7600884  62.8020432
  55.5012142  36.6957935  61.9436156  55.4452113  36.2467203  62.5842543
  54.8482311  32.0454371  55.7104693  55.3938271  32.7239458  55.7698663
  54.7899188  31.9041832  54.8506275  54.9198226  32.1246373  55.5916754
  43.4611518  27.7249455  53.6209687  42.8416550  27.1342102  53.4519702
  43.3595382  28.3160890  52.9874010  43.3549194  27.7253537  53.5014676
  50.5579414  29.4648996  47.9542150  51.2559578  29.6437124  48.4463613
  50.8731746  28.9419336  47.3312539  50.7074751  29.4142768  47.9344160
  43.1880651  31.2701736  55.8653256  43.0639348  31.8564182  56.5003075
  43.8398936  30.7761932  56.1665531  43.2654300  31.2840541  56.0039185
  48.7306277  24.8341393  52.0363425  48.4009607  25.2852537  51.3667123
  48.0551279  24.7557556  52.5836431  48.5816714  24.8892528  52.0186648
  55.9382685  20.8226916  50.2813035  55.6236126  21.5130395  50.7133458
  55.4209627  20.7671698  49.5798536  55.8147155  20.9161804  50.2409984
  60.7343172  36.3977721  51.7683490  59.9040875  36.6088365  51.9316907
  60.6852424  35.5714776  51.4925774  60.6049907  36.3067328  51.7520856
  60.2297130  29.0448122  55.5633912  59.3925551  29.1150309  55.7981506
  60.1985361  29.0472617  54.6908214  60.1015412  29.0558349  55.4693460
  46.6261859  31.1881158  61.2782280  46.7982363  31.0787052  62.1267562
  47.1631217  31.8335563  61.0413473  46.7306863  31.2673159  61.3687377
  57.9907487  37.0677076  51.9048206  57.5542719  37.0713818  52.6607178
  57.6570402  37.7482575  51.4727784  57.8770107  37.1689532  51.9529039
  52.5636561  39.1085409  63.2291356  53.3476977  39.2216256  63.5947099
  52.3633155  38.2826546  63.4250042  52.6502586  39.0032128  63.3125742
  57.9104970  24.1090904  54.1477634  58.5530878  24.1789008  54.7339549
  58.1627991  23.4420126  53.6457176  58.0427102  24.0217252  54.1604913
  45.6822182  27.3191467  58.7602208  44.9893979  26.8488447  59.0062940
  46.2982510  27.0929771  59.3343915  45.6706712  27.2158599  58.8811361
  61.1251833  33.7857996  50.7967843  61.7868267  33.2248664  50.6963752
  60.4843245  33.2910026  51.1220535  61.1280701  33.6294405  50.8300184
  57.4116664  34.8023378  50.5379832  57.6472253  34.9468577  49.7106683
  57.5606228  35.5665786  50.9311346  57.4682467  34.9362432  50.4743436
  44.4062741  31.2856871  59.9029053  45.1302714  31.2709902  60.3893948
  44.5078878  31.9952226  59.4051021  44.5280950  31.3881574  59.9007840
  59.2407121  33.6425044  48.3749436  59.5715338  34.1752684  47.7689531
  59.8140209  33.6963932  49.0311387  59.3740800  33.7294613  48.3827218
  51.7807691  34.7655956  64.7678000  50.9880672  35.0799467  64.9530620
  51.8956618  34.9807424  63.9298785  51.6803101  34.8439792  64.6716335
  52.7091484  34.6676159  59.7063297  53.2830345  34.0303403  59.8611861
  52.6306287  34.6680242  58.8372955  52.7824718  34.5741271  59.6009708
  53.1456252  25.2027875  51.8588587  52.4412579  24.7137061  52.0172506
  53.1941227  25.2150350  50.9877032  53.0486304  25.1317523  51.7527927
  50.7063203  29.1260536  57.1041768  50.3177636  28.7014754  56.4493959
  50.0417901  29.3742686  57.6118794  50.5510131  29.0999257  57.0829636
  60.3486472  28.8835541  49.8789598  60.0923037  28.0715482  49.6887480
  61.1915786  28.8913108  49.6519785  60.4352498  28.7647538  49.8174415
  54.5289565  22.8235165  54.6165752  54.9100076  22.1413336  55.0033626
  53.7252849  22.5344767  54.4341416  54.4666026  22.6802213  54.6469808
  58.0311631  36.0385137  59.7148150  57.7950269  35.2073202  59.5960211
  58.6754860  35.9870744  60.3002994  58.0906302  35.9082825  59.7834044
  48.4881405  25.3289363  64.4828360  48.1734846  26.0988926  64.2197923
  48.1671337  24.7659619  63.8980587  48.3940324  25.3599632  64.3569710
  59.0548052  35.8229586  55.7776445  58.7493869  36.5557642  56.1389760
  58.3354268  35.4167515  55.4969231  58.9035394  35.8711319  55.7889582
  64.7549844  32.4622586  55.1044789  64.6874344  32.4818545  54.2347375
  64.7405507  33.3052914  55.3300459  64.7428601  32.5896321  55.0097266
  46.0413302  23.7179885  50.0974557  45.1735727  23.7902484  50.1632166
  46.3288506  24.5201964  50.2862532  45.9553050  23.8474032  50.1349323
  55.1646191  23.8657744  58.4285878  55.9099783  23.6767554  58.0149304
  54.7483495  24.3915982  57.8699735  55.2131165  23.9159889  58.2850452
  62.5408462  31.2366973  53.3791383  63.0916383  30.6035042  53.6188475
  62.5252577  31.7682365  54.0706888  62.6193658  31.2215921  53.5170242
  49.1930852  35.0705570  57.9251277  48.6942546  35.7821337  58.0036165
  50.0031077  35.3906236  57.8869439  49.2386959  35.2232418  57.9307845
  56.2436868  29.4763306  52.4895980  55.9001634  28.7553641  52.8403229
  56.3429910  29.2677157  51.6474338  56.2078911  29.3387509  52.4167660
  48.1197910  27.9286614  63.2213575  47.3097686  28.2344394  63.1103417
  48.5972597  28.6492197  63.3366159  48.0701389  28.0801215  63.2220646
  54.7627833  27.3954891  54.3655522  53.9238934  27.4216170  54.1293786
  54.8332200  28.0425626  54.9460869  54.6496227  27.4951017  54.4164639
  44.4541942  33.4649165  58.0912977  44.9663039  33.7433418  57.4421737
  44.1678285  34.2038459  58.4575790  44.4876805  33.6151518  58.0502855
  53.2097111  24.2940268  49.0983138  53.9123464  24.0948016  48.6203097
  52.9441300  23.5216210  49.4051982  53.2743744  24.1503234  49.0728580
  58.6385357  32.6022878  51.6516764  58.5519331  32.7578304  52.5051543
  58.1835837  33.2460953  51.2776169  58.5588614  32.7198633  51.7223871
  47.9725668  25.5575553  58.1514019  47.7808865  25.5730688  59.0013442
  48.8224264  25.7539227  58.1280674  48.0701390  25.5889904  58.2737314
  42.3572581  28.0866535  56.1297835  42.2158072  27.2350475  56.2542343
  42.6413144  28.1295195  55.3060041  42.3780427  27.9666285  56.0265460
  52.5111173  29.9233625  50.2742324  52.2645887  29.8429376  51.1079113
  52.8396296  29.1387093  50.0804851  52.5232417  29.7959890  50.3689847
  56.4059222  36.6316984  54.0629105  56.2673581  37.3298030  54.5677847
  55.6259220  36.4765641  53.7065287  56.2702449  36.7117151  54.0855379
  54.7437307  32.9313360  60.3151487  54.7385345  32.0593176  60.3193913
  55.4498301  33.1301529  59.8420942  54.8482311  32.8317234  60.2458522
  48.4708200  32.6590343  59.6865307  48.6151576  33.2391552  59.0508417
  48.8183849  33.0366640  60.3915161  48.5435662  32.8011047  59.6964302
  50.6428118  31.8580512  57.4690438  49.8951432  32.0511526  57.0638716
  50.7969643  31.0325731  57.2314560  50.5550545  31.7645623  57.3735844
  50.8829895  25.7531062  58.3585842  51.3402509  26.4855037  58.4858634
  50.9586223  25.3297528  59.1173098  50.9620865  25.7988301  58.4886919
  43.1262886  25.9996882  59.4475286  42.5905075  25.3877240  59.7636053
  43.1880651  26.5745018  60.1008952  43.0558519  25.9943810  59.5910713
  55.3557221  18.9320938  52.2279685  55.4740789  19.3897401  51.4946988
  55.1819396  18.1266199  51.9415903  55.3476392  18.8814710  52.0780619
  48.7612273  27.7433166  55.2027666  47.9708347  27.5624627  55.5245002
  49.1572895  26.9660119  55.1857961  48.7029149  27.6020627  55.2480214
  51.2750103  30.2193426  59.6851165  51.2109244  31.0803382  59.5571302
  51.4147291  29.9025419  58.8846716  51.2865573  30.2993592  59.5479378
  55.6547894  36.9938147  65.2415616  56.4682759  36.7223296  65.4020748
  55.4942860  36.6945687  64.4375812  55.7517842  36.9093073  65.1461022
  52.9320056  27.6771804  58.1811004  53.1462025  27.0382719  57.6274358
  52.3153955  28.1217628  57.7518866  52.8725385  27.6481948  58.0361435
  55.0959144  29.2860870  59.1194311  54.2835825  28.9786760  59.2007484
  55.5549078  28.8059870  59.6837023  55.0439528  29.1697362  59.2148905
  52.3234784  20.7871740  53.1698347  51.4528342  20.7610461  53.1231656
  52.5775126  20.6148932  52.3524193  52.2328344  20.7581884  53.0418484
  52.1912651  30.6920941  63.9023014  52.6612282  31.3163057  64.2890888
  52.2374531  30.0237917  64.4616228  52.2680527  30.6855621  64.0423085
  49.3483925  22.7977968  54.6271817  48.8322413  22.1058160  54.7523396
  48.7877854  23.4648746  54.5734416  49.1890438  22.7941226  54.6377883
  51.4176158  23.3370929  56.4564670  51.0307911  23.3619960  57.2378200
  50.9309096  22.7712607  56.0039187  51.2888667  23.2566679  56.5052574
  55.6669138  38.0544438  60.5138456  56.3048858  37.5604633  60.1800913
  55.0243229  37.9821838  59.9290683  55.6663364  37.9703446  60.3780811
  57.3926138  29.9033583  55.0804372  56.9653746  29.8159932  54.3252472
  56.7552191  30.0111359  55.6659216  57.2355745  29.9066243  55.0549814
  51.0833300  20.2237914  58.7474930  51.7126418  20.7598214  58.4696000
  51.2519163  20.1315273  59.5988495  51.2011095  20.2899276  58.8323458
  50.8847215  25.0109109  61.0201341  51.7120644  24.7394258  61.0759956
  50.9055061  25.8069950  61.3765160  51.0100065  25.0888863  61.0816524
  55.7223394  38.7464246  57.1543813  56.5115773  38.3953311  57.2745895
  55.8966992  39.5600634  56.8920447  55.8643676  38.8150103  57.1331681
  54.5757219  22.7573802  51.7160232  54.7806812  22.6896110  52.5617229
  54.2483643  23.5632624  51.6481409  54.5572466  22.8659743  51.8319887
  49.2733370  30.0854371  53.4569200  48.9696507  29.5310359  54.0579607
  48.5712790  30.2646581  52.9697234  49.1249579  30.0299153  53.4738905
  57.8290906  23.3105567  51.1962997  57.2165220  23.7975969  51.5816729
  57.9255081  22.6349058  51.7400648  57.7528804  23.2823875  51.3341855
  51.8309987  25.0668408  46.2960496  52.2853734  25.2378968  47.0208341
  52.3050033  24.4536519  45.8958272  51.9678307  25.0019293  46.3434258
  45.7486135  25.7118732  56.2931253  46.2087617  25.7857661  57.0306376
  45.7942242  26.5099986  55.9431074  45.8236691  25.8412879  56.3504009
  47.3969485  26.3785426  60.8603280  47.0055050  25.7318774  61.2959057
  47.5655348  26.9696862  61.4797535  47.3640396  26.3699694  61.0165986
  61.4715934  34.3822504  56.6240513  61.5299058  34.8309152  57.3700490
  60.8382402  34.7921316  56.1870593  61.3867229  34.5096238  56.6693062
  55.1115029  40.0026045  53.0595259  54.9134718  40.4916860  52.3651471
  54.4902740  40.2067287  53.6379393  54.9902593  40.1042584  53.0418483
  51.0902583  23.5661201  52.4337365  50.2438628  23.7384009  52.3078715
  51.0873715  22.7610545  52.7703193  50.9649733  23.4722230  52.4648492
  52.1600883  27.3436416  53.2999423  51.6860837  26.8178178  53.8104734
  52.5319019  26.7965888  52.7314285  52.1450772  27.1852412  53.2914570
  42.5373913  29.3407922  58.6682969  43.3999526  29.2403631  58.5820299
  42.2065696  28.7602632  58.1068541  42.6159110  29.2399549  58.5728375
  58.4237614  32.4038791  54.7106204  58.1835837  31.5645206  54.7148630
  58.9029621  32.4838958  55.4346977  58.4589797  32.2920191  54.8181006
  54.0884383  28.2372970  46.3625177  53.5607401  28.3201714  45.6730886
  54.5480091  28.9790842  46.3589821  54.0786233  28.3593633  46.2599872
  60.4242801  29.1840248  52.6635463  60.1852571  29.1436083  51.8256247
  60.5876702  30.0311400  52.7901184  60.4133104  29.3032333  52.5588945
  57.0288831  33.5690198  58.5940508  57.7523030  33.1162724  58.4151528
  56.7638793  33.8494863  57.8112836  57.0970104  33.5441166  58.4519223
  45.8975699  28.1650371  55.3293387  45.2728769  28.1768763  54.7219340
  45.5621294  28.6410546  55.9784627  45.7561191  28.2368888  55.3349956
  52.8107620  33.6674076  56.7435523  52.1964613  33.1232126  57.0384158
  53.3274905  33.1538312  56.2641339  52.7963283  33.5110485  56.7159751
  45.1666445  29.7743519  57.5468255  45.3259931  29.0186843  57.9519977
  44.9859338  30.3234459  58.2008993  45.1631804  29.7437333  57.7030961
  53.1086748  21.9404755  58.1019045  52.6127309  22.1368429  57.4110612
  53.8655810  22.3397423  57.9307847  53.1473572  22.0282488  57.9739182
  50.3789627  25.6147101  54.6922355  50.4032114  25.0807213  54.0035135
  50.6301101  25.1064409  55.3547946  50.4199546  25.4608004  54.6887000
  46.6590949  24.3417919  54.0728100  46.6989321  24.8427125  54.7862807
  45.8340614  24.4328312  53.8034023  46.5430475  24.4299735  54.1378638
  48.8420562  33.9078659  62.1748394  47.9916193  34.0450373  62.3106039
  49.0048690  33.1742437  62.6196096  48.7404426  33.8192760  62.2603994
  48.0805313  30.8578429  56.3701999  47.2497242  31.0252247  56.1637247
  48.0256830  30.4814379  57.1550884  47.9494728  30.8268160  56.4550527
  45.8889096  24.3487322  62.0058410  46.5141799  23.8049454  62.2787842
  45.4339576  23.8682239  61.4366200  45.9137357  24.1976803  61.9620003
  59.4624145  32.5316609  57.0971058  60.0541985  33.1713859  57.1289256
  59.8983139  31.8339645  57.3863124  59.6142576  32.5234959  57.1451890
  51.2917535  36.9533981  57.7228951  50.7842626  37.5069828  58.1669582
  50.9944181  37.0142271  56.9047726  51.1722420  37.0440292  57.6677408
  53.4579717  25.3187301  56.5653614  53.8834788  24.8659827  55.9537141
  52.8436710  24.7647371  56.8418402  53.4308362  25.1701277  56.5158640
  51.8973940  21.7902400  49.9744191  51.2542258  21.6400047  50.5429330
  51.5573347  21.5444746  49.2093296  51.7519017  21.7314523  49.9447207
  56.4873286  29.7461827  49.3974200  55.8164476  30.2891529  49.2687266
  57.1813036  30.2156682  49.1555895  56.4902154  29.8960098  49.3429728
  56.6501414  26.2017711  52.3064573  57.0029024  25.7747434  52.9810372
  55.7916215  26.1168554  52.4365650  56.5750858  26.1262451  52.4259584
  54.6484679  29.4653079  56.2549415  54.6282607  29.2836375  57.1084194
  54.6963880  30.3365098  56.2308999  54.6519320  29.5669618  56.3772710
  52.5931009  36.0540271  62.1797892  52.5526864  35.4089948  61.5943048
  53.4054328  35.9976889  62.4923304  52.7074163  35.9499238  62.1394841
  51.1231673  27.8723230  45.7020799  50.5296512  28.1940227  45.1505366
  51.1606951  27.0264326  45.4941905  51.0406062  27.7947559  45.5903571
  58.0825474  21.3236123  53.2348886  57.5756338  20.6165262  53.1670063
  58.8792907  20.9929311  53.3649962  58.1252713  21.1709274  53.2447881
  53.9989490  27.8302735  49.1322549  53.7703183  27.8535436  48.2900908
  54.2587566  27.0060202  49.2517560  54.0035678  27.7118815  49.0247747
  48.2808718  29.6837208  58.7347650  47.7687621  29.0758391  59.0932681
  48.1088214  30.3993800  59.2021625  48.1798355  29.7000507  58.8563873
  43.1274433  28.1274783  61.3850011  42.9577023  28.7876158  60.8398218
  42.6840383  28.3381344  62.1062501  43.0373766  28.2560765  61.4111641
  47.0534252  26.3679281  50.4276745  47.5291618  26.7296361  49.7926926
  46.5522852  27.0235749  50.7076888  47.0499611  26.5173470  50.3753486
  60.2845614  35.8401049  46.2189750  60.6679219  36.5892405  46.4487847
  59.4889727  36.0866869  45.9601739  60.2239396  35.9870743  46.2147324
  52.1577788  27.6061453  61.1749905  52.7149219  27.3775262  60.5428371
  51.8338853  28.3667118  60.8985118  52.1924199  27.6845289  61.0406402
  40.0276497  31.0321649  56.6438501  39.4803217  30.3622294  56.7619370
  40.8168875  30.6651497  56.7081969  40.0628681  30.8786635  56.6707202
  49.8760906  30.6929106  62.1401912  50.6272233  31.0080783  62.4541467
  50.0683482  30.4908277  61.3135834  50.0152320  30.7096488  62.0645308
  56.7246196  26.8202672  49.3825708  56.7240422  26.6651329  50.2409984
  56.5202376  27.6665659  49.3267093  56.6945974  26.9223293  49.5013647
  38.7863467  30.2442457  53.7984524  38.6085228  29.7919066  54.5239440
  38.4982489  31.0468618  53.9823002  38.7176420  30.2965014  53.9328027
  54.4487048  31.5000174  53.0361915  54.9440713  30.7823169  52.9965935
  53.6386824  31.1970972  52.9216402  54.4030941  31.3497820  53.0135640
  56.5138867  34.2503861  55.7239043  56.9393938  33.7278283  55.1709468
  56.1495787  34.8484699  55.2027666  56.5225469  34.2614089  55.5648053
  55.1894451  39.5739439  64.2332273  55.2991416  38.7848000  64.5889020
  55.5185347  39.4845375  63.4306611  55.2546857  39.4445292  64.1674664
  50.0186961  22.7365596  59.0098296  50.1514867  21.9396590  59.3379271
  50.4032114  23.2631999  59.5896571  50.0943290  22.6965513  59.1441799
  53.7391412  37.7556060  58.8167894  53.1912358  37.1313944  58.5487959
  54.2004441  37.9450332  58.1011973  53.7258622  37.6915110  58.6718325
  53.0919316  19.6595922  55.6079389  52.2865280  19.5493652  55.9247227
  52.9626052  19.7608378  54.7509255  52.9539449  19.6579593  55.5287429
  56.5485277  25.8241414  56.2019086  55.9648266  26.3250621  55.7896653
  56.8689571  25.3170971  55.5683409  56.5098452  25.8233249  56.0477593
  47.6775408  22.7324771  57.2576189  48.2219821  22.3915898  57.8480531
  47.7312344  23.5910233  57.3997474  47.7664527  22.8080031  57.3658063
  53.3049739  38.7607133  55.3477235  54.1248113  38.6170099  55.6093530
  53.0243816  39.3853331  55.8893673  53.3846482  38.8317485  55.4665174
  69.7763389  46.4171984  48.3120111  69.7457393  47.2716621  48.4838380
  70.3744738  46.1167277  48.8706255  69.8600547  46.4988481  48.4194913
  62.9763074  45.5047635  53.0673042  62.1200969  45.6656134  53.1182158
  63.0230728  44.6339699  53.0878103  62.8562185  45.3998437  53.0779108
  57.3604214  55.0410353  48.8310273  56.6087113  54.6625892  48.6026318
  57.8090225  55.0728787  48.0829083  57.3153880  54.9895960  48.6867775
  66.2856790  51.7734161  62.6733498  66.9923558  51.2786192  62.8020432
  66.4744726  52.2143242  61.9436156  66.4184696  51.7652511  62.5842543
  62.3533465  57.4149991  50.2006932  62.7372844  57.9836890  49.6611707
  62.2892606  56.6899502  49.7212748  62.4006892  57.3925455  50.0500794
  65.8214895  47.5639679  55.7104693  66.3670855  48.2424766  55.7698663
  65.7631771  47.4227140  54.8506275  65.8930809  47.6431681  55.5916754
  58.9388970  55.0528745  51.0973046  59.0399333  54.2429099  51.4070173
  58.3430715  54.9585692  50.4672724  58.8661509  54.9193773  51.0499284
  67.5979964  48.9924286  46.5838421  67.4819490  49.7431972  47.0130559
  68.3935850  48.7348240  46.8334508  67.6984553  49.0659133  46.6842513
  58.7789709  59.9706335  52.4987902  59.4227165  60.4119499  52.8884060
  59.1045965  59.1659761  52.4118160  58.9221538  59.9171529  52.5433379
  59.4810289  52.9818309  47.8707763  59.8026130  53.5223517  47.2669071
  60.1282386  52.4115081  48.0030053  59.6236344  52.9777485  47.8014799
  61.7199933  51.3704749  47.9421941  62.1593568  50.7621850  48.3876714
  61.5704595  50.9912123  47.1707407  61.7621398  51.2243220  47.8941109
  59.1871576  49.9648761  55.1440767  59.8320578  49.4721204  54.8251716
  59.4273353  50.1073548  55.9706845  59.3182161  49.9126203  55.2190300
  61.7257667  52.8103667  54.7947660  62.0080910  52.0155073  54.5734415
  62.4543827  53.2884254  54.8152721  61.8747231  52.7638264  54.7650675
  59.7038861  40.3526701  52.0363425  59.3742191  40.8037845  51.3667123
  59.0283863  40.2742864  52.5836431  59.5549297  40.4077836  52.0186648
  65.3209269  49.7231931  44.8952711  65.2360564  50.5792897  45.0402280
  65.8093652  49.4476255  45.5634870  65.3798166  49.8089252  45.0154792
  66.9115269  36.3412224  50.2813035  66.5968710  37.0315702  50.7133458
  66.3942210  36.2857006  49.5798536  66.7879739  36.4347112  50.2409984
  66.2527702  46.3416725  46.3950446  65.7239174  46.5576358  47.0547752
  66.7752722  47.0352863  46.3151415  66.2516155  46.4759862  46.4806045
  71.7075755  51.9163029  51.7683490  70.8773458  52.1273673  51.9316907
  71.6585008  51.0900084  51.4925774  71.5782491  51.8252636  51.7520856
  53.6971339  55.9534703  51.9981585  53.2138917  56.6785192  51.9741169
  54.5094657  56.2510833  52.1091743  53.7462087  56.1037056  52.0108865
  59.7685493  54.7466883  54.6031400  59.2512435  54.3874298  53.9992708
  60.4659884  54.2229058  54.6137466  59.7951074  54.6164571  54.5161659
  63.4249085  55.1961697  60.5647573  63.5132431  55.0087838  61.4125783
  63.8538797  54.5499127  60.1652420  63.5011187  55.0724705  60.6319324
  60.9919545  54.4792857  59.5465235  60.4290379  54.0665467  60.0704896
  61.7540568  54.4045763  59.9658378  61.0213993  54.4070258  59.6858235
  56.5515536  56.4690879  52.1501865  57.2536115  55.9542868  52.2074622
  56.4713019  56.7965030  52.9548740  56.6439297  56.4405105  52.2774657
  71.2029714  44.5633430  55.5633912  70.3658135  44.6335617  55.7981506
  71.1717945  44.5657925  54.6908214  71.0747996  44.5743657  55.4693460
  57.5994443  46.7066466  61.2782280  57.7714946  46.5972360  62.1267562
  58.1363800  47.3520871  61.0413473  57.7039447  46.7858467  61.3687377
  56.5019015  53.0798106  55.9600779  57.0417239  52.9369237  56.6304151
  55.8188961  53.4794857  56.3284805  56.4811168  53.1177777  56.1135201
  61.9451599  37.8235719  47.2513509  62.6737759  37.6451674  46.8051665
  62.0346492  38.6653799  47.4620687  62.0658261  37.9219597  47.2167027
  65.9259899  48.7589106  51.1545803  66.6817414  49.1920621  51.1934712
  66.0322224  48.1093876  51.7280439  66.0530070  48.7266590  51.2443829
  68.9640071  52.5862384  51.9048206  68.5275302  52.5899126  52.6607178
  68.6302986  53.2667883  51.4727784  68.8502690  52.6874839  51.9529039
  63.5369144  54.6270716  63.2291356  64.3209561  54.7401564  63.5947099
  63.3365739  53.8011854  63.4250042  63.6235170  54.5217436  63.3125742
  68.8837553  39.6276211  54.1477634  69.5263462  39.6974316  54.7339549
  69.1360574  38.9605434  53.6457176  69.0159686  39.5402560  54.1604913
  63.6939537  56.5380819  56.8757812  62.8954783  56.2980319  57.1331681
  64.1425549  56.5895211  57.6224860  63.6414149  56.5103210  57.0242736
  72.0984417  49.3043304  50.7967843  72.7600851  48.7433972  50.6963752
  71.4575829  48.8095334  51.1220535  72.1013284  49.1479713  50.8300184
  62.9861224  52.6013435  43.1048767  63.4012373  52.2698459  42.4133262
  62.1553154  52.3682337  42.9768903  62.9249233  52.5184691  42.9839614
  68.3849247  50.3208686  50.5379832  68.6204837  50.4653885  49.7106683
  68.5338811  51.0851094  50.9311346  68.4415051  50.4547740  50.4743436
  70.2139704  49.1610352  48.3749436  70.5447921  49.6937992  47.7689531
  70.7872792  49.2149240  49.0311387  70.3473383  49.2479921  48.3827218
  62.7540274  50.2841263  64.7678000  61.9613255  50.5984775  64.9530620
  62.8689201  50.4992732  63.9298785  62.6535685  50.3625100  64.6716335
  65.4271593  47.0075255  49.0573016  65.5218448  47.7464549  49.5112642
  64.8030437  46.5792730  49.4907581  65.3480623  47.0536575  49.1881164
  63.6824067  50.1861467  59.7063297  64.2562929  49.5488711  59.8611861
  63.6038871  50.1865550  58.8372955  63.7557302  50.0926579  59.6009708
  65.6794615  48.8523994  42.2909968  65.5974777  48.9226182  43.1564955
  66.3174335  49.4153738  42.0993709  65.7614452  48.9462965  42.3899918
  59.0387786  48.6184732  51.7584494  58.7807030  47.7856467  51.7315794
  59.0936269  48.8442345  50.9176995  59.0087564  48.5282504  51.6304631
  64.1188836  40.7213183  51.8588587  63.4145163  40.2322369  52.0172506
  64.1673810  40.7335657  50.9877032  64.0218887  40.6502831  51.7527927
  61.6795787  44.6445844  57.1041768  61.2910219  44.2200062  56.4493959
  61.0150485  44.8927994  57.6118794  61.5242714  44.6184565  57.0829636
  71.3219056  44.4020849  49.8789598  71.0655621  43.5900790  49.6887480
  72.1648370  44.4098416  49.6519785  71.4085081  44.2832846  49.8174415
  65.5022148  38.3420473  54.6165752  65.8832660  37.6598644  55.0033626
  64.6985432  38.0530075  54.4341416  65.4398610  38.1987521  54.6469808
  69.0044215  51.5570445  59.7148150  68.7682852  50.7258510  59.5960211
  69.6487444  51.5056052  60.3002994  69.0638886  51.4268133  59.7834044
  58.6542633  52.3465966  50.4290887  59.2916580  52.1077714  50.9742680
  59.0797705  52.5503125  49.6944047  58.8118799  52.3416976  50.4008044
  53.3455275  54.5854303  54.3125190  53.3859421  54.8569154  53.4844970
  53.9049800  55.1096211  54.7282978  53.4338621  54.7030058  54.2517079
  59.4613989  40.8474671  64.4828360  59.1467430  41.6174234  64.2197923
  59.1403921  40.2844927  63.8980587  59.3672908  40.8784940  64.3569710
  70.0280636  51.3414894  55.7776445  69.7226453  52.0742950  56.1389760
  69.3086851  50.9352823  55.4969231  69.8767978  51.3896627  55.7889582
  61.0364105  52.8238389  52.1084673  61.1103113  52.6613561  52.9626523
  61.8533611  53.0128578  51.8645155  61.1680464  52.8275131  52.1982699
  75.7282428  47.9807894  55.1044789  75.6606928  48.0003853  54.2347375
  75.7138090  48.8238221  55.3300459  75.7161184  48.1081629  55.0097266
  66.1378774  39.3843052  58.4285878  66.8832366  39.1952862  58.0149304
  65.7216079  39.9101290  57.8699735  66.1863748  39.4345197  58.2850452
  59.5768691  55.7873132  46.8398146  59.8666989  55.3962113  46.1157373
  60.3072172  55.9689837  47.2803422  59.7275575  55.7566946  46.7980953
  73.5141045  46.7552280  53.3791383  74.0648967  46.1220349  53.6188475
  73.4985160  47.2867673  54.0706888  73.5926241  46.7401229  53.5170242
  60.1663436  50.5890878  57.9251277  59.6675130  51.3006645  58.0036165
  60.9763660  50.9091544  57.8869439  60.2119543  50.7417726  57.9307845
  57.5174606  57.7640514  49.9058296  57.2974902  57.4737869  50.6984963
  57.2969128  57.1055469  49.3776208  57.4522201  57.6240223  49.9447205
  67.2169451  44.9948614  52.4895980  66.8734217  44.2738949  52.8403229
  67.3162494  44.7862465  51.6474338  67.1811494  44.8572817  52.4167660
  59.6842562  59.1369904  48.6888988  60.3366620  58.6046346  48.9180014
  58.9868171  58.7838556  49.0756862  59.6773280  59.0059427  48.7801156
  67.6782480  51.4574318  48.0319968  68.2440513  52.1167528  47.9478511
  67.0310384  51.8024016  48.5036370  67.6661237  51.6056259  48.0892724
  59.0930494  43.4471922  63.2213575  58.2830270  43.7529702  63.1103417
  59.5705181  44.1677504  63.3366159  59.0433973  43.5986523  63.2220646
  57.9522054  52.6617643  53.4696478  57.4302807  52.8017935  54.1548343
  58.3396074  51.9028307  53.6598595  57.9325754  52.5703167  53.5997555
  64.1489058  54.4013102  47.4557047  63.9075734  53.6680963  47.0484112
  64.3290391  54.9499959  46.8023380  64.1396682  54.3735494  47.2987270
  59.3788379  49.6921662  48.8677969  59.1831162  50.2996397  48.2738272
  59.6022725  48.9989606  48.3869643  59.3823020  49.6799188  48.7094050
  65.7360417  42.9140199  54.3655522  64.8971517  42.9401478  54.1293786
  65.8064784  43.5610934  54.9460869  65.6228810  43.0136325  54.4164639
  64.1829695  39.8125576  49.0983138  64.8856048  39.6133324  48.6203097
  63.9173884  39.0401518  49.4051982  64.2476327  39.6688542  49.0728580
  69.6117941  48.1208186  51.6516764  69.5251915  48.2763612  52.5051543
  69.1568420  48.7646261  51.2776169  69.5321197  48.2383941  51.7223871
  58.9458251  41.0760861  58.1514019  58.7541448  41.0915995  59.0013442
  59.7956847  41.2724535  58.1280674  59.0433973  41.1075212  58.2737314
  63.4843757  45.4418933  50.2742324  63.2378471  45.3614684  51.1079113
  63.8128880  44.6572401  50.0804851  63.4965000  45.3145198  50.3689847
  67.3791805  52.1502292  54.0629105  67.2406165  52.8483338  54.5677847
  66.5991803  51.9950949  53.7065287  67.2435032  52.2302459  54.0855379
  65.7169891  48.4498667  60.3151487  65.7117929  47.5778484  60.3193913
  66.4230884  48.6486837  59.8420942  65.8214895  48.3502542  60.2458522
  59.4440784  48.1775651  59.6865307  59.5884160  48.7576859  59.0508417
  59.7916432  48.5551948  60.3915161  59.5168245  48.3196355  59.6964302
  61.6160701  47.3765820  57.4690438  60.8684015  47.5696834  57.0638716
  61.7702226  46.5511039  57.2314560  61.5283129  47.2830931  57.3735844
  58.5168539  56.3678423  56.5526334  58.6658103  55.8081339  55.8999738
  59.2968541  56.4470425  56.9358852  58.6542632  56.2963989  56.5123283
  68.8745178  51.5080546  44.8245604  68.4951987  50.7217684  44.8174894
  68.2111424  52.0567403  44.6817248  68.7203653  51.4725370  44.8026401
  61.0421840  56.5393066  57.8310824  60.9665511  55.8701877  58.3861613
  60.9711699  57.2410854  58.3451491  61.0202446  56.5437973  57.9887673
  61.8562478  41.2716370  58.3585842  62.3135092  42.0040345  58.4858634
  61.9318807  40.8482836  59.1173098  61.9353448  41.3173609  58.4886919
  66.3289804  34.4506246  52.2279685  66.4473372  34.9082709  51.4946988
  66.1551980  33.6451507  51.9415903  66.3208975  34.4000018  52.0780619
  61.6992086  55.0594065  48.6634430  62.4641978  54.7903709  48.3417095
  61.5970176  54.5744075  49.3804493  61.7973582  54.9483630  48.7214258
  59.7344856  43.2618474  55.2027666  58.9440931  43.0809934  55.5245002
  60.1305479  42.4845427  55.1857961  59.6761732  43.1205935  55.2480214
  64.2210747  52.0906249  40.6434380  64.9883732  52.1506374  40.2340232
  63.7742056  51.5186690  40.1590698  64.2684174  52.0142824  40.5112090
  65.1188542  50.8960905  52.9287112  64.4433544  50.6646137  53.4300499
  65.1280919  50.2882087  52.3029217  65.0207047  50.7719830  52.9103264
  62.2482686  45.7378733  59.6851165  62.1841828  46.5988690  59.5571302
  62.3879874  45.4210727  58.8846716  62.2598157  45.8178900  59.5479378
  67.1205277  53.7526037  45.1597290  67.2025114  54.5593023  44.8358741
  67.6055019  53.7721996  45.8838063  67.2042435  53.8746699  45.2184189
  60.9301780  48.4310873  53.8267368  60.5064029  48.6315372  53.0906386
  60.7546636  47.5839721  53.9391668  60.8412661  48.3359654  53.7341058
  60.4313474  59.9461386  56.2888825  60.9209404  59.2472175  56.1064490
  59.8597706  59.6485256  56.8764883  60.4198004  59.7987609  56.3489866
  66.6280477  52.5123455  65.2415616  67.4415343  52.2408604  65.4020748
  66.4675444  52.2130995  64.4375812  66.7250426  52.4278381  65.1461022
  60.9249820  53.6938159  45.4128732  60.9942640  52.8352698  45.5521732
  61.7038275  53.9110040  45.0847756  61.0502670  53.5991023  45.3845889
  63.9052639  43.1957112  58.1811004  64.1194609  42.5568027  57.6274358
  63.2886538  43.6402936  57.7518866  63.8457969  43.1667256  58.0361435
  65.3157307  56.1175861  49.6265225  64.9237099  55.8142576  48.9088091
  65.4710379  56.9544951  49.4370179  65.2810897  56.1959697  49.4921722
  66.0691727  44.8046178  59.1194311  65.2568409  44.4972068  59.2007484
  66.5281662  44.3245178  59.6837023  66.0172112  44.6882670  59.2148905
  65.4796982  52.6825849  49.5671256  65.1211637  52.8540492  50.3435288
  64.9935693  53.1439055  49.0099254  65.3555679  52.7764821  49.5996525
  63.2967368  36.3057048  53.1698347  62.4260926  36.2795769  53.1231656
  63.5507709  36.1334240  52.3524193  63.2060928  36.2767192  53.0418484
  63.1645235  46.2106249  63.9023014  63.6344866  46.8348365  64.2890888
  63.2107115  45.5423224  64.4616228  63.2413111  46.2040929  64.0423085
  60.3216508  38.3163276  54.6271817  59.8054997  37.6243468  54.7523396
  59.7610437  38.9834053  54.5734416  60.1623022  38.3126534  54.6377883
  62.3908742  38.8556236  56.4564670  62.0040495  38.8805268  57.2378200
  61.9041679  38.2897915  56.0039187  62.2621251  38.7751987  56.5052574
  66.6401721  53.5729745  60.5138456  67.2781442  53.0789941  60.1800913
  65.9975813  53.5007146  59.9290683  66.6395948  53.4888754  60.3780811
  68.3658721  45.4218891  55.0804372  67.9386329  45.3345240  54.3252472
  67.7284774  45.5296667  55.6659216  68.2088329  45.4251551  55.0549814
  62.0565884  35.7423222  58.7474930  62.6859002  36.2783522  58.4696000
  62.2251746  35.6500581  59.5988495  62.1743678  35.8084584  58.8323458
  61.8579799  40.5294417  61.0201341  62.6853228  40.2579566  61.0759956
  61.8787645  41.3255258  61.3765160  61.9832649  40.6074171  61.0816524
  66.6955978  54.2649554  57.1543813  67.4848356  53.9138618  57.2745895
  66.8699576  55.0785942  56.8920447  66.8376260  54.3335411  57.1331681
  56.4349288  47.6758279  54.2071602  55.5937295  47.5762154  54.4150496
  56.6439296  48.4453760  54.5585923  56.3413981  47.7750323  54.2898917
  65.5489802  38.2759110  51.7160232  65.7539395  38.2081418  52.5617229
  65.2216226  39.0817932  51.6481409  65.5305050  38.3845051  51.8319887
  60.2465953  45.6039679  53.4569200  59.9429091  45.0495667  54.0579607
  59.5445374  45.7831889  52.9697234  60.0982163  45.5484461  53.4738905
  58.3084304  52.8189399  58.1641297  58.2004659  52.8291461  59.0303355
  58.5180086  53.6444180  57.9746251  58.3234415  52.9430474  58.2645389
  68.8023490  38.8290875  51.1962997  68.1897803  39.3161277  51.5816729
  68.8987665  38.1534366  51.7400648  68.7261387  38.8009183  51.3341855
  56.3258096  50.0702042  55.6263235  55.7346029  50.7111540  55.5966250
  57.0879120  50.4939659  55.5994534  56.3506357  50.2277880  55.6178382
  56.7218719  41.2304040  56.2931253  57.1820201  41.3042969  57.0306376
  56.7674826  42.0285294  55.9431074  56.7969274  41.3598187  56.3504009
  58.3702069  41.8970734  60.8603280  57.9787634  41.2504081  61.2959057
  58.5387931  42.4882170  61.4797535  58.3372979  41.8885002  61.0165986
  72.4448518  49.9007811  56.6240513  72.5031641  50.3494460  57.3700490
  71.8114985  50.3106624  56.1870593  72.3599813  50.0281546  56.6693062
  66.0847612  55.5211353  53.0595259  65.8867301  56.0102168  52.3651471
  65.4635324  55.7252595  53.6379393  65.9635177  55.6227892  53.0418483
  62.0635166  39.0846509  52.4337365  61.2171211  39.2569317  52.3078715
  62.0606299  38.2795853  52.7703193  61.9382316  38.9907538  52.4648492
  63.1333467  42.8621723  53.2999423  62.6593421  42.3363486  53.8104734
  63.5051602  42.3151196  52.7314285  63.1183356  42.7037720  53.2914570
  69.3970197  47.9224099  54.7106204  69.1568420  47.0830514  54.7148630
  69.8762204  48.0024266  55.4346977  69.4322381  47.8105499  54.8181006
  65.0616966  43.7558278  46.3625177  64.5339985  43.8387022  45.6730886
  65.5212674  44.4976150  46.3589821  65.0518817  43.8778940  46.2599872
  71.3975384  44.7025556  52.6635463  71.1585154  44.6621390  51.8256247
  71.5609286  45.5496708  52.7901184  71.3865688  44.8217641  52.5588945
  68.0021414  49.0875506  58.5940508  68.7255613  48.6348032  58.4151528
  67.7371377  49.3680171  57.8112836  68.0702688  49.0626474  58.4519223
  64.6154049  52.3261842  45.4934834  65.3388248  52.7919955  45.3499407
  64.1754640  52.3935451  44.7432431  64.6569741  52.4045678  45.3619615
  63.7840204  49.1859384  56.7435523  63.1697197  48.6417434  57.0384158
  64.3007489  48.6723620  56.2641339  63.7695866  49.0295793  56.7159751
  63.0236501  50.2563654  54.4779821  62.5964109  49.6313373  54.0445257
  63.0161445  49.9738576  55.3038829  62.9595642  50.1216435  54.5359649
  64.0819331  37.4590063  58.1019045  63.5859892  37.6553737  57.4110612
  64.8388393  37.8582731  57.9307847  64.1206156  37.5467796  57.9739182
  61.3522211  41.1332408  54.6922355  61.3764698  40.5992521  54.0035135
  61.6033684  40.6249717  55.3547946  61.3932129  40.9793312  54.6887000
  57.6323533  39.8603227  54.0728100  57.6721905  40.3612433  54.7862807
  56.8073198  39.9513620  53.8034023  57.5163059  39.9485043  54.1378638
  59.8153146  49.4263967  62.1748394  58.9648776  49.5635681  62.3106039
  59.9781274  48.6927745  62.6196096  59.7137009  49.3378068  62.2603994
  59.0537896  46.3763737  56.3701999  58.2229826  46.5437554  56.1637247
  58.9989414  45.9999687  57.1550884  58.9227311  46.3453468  56.4550527
  56.8621680  39.8672629  62.0058410  57.4874383  39.3234762  62.2787842
  56.4072160  39.3867547  61.4366200  56.8869940  39.7162111  61.9620003
  70.4356728  48.0501916  57.0971058  71.0274569  48.6899167  57.1289256
  70.8715723  47.3524953  57.3863124  70.5875160  48.0420267  57.1451890
  62.2650118  52.4719289  57.7228951  61.7575209  53.0255136  58.1669582
  61.9676764  52.5327579  56.9047726  62.1455003  52.5625600  57.6677408
  64.4312300  40.8372608  56.5653614  64.8567372  40.3845135  55.9537141
  63.8169294  40.2832679  56.8418402  64.4040946  40.6886585  56.5158640
  64.8757899  56.3882547  45.6532895  64.1587208  56.2143409  45.1880132
  65.5264636  56.1535119  45.1208381  64.8659749  56.3278339  45.5062113
  62.8706523  37.3087708  49.9744191  62.2274841  37.1585355  50.5429330
  62.5305930  37.0630054  49.2093296  62.7251601  37.2499831  49.9447207
  67.4605870  45.2647135  49.3974200  66.7897060  45.8076837  49.2687266
  68.1545620  45.7341990  49.1555895  67.4634737  45.4145406  49.3429728
  61.5092603  57.4043847  54.6285958  61.2858258  56.6462676  54.9969985
  61.0202447  57.4341868  53.9066398  61.4036052  57.2966072  54.5762699
  67.6233997  41.7203019  52.3064573  67.9761607  41.2932742  52.9810372
  66.7648799  41.6353862  52.4365650  67.5483442  41.6447759  52.4259584
  65.6217263  44.9838387  56.2549415  65.6015190  44.8021682  57.1084194
  65.6696464  45.8550406  56.2308999  65.6251904  45.0854926  56.3772710
  63.5663593  51.5725579  62.1797892  63.5259448  50.9275256  61.5943048
  64.3786911  51.5162197  62.4923304  63.6806746  51.4684546  62.1394841
  60.1571060  57.6244305  52.0823043  59.7431459  56.9618435  51.6926885
  60.8418435  57.7722164  51.5618737  60.1969432  57.5484963  51.9479540
  63.5236355  56.7834390  52.8346659  63.1252638  56.8936661  52.0667480
  62.9087574  56.9916457  53.4173219  63.3735244  56.8307959  52.8077959
  69.0558057  36.8421431  53.2348886  68.5488922  36.1350570  53.1670063
  69.8525491  36.5114619  53.3649962  69.0985297  36.6894582  53.2447881
  64.9722073  43.3488043  49.1322549  64.7435766  43.3720744  48.2900908
  65.2320149  42.5245510  49.2517560  64.9768261  43.2304123  49.0247747
  59.2541302  45.2022516  58.7347650  58.7420205  44.5943699  59.0932681
  59.0820798  45.9179108  59.2021625  59.1530939  45.2185815  58.8563873
  54.1007016  43.6460091  61.3850011  53.9309607  44.3061466  60.8398218
  53.6572966  43.8566652  62.1062501  54.0106350  43.7746073  61.4111641
  71.2578197  51.3586357  46.2189750  71.6411803  52.1077713  46.4487847
  70.4622311  51.6052177  45.9601739  71.1971979  51.5056051  46.2147324
  63.1310372  43.1246761  61.1749905  63.6881802  42.8960570  60.5428371
  62.8071437  43.8852426  60.8985118  63.1656782  43.2030597  61.0406402
  60.8493489  46.2114414  62.1401912  61.6004816  46.5266091  62.4541467
  61.0416066  46.0093585  61.3135834  60.9884903  46.2281796  62.0645308
  67.6978779  42.3387980  49.3825708  67.6973006  42.1836637  50.2409984
  67.4934959  43.1850967  49.3267093  67.6678557  42.4408601  49.5013647
  65.4219631  47.0185482  53.0361915  65.9173297  46.3008477  52.9965935
  64.6119407  46.7156280  52.9216402  65.3763525  46.8683128  53.0135640
  67.4871450  49.7689169  55.7239043  67.9126522  49.2463591  55.1709468
  67.1228370  50.3670007  55.2027666  67.4958053  49.7799396  55.5648053
  57.1225530  58.0653387  54.4836389  57.4372089  58.8789775  54.4914171
  57.5318943  57.6803606  55.1518548  57.2293628  58.1282089  54.5840481
  64.0750050  53.4823434  52.0540201  64.5461228  54.1963696  52.2230186
  64.4110228  52.8822184  52.5900070  64.1945165  53.4994898  52.1572577
  66.1627034  55.0924747  64.2332273  66.2724000  54.3033308  64.5889020
  66.4917931  55.0030683  63.4306611  66.2279440  54.9630600  64.1674664
  60.9919545  38.2550904  59.0098296  61.1247450  37.4581898  59.3379271
  61.3764697  38.7817307  59.5896571  61.0675874  38.2150821  59.1441799
  64.7123996  53.2741368  58.8167894  64.1644942  52.6499251  58.5487959
  65.1737025  53.4635640  58.1011973  64.6991205  53.2100418  58.6718325
  64.0651900  35.1781230  55.6079389  63.2597864  35.0678960  55.9247227
  63.9358635  35.2793686  54.7509255  63.9272033  35.1764900  55.5287429
  67.5217860  41.3426722  56.2019086  66.9380849  41.8435929  55.7896653
  67.8422154  40.8356278  55.5683409  67.4831036  41.3418557  56.0477593
  58.6507991  38.2510079  57.2576189  59.1952404  37.9101206  57.8480531
  58.7044927  39.1095541  57.3997474  58.7397111  38.3265339  57.3658063
  54.4638550  52.0126495  54.1314997  55.0683408  51.9722330  53.5028818
  54.2565863  52.8597647  54.1619053  54.5227447  52.1314498  54.0431114
  64.2782322  54.2792441  55.3477235  65.0980696  54.1355407  55.6093530
  63.9976400  54.9038639  55.8893673  64.3579066  54.3502793  55.4665174
  73.9495658  61.0232943  53.0673042  73.0933553  61.1841441  53.1182158
  73.9963311  60.1525007  53.0878103  73.8294769  60.9183745  53.0779108
  68.3336797  70.5595661  48.8310273  67.5819697  70.1811199  48.6026318
  68.7822809  70.5914095  48.0829083  68.2886464  70.5081268  48.6867775
  76.7947479  63.0824987  55.7104693  77.3403439  63.7610074  55.7698663
  76.7364355  62.9412448  54.8506275  76.8663393  63.1616989  55.5916754
  69.9121553  70.5714053  51.0973046  70.0131916  69.7614407  51.4070173
  69.3163299  70.4771000  50.4672724  69.8394092  70.4379081  51.0499284
  63.1086598  66.5934340  50.7225379  62.8736782  65.7601992  50.6157648
  63.2472238  66.8739006  49.9086580  63.0942260  66.5117843  50.5867734
  65.4076685  58.7620070  53.6209687  64.7881717  58.1712718  53.4519702
  65.3060549  59.3531506  52.9874010  65.3014361  58.7624153  53.5014676
  70.4542873  68.5003617  47.8707763  70.7758714  69.0408825  47.2669071
  71.1014969  67.9300389  48.0030053  70.5968928  68.4962792  47.8014799
  72.5044581  60.5019612  47.9542150  73.2024746  60.6807740  48.4463613
  72.8196913  59.9789952  47.3312539  72.6539918  60.4513384  47.9344160
  65.1345818  62.3072352  55.8653256  65.0104515  62.8934798  56.5003075
  65.7864103  61.8132548  56.1665531  65.2119468  62.3211157  56.0039185
  72.6932516  66.8890057  47.9421941  73.1326152  66.2807158  48.3876714
  72.5437179  66.5097431  47.1707407  72.7353982  66.7428528  47.8941109
  70.1604159  65.4834069  55.1440767  70.8053162  64.9906512  54.8251716
  70.4005936  65.6258856  55.9706845  70.2914744  65.4311511  55.2190300
  72.6990251  68.3288975  54.7947660  72.9813493  67.5340381  54.5734415
  73.4276411  68.8069562  54.8152721  72.8479814  68.2823572  54.7650675
  70.6771444  55.8712009  52.0363425  70.3474774  56.3223152  51.3667123
  70.0016446  55.7928172  52.5836431  70.5281881  55.9263144  52.0186648
  76.2941853  65.2417239  44.8952711  76.2093148  66.0978205  45.0402280
  76.7826236  64.9661563  45.5634870  76.3530750  65.3274560  45.0154792
  77.8847852  51.8597532  50.2813035  77.5701293  52.5501010  50.7133458
  77.3674794  51.8042314  49.5798536  77.7612323  51.9532420  50.2409984
  77.2260286  61.8602033  46.3950446  76.6971757  62.0761666  47.0547752
  77.7485306  62.5538171  46.3151415  77.2248739  61.9945170  46.4806045
  69.1159894  65.7565249  45.1957914  68.5317109  66.2615281  45.6023778
  68.7129989  65.5307636  44.4554506  68.9699198  65.7973498  45.1462939
  64.6703922  71.4720011  51.9981585  64.1871501  72.1970500  51.9741169
  65.4827241  71.7696141  52.1091743  64.7194670  71.6222364  52.0108865
  70.7418076  70.2652191  54.6031400  70.2245018  69.9059606  53.9992708
  71.4392468  69.7414366  54.6137466  70.7683658  70.1349879  54.5161659
  73.5737108  62.0030902  43.6726834  73.8133112  62.2108885  42.8602178
  73.8952949  61.1988410  43.7815779  73.6574266  61.9145003  43.5687388
  68.8827398  53.9324297  47.5186372  69.6373366  54.3002614  47.2803423
  68.7054933  54.3063852  48.2865552  68.9681877  54.0422485  47.5971261
  67.5248120  71.9876187  52.1501865  68.2268699  71.4728176  52.2074622
  67.4445603  72.3150338  52.9548740  67.6171880  71.9590413  52.2774657
  68.5727026  62.2251773  61.2782280  68.7447530  62.1157668  62.1267562
  69.1096384  62.8706179  61.0413473  68.6772030  62.3043775  61.3687377
  67.2384463  56.3394616  44.2164485  67.0560036  56.5566497  43.3905478
  68.1010076  56.4533629  44.2723100  67.3389053  56.3884514  44.1018972
  66.8498895  68.1782539  51.6587473  67.6887794  68.4105471  51.7061235
  66.8810664  67.3086850  51.5894509  66.9780613  68.0839485  51.6552118
  67.4751598  68.5983414  55.9600779  68.0149823  68.4554545  56.6304151
  66.7921544  68.9980165  56.3284805  67.4543752  68.6363085  56.1135201
  72.9184182  53.3421027  47.2513509  73.6470343  53.1636982  46.8051665
  73.0079075  54.1839107  47.4620687  73.0390844  53.4404905  47.2167027
  62.8788743  64.8183705  56.1135200  62.6127158  64.0022821  56.2726191
  62.8927307  64.8636860  55.2430716  62.8413465  64.7040609  56.0088682
  66.7846490  59.6168789  42.7286958  66.0704667  59.3306968  43.1409391
  67.2690459  59.9565415  43.3693346  66.7505853  59.6250439  42.8842593
  67.6287350  58.3562083  58.7602208  66.9359146  57.8859063  59.0062940
  68.2447677  58.1300387  59.3343915  67.6171879  58.2529215  58.8811361
  73.9593808  68.1198743  43.1048767  74.3744957  67.7883767  42.4133262
  73.1285738  67.8867645  42.9768903  73.8981817  68.0369999  42.9839614
  63.2882157  65.6042484  53.3946945  63.1057730  65.5789370  52.5419237
  64.0231826  66.0741422  53.4335853  63.3696221  65.6703846  53.2744863
  66.3527908  62.3227487  59.9029053  67.0767881  62.3080517  60.3893948
  66.4544045  63.0322842  59.4051021  66.4746118  62.4252190  59.9007840
  76.4004177  62.5260563  49.0573016  76.4951031  63.2649857  49.5112642
  75.7763020  62.0978038  49.4907581  76.3213207  62.5721883  49.1881164
  63.2553067  62.4835985  53.5446011  63.8326570  62.3472435  54.1838257
  62.5567129  62.0271769  53.7991596  63.2374089  62.3958251  53.6768301
  76.6527198  64.3709302  42.2909968  76.5707361  64.4411489  43.1564955
  77.2906919  64.9339046  42.0993709  76.7347036  64.4648273  42.3899918
  70.0120369  64.1370040  51.7584494  69.7539614  63.3041775  51.7315794
  70.0668852  64.3627653  50.9176995  69.9820147  64.0467812  51.6304631
  75.0921419  56.2398491  51.8588587  74.3877746  55.7507676  52.0172506
  75.1406394  56.2520965  50.9877032  74.9951471  56.1688139  51.7527927
  68.9855081  61.6907803  52.2449389  68.4104673  61.8499971  52.8813350
  68.6090758  61.0543212  51.7817840  68.8457894  61.6205616  52.2703948
  72.6528370  60.1631152  57.1041768  72.2642803  59.7385370  56.4493959
  71.9883068  60.4113302  57.6118794  72.4975298  60.1369873  57.0829636
  58.7311900  61.3347877  50.2593830  58.8172152  60.9579746  51.0407360
  59.3587698  60.9608323  49.7813788  58.8368451  61.2233360  50.3039307
  76.4754732  53.8605781  54.6165752  76.8565243  53.1783952  55.0033626
  75.6718016  53.5715383  54.4341416  76.4131193  53.7172829  54.6469808
  73.7567308  64.3929757  45.3018575  74.5707947  64.6844649  45.1901346
  73.6926450  63.7389619  44.7276868  73.8670047  64.3394951  45.2007412
  69.6275217  67.8651274  50.4290887  70.2649164  67.6263022  50.9742680
  70.0530288  68.0688433  49.6944047  69.7851383  67.8602284  50.4008044
  64.3187859  70.1039611  54.3125190  64.3592004  70.3754462  53.4844970
  64.8782383  70.6281519  54.7282978  64.4071205  70.2215366  54.2517079
  70.2678032  63.0853564  44.7665776  70.6523184  62.8661271  45.5182321
  70.0189652  63.9116509  44.8966852  70.2880104  63.1751710  44.8966852
  70.4346572  56.3659979  64.4828360  70.1200013  57.1359542  64.2197923
  70.1136505  55.8030235  63.8980587  70.3405491  56.3970248  64.3569710
  72.0096689  68.3423697  52.1084673  72.0835697  68.1798869  52.9626523
  72.8266195  68.5313886  51.8645155  72.1413047  68.3460439  52.1982699
  65.7702445  68.6881559  49.1379116  64.9440563  68.9343297  49.0113395
  65.8314436  68.6093640  50.0041174  65.6576612  68.7126508  49.2468061
  67.9878469  54.7550501  50.0974557  67.1200894  54.8273100  50.1632166
  68.2753673  55.5572579  50.2862532  67.9018217  54.8844648  50.1349323
  77.1111358  54.9028360  58.4285878  77.8564950  54.7138170  58.0149304
  76.6948662  55.4286598  57.8699735  77.1596332  54.9530505  58.2850452
  70.5501274  71.3058440  46.8398146  70.8399573  70.9147421  46.1157373
  71.2804755  71.4875145  47.2803422  70.7008158  71.2752254  46.7980953
  71.1396019  66.1076186  57.9251277  70.6407713  66.8191953  58.0036165
  71.9496244  66.4276852  57.8869439  71.1852126  66.2603034  57.9307845
  68.4907190  73.2825822  49.9058296  68.2707485  72.9923177  50.6984963
  68.2701712  72.6240777  49.3776208  68.4254784  73.1425531  49.9447205
  67.4024137  65.3699139  52.1713998  67.1137386  64.7436610  52.7059725
  68.2707485  65.3119426  52.2378678  67.4884389  65.2686683  52.2604952
  78.1902035  60.5133922  52.4895980  77.8466801  59.7924257  52.8403229
  78.2895077  60.3047773  51.6474338  78.1544078  60.3758125  52.4167660
  67.6056410  67.0094390  48.0956363  68.3602378  67.3907429  48.3091825
  67.0127023  67.4605533  48.5503059  67.6293124  67.1323217  48.1939241
  70.0663077  58.9657230  63.2213575  69.2562853  59.2715010  63.1103417
  70.5437764  59.6862812  63.3366159  70.0166556  59.1171831  63.2220646
  68.9254637  68.1802951  53.4696478  68.4035391  68.3203243  54.1548343
  69.3128657  67.4213615  53.6598595  68.9058338  68.0888475  53.5997555
  65.9145821  58.2308760  47.5391433  65.6270617  57.8610030  46.8023380
  66.6016289  58.7003615  47.2775138  65.9734718  58.2455729  47.3906509
  70.3520963  65.2106970  48.8677969  70.1563745  65.8181705  48.2738272
  70.5755308  64.5174914  48.3869643  70.3555604  65.1984496  48.7094050
  68.7499493  62.0961708  48.9858838  69.4722145  62.2602866  48.5262644
  68.2707485  62.8171373  48.8798177  68.7863223  62.2259938  48.9024452
  76.7093000  58.4325507  54.3655522  75.8704101  58.4586786  54.1293786
  76.7797368  59.0796242  54.9460869  76.5961394  58.5321633  54.4164639
  66.4007109  64.5019780  58.0912977  66.9128206  64.7804034  57.4421737
  66.1143452  65.2409074  58.4575790  66.4341973  64.6522134  58.0502855
  75.1562279  55.3310884  49.0983138  75.8588631  55.1318632  48.6203097
  74.8906467  54.5586826  49.4051982  75.2208911  55.1873850  49.0728580
  63.4874016  59.0089972  48.3876714  63.5890152  59.8116134  48.7157689
  64.2829902  58.8077308  48.0899794  63.6201921  59.0975871  48.3912069
  69.9190835  56.5946169  58.1514019  69.7274032  56.6101303  59.0013442
  70.7689431  56.7909843  58.1280674  70.0166557  56.6260520  58.2737314
  64.3037748  59.1237150  56.1297835  64.1623240  58.2721091  56.2542343
  64.5878311  59.1665811  55.3060041  64.3245594  59.0036900  56.0265460
  74.4576340  60.9604241  50.2742324  74.2111054  60.8799992  51.1079113
  74.7861463  60.1757709  50.0804851  74.4697584  60.8330506  50.3689847
  70.4173367  63.6960959  59.6865307  70.5616743  64.2762167  59.0508417
  70.7649016  64.0737256  60.3915161  70.4900829  63.8381663  59.6964302
  72.5893285  62.8951128  57.4690438  71.8416599  63.0882142  57.0638716
  72.7434810  62.0696347  57.2314560  72.5015712  62.8016239  57.3735844
  72.8295062  56.7901678  58.3585842  73.2867676  57.5225653  58.4858634
  72.9051391  56.3668144  59.1173098  72.9086032  56.8358916  58.4886919
  65.0728053  57.0367498  59.4475286  64.5370243  56.4247856  59.7636053
  65.1345818  57.6115634  60.1008952  65.0023686  57.0314426  59.5910713
  77.3022388  49.9691554  52.2279685  77.4205956  50.4268017  51.4946988
  77.1284563  49.1636815  51.9415903  77.2941559  49.9185326  52.0780619
  72.6724670  70.5779373  48.6634430  73.4374561  70.3089017  48.3417095
  72.5702760  70.0929383  49.3804493  72.7706165  70.4668937  48.7214258
  70.7077440  58.7803782  55.2027666  69.9173515  58.5995242  55.5245002
  71.1038063  58.0030735  55.1857961  70.6494316  58.6391243  55.2480214
  75.1943331  67.6091557  40.6434380  75.9616316  67.6691682  40.2340232
  74.7474639  67.0371998  40.1590698  75.2416758  67.5328132  40.5112090
  76.0921126  66.4146212  52.9287112  75.4166128  66.1831445  53.4300499
  76.1013502  65.8067395  52.3029217  75.9939631  66.2905138  52.9103264
  73.2215270  61.2564041  59.6851165  73.1574411  62.1173998  59.5571302
  73.3612458  60.9396035  58.8846716  73.2330740  61.3364208  59.5479378
  71.9034364  63.9496181  53.8267368  71.4796613  64.1500680  53.0906386
  71.7279219  63.1025029  53.9391668  71.8145245  63.8544962  53.7341058
  67.1916809  64.4448232  49.2595340  67.3481428  64.3795035  50.1151333
  67.5317402  65.2196785  49.0474020  67.2650044  64.5497430  49.3549935
  73.7295953  63.8206116  48.1288704  74.2711499  63.3176497  48.5927324
  74.0442513  63.7671310  47.3178189  73.8560351  63.7385537  48.0772516
  74.8785223  58.7142420  58.1811004  75.0927192  58.0753334  57.6274358
  74.2619122  59.1588244  57.7518866  74.8190552  58.6852564  58.0361435
  63.7651070  61.6283183  49.5756108  64.1450035  62.0467728  48.9116375
  63.1906435  62.2096638  49.8824951  63.7362395  61.7761041  49.5232849
  77.0424311  60.3231485  59.1194311  76.2300993  60.0157376  59.2007484
  77.5014245  59.8430486  59.6837023  76.9904696  60.2067978  59.2148905
  76.4529566  68.2011157  49.5671256  76.0944220  68.3725800  50.3435288
  75.9668276  68.6624363  49.0099254  76.3288262  68.2950128  49.5996525
  74.2699952  51.8242356  53.1698347  73.3993509  51.7981077  53.1231656
  74.5240293  51.6519548  52.3524193  74.1793512  51.7952500  53.0418484
  71.2417931  63.8810323  42.1071490  71.5310456  64.6575205  42.3815064
  71.3289730  63.3699054  42.8085989  71.2972187  63.9202241  42.2513988
  71.2949092  53.8348584  54.6271817  70.7787581  53.1428776  54.7523396
  70.7343021  54.5019361  54.5734416  71.1355605  53.8311842  54.6377883
  73.3641326  54.3741544  56.4564670  72.9773079  54.3990576  57.2378200
  72.8774263  53.8083223  56.0039187  73.2353834  54.2937295  56.5052574
  73.0298467  51.2608530  58.7474930  73.6591585  51.7968830  58.4696000
  73.1984330  51.1685889  59.5988495  73.1476262  51.3269892  58.8323458
  72.8312382  56.0479725  61.0201341  73.6585811  55.7764873  61.0759956
  72.8520228  56.8440566  61.3765160  72.9565232  56.1259479  61.0816524
  67.4081872  63.1943587  54.2071602  66.5669879  63.0947462  54.4150496
  67.6171880  63.9639068  54.5585923  67.3146565  63.2935631  54.2898917
  64.8857439  60.8163124  52.0356353  64.4914137  60.8906136  51.2606462
  64.3297556  61.2021071  52.5864714  64.7460251  60.8844899  52.0024013
  76.5222386  53.7944418  51.7160232  76.7271979  53.7266726  52.5617229
  76.1948810  54.6003240  51.6481409  76.5037634  53.9030359  51.8319887
  71.2198537  61.1224987  53.4569200  70.9161674  60.5680975  54.0579607
  70.5177958  61.3017197  52.9697234  71.0714747  61.0669769  53.4738905
  70.2764634  58.4325506  48.0213901  70.5524368  57.7144419  47.6091469
  70.8763303  59.0310426  47.8135008  70.4057899  58.4145877  47.9294663
  69.2816888  68.3374707  58.1641297  69.1737243  68.3476769  59.0303355
  69.4912669  69.1629488  57.9746251  69.2966999  68.4615782  58.2645389
  73.7775154  56.1039024  46.2960496  74.2318901  56.2749584  47.0208341
  74.2515200  55.4907134  45.8958272  73.9143475  56.0389909  46.3434258
  67.2990680  65.5887350  55.6263235  66.7078613  66.2296848  55.5966250
  68.0611703  66.0124967  55.5994534  67.3238940  65.7463188  55.6178382
  67.6951303  56.7489347  56.2931253  68.1552784  56.8228277  57.0306376
  67.7407409  57.5470601  55.9431074  67.7701858  56.8783495  56.3504009
  69.3434652  57.4156042  60.8603280  68.9520217  56.7689389  61.2959057
  69.5120515  58.0067478  61.4797535  69.3105563  57.4070310  61.0165986
  71.1188174  62.8081558  47.4005504  71.8630219  63.1955834  47.6388454
  71.2648871  61.9638983  47.5645991  71.2498759  62.7412031  47.4599473
  73.0367750  54.6031817  52.4337365  72.1903795  54.7754625  52.3078715
  73.0338882  53.7981161  52.7703193  72.9114900  54.5092846  52.4648492
  74.1066050  58.3807031  53.2999423  73.6326005  57.8548793  53.8104734
  74.4784186  57.8336504  52.7314285  74.0915939  58.2223028  53.2914570
  64.4839080  60.3778538  58.6682969  65.3464693  60.2774247  58.5820299
  64.1530863  59.7973247  58.1068541  64.5624277  60.2770165  58.5728375
  76.0349550  59.2743586  46.3625177  75.5072569  59.3572330  45.6730886
  76.4945258  60.0161457  46.3589821  76.0251400  59.3964248  46.2599872
  67.8440866  59.2020987  55.3293387  67.2193937  59.2139379  54.7219340
  67.5086461  59.6781162  55.9784627  67.7026358  59.2739504  55.3349956
  68.0282615  57.5446106  41.3866072  67.6795419  58.1965831  41.8497621
  67.5479061  57.5303219  40.6589943  67.9052859  57.6389159  41.3477163
  64.5566542  67.2621447  56.7697151  64.0266466  66.5713886  56.8192126
  64.8291635  67.2531633  55.9409860  64.5191264  67.1588579  56.6544567
  75.5886632  67.8447150  45.4934834  76.3120831  68.3105263  45.3499407
  75.1487223  67.9120759  44.7432431  75.6302325  67.9230986  45.3619615
  74.7572787  64.7044692  56.7435523  74.1429781  64.1602742  57.0384158
  75.2740072  64.1908928  56.2641339  74.7428450  64.5481101  56.7159751
  73.9969085  65.7748962  54.4779821  73.5696693  65.1498680  54.0445257
  73.9894029  65.4923884  55.3038829  73.9328226  65.6401742  54.5359649
  67.1131612  60.8114135  57.5468255  67.2725098  60.0557459  57.9519977
  66.9324505  61.3605074  58.2008993  67.1096971  60.7807949  57.7030961
  75.0551915  52.9775370  58.1019045  74.5592476  53.1739045  57.4110612
  75.8120977  53.3768039  57.9307847  75.0938739  53.0653104  57.9739182
  72.3254794  56.6517716  54.6922355  72.3497282  56.1177829  54.0035135
  72.5766268  56.1435025  55.3547946  72.3664713  56.4978620  54.6887000
  59.8362384  63.9349211  54.1265500  59.7305833  63.8896056  53.2617584
  59.0862604  64.2802992  54.4079784  59.7097987  63.9790120  54.0402829
  68.6056117  55.3788535  54.0728100  68.6454488  55.8797741  54.7862807
  67.7805781  55.4698928  53.8034023  68.4895642  55.4670351  54.1378638
  70.0270480  61.8949044  56.3701999  69.1962410  62.0622862  56.1637247
  69.9721997  61.5184995  57.1550884  69.8959895  61.8638776  56.4550527
  67.8354263  55.3857937  62.0058410  68.4606967  54.8420070  62.2787842
  67.3804743  54.9052855  61.4366200  67.8602524  55.2347419  61.9620003
  68.4006524  60.1704636  46.8992117  68.5409485  60.6677100  47.6020758
  68.8989057  59.4690930  47.0406330  68.4947605  60.1406615  47.0243696
  68.4306746  61.0371747  44.2284693  69.0651826  61.6332172  44.1634155
  68.5132357  60.7375205  45.0430563  68.5363297  61.0812655  44.3387780
  70.0085729  56.9685722  44.2030135  70.3301570  56.4888805  43.5489398
  70.2712673  57.7785368  44.0120947  70.0951754  57.0175620  44.0785627
  75.4044884  56.3557916  56.5653614  75.8299956  55.9030443  55.9537141
  74.7901877  55.8017987  56.8418402  75.3773529  56.2071893  56.5158640
  64.9359734  63.2339588  47.4974239  65.4451963  63.8304095  47.8785545
  65.4094006  62.9665561  46.8150659  65.0803110  63.2825403  47.4528762
  73.8439107  52.8273016  49.9744191  73.2007425  52.6770663  50.5429330
  73.5038514  52.5815361  49.2093296  73.6984184  52.7685139  49.9447207
  67.2950266  59.8695846  50.3647420  66.5762255  60.2859979  50.6320283
  67.6662628  60.4350085  49.8139058  67.2442198  60.0145128  50.3230227
  76.5949847  60.5023695  56.2549415  76.5747774  60.3206990  57.1084194
  76.6429047  61.3735714  56.2308999  76.5984488  60.6040234  56.3772710
  73.0696840  58.9093846  45.7020799  72.4761679  59.2310843  45.1505366
  73.1072118  58.0634942  45.4941905  72.9871229  58.8318174  45.5903571
  75.9454657  58.8673351  49.1322549  75.7168350  58.8906052  48.2900908
  76.2052733  58.0430818  49.2517560  75.9500845  58.7489431  49.0247747
  70.2273885  60.7207824  58.7347650  69.7152788  60.1129007  59.0932681
  70.0553381  61.4364416  59.2021625  70.1263522  60.7371123  58.8563873
  65.0739600  59.1645399  61.3850011  64.9042190  59.8246774  60.8398218
  64.6305550  59.3751960  62.1062501  64.9838933  59.2931381  61.4111641
  68.9999419  57.4049897  50.4276745  69.4756786  57.7666977  49.7926926
  68.4988019  58.0606365  50.7076888  68.9964778  57.5544086  50.3753486
  74.1042956  58.6432068  61.1749905  74.6614386  58.4145878  60.5428371
  73.7804021  59.4037734  60.8985118  74.1389366  58.7215905  61.0406402
  61.9741664  62.0692265  56.6438501  61.4268384  61.3992910  56.7619370
  62.7634043  61.7022113  56.7081969  62.0093848  61.9157251  56.6707202
  71.0426072  59.5491097  43.7950129  71.4225037  59.5670726  43.0101244
  70.3018668  59.9945086  43.6740976  70.9894910  59.6172871  43.6613697
  78.6711363  57.8573288  49.3825708  78.6705589  57.7021945  50.2409984
  78.4667543  58.7036275  49.3267093  78.6411141  57.9593909  49.5013647
  60.7328634  61.2813072  53.7984524  60.5550395  60.8289681  54.5239440
  60.4447656  62.0839234  53.9823002  60.6641587  61.3335630  53.9328027
  76.3952215  62.5370790  53.0361915  76.8905880  61.8193785  52.9965935
  75.5851991  62.2341588  52.9216402  76.3496108  62.3868436  53.0135640
  71.8410826  66.3868603  45.1858919  71.0322149  66.0635277  45.1392229
  72.3485735  65.6801825  45.1187168  71.7960493  66.2349919  45.1689213
  62.4701104  63.8140796  50.9106283  61.6046623  63.8026487  50.7989055
  62.5699920  63.6271019  51.7577423  62.3575271  63.7846857  51.0195228
  68.0958114  73.5838695  54.4836389  68.4104673  74.3975083  54.4914171
  68.5051527  73.1988914  55.1518548  68.2026212  73.6467397  54.5840481
  75.0482633  69.0008742  52.0540201  75.5193811  69.7149004  52.2230186
  75.3842812  68.4007492  52.5900070  75.1677748  69.0180206  52.1572577
  71.9652128  53.7736212  59.0098296  72.0980034  52.9767206  59.3379271
  72.3497281  54.3002615  59.5896571  72.0408457  53.7336129  59.1441799
  75.0384483  50.6966538  55.6079389  74.2330447  50.5864268  55.9247227
  74.9091219  50.7978994  54.7509255  74.9004616  50.6950208  55.5287429
  78.4950444  56.8612030  56.2019086  77.9113433  57.3621237  55.7896653
  78.8154738  56.3541586  55.5683409  78.4563619  56.8603865  56.0477593
  71.0345243  55.7752625  46.4777761  71.8560937  55.9450938  46.2359456
  70.5714894  55.9299886  45.7544058  71.0876405  55.8234358  46.3349405
  69.6240575  53.7695387  57.2576189  70.1684988  53.4286514  57.8480531
  69.6777511  54.6280849  57.3997474  69.7129694  53.8450647  57.3658063
  65.4371134  67.5311803  54.1314997  66.0415991  67.4907637  53.5028818
  65.2298446  68.3782955  54.1619053  65.4960031  67.6499806  54.0431114
  60.6722416  66.5146421  54.0013920  60.5746694  65.7042692  54.3103977
  61.4551286  66.4938214  53.6160189  60.7738553  66.3913511  53.9900783
  35.1089870   0.9417869  35.7650320  34.3572770   0.5633407  35.5366365
  35.5575882   0.9736302  35.0169130  35.0639537   0.8903476  35.6207822
  40.5614830   1.3643238  31.1935867  40.2266199   2.0420160  30.7580089
  41.0741701   0.9748549  30.6052739  40.5880411   1.4067816  31.0422658
  40.1019122   3.3157507  37.1346979  40.4858501   3.8844405  36.5951754
  40.0378263   2.5907017  36.6552795  40.1492549   3.2932970  36.9840841
  36.6874627   0.9536261  38.0313092  36.7884990   0.1436615  38.3410220
  36.0916372   0.8593207  37.4012771  36.6147165   0.8201289  37.9839331
  36.5275366   5.8713850  39.4327948  37.1712822   6.3127014  39.8224107
  36.8531622   5.0667276  39.3458207  36.6707195   5.8179045  39.4773426
  29.8839671  -3.0243453  37.6565426  29.6489855  -3.8575800  37.5497695
  30.0225312  -2.7438787  36.8426627  29.8695333  -3.1059949  37.5207781
  37.2295946  -1.1174175  34.8047810  37.5511787  -0.5768968  34.2009118
  37.8768042  -1.6877404  34.9370100  37.3722001  -1.1215000  34.7354846
  31.4456996   1.8542218  38.9321632  30.9624574   2.5792708  38.9081216
  32.2580314   2.1518348  39.0431790  31.4947743   2.0044572  38.9448911
  37.5171150   0.6474399  41.5371447  36.9998091   0.2881814  40.9332755
  38.2145541   0.1236573  41.5477513  37.5436731   0.5172087  41.4501705
  41.1734742   1.0969213  47.4987620  41.2618087   0.9095353  48.3465830
  41.6024454   0.4506642  47.0992466  41.2496844   0.9732220  47.5659371
  38.7405201   0.3800373  46.4805282  38.1776036  -0.0327017  47.0044943
  39.5026225   0.3053278  46.8998425  38.7699650   0.3077773  46.6198282
  34.3001193   2.3698394  39.0841912  35.0021772   1.8550383  39.1414669
  34.2198676   2.6972545  39.8888787  34.3924953   2.3412620  39.2114704
  33.6251968  -1.4395254  38.5927520  34.4640868  -1.2072321  38.6401282
  33.6563737  -2.3090943  38.5234556  33.7533686  -1.5338308  38.5892165
  34.2504671  -1.0194379  42.8940826  34.7902896  -1.1623248  43.5644198
  33.5674618  -0.6197628  43.2624852  34.2296825  -0.9814708  43.0475247
  41.2854801   0.5278232  50.1631403  42.0695218   0.6409080  50.5287145
  41.0851395  -0.2980631  50.3590089  41.3720826   0.4224951  50.2465789
  41.4425194   2.4388334  43.8097859  40.6440440   2.1987834  44.0671728
  41.8911206   2.4902727  44.5564907  41.3899805   2.4110725  43.9582783
  30.0635230  -4.0135309  40.3286991  29.8810803  -4.0388423  39.4759284
  30.7984899  -3.5436371  40.3675900  30.1449294  -3.9473946  40.2084910
  36.4028290  -1.7526519  37.3630933  37.0402237  -1.9914771  37.9082727
  36.8283361  -1.5489360  36.6284094  36.5604456  -1.7575508  37.3348091
  31.0940932   0.4861818  41.2465237  31.1345078   0.7576669  40.4185017
  31.6535456   1.0103726  41.6623025  31.1824278   0.6037573  41.1857125
  38.7849762  -1.2754096  39.0424720  38.8588770  -1.4378924  39.8966570
  39.6019268  -1.0863906  38.7985201  38.9166120  -1.2717354  39.1322745
  32.5455518  -0.9296233  36.0719163  31.7193636  -0.6834496  35.9453442
  32.6067510  -1.0084152  36.9381221  32.4329685  -0.9051284  36.1808108
  37.3254348   1.6880647  33.7738193  37.6152646   1.2969628  33.0497420
  38.0557828   1.8697352  34.2143468  37.4761232   1.6574461  33.7321000
  35.2660263   3.6648030  36.8398343  35.0460559   3.3745384  37.6325010
  35.0454785   3.0062985  36.3116255  35.2007857   3.5247738  36.8787252
  37.4328219   5.0377419  35.6229035  38.0852277   4.5053862  35.8520061
  36.7353828   4.6846072  36.0096909  37.4258937   4.9066942  35.7141203
  34.3809484  -2.6083403  35.0296410  35.1355452  -2.2270364  35.2431872
  33.7880096  -2.1572259  35.4843106  34.4046197  -2.4854576  35.1279288
  35.7007710  -1.4374842  40.4036525  35.1788464  -1.2974550  41.0888390
  36.0881731  -2.1964177  40.5938642  35.6811411  -1.5289318  40.5337601
  41.8974715   0.3020618  34.3897094  41.6561391  -0.4311522  33.9824159
  42.0776048   0.8507475  33.7363427  41.8882339   0.2743009  34.2327317
  36.2654196   2.2685938  43.4866380  36.4143759   1.7088854  42.8339785
  37.0454198   2.3477940  43.8698899  36.4028289   2.1971504  43.4463330
  38.7907496   2.4400581  44.7650871  38.7151167   1.7709392  45.3201660
  38.7197355   3.1418370  45.2791537  38.7688103   2.4445489  44.9227719
  39.4477743   0.9601580  35.5974477  40.2127634   0.6911224  35.2757141
  39.3455833   0.4751591  36.3144540  39.5459239   0.8491145  35.6554305
  38.1799131   5.8468901  43.2228872  38.6695061   5.1479690  43.0404537
  37.6083363   5.5492771  43.8104929  38.1683661   5.6995125  43.2829913
  38.6735476  -0.4054325  32.3468779  38.7428297  -1.2639787  32.4861779
  39.4523932  -0.1882444  32.0187803  38.7988327  -0.5001461  32.3185936
  43.0642964   2.0183376  36.5605272  42.6722756   1.7150091  35.8428138
  43.2196036   2.8552466  36.3710226  43.0296554   2.0967213  36.4261769
  36.0569961  -1.2803085  45.0981344  35.9490316  -1.2701023  45.9643402
  36.2665743  -0.4548305  44.9086298  36.0720072  -1.1562011  45.1985436
  43.8333269   1.4218869  39.9935306  43.6352958   1.9109683  39.2991518
  43.2120980   1.6260110  40.5719440  43.7120834   1.5235407  39.9758529
  26.6115457  -5.6828581  41.0605546  26.5058906  -5.7281737  40.1957630
  25.8615677  -5.3374801  41.3419831  26.4851060  -5.6387673  40.9742876
  40.0135775  -1.6273196  44.6568998  39.5060866  -1.0737349  45.1009629
  39.7162421  -1.5664906  43.8387773  39.8940660  -1.5366885  44.6017455
  42.6243555   2.2890062  32.5872942  41.9072865   2.1150924  32.1220179
  43.2750293   2.0542634  32.0548428  42.6145406   2.2285854  32.4402160
  39.2578260   3.3051362  41.5626005  39.0343915   2.5470192  41.9310031
  38.7688104   3.3349384  40.8406445  39.1521709   3.1973587  41.5102746
  37.9056717   3.5251821  39.0163090  37.4917116   2.8625951  38.6266931
  38.5904091   3.6729679  38.4958784  37.9455089   3.4492479  38.8819587
  41.2722011   2.6841906  39.7686706  40.8738295   2.7944176  39.0007527
  40.6573231   2.8923972  40.3513266  41.1220901   2.7315474  39.7418006
  34.8711187   3.9660902  41.4176436  35.1857746   4.7797291  41.4254217
  35.2804600   3.5811121  42.0858595  34.9779285   4.0289605  41.5180527
  43.9112691   0.9932262  51.1672320  44.0209657   0.2040823  51.5229067
  44.2403588   0.9038199  50.3646658  43.9765097   0.8638115  51.1014711
  32.2124207  -2.0865989  41.0655044  32.8169064  -2.1270155  40.4368865
  32.0051520  -1.2394837  41.0959100  32.2713104  -1.9677987  40.9771161
  42.0267979   0.1799956  42.2817282  42.8466353   0.0362922  42.5433577
  41.7462057   0.8046155  42.8233719  42.1064722   0.2510308  42.4005221
  27.4475489  -3.1031372  40.9353967  27.3499767  -3.9135100  41.2444024
  28.2304359  -3.1239578  40.5500235  27.5491626  -3.2264282  40.9240830
  58.4981629   7.8364808  35.2460158  58.4675634   8.6909444  35.4178427
  59.0962978   7.5360100  35.8046302  58.5818787   7.9181304  35.3534960
  51.6981314   6.9240459  40.0013088  50.8419210   7.0848957  40.0522205
  51.7448968   6.0532523  40.0218149  51.5780426   6.8191260  40.0119154
  55.0075031  13.1926984  49.6073544  55.7141798  12.6979015  49.7360479
  55.1962966  13.6336066  48.8776202  55.1402936  13.1845335  49.5182590
  51.5347414  16.8828546  31.1935867  51.1998782  17.5605468  30.7580089
  52.0474284  16.4933857  30.6052739  51.5612995  16.9253124  31.0422658
  51.0751705  18.8342815  37.1346979  51.4591085  19.4029713  36.5951754
  51.0110846  18.1092325  36.6552795  51.1225132  18.8118278  36.9840841
  54.5433135   8.9832502  42.6444740  55.0889095   9.6617589  42.7038710
  54.4850012   8.8419963  41.7846321  54.6149050   9.0624504  42.5256801
  56.3198204  10.4117110  33.5178468  56.2037730  11.1624796  33.9470606
  57.1154091  10.1541063  33.7674555  56.4202793  10.4851956  33.6182559
  40.8572255  12.4941855  37.6565426  40.6222439  11.6609508  37.5497695
  40.9957895  12.7746521  36.8426627  40.8427917  12.4125359  37.5207781
  43.1562342   4.6627586  40.5549734  42.5367374   4.0720233  40.3859749
  43.0546206   5.2539021  39.9214057  43.0500017   4.6631668  40.4354723
  50.2530238   6.4027128  34.8882197  50.9510402   6.5815255  35.3803660
  50.5682570   5.8797467  34.2652586  50.4025575   6.3520900  34.8684207
  42.8831475   8.2079867  42.7993303  42.7590172   8.7942313  43.4343122
  43.5349759   7.7140063  43.1005578  42.9605124   8.2218672  42.9379232
  47.9089816  11.3841584  42.0780814  48.5538819  10.8914028  41.7591762
  48.1491593  11.5266371  42.9046892  48.0400401  11.3319027  42.1530347
  50.4475907  14.2296490  41.7287706  50.7299150  13.4347896  41.5074462
  51.1762068  14.7077078  41.7492767  50.5965471  14.1831087  41.6990722
  48.4257101   1.7719524  38.9703471  48.0960431   2.2230668  38.3007170
  47.7502103   1.6935688  39.5176478  48.2767537   1.8270659  38.9526695
  54.0427510  11.1424754  31.8292758  53.9578805  11.9985721  31.9742326
  54.5311893  10.8669078  32.4974917  54.1016407  11.2282075  31.9494839
  54.9745943   7.7609548  33.3290493  54.4457414   7.9769182  33.9887799
  55.4970963   8.4545687  33.2491462  54.9734396   7.8952685  33.4146092
  60.4293996  13.3355852  38.7023537  59.5991699  13.5466496  38.8656954
  60.3803248  12.5092907  38.4265821  60.3000731  13.2445459  38.6860903
  46.8645551  11.6572765  32.1297961  46.2802766  12.1622796  32.5363825
  46.4615646  11.4315152  31.3894553  46.7184854  11.6981013  32.0802986
  52.1467325  16.6154521  47.4987620  52.2350671  16.4280661  48.3465830
  52.5757038  15.9691950  47.0992466  52.2229428  16.4917528  47.5659371
  51.3222765   7.9038417  30.6066881  51.5618769   8.1116401  29.7942224
  51.6438606   7.0995926  30.7155826  51.4059923   7.8152518  30.5027434
  59.9247954   5.9826253  42.4973959  59.0876375   6.0528440  42.7321553
  59.8936185   5.9850748  41.6248261  59.7966236   5.9936480  42.4033507
  46.3212683   8.1259289  48.2122327  46.4933187   8.0165183  49.0607609
  46.8582041   8.7713694  47.9753519  46.4257687   8.2051290  48.3027424
  44.9870120   2.2402132  31.1504532  44.8045693   2.4574012  30.3245525
  45.8495733   2.3541144  31.2063147  45.0874709   2.2892030  31.0359019
  54.6478140  10.1781930  38.0885850  55.4035655  10.6113444  38.1274759
  54.7540464   9.5286699  38.6620486  54.7748310  10.1459414  38.1783876
  57.6858311  14.0055207  38.8388253  57.2493543  14.0091949  39.5947224
  57.3521226  14.6860706  38.4067830  57.5720931  14.1067663  38.8869086
  52.2587384  16.0463540  50.1631403  53.0427801  16.1594388  50.5287145
  52.0583979  15.2204677  50.3590089  52.3453410  15.9410259  50.2465789
  40.6274400  10.7191220  43.0475247  40.3612815   9.9030337  43.2066237
  40.6412964  10.7644375  42.1770763  40.5899122  10.6048125  42.9428729
  44.5332147   5.5176304  29.6627005  43.8190324   5.2314484  30.0749438
  45.0176116   5.8572930  30.3033393  44.4991510   5.5257954  29.8182640
  45.3773006   4.2569598  45.6942255  44.6844803   3.7866578  45.9402986
  45.9933334   4.0307903  46.2683962  45.3657536   4.1536730  45.8151407
  60.8202657  10.7236127  37.7307890  61.4819091  10.1626795  37.6303799
  60.1794069  10.2288158  38.0560581  60.8231525  10.5672536  37.7640230
  51.7079465  14.0206258  30.0388813  52.1230613  13.6891282  29.3473309
  50.8771394  13.7875160  29.9108950  51.6467474  13.9377514  29.9179661
  41.0367814  11.5049999  40.3286991  40.8543387  11.4796885  39.4759284
  41.7717483  11.9748937  40.3675900  41.1181877  11.5711361  40.2084910
  57.1067488  11.7401509  37.4719879  57.3423077  11.8846708  36.6446730
  57.2557051  12.5043917  37.8651393  57.1633291  11.8740564  37.4083483
  44.1013565   8.2235002  46.8369100  44.8253538   8.2088033  47.3233995
  44.2029702   8.9330357  46.3391068  44.2231774   8.3259705  46.8347887
  58.9357945  10.5803175  35.3089483  59.2666162  11.1130815  34.7029578
  59.5091033  10.6342063  35.9651434  59.0691624  10.6672744  35.3167265
  51.4758515  11.7034087  51.7018047  50.6831495  12.0177599  51.8870667
  51.5907442  11.9185555  50.8638832  51.3753925  11.7817923  51.6056382
  54.1489834   8.4268078  35.9913063  54.2436688   9.1657372  36.4452688
  53.5248677   7.9985553  36.4247627  54.0698864   8.4729398  36.1221210
  52.4042308  11.6054290  46.6403344  52.9781169  10.9681535  46.7951908
  52.3257111  11.6058373  45.7713001  52.4775542  11.5119402  46.5349755
  41.0038724   8.3843500  40.4786058  41.5812227   8.2479951  41.1178303
  40.3052786   7.9279284  40.7331642  40.9859745   8.2965766  40.6108348
  54.4012855  10.2716818  29.2250015  54.3193017  10.3419005  30.0905002
  55.0392575  10.8346562  29.0333756  54.4832692  10.3655789  29.3239964
  47.7606026  10.0377556  38.6924541  47.5025270   9.2049290  38.6655841
  47.8154509  10.2635169  37.8517042  47.7305804   9.9475327  38.5644678
  46.7340738   7.5915318  39.1789436  46.1590330   7.7507486  39.8153397
  46.3576415   6.9550727  38.7157887  46.5943551   7.5213131  39.2043994
  50.4014027   6.0638667  44.0381814  50.0128460   5.6392885  43.3834006
  49.7368725   6.3120817  44.5458841  50.2460955   6.0377388  44.0169682
  36.4797557   7.2355393  37.1933877  36.5657809   6.8587261  37.9747407
  37.1073355   6.8615838  36.7153835  36.5854108   7.1240875  37.2379354
  51.5052965  10.2937272  32.2358621  52.3193604  10.5852165  32.1241393
  51.4412106   9.6397134  31.6616914  51.6155704  10.2402467  32.1347459
  57.7262455  12.9763268  46.6488197  57.4901093  12.1451333  46.5300258
  58.3705684  12.9248875  47.2343041  57.7857126  12.8460956  46.7174091
  48.0163688   8.9861079  31.7005823  48.4008841   8.7668786  32.4522368
  47.7675309   9.8124025  31.8306899  48.0365761   9.0759225  31.8306899
  48.1832229   2.2667494  51.4168407  47.8685670   3.0367057  51.1537970
  47.8622161   1.7037750  50.8320634  48.0891148   2.2977763  51.2909757
  58.7498876  12.7607717  42.7116492  58.4444693  13.4935774  43.0729807
  58.0305092  12.3545646  42.4309278  58.5986218  12.8089450  42.7229629
  64.4500668   9.4000717  42.0384836  64.3825168   9.4196677  41.1687422
  64.4356331  10.2431045  42.2640506  64.4379425   9.5274452  41.9437313
  43.5188102  14.5889075  36.0719163  42.6926220  14.8350812  35.9453442
  43.5800093  14.5101156  36.9381221  43.4062269  14.6134024  36.1808108
  45.7364126   0.6558016  37.0314603  44.8686551   0.7280615  37.0972213
  46.0239330   1.4580095  37.2202578  45.6503874   0.7852163  37.0689370
  62.2359285   8.1745104  40.3131430  62.7867207   7.5413173  40.5528522
  62.2203401   8.7060496  41.0046934  62.3144482   8.1594052  40.4510288
  48.8881676  12.0083701  44.8591324  48.3893370  12.7199469  44.9376212
  49.6981901  12.3284368  44.8209486  48.9337783  12.1610550  44.8647892
  45.1509794  11.2706654  39.1054044  44.8623043  10.6444125  39.6399772
  46.0193142  11.2126941  39.1718725  45.2370046  11.1694198  39.1944999
  55.9387692   6.4141437  39.4236026  55.5952458   5.6931773  39.7743276
  56.0380734   6.2055289  38.5814385  55.9029735   6.2765641  39.3507706
  56.4000721  12.8767141  34.9660014  56.9658753  13.5360351  34.8818557
  55.7528624  13.2216840  35.4376417  56.3879477  13.0249083  35.0232771
  47.8148734   4.8664745  50.1553622  47.0048510   5.1722525  50.0443464
  48.2923421   5.5870328  50.2706206  47.7652213   5.0179347  50.1560693
  43.6631478   4.1316275  34.4731480  43.3756274   3.7617546  33.7363427
  44.3501946   4.6011130  34.2115185  43.7220375   4.1463244  34.3246555
  52.8707299  15.8205926  34.3897094  52.6293975  15.0873786  33.9824159
  53.0508632  16.3692783  33.7363427  52.8614923  15.7928317  34.2327317
  46.4985149   7.9969223  35.9198884  47.2207801   8.1610381  35.4602690
  46.0193142   8.7178888  35.8138224  46.5348880   8.1267453  35.8364498
  54.4578657   4.3333022  41.2995569  53.6189758   4.3594301  41.0633833
  54.5283024   4.9803758  41.8800916  54.3447051   4.4329148  41.3504686
  44.1492766  10.4027296  45.0253024  44.6613863  10.6811549  44.3761784
  43.8629109  11.1416590  45.3915837  44.1827629  10.5529649  44.9842902
  58.3336181   9.5401009  38.5856811  58.2470155   9.6956435  39.4391590
  57.8786661  10.1839084  38.2116216  58.2539438   9.6576764  38.6563918
  41.2359673   4.9097488  35.3216761  41.3375809   5.7123649  35.6497736
  42.0315559   4.7084823  35.0239841  41.3687578   4.9983386  35.3252116
  47.6676492   2.4953684  45.0854066  47.4759689   2.5108819  45.9353489
  48.5175088   2.6917359  45.0620721  47.7652214   2.5268036  45.2077361
  42.0523405   5.0244666  43.0637882  41.9108896   4.1728606  43.1882390
  42.3363968   5.0673326  42.2400088  42.0731251   4.9044416  42.9605506
  52.2061997   6.8611756  37.2082371  51.9596711   6.7807507  38.0419159
  52.5347120   6.0765224  37.0144898  52.2183241   6.7338021  37.3029894
  56.1010046  13.5695115  40.9969152  55.9624405  14.2676161  41.5017894
  55.3210044  13.4143772  40.6405334  55.9653273  13.6495282  41.0195426
  54.4388131   9.8691491  47.2491533  54.4336169   8.9971307  47.2533960
  55.1449125  10.0679660  46.7760989  54.5433135   9.7695365  47.1798569
  48.1659024   9.5968475  46.6205354  48.3102400  10.1769683  45.9848464
  48.5134673   9.9744771  47.3255208  48.2386486   9.7389179  46.6304349
  50.3378942   8.7958643  44.4030485  49.5902256   8.9889657  43.9978763
  50.4920467   7.9703863  44.1654606  50.2501369   8.7023754  44.3075891
  57.5963419  12.9273369  31.7585651  57.2170227  12.1410507  31.7514940
  56.9329664  13.4760226  31.6157295  57.4421893  12.8918193  31.7366448
  50.5780719   2.6909194  45.2925889  51.0353333   3.4233168  45.4198681
  50.6537047   2.2675659  46.0513145  50.6571688   2.7366432  45.4226965
  42.8213710   2.9375013  46.3815333  42.2855899   2.3255372  46.6976100
  42.8831475   3.5123149  47.0348999  42.7509343   2.9321941  46.5250759
  48.4563097   4.6811298  42.1367713  47.6659171   4.5002758  42.4585049
  48.8523719   3.9038250  42.1198007  48.3979973   4.5398759  42.1820261
  52.9428987  13.5099072  27.5774427  53.7101972  13.5699197  27.1680278
  52.4960296  12.9379513  27.0930745  52.9902415  13.4335648  27.4452137
  53.8406783  12.3153728  39.8627159  53.1651785  12.0838960  40.3640546
  53.8499159  11.7074911  39.2369264  53.7425287  12.1912653  39.8443311
  50.9700927   7.1571557  46.6191212  50.9060068   8.0181513  46.4911349
  51.1098115   6.8403550  45.8186763  50.9816397   7.2371723  46.4819425
  55.8423517  15.1718860  32.0937337  55.9243355  15.9785846  31.7698788
  56.3273260  15.1914819  32.8178110  55.9260675  15.2939523  32.1524235
  49.6520021   9.8503696  40.7607415  49.2282270  10.0508195  40.0246433
  49.4764876   9.0032544  40.8731715  49.5630901   9.7552478  40.6681105
  44.9402466  10.3455748  36.1935387  45.0967085  10.2802550  37.0491379
  45.2803059  11.1204300  35.9814067  45.0135701  10.4504946  36.2889981
  51.4781610   9.7213631  35.0628751  52.0197156   9.2184012  35.5267371
  51.7928169   9.6678826  34.2518236  51.6046007   9.6393052  35.0112563
  55.3498718  13.9316278  52.1755663  56.1633583  13.6601427  52.3360795
  55.1893684  13.6323818  51.3715859  55.4468666  13.8471204  52.0801069
  52.6270880   4.6149936  45.1151051  52.8412849   3.9760850  44.5614405
  52.0104779   5.0595759  44.6858913  52.5676209   4.5860079  44.9701482
  54.0375548  17.5368684  36.5605272  53.6455339  17.2335399  35.8428138
  54.1928620  18.3737774  36.3710226  54.0029137  17.6152521  36.4261769
  41.5136727   7.5290698  36.5096154  41.8935692   7.9475243  35.8456422
  40.9392092   8.1104154  36.8164998  41.4848052   7.6768557  36.4572895
  54.7909968   6.2239001  46.0534358  53.9786649   5.9164891  46.1347531
  55.2499902   5.7438001  46.6177070  54.7390352   6.1075493  46.1488952
  48.9903588   9.7817838  29.0411537  49.2796113  10.5582721  29.3155111
  49.0775387   9.2706570  29.7426036  49.0457844   9.8209757  29.1854035
  55.3619962  14.9922569  47.4478503  55.9999682  14.4982764  47.1140959
  54.7194053  14.9199969  46.8630730  55.3614188  14.9081577  47.3120858
  57.0876962   6.8411715  42.0144419  56.6604570   6.7538063  41.2592518
  56.4503015   6.9489490  42.5999263  56.9306569   6.8444375  41.9889860
  55.4174218  15.6842377  44.0883860  56.2066596  15.3331442  44.2085942
  55.5917816  16.4978765  43.8260494  55.5594500  15.7528234  44.0671728
  45.1567529   9.0951103  41.1411649  44.3155535   8.9954977  41.3490543
  45.3657537   9.8646583  41.4925970  45.0632221   9.1943146  41.2238964
  42.6343096   6.7170640  38.9696400  42.2399793   6.7913651  38.1946509
  42.0783213   7.1028586  39.5204761  42.4945908   6.7852414  38.9364059
  48.9684194   7.0232502  40.3909246  48.6647331   6.4688490  40.9919654
  48.2663614   7.2024712  39.9037281  48.8200403   6.9677284  40.4078952
  48.0250291   4.3333022  34.9553948  48.3010025   3.6151934  34.5431516
  48.6248960   4.9317942  34.7475054  48.1543555   4.3153392  34.8634709
  45.0476337  11.4894865  42.5603282  44.4564270  12.1304363  42.5306297
  45.8097360  11.9132482  42.5334581  45.0724597  11.6470703  42.5518429
  45.4436959   2.6496863  43.2271299  45.9038441   2.7235792  43.9646423
  45.4893066   3.4478117  42.8771121  45.5187515   2.7791010  43.2844056
  47.0920309   3.3163558  47.7943326  46.7005874   2.6696905  48.2299104
  47.2606172   3.9074993  48.4137582  47.0591219   3.3077826  47.9506032
  61.1666758  11.3200635  43.5580560  61.2249882  11.7687283  44.3040537
  60.5333226  11.7299448  43.1210640  61.0818053  11.4474369  43.6033108
  54.8065853  16.9404177  39.9935306  54.6085541  17.4294991  39.2991518
  54.1853564  17.1445418  40.5719440  54.6853417  17.0420715  39.9758529
  48.8673831   8.7089073  34.3345550  49.6115876   9.0963350  34.5728500
  49.0134527   7.8646499  34.4986038  48.9984416   8.6419546  34.3939520
  51.8551707   4.2814547  40.2339470  51.3811661   3.7556309  40.7444781
  52.2269843   3.7344020  39.6654331  51.8401596   4.1230543  40.2254617
  42.2324737   6.2786053  45.6023016  43.0950350   6.1781763  45.5160345
  41.9016520   5.6980763  45.0408588  42.3109934   6.1777680  45.5068421
  58.1188438   9.3416922  41.6446250  57.8786661   8.5023338  41.6488677
  58.5980445   9.4217089  42.3687024  58.1540621   9.2298322  41.7521053
  53.7835207   5.1751101  33.2965224  53.2558225   5.2579845  32.6070932
  54.2430915   5.9168973  33.2929868  53.7737057   5.2971764  33.1939919
  60.1193625   6.1218380  39.5975509  59.8803395   6.0814214  38.7596294
  60.2827526   6.9689532  39.7241231  60.1083928   6.2410465  39.4928991
  56.7239655  10.5068329  45.5280555  57.4473854  10.0540855  45.3491575
  56.4589617  10.7872995  44.7452882  56.7920928  10.4819297  45.3859270
  45.5926523   5.1028502  42.2633434  44.9679593   5.1146894  41.6559386
  45.2572118   5.5788678  42.9124674  45.4512015   5.1747019  42.2690002
  45.7768272   3.4453621  28.3206119  45.4281076   4.0973346  28.7837668
  45.2964718   3.4310734  27.5929990  45.6538516   3.5396674  28.2817210
  42.3052199  13.1628963  43.7037198  41.7752123  12.4721401  43.7532173
  42.5777292  13.1539148  42.8749907  42.2676921  13.0596094  43.5884614
  53.3372289  13.7454665  32.4274881  54.0606488  14.2112778  32.2839454
  52.8972880  13.8128275  31.6772478  53.3787981  13.8238502  32.2959662
  52.5058444  10.6052207  43.6775570  51.8915437  10.0610257  43.9724205
  53.0225729  10.0916444  43.1981386  52.4914107  10.4488616  43.6499798
  51.7454741  11.6756477  41.4119868  51.3182349  11.0506196  40.9785304
  51.7379686  11.3931399  42.2378876  51.6813883  11.5409258  41.4699696
  44.8617269   6.7121650  44.4808302  45.0210755   5.9564974  44.8860024
  44.6810162   7.2612590  45.1349040  44.8582628   6.6815464  44.6371008
  50.0740451   2.5525232  41.6262402  50.0982938   2.0185344  40.9375182
  50.3251925   2.0442541  42.2887993  50.1150370   2.3986136  41.6227047
  37.5848041   9.8356727  41.0605546  37.4791490   9.7903571  40.1957630
  36.8348261  10.1810507  41.3419831  37.4583644   9.8797635  40.9742876
  46.3541773   1.2796050  41.0068147  46.3940145   1.7805257  41.7202854
  45.5291438   1.3706444  40.7374070  46.2381299   1.3677866  41.0718685
  48.5371386  10.8456790  49.1088441  47.6867017  10.9828504  49.2446086
  48.6999514  10.1120568  49.5536143  48.4355250  10.7570891  49.1944040
  47.7756137   7.7956560  43.3042046  46.9448066   7.9630378  43.0977294
  47.7207654   7.4192511  44.0890931  47.6445552   7.7646291  43.3890574
  45.5839920   1.2865453  48.9398456  46.2092623   0.7427586  49.2127889
  45.1290400   0.8060370  48.3706247  45.6088181   1.1354934  48.8960050
  46.1492181   6.0712151  33.8332163  46.2895142   6.5684616  34.5360805
  46.6474713   5.3698446  33.9746377  46.2433261   6.0414130  33.9583742
  46.1792403   6.9379262  31.1624740  46.8137482   7.5339687  31.0974202
  46.2618014   6.6382720  31.9770610  46.2848954   6.9820171  31.2727827
  59.1574969   9.4694740  44.0311104  59.7492809  10.1091990  44.0629302
  59.5933963   8.7717776  44.3203171  59.3093400   9.4613090  44.0791937
  47.7571386   2.8693238  31.1370182  48.0787227   2.3896320  30.4829444
  48.0198330   3.6792884  30.9460994  47.8437411   2.9183136  31.0125674
  50.9868359  13.8912112  44.6568998  50.4793450  14.4447959  45.1009629
  50.6895005  13.9520402  43.8387773  50.8673244  13.9818423  44.6017455
  42.6845391   9.1347103  34.4314286  43.1937620   9.7311611  34.8125592
  43.1579663   8.8673077  33.7490706  42.8288767   9.1832919  34.3868809
  53.5976139  17.8075370  32.5872942  52.8805449  17.6336232  32.1220179
  54.2482876  17.5727942  32.0548428  53.5877989  17.7471162  32.4402160
  56.1824110   6.6839958  36.3314247  55.5115300   7.2269661  36.2027312
  56.8763860   7.1534814  36.0895942  56.1852978   6.8338230  36.2769775
  45.0435923   5.7703362  37.2987467  44.3247912   6.1867494  37.5660330
  45.4148285   6.3357600  36.7479105  44.9927854   5.9152643  37.2570274
  54.3435503   6.4031211  43.1889462  54.3233431   6.2214506  44.0424241
  54.3914704   7.2743229  43.1649046  54.3470144   6.5047749  43.3112757
  52.2881833  12.9918403  49.1137939  52.2477688  12.3468080  48.5283095
  53.1005151  12.9355020  49.4263351  52.4024987  12.8877369  49.0734888
  52.2454595  18.2027214  39.7686706  51.8470878  18.3129484  39.0007527
  51.6305814  18.4109280  40.3513266  52.0953484  18.2500782  39.7418006
  50.8182497   4.8101362  32.6360846  50.2247336   5.1318358  32.0845413
  50.8557775   3.9642457  32.4281952  50.7356886   4.7325690  32.5243617
  53.6940314   4.7680866  36.0662596  53.4654007   4.7913568  35.2240954
  53.9538390   3.9438333  36.1857607  53.6986502   4.6496946  35.9587794
  47.9759542   6.6215339  45.6687696  47.4638445   6.0136522  46.0272728
  47.8039038   7.3371932  46.1361672  47.8749179   6.6378638  45.7903920
  42.8225257   5.0652914  48.3190058  42.6527847   5.7254289  47.7738265
  42.3791207   5.2759476  49.0402547  42.7324590   5.1938897  48.3451688
  46.7485076   3.3057412  37.3616792  47.2242442   3.6674492  36.7266973
  46.2473676   3.9613880  37.6416935  46.7450435   3.4551601  37.3093533
  59.9796438  12.7779180  33.1529797  60.3630043  13.5270537  33.3827894
  59.1840551  13.0245000  32.8941786  59.9190220  12.9248874  33.1487371
  51.8528612   4.5439584  48.1089952  52.4100042   4.3153393  47.4768417
  51.5289677   5.3045249  47.8325164  51.8875022   4.6223420  47.9746449
  39.7227321   7.9699780  43.5778548  39.1754041   7.3000426  43.6959416
  40.5119699   7.6029628  43.6422015  39.7579505   7.8164766  43.6047249
  49.5711730   7.6307237  49.0741959  50.3223057   7.9458914  49.3881513
  49.7634306   7.4286408  48.2475881  49.7103144   7.6474619  48.9985355
  48.7911729   5.4498612  30.7290176  49.1710694   5.4678241  29.9441291
  48.0504325   5.8952601  30.6081023  48.7380567   5.5180387  30.5953744
  38.4814291   7.1820588  40.7324571  38.3036052   6.7297197  41.4579487
  38.1933313   7.9846749  40.9163049  38.4127244   7.2343146  40.8668074
  54.1437872   8.4378305  39.9701961  54.6391537   7.7201300  39.9305982
  53.3337647   8.1349103  39.8556448  54.0981765   8.2875951  39.9475687
  49.5896483  12.2876118  32.1198966  48.7807806  11.9642792  32.0732275
  50.0971392  11.5809341  32.0527215  49.5446150  12.1357435  32.1029260
  40.2186761   9.7148312  37.8446330  39.3532280   9.7034002  37.7329101
  40.3185576   9.5278534  38.6917469  40.1060927   9.6854373  37.9535275
  56.2089691  11.1881993  42.6579090  56.6344762  10.6656415  42.1049515
  55.8446610  11.7862830  42.1367713  56.2176293  11.1992220  42.4988100
  52.7968290  14.9016257  38.9880248  53.2679468  15.6156520  39.1570233
  53.1328469  14.3015007  39.5240117  52.9163405  14.9187721  39.0912624
  54.8845275  16.5117570  51.1672320  54.9942240  15.7226131  51.5229067
  55.2136171  16.4223506  50.3646658  54.9497680  16.3823423  51.1014711
  53.4342236  14.6934191  45.7507940  52.8863182  14.0692075  45.4828006
  53.8955265  14.8828463  45.0352020  53.4209446  14.6293241  45.6058371
  48.7830900   1.6760140  33.4117807  49.6046594   1.8458453  33.1699502
  48.3200551   1.8307401  32.6884105  48.8362062   1.7241873  33.2689452
  43.1856791  13.4319319  41.0655044  43.7901648  13.3915153  40.4368865
  42.9784103  14.2790471  41.0959100  43.2445688  13.5507321  40.9771161
  53.0000563  15.6985264  42.2817282  53.8198936  15.5548230  42.5433577
  52.7194640  16.3231463  42.8233719  53.0797306  15.7695616  42.4005221
  38.4208073  12.4153936  40.9353967  38.3232351  11.6050208  41.2444024
  39.2036943  12.3945730  40.5500235  38.5224209  12.2921026  40.9240830
  69.4714213  23.3550115  35.2460158  69.4408217  24.2094752  35.4178427
  70.0695562  23.0545408  35.8046302  69.5551371  23.4366612  35.3534960
  62.6713898  22.4425766  40.0013088  61.8151793  22.6034265  40.0522205
  62.7181552  21.5717830  40.0218149  62.5513009  22.3376568  40.0119154
  65.9807614  28.7112292  49.6073544  66.6874382  28.2164323  49.7360479
  66.1695550  29.1521374  48.8776202  66.1135520  28.7030642  49.5182590
  62.5079997  32.4013854  31.1935867  62.1731366  33.0790775  30.7580089
  63.0206868  32.0119165  30.6052739  62.5345579  32.4438432  31.0422658
  62.0484289  34.3528123  37.1346979  62.4323668  34.9215021  36.5951754
  61.9843430  33.6277633  36.6552795  62.0957716  34.3303586  36.9840841
  65.5165719  24.5017810  42.6444740  66.0621679  25.1802897  42.7038710
  65.4582595  24.3605271  41.7846321  65.5881633  24.5809812  42.5256801
  58.6339794  31.9906877  38.0313092  58.7350157  31.1807230  38.3410220
  58.0381539  31.8963823  37.4012771  58.5612332  31.8571905  37.9839331
  67.2930788  25.9302417  33.5178468  67.1770313  26.6810104  33.9470606
  68.0886674  25.6726371  33.7674555  67.3935377  26.0037264  33.6182559
  54.1294926  20.1812894  40.5549734  53.5099957  19.5905541  40.3859749
  54.0278789  20.7724329  39.9214057  54.0232601  20.1816976  40.4354723
  59.1761113  29.9196441  34.8047810  59.4976954  30.4601648  34.2009118
  59.8233210  29.3493212  34.9370100  59.3187168  29.9155616  34.7354846
  61.2262821  21.9212435  34.8882197  61.9242986  22.1000563  35.3803660
  61.5415154  21.3982775  34.2652586  61.3758158  21.8706208  34.8684207
  53.8564059  23.7265175  42.7993303  53.7322755  24.3127621  43.4343122
  54.5082343  23.2325371  43.1005578  53.9337708  23.7403980  42.9379232
  61.4150757  28.3082881  34.8761988  61.8544392  27.6999981  35.3216761
  61.2655419  27.9290254  34.1047453  61.4572222  28.1621352  34.8281156
  58.8822400  26.9026892  42.0780814  59.5271402  26.4099335  41.7591762
  59.1224177  27.0451679  42.9046892  59.0132985  26.8504335  42.1530347
  61.4208491  29.7481798  41.7287706  61.7031734  28.9533204  41.5074462
  62.1494651  30.2262386  41.7492767  61.5698055  29.7016395  41.6990722
  59.3989685  17.2904832  38.9703471  59.0693015  17.7415976  38.3007170
  58.7234687  17.2120995  39.5176478  59.2500121  17.3455967  38.9526695
  65.0160093  26.6610062  31.8292758  64.9311388  27.5171028  31.9742326
  65.5044476  26.3854386  32.4974917  65.0748990  26.7467383  31.9494839
  66.6066093  13.2790355  37.2153082  66.2919534  13.9693834  37.6473504
  66.0893034  13.2235137  36.5138583  66.4830563  13.3725244  37.1750031
  65.9478526  23.2794856  33.3290493  65.4189998  23.4954489  33.9887799
  66.4703546  23.9730994  33.2491462  65.9466979  23.4137993  33.4146092
  71.4026579  28.8541160  38.7023537  70.5724282  29.0651804  38.8656954
  71.3535832  28.0278215  38.4265821  71.2733315  28.7630767  38.6860903
  57.8378134  27.1758073  32.1297961  57.2535349  27.6808104  32.5363825
  57.4348229  26.9500460  31.3894553  57.6917438  27.2166321  32.0802986
  59.4636317  31.6845015  41.5371447  58.9463258  31.3252430  40.9332755
  60.1610708  31.1607189  41.5477513  59.4901898  31.5542703  41.4501705
  63.1199909  32.1339829  47.4987620  63.2083255  31.9465969  48.3465830
  63.5489621  31.4877258  47.0992466  63.1962011  32.0102836  47.5659371
  60.6870369  31.4170989  46.4805282  60.1241203  31.0043598  47.0044943
  61.4491392  31.3423894  46.8998425  60.7164817  31.3448389  46.6198282
  62.2955349  23.4223725  30.6066881  62.5351352  23.6301709  29.7942224
  62.6171190  22.6181234  30.7155826  62.3792506  23.3337826  30.5027434
  57.6045639  15.3517121  34.4526419  58.3591607  15.7195438  34.2143469
  57.4273173  15.7256675  35.2205599  57.6900117  15.4615308  34.5311308
  70.8980538  21.5011561  42.4973959  70.0608959  21.5713748  42.7321553
  70.8668768  21.5036056  41.6248261  70.7698820  21.5121788  42.4033507
  57.2945267  23.6444597  48.2122327  57.4665770  23.5350491  49.0607609
  57.8314624  24.2899002  47.9753519  57.3990271  23.7236598  48.3027424
  55.9602703  17.7587440  31.1504532  55.7778277  17.9759320  30.3245525
  56.8228316  17.8726452  31.2063147  56.0607293  17.8077337  31.0359019
  56.1969838  30.0176237  42.8940826  56.7368063  29.8747368  43.5644198
  55.5139785  30.4172988  43.2624852  56.1761992  30.0555908  43.0475247
  61.6402423  14.7613850  34.1853556  62.3688583  14.5829805  33.7391712
  61.7297316  15.6031930  34.3960734  61.7609085  14.8597729  34.1507074
  65.6210723  25.6967238  38.0885850  66.3768238  26.1298752  38.1274759
  65.7273048  25.0472007  38.6620486  65.7480894  25.6644721  38.1783876
  68.6590894  29.5240515  38.8388253  68.2226126  29.5277257  39.5947224
  68.3253810  30.2046014  38.4067830  68.5453514  29.6252971  38.8869086
  63.2319968  31.5648848  50.1631403  64.0160385  31.6779695  50.5287145
  63.0316563  30.7389985  50.3590089  63.3185993  31.4595567  50.2465789
  51.6006984  26.2376528  43.0475247  51.3345399  25.4215644  43.2066237
  51.6145548  26.2829683  42.1770763  51.5631706  26.1233433  42.9428729
  68.5788377  16.5654343  41.0817681  69.2214286  16.6352447  41.6679596
  68.8311398  15.8983566  40.5797223  68.7110509  16.4780691  41.0944960
  55.5064730  21.0361612  29.6627005  54.7922908  20.7499792  30.0749438
  55.9908699  21.3758238  30.3033393  55.4724094  21.0443262  29.8182640
  56.3505590  19.7754906  45.6942255  55.6577387  19.3051886  45.9402986
  56.9665917  19.5493211  46.2683962  56.3390120  19.6722038  45.8151407
  63.3890361  33.4758950  43.8097859  62.5905607  33.2358450  44.0671728
  63.8376373  33.5273343  44.5564907  63.3364973  33.4481341  43.9582783
  71.7935241  26.2421435  37.7307890  72.4551675  25.6812103  37.6303799
  71.1526653  25.7473465  38.0560581  71.7964108  26.0857844  37.7640230
  62.6812048  29.5391566  30.0388813  63.0963197  29.2076590  29.3473309
  61.8503978  29.3060468  29.9108950  62.6200057  29.4562822  29.9179661
  68.0800071  27.2586817  37.4719879  68.3155661  27.4032016  36.6446730
  68.2289635  28.0229225  37.8651393  68.1365875  27.3925872  37.4083483
  55.0746149  23.7420310  46.8369100  55.7986121  23.7273341  47.3233995
  55.1762285  24.4515665  46.3391068  55.1964358  23.8445013  46.8347887
  62.4491098  27.2219395  51.7018047  61.6564079  27.5362906  51.8870667
  62.5640025  27.4370863  50.8638832  62.3486509  27.3003231  51.6056382
  65.1222417  23.9453386  35.9913063  65.2169272  24.6842680  36.4452688
  64.4981261  23.5170861  36.4247627  65.0431447  23.9914706  36.1221210
  63.3774891  27.1239598  46.6403344  63.9513753  26.4866843  46.7951908
  63.2989695  27.1243681  45.7713001  63.4508126  27.0304710  46.5349755
  65.3745439  25.7902126  29.2250015  65.2925601  25.8604313  30.0905002
  66.0125159  26.3531869  29.0333756  65.4565276  25.8841097  29.3239964
  58.7338610  25.5562863  38.6924541  58.4757854  24.7234598  38.6655841
  58.7887093  25.7820476  37.8517042  58.7038388  25.4660635  38.5644678
  63.8139660  17.6591314  38.7928634  63.1095987  17.1700500  38.9512553
  63.8624634  17.6713789  37.9217078  63.7169711  17.5880962  38.6867974
  57.7073322  23.1100626  39.1789436  57.1322913  23.2692794  39.8153397
  57.3308998  22.4736035  38.7157887  57.5676134  23.0398439  39.2043994
  61.3746610  21.5823975  44.0381814  60.9861043  21.1578193  43.3834006
  60.7101309  21.8306125  44.5458841  61.2193538  21.5562696  44.0169682
  71.0169880  21.3398980  36.8129644  70.7606444  20.5278921  36.6227527
  71.8599194  21.3476547  36.5859832  71.1035905  21.2210977  36.7514462
  65.1972972  15.2798604  41.5505799  65.5783484  14.5976775  41.9373673
  64.3936256  14.9908206  41.3681463  65.1349434  15.1365653  41.5809855
  62.4785549  25.8122580  32.2358621  63.2926188  26.1037473  32.1241393
  62.4144690  25.1582442  31.6616914  62.5888288  25.7587775  32.1347459
  68.6995039  28.4948576  46.6488197  68.4633676  27.6636641  46.5300258
  69.3438268  28.4434183  47.2343041  68.7589710  28.3646264  46.7174091
  58.3493457  29.2844097  37.3630933  58.9867404  29.0455845  37.9082727
  58.7748529  29.4881256  36.6284094  58.5069623  29.2795107  37.3348091
  58.9896272  24.5046387  31.7005823  59.3741425  24.2854094  32.4522368
  58.7407892  25.3309332  31.8306899  59.0098345  24.5944533  31.8306899
  59.1564812  17.7852802  51.4168407  58.8418254  18.5552365  51.1537970
  58.8354745  17.2223058  50.8320634  59.0623732  17.8163071  51.2909757
  69.7231460  28.2793025  42.7116492  69.4177277  29.0121082  43.0729807
  69.0037675  27.8730954  42.4309278  69.5718802  28.3274758  42.7229629
  60.7314929  29.7616520  39.0424720  60.8053937  29.5991692  39.8966570
  61.5484435  29.9506709  38.7985201  60.8631288  29.7653262  39.1322745
  75.4233252  24.9186025  42.0384836  75.3557752  24.9381985  41.1687422
  75.4088914  25.7616353  42.2640506  75.4112008  25.0459760  41.9437313
  56.7096709  16.1743324  37.0314603  55.8419135  16.2465923  37.0972213
  56.9971914  16.9765403  37.2202578  56.6236457  16.3037471  37.0689370
  65.8329598  16.3221183  45.3625925  66.5783190  16.1330994  44.9489351
  65.4166903  16.8479421  44.8039782  65.8814572  16.3723329  45.2190498
  59.2719515  32.7251263  33.7738193  59.5617813  32.3340244  33.0497420
  60.0022996  32.9067968  34.2143468  59.4226399  32.6945077  33.7321000
  73.2091869  23.6930412  40.3131430  73.7599791  23.0598481  40.5528522
  73.1935984  24.2245804  41.0046934  73.2877065  23.6779360  40.4510288
  59.8614260  27.5269009  44.8591324  59.3625954  28.2384777  44.9376212
  60.6714484  27.8469675  44.8209486  59.9070367  27.6795858  44.8647892
  56.1242377  26.7891962  39.1054044  55.8355626  26.1629433  39.6399772
  56.9925726  26.7312249  39.1718725  56.2102629  26.6879506  39.1944999
  66.9120275  21.9326745  39.4236026  66.5685041  21.2117081  39.7743276
  67.0113318  21.7240596  38.5814385  66.8762318  21.7950949  39.3507706
  59.3793386  36.0748035  35.6229035  60.0317444  35.5424478  35.8520061
  58.6818995  35.7216688  36.0096909  59.3724104  35.9437558  35.7141203
  56.3274651  28.4287213  35.0296410  57.0820619  28.8100252  35.2431872
  55.7345264  28.8798357  35.4843106  56.3511364  28.5516040  35.1279288
  67.3733304  28.3952449  34.9660014  67.9391337  29.0545659  34.8818557
  66.7261208  28.7402147  35.4376417  67.3612061  28.5434391  35.0232771
  58.7881318  20.3850053  50.1553622  57.9781094  20.6907833  50.0443464
  59.2656005  21.1055636  50.2706206  58.7384797  20.5364654  50.1560693
  57.6472877  29.5995774  40.4036525  57.1253631  29.7396066  41.0888390
  58.0346898  28.8406439  40.5938642  57.6276578  29.5081298  40.5337601
  54.6364061  19.6501583  34.4731480  54.3488857  19.2802853  33.7363427
  55.3234530  20.1196438  34.2115185  54.6952959  19.6648552  34.3246555
  63.8439882  31.3391234  34.3897094  63.6026558  30.6059094  33.9824159
  64.0241215  31.8878091  33.7363427  63.8347506  31.3113625  34.2327317
  59.0739203  26.6299793  35.8018016  58.8781986  27.2374528  35.2078319
  59.2973549  25.9367737  35.3209690  59.0773844  26.6177319  35.6434097
  57.4717733  23.5154531  35.9198884  58.1940385  23.6795689  35.4602690
  56.9925726  24.2364196  35.8138224  57.5081464  23.6452761  35.8364498
  65.4311241  19.8518330  41.2995569  64.5922341  19.8779609  41.0633833
  65.5015608  20.4989065  41.8800916  65.3179634  19.9514456  41.3504686
  55.1225350  25.9212604  45.0253024  55.6346447  26.1996857  44.3761784
  54.8361692  26.6601898  45.3915837  55.1560213  26.0714957  44.9842902
  63.8780519  16.7503707  36.0323185  64.5806872  16.5511455  35.5543143
  63.6124708  15.9779649  36.3392029  63.9427151  16.6066673  36.0068627
  69.3068764  25.0586317  38.5856811  69.2202739  25.2141743  39.4391590
  68.8519244  25.7024392  38.2116216  69.2272021  25.1762072  38.6563918
  52.2092256  20.4282796  35.3216761  52.3108393  21.2308957  35.6497736
  53.0048143  20.2270131  35.0239841  52.3420162  20.5168694  35.3252116
  58.6409075  18.0138992  45.0854066  58.4492272  18.0294127  45.9353489
  59.4907671  18.2102667  45.0620721  58.7384797  18.0453343  45.2077361
  53.0255988  20.5429974  43.0637882  52.8841480  19.6913914  43.1882390
  53.3096552  20.5858634  42.2400088  53.0463834  20.4229724  42.9605506
  63.1794581  22.3797064  37.2082371  62.9329295  22.2992815  38.0419159
  63.5079704  21.5950532  37.0144898  63.1915824  22.2523329  37.3029894
  67.0742629  29.0880423  40.9969152  66.9356989  29.7861469  41.5017894
  66.2942627  28.9329080  40.6405334  66.9385856  29.1680590  41.0195426
  65.4120715  25.3876799  47.2491533  65.4068753  24.5156615  47.2533960
  66.1181708  25.5864968  46.7760989  65.5165719  25.2880673  47.1798569
  59.1391608  25.1153782  46.6205354  59.2834984  25.6954991  45.9848464
  59.4867256  25.4930079  47.3255208  59.2119069  25.2574487  46.6304349
  61.3111525  24.3143951  44.4030485  60.5634839  24.5074965  43.9978763
  61.4653050  23.4889170  44.1654606  61.2233953  24.2209062  44.3075891
  58.2119363  33.3056554  43.4866380  58.3608927  32.7459470  42.8339785
  58.9919365  33.3848556  43.8698899  58.3493456  33.2342120  43.4463330
  68.5696002  28.4458677  31.7585651  68.1902811  27.6595815  31.7514940
  67.9062248  28.9945534  31.6157295  68.4154477  28.4103501  31.7366448
  60.7372663  33.4771197  44.7650871  60.6616335  32.8080008  45.3201660
  60.6662523  34.1788985  45.2791537  60.7153270  33.4816105  44.9227719
  61.5513302  18.2094502  45.2925889  62.0085916  18.9418476  45.4198681
  61.6269631  17.7860967  46.0513145  61.6304272  18.2551740  45.4226965
  53.7946293  18.4560321  46.3815333  53.2588483  17.8440679  46.6976100
  53.8564058  19.0308457  47.0348999  53.7241926  18.4507249  46.5250759
  66.0240628  11.3884377  39.1619732  66.1424196  11.8460840  38.4287035
  65.8502804  10.5829638  38.8755949  66.0159799  11.3378149  39.0120666
  61.3942910  31.9972196  35.5974477  62.1592801  31.7281840  35.2757141
  61.2921000  31.5122206  36.3144540  61.4924406  31.8861761  35.6554305
  59.4295680  20.1996606  42.1367713  58.6391755  20.0188066  42.4585049
  59.8256303  19.4223558  42.1198007  59.3712556  20.0584066  42.1820261
  63.9161571  29.0284380  27.5774427  64.6834556  29.0884505  27.1680278
  63.4692880  28.4564821  27.0930745  63.9634998  28.9520956  27.4452137
  64.8139366  27.8339036  39.8627159  64.1384368  27.6024268  40.3640546
  64.8231743  27.2260219  39.2369264  64.7157871  27.7097961  39.8443311
  61.9433510  22.6756865  46.6191212  61.8792652  23.5366821  46.4911349
  62.0830698  22.3588858  45.8186763  61.9548980  22.7557031  46.4819425
  66.8156101  30.6904168  32.0937337  66.8975938  31.4971154  31.7698788
  67.3005843  30.7100127  32.8178110  66.8993259  30.8124830  32.1524235
  60.6252604  25.3689004  40.7607415  60.2014853  25.5693503  40.0246433
  60.4497459  24.5217852  40.8731715  60.5363485  25.2737785  40.6681105
  55.9135049  25.8641055  36.1935387  56.0699668  25.7987858  37.0491379
  56.2535642  26.6389608  35.9814067  55.9868284  25.9690254  36.2889981
  62.4514194  25.2398939  35.0628751  62.9929739  24.7369320  35.5267371
  62.7660753  25.1864134  34.2518236  62.5778591  25.1578360  35.0112563
  66.3231301  29.4501586  52.1755663  67.1366167  29.1786735  52.3360795
  66.1626268  29.1509126  51.3715859  66.4201250  29.3656512  52.0801069
  60.6200644  30.6316291  32.3468779  60.6893464  29.7730829  32.4861779
  61.3989099  30.8488171  32.0187803  60.7453494  30.5369155  32.3185936
  63.6003463  20.1335244  45.1151051  63.8145433  19.4946158  44.5614405
  62.9837362  20.5781067  44.6858913  63.5408792  20.1045387  44.9701482
  65.0108131  33.0553992  36.5605272  64.6187923  32.7520707  35.8428138
  65.1661203  33.8923082  36.3710226  64.9761721  33.1337829  36.4261769
  52.4869311  23.0476006  36.5096154  52.8668276  23.4660551  35.8456422
  51.9124676  23.6289462  36.8164998  52.4580636  23.1953865  36.4572895
  65.7642551  21.7424309  46.0534358  64.9519233  21.4350199  46.1347531
  66.2232486  21.2623309  46.6177070  65.7122936  21.6260801  46.1488952
  65.1747806  29.6203981  36.5011302  64.8162461  29.7918624  37.2775335
  64.6886517  30.0817186  35.9439301  65.0506503  29.7142952  36.5336572
  62.9918192  13.2435179  40.1038394  62.1211750  13.2173900  40.0571703
  63.2458533  13.0712371  39.2864239  62.9011752  13.2145323  39.9758531
  59.9636171  25.3003146  29.0411537  60.2528696  26.0768029  29.3155111
  60.0507970  24.7891878  29.7426036  60.0190428  25.3395064  29.1854035
  62.8596059  23.1484380  50.8363060  63.3295690  23.7726497  51.2230934
  62.9057939  22.4801356  51.3956275  62.9363935  23.1419060  50.9763132
  60.0167332  15.2541408  41.5611864  59.5005821  14.5621599  41.6863443
  59.4561261  15.9212185  41.5074463  59.8573846  15.2504665  41.5717930
  62.0859566  15.7934368  43.3904717  61.6991319  15.8183399  44.1718247
  61.5992503  15.2276046  42.9379233  61.9572075  15.7130119  43.4392620
  66.3352545  30.5107877  47.4478503  66.9732266  30.0168072  47.1140959
  65.6926637  30.4385277  46.8630730  66.3346772  30.4266885  47.3120858
  68.0609545  22.3597023  42.0144419  67.6337153  22.2723371  41.2592518
  67.4235598  22.4674798  42.5999263  67.9039153  22.3629682  41.9889860
  61.7516708  12.6801353  45.6814977  62.3809826  13.2161653  45.4036047
  61.9202570  12.5878712  46.5328542  61.8694502  12.7462715  45.7663505
  61.5530622  17.4672548  47.9541388  62.3804052  17.1957697  48.0100003
  61.5738469  18.2633390  48.3105206  61.6783473  17.5452302  48.0156571
  66.3906802  31.2027685  44.0883860  67.1799180  30.8516750  44.2085942
  66.5650400  32.0164073  43.8260494  66.5327084  31.2713542  44.0671728
  56.1300112  24.6136411  41.1411649  55.2888119  24.5140285  41.3490543
  56.3390120  25.3831891  41.4925970  56.0364805  24.7128454  41.2238964
  53.6075679  22.2355948  38.9696400  53.2132377  22.3098959  38.1946509
  53.0515796  22.6213894  39.5204761  53.4678492  22.3037722  38.9364059
  65.2440626  15.2137242  38.6500278  65.4490219  15.1459549  39.4957276
  64.9167050  16.0196063  38.5821456  65.2255874  15.3223182  38.7659934
  59.9416777  22.5417810  40.3909246  59.6379915  21.9873798  40.9919654
  59.2396198  22.7210020  39.9037281  59.7932987  22.4862592  40.4078952
  58.9982874  19.8518330  34.9553948  59.2742609  19.1337242  34.5431516
  59.5981544  20.4503250  34.7475054  59.1276139  19.8338700  34.8634709
  58.0035128  29.7567531  45.0981344  57.8955483  29.7669593  45.9643402
  58.2130910  30.5822311  44.9086298  58.0185239  29.8808605  45.1985436
  68.4974314  15.7669006  38.1303044  67.8848627  16.2539408  38.5156776
  68.5938489  15.0912497  38.6740695  68.4212211  15.7387315  38.2681902
  62.4993395  17.5231847  33.2300543  62.9537141  17.6942407  33.9548388
  62.9733441  16.9099958  32.8298319  62.6361715  17.4582732  33.2774305
  56.0208920  27.0080173  42.5603282  55.4296853  27.6489671  42.5306297
  56.7829944  27.4317790  42.5334581  56.0457181  27.1656011  42.5518429
  56.4169543  18.1682171  43.2271299  56.8771025  18.2421100  43.9646423
  56.4625650  18.9663425  42.8771121  56.4920098  18.2976318  43.2844056
  58.0652893  18.8348866  47.7943326  57.6738458  18.1882213  48.2299104
  58.2338755  19.4260301  48.4137582  58.0323803  18.8263133  47.9506032
  72.1399342  26.8385943  43.5580560  72.1982465  27.2872591  44.3040537
  71.5065809  27.2484755  43.1210640  72.0550637  26.9659677  43.6033108
  65.7798436  32.4589485  39.9935306  65.5818125  32.9480299  39.2991518
  65.1586147  32.6630726  40.5719440  65.6586001  32.5606023  39.9758529
  59.8406415  24.2274381  34.3345550  60.5848460  24.6148658  34.5728500
  59.9867111  23.3831807  34.4986038  59.9717000  24.1604854  34.3939520
  61.7585990  16.0224640  39.3677412  60.9122035  16.1947448  39.2418762
  61.7557123  15.2173984  39.7043240  61.6333140  15.9285669  39.3988539
  62.8284291  19.7999855  40.2339470  62.3544245  19.2741617  40.7444781
  63.2002426  19.2529328  39.6654331  62.8134180  19.6415851  40.2254617
  53.2057321  21.7971361  45.6023016  54.0682934  21.6967071  45.5160345
  52.8749104  21.2166071  45.0408588  53.2842517  21.6962988  45.5068421
  69.0921021  24.8602230  41.6446250  68.8519244  24.0208645  41.6488677
  69.5713028  24.9402397  42.3687024  69.1273205  24.7483630  41.7521053
  64.7567790  20.6936409  33.2965224  64.2290809  20.7765153  32.6070932
  65.2163498  21.4354281  33.2929868  64.7469641  20.8157072  33.1939919
  71.0926208  21.6403688  39.5975509  70.8535978  21.5999522  38.7596294
  71.2560109  22.4874840  39.7241231  71.0816512  21.7595773  39.4928991
  67.6972238  26.0253637  45.5280555  68.4206437  25.5726163  45.3491575
  67.4322201  26.3058303  44.7452882  67.7653512  26.0004605  45.3859270
  56.5659107  20.6213810  42.2633434  55.9412177  20.6332202  41.6559386
  56.2304702  21.0973985  42.9124674  56.4244599  20.6932327  42.2690002
  56.7500855  18.9638929  28.3206119  56.4013660  19.6158654  28.7837668
  56.2697301  18.9496042  27.5929990  56.6271099  19.0581982  28.2817210
  53.2784782  28.6814270  43.7037198  52.7484707  27.9906709  43.7532173
  53.5509876  28.6724456  42.8749907  53.2409505  28.5781402  43.5884614
  64.3104873  29.2639973  32.4274881  65.0339072  29.7298086  32.2839454
  63.8705464  29.3313582  31.6772478  64.3520565  29.3423810  32.2959662
  63.4791028  26.1237515  43.6775570  62.8648021  25.5795565  43.9724205
  63.9958313  25.6101752  43.1981386  63.4646690  25.9673924  43.6499798
  62.7187325  27.1941785  41.4119868  62.2914933  26.5691504  40.9785304
  62.7112269  26.9116707  42.2378876  62.6546466  27.0594566  41.4699696
  55.8349852  22.2306958  44.4808302  55.9943339  21.4750282  44.8860024
  55.6542746  22.7797898  45.1349040  55.8315211  22.2000772  44.6371008
  63.7770155  14.3968194  45.0359092  63.2810716  14.5931868  44.3450658
  64.5339217  14.7960862  44.8647893  63.8156980  14.4845928  44.9079229
  61.0473035  18.0710540  41.6262402  61.0715522  17.5370652  40.9375182
  61.2984508  17.5627848  42.2887993  61.0882953  17.9171444  41.6227047
  57.3274357  16.7981358  41.0068147  57.3672729  17.2990564  41.7202854
  56.5024022  16.8891752  40.7374070  57.2113883  16.8863174  41.0718685
  59.5103970  26.3642098  49.1088441  58.6599600  26.5013812  49.2446086
  59.6732098  25.6305876  49.5536143  59.4087833  26.2756199  49.1944040
  58.7488720  23.3141868  43.3042046  57.9180650  23.4815686  43.0977294
  58.6940237  22.9377819  44.0890931  58.6178135  23.2831599  43.3890574
  56.5572504  16.8050761  48.9398456  57.1825207  16.2612893  49.2127889
  56.1022983  16.3245678  48.3706247  56.5820764  16.6540242  48.8960050
  57.1224764  21.5897459  33.8332163  57.2627725  22.0869923  34.5360805
  57.6207297  20.8883754  33.9746377  57.2165845  21.5599438  33.9583742
  57.1524987  22.4564570  31.1624740  57.7870066  23.0524995  31.0974202
  57.2350597  22.1568028  31.9770610  57.2581538  22.5005478  31.2727827
  70.1307552  24.9880048  44.0311104  70.7225393  25.6277298  44.0629302
  70.5666547  24.2903084  44.3203171  70.2825984  24.9798398  44.0791937
  58.7303969  18.3878546  31.1370182  59.0519810  17.9081628  30.4829444
  58.9930913  19.1978192  30.9460994  58.8169995  18.4368444  31.0125674
  61.9600942  29.4097420  44.6568998  61.4526033  29.9633267  45.1009629
  61.6627588  29.4705710  43.8387773  61.8405827  29.5003731  44.6017455
  64.1263124  17.7750740  43.4993661  64.5518196  17.3223266  42.8877188
  63.5120117  17.2210810  43.7758449  64.0991770  17.6264716  43.4498686
  53.6577974  24.6532411  34.4314286  54.1670204  25.2496919  34.8125592
  54.1312247  24.3858385  33.7490706  53.8021350  24.7018226  34.3868809
  64.5708722  33.3260678  32.5872942  63.8538032  33.1521540  32.1220179
  65.2215460  33.0913250  32.0548428  64.5610573  33.2656470  32.4402160
  62.5657347  14.2465839  36.9084238  61.9225665  14.0963486  37.4769377
  62.2256754  14.0008185  36.1433343  62.4202425  14.1877962  36.8787253
  67.1556694  22.2025266  36.3314247  66.4847884  22.7454969  36.2027312
  67.8496444  22.6720122  36.0895942  67.1585561  22.3523538  36.2769775
  61.2043427  34.3421978  41.5626005  60.9809082  33.5840808  41.9310031
  60.7153271  34.3719999  40.8406445  61.0986876  34.2344203  41.5102746
  67.3184821  18.6581150  39.2404620  67.6712431  18.2310873  39.9150419
  66.4599623  18.5731993  39.3705696  67.2434266  18.5825891  39.3599631
  56.0168506  21.2888670  37.2987467  55.2980495  21.7052802  37.5660330
  56.3880868  21.8542908  36.7479105  55.9660438  21.4337951  37.2570274
  65.3168087  21.9216519  43.1889462  65.2966014  21.7399814  44.0424241
  65.3647288  22.7928537  43.1649046  65.3202728  22.0233057  43.3112757
  63.2614417  28.5103710  49.1137939  63.2210272  27.8653387  48.5283095
  64.0737735  28.4540328  49.4263351  63.3757570  28.4062677  49.0734888
  59.8521884  34.5622436  39.0163090  59.4382283  33.8996567  38.6266931
  60.5369259  34.7100295  38.4958784  59.8920256  34.4863095  38.8819587
  63.2187178  33.7212522  39.7686706  62.8203462  33.8314792  39.0007527
  62.6038398  33.9294588  40.3513266  63.0686068  33.7686090  39.7418006
  61.7915081  20.3286670  32.6360846  61.1979920  20.6503666  32.0845413
  61.8290358  19.4827765  32.4281952  61.7089470  20.2510998  32.5243617
  68.7508881  13.7799562  40.1688933  68.2439746  13.0728701  40.1010110
  69.5476315  13.4492751  40.2990009  68.7936120  13.6272713  40.1787928
  64.6672897  20.2866174  36.0662596  64.4386590  20.3098875  35.2240954
  64.9270973  19.4623641  36.1857607  64.6719085  20.1682254  35.9587794
  58.9492126  22.1400647  45.6687696  58.4371029  21.5321830  46.0272728
  58.7771622  22.8557240  46.1361672  58.8481763  22.1563946  45.7903920
  53.7957840  20.5838222  48.3190058  53.6260431  21.2439597  47.7738265
  53.3523790  20.7944784  49.0402547  53.7057174  20.7124204  48.3451688
  57.7217660  18.8242720  37.3616792  58.1975026  19.1859800  36.7266973
  57.2206259  19.4799188  37.6416935  57.7183019  18.9736909  37.3093533
  70.9529021  28.2964488  33.1529797  71.3362627  29.0455845  33.3827894
  70.1573134  28.5430308  32.8941786  70.8922803  28.4434182  33.1487371
  62.8261196  20.0624892  48.1089952  63.3832626  19.8338701  47.4768417
  62.5022261  20.8230557  47.8325164  62.8607606  20.1408728  47.9746449
  60.5444313  23.1492545  49.0741959  61.2955640  23.4644222  49.3881513
  60.7366890  22.9471716  48.2475881  60.6835727  23.1659927  48.9985355
  59.7644313  20.9683920  30.7290176  60.1443278  20.9863549  29.9441291
  59.0236909  21.4137909  30.6081023  59.7113151  21.0365695  30.5953744
  67.3929603  19.2766111  36.3165755  67.3923830  19.1214768  37.1750031
  67.1885783  20.1229098  36.2607140  67.3629381  19.3786732  36.4353694
  65.1170455  23.9563613  39.9701961  65.6124121  23.2386608  39.9305982
  64.3070231  23.6534411  39.8556448  65.0714349  23.8061259  39.9475687
  60.5629067  27.8061426  32.1198966  59.7540390  27.4828100  32.0732275
  61.0703976  27.0994648  32.0527215  60.5178734  27.6542743  32.1029260
  67.1822274  26.7067301  42.6579090  67.6077346  26.1841722  42.1049515
  66.8179194  27.3048138  42.1367713  67.1908877  26.7177528  42.4988100
  63.7700874  30.4201565  38.9880248  64.2412052  31.1341827  39.1570233
  64.1061052  29.8200315  39.5240117  63.8895989  30.4373029  39.0912624
  65.8577858  32.0302878  51.1672320  65.9674824  31.2411439  51.5229067
  66.1868755  31.9408814  50.3646658  65.9230264  31.9008731  51.1014711
  60.6870369  15.1929035  45.9438343  60.8198274  14.3960029  46.2719318
  61.0715521  15.7195438  46.5236618  60.7626697  15.1528952  46.0781845
  64.4074820  30.2119499  45.7507940  63.8595766  29.5877383  45.4828006
  64.8687849  30.4013771  45.0352020  64.3942029  30.1478549  45.6058371
  63.7602724  12.1159362  42.5419436  62.9548687  12.0057091  42.8587274
  63.6309459  12.2171817  41.6849302  63.6222857  12.1143032  42.4627476
  67.2168684  18.2804853  43.1359133  66.6331673  18.7814060  42.7236700
  67.5372978  17.7734410  42.5023456  67.1781860  18.2796688  42.9817640
  59.7563483  17.1945448  33.4117807  60.5779178  17.3643761  33.1699502
  59.2933134  17.3492709  32.6884105  59.8094646  17.2427181  33.2689452
  58.3458815  15.1888211  44.1916236  58.8903228  14.8479337  44.7820578
  58.3995751  16.0473672  44.3337521  58.4347935  15.2643470  44.2998110
  54.1589374  28.9504627  41.0655044  54.7634232  28.9100461  40.4368865
  53.9516687  29.7975779  41.0959100  54.2178271  29.0692629  40.9771161
  63.9733146  31.2170572  42.2817282  64.7931520  31.0733538  42.5433577
  63.6927224  31.8416771  42.8233719  64.0529890  31.2880924  42.4005221
  73.6446481  37.9611074  40.0013088  72.7884377  38.1219573  40.0522205
  73.6914135  37.0903138  40.0218149  73.5245593  37.8561876  40.0119154
  68.0287621  47.4973792  35.7650320  67.2770521  47.1189331  35.5366365
  68.4773633  47.5292226  35.0169130  67.9837288  47.4459399  35.6207822
  76.9540198  44.2297600  49.6073544  77.6606965  43.7349631  49.7360479
  77.1428133  44.6706682  48.8776202  77.0868104  44.2215950  49.5182590
  73.4812581  47.9199162  31.1935867  73.1463950  48.5976083  30.7580089
  73.9939452  47.5304473  30.6052739  73.5078162  47.9623740  31.0422658
  73.0216872  49.8713430  37.1346979  73.4056252  50.4400329  36.5951754
  72.9576014  49.1462941  36.6552795  73.0690300  49.8488894  36.9840841
  76.4898303  40.0203118  42.6444740  77.0354263  40.6988205  42.7038710
  76.4315179  39.8790579  41.7846321  76.5614217  40.0995120  42.5256801
  69.6072377  47.5092184  38.0313092  69.7082740  46.6992538  38.3410220
  69.0114123  47.4149131  37.4012771  69.5344916  47.3757213  37.9839331
  69.4473117  52.4269774  39.4327948  70.0910572  52.8682938  39.8224107
  69.7729373  51.6223200  39.3458207  69.5904946  52.3734968  39.4773426
  65.1027509  35.6998202  40.5549734  64.4832541  35.1090849  40.3859749
  65.0011373  36.2909637  39.9214057  64.9965185  35.7002284  40.4354723
  70.1493697  45.4381748  34.8047810  70.4709538  45.9786956  34.2009118
  70.7965793  44.8678520  34.9370100  70.2919752  45.4340924  34.7354846
  72.1995405  37.4397743  34.8882197  72.8975569  37.6185871  35.3803660
  72.5147737  36.9168083  34.2652586  72.3490742  37.3891516  34.8684207
  72.3883340  43.8268188  34.8761988  72.8276976  43.2185289  35.3216761
  72.2388003  43.4475562  34.1047453  72.4304806  43.6806660  34.8281156
  69.8554983  42.4212200  42.0780814  70.5003986  41.9284643  41.7591762
  70.0956760  42.5636987  42.9046892  69.9865568  42.3689642  42.1530347
  72.3941074  45.2667106  41.7287706  72.6764317  44.4718512  41.5074462
  73.1227235  45.7447694  41.7492767  72.5430638  45.2201703  41.6990722
  70.3722268  32.8090140  38.9703471  70.0425598  33.2601284  38.3007170
  69.6967270  32.7306303  39.5176478  70.2232705  32.8641275  38.9526695
  75.9892677  42.1795370  31.8292758  75.9043972  43.0356336  31.9742326
  76.4777060  41.9039694  32.4974917  76.0481574  42.2652691  31.9494839
  77.5798676  28.7975663  37.2153082  77.2652117  29.4879142  37.6473504
  77.0625618  28.7420445  36.5138583  77.4563147  28.8910552  37.1750031
  76.9211110  38.7980164  33.3290493  76.3922581  39.0139797  33.9887799
  77.4436130  39.4916302  33.2491462  76.9199563  38.9323301  33.4146092
  68.8110718  42.6943381  32.1297961  68.2267933  43.1993412  32.5363825
  68.4080813  42.4685768  31.3894553  68.6650022  42.7351629  32.0802986
  64.3654746  48.4098142  38.9321632  63.8822325  49.1348631  38.9081216
  65.1778065  48.7074272  39.0431790  64.4145494  48.5600496  38.9448911
  70.4368900  47.2030322  41.5371447  69.9195842  46.8437738  40.9332755
  71.1343292  46.6792497  41.5477513  70.4634482  47.0728010  41.4501705
  74.0932492  47.6525137  47.4987620  74.1815838  47.4651277  48.3465830
  74.5222205  47.0062566  47.0992466  74.1694595  47.5288144  47.5659371
  71.6602952  46.9356297  46.4805282  71.0973787  46.5228906  47.0044943
  72.4223976  46.8609202  46.8998425  71.6897401  46.8633697  46.6198282
  73.2687932  38.9409033  30.6066881  73.5083936  39.1487016  29.7942224
  73.5903773  38.1366541  30.7155826  73.3525090  38.8523134  30.5027434
  68.5778222  30.8702428  34.4526419  69.3324190  31.2380746  34.2143469
  68.4005757  31.2441983  35.2205599  68.6632701  30.9800616  34.5311308
  67.2198944  48.9254318  39.0841912  67.9219523  48.4106307  39.1414669
  67.1396427  49.2528469  39.8888787  67.3122704  48.8968544  39.2114704
  68.2677850  39.1629905  48.2122327  68.4398354  39.0535799  49.0607609
  68.8047208  39.8084310  47.9753519  68.3722854  39.2421906  48.3027424
  66.9335287  33.2772747  31.1504532  66.7510860  33.4944628  30.3245525
  67.7960900  33.3911760  31.2063147  67.0339877  33.3262645  31.0359019
  67.1702422  45.5361545  42.8940826  67.7100647  45.3932676  43.5644198
  66.4872368  45.9358296  43.2624852  67.1494576  45.5741216  43.0475247
  72.6135006  30.2799158  34.1853556  73.3421167  30.1015113  33.7391712
  72.7029899  31.1217238  34.3960734  72.7341668  30.3783037  34.1507074
  76.5943307  41.2152546  38.0885850  77.3500822  41.6484060  38.1274759
  76.7005631  40.5657315  38.6620486  76.7213478  41.1830029  38.1783876
  74.2052552  47.0834156  50.1631403  74.9892968  47.1965003  50.5287145
  74.0049146  46.2575293  50.3590089  74.2918577  46.9780875  50.2465789
  66.4797314  36.5546920  29.6627005  65.7655491  36.2685100  30.0749438
  66.9641283  36.8943546  30.3033393  66.4456677  36.5628570  29.8182640
  67.3238173  35.2940214  45.6942255  66.6309970  34.8237194  45.9402986
  67.9398501  35.0678518  46.2683962  67.3122703  35.1907346  45.8151407
  74.3622945  48.9944258  43.8097859  73.5638191  48.7543758  44.0671728
  74.8108956  49.0458651  44.5564907  74.3097556  48.9666649  43.9582783
  73.6544632  45.0576874  30.0388813  74.0695780  44.7261898  29.3473309
  72.8236562  44.8245776  29.9108950  73.5932641  44.9748130  29.9179661
  66.0478732  39.2605618  46.8369100  66.7718705  39.2458649  47.3233995
  66.1494869  39.9700973  46.3391068  66.1696941  39.3630321  46.8347887
  73.4223682  42.7404703  51.7018047  72.6296663  43.0548214  51.8870667
  73.5372609  42.9556171  50.8638832  73.3219092  42.8188539  51.6056382
  76.0955001  39.4638694  35.9913063  76.1901855  40.2027988  36.4452688
  75.4713844  39.0356169  36.4247627  76.0164031  39.5100014  36.1221210
  74.3507475  42.6424906  46.6403344  74.9246336  42.0052151  46.7951908
  74.2722278  42.6428989  45.7713001  74.4240710  42.5490018  46.5349755
  76.3478022  41.3087433  29.2250015  76.2658185  41.3789621  30.0905002
  76.9857743  41.8717177  29.0333756  76.4297859  41.4026405  29.3239964
  69.7071193  41.0748171  38.6924541  69.4490438  40.2419906  38.6655841
  69.7619676  41.3005784  37.8517042  69.6770971  40.9845943  38.5644678
  74.7872243  33.1776622  38.7928634  74.0828570  32.6885808  38.9512553
  74.8357218  33.1899097  37.9217078  74.6902295  33.1066270  38.6867974
  68.6805905  38.6285934  39.1789436  68.1055497  38.7878102  39.8153397
  68.3041582  37.9921343  38.7157887  68.5408718  38.5583747  39.2043994
  72.3479194  37.1009283  44.0381814  71.9593627  36.6763501  43.3834006
  71.6833892  37.3491433  44.5458841  72.1926122  37.0748004  44.0169682
  76.1705556  30.7983912  41.5505799  76.5516067  30.1162083  41.9373673
  75.3668840  30.5093514  41.3681463  76.1082017  30.6550960  41.5809855
  73.4518132  41.3307888  32.2358621  74.2658771  41.6222781  32.1241393
  73.3877274  40.6767750  31.6616914  73.5620871  41.2773083  32.1347459
  69.3226041  44.8029405  37.3630933  69.9599988  44.5641153  37.9082727
  69.7481112  45.0066564  36.6284094  69.4802207  44.7980415  37.3348091
  69.9628856  40.0231695  31.7005823  70.3474008  39.8039402  32.4522368
  69.7140476  40.8494640  31.8306899  69.9830928  40.1129841  31.8306899
  70.1297396  33.3038110  51.4168407  69.8150837  34.0737673  51.1537970
  69.8087329  32.7408366  50.8320634  70.0356315  33.3348379  51.2909757
  71.7047513  45.2801828  39.0424720  71.7786521  45.1177000  39.8966570
  72.5217019  45.4692017  38.7985201  71.8363871  45.2838570  39.1322745
  67.6829293  31.6928632  37.0314603  66.8151718  31.7651231  37.0972213
  67.9704497  32.4950711  37.2202578  67.5969041  31.8222779  37.0689370
  76.8062182  31.8406491  45.3625925  77.5515774  31.6516301  44.9489351
  76.3899486  32.3664729  44.8039782  76.8547156  31.8908636  45.2190498
  70.2452098  48.2436571  33.7738193  70.5350397  47.8525552  33.0497420
  70.9755579  48.4253276  34.2143468  70.3958982  48.2130385  33.7321000
  70.8346843  43.0454317  44.8591324  70.3358537  43.7570085  44.9376212
  71.6447068  43.3654983  44.8209486  70.8802950  43.1981165  44.8647892
  68.1858014  50.2203953  36.8398343  67.9658309  49.9301308  37.6325010
  67.9652536  49.5618908  36.3116255  68.1205608  50.0803662  36.8787252
  77.8852859  37.4512053  39.4236026  77.5417625  36.7302388  39.7743276
  77.9845901  37.2425904  38.5814385  77.8494902  37.3136256  39.3507706
  70.3525970  51.5933343  35.6229035  71.0050028  51.0609786  35.8520061
  69.6551578  51.2401996  36.0096909  70.3456688  51.4622866  35.7141203
  69.7613901  35.9035361  50.1553622  68.9513677  36.2093141  50.0443464
  70.2388588  36.6240944  50.2706206  69.7117380  36.0549962  50.1560693
  68.6205461  45.1181082  40.4036525  68.0986215  45.2581374  41.0888390
  69.0079481  44.3591747  40.5938642  68.6009162  45.0266606  40.5337601
  65.6096645  35.1686891  34.4731480  65.3221441  34.7988161  33.7363427
  66.2967113  35.6381746  34.2115185  65.6685542  35.1833860  34.3246555
  74.8172466  46.8576541  34.3897094  74.5759142  46.1244402  33.9824159
  74.9973799  47.4063398  33.7363427  74.8080090  46.8298933  34.2327317
  70.0471787  42.1485101  35.8018016  69.8514569  42.7559836  35.2078319
  70.2706132  41.4553045  35.3209690  70.0506428  42.1362627  35.6434097
  68.4450317  39.0339839  35.9198884  69.1672969  39.1980997  35.4602690
  67.9658309  39.7549504  35.8138224  68.4814047  39.1638069  35.8364498
  76.4043824  35.3703638  41.2995569  75.5654925  35.3964917  41.0633833
  76.4748192  36.0174373  41.8800916  76.2912218  35.4699764  41.3504686
  66.0957933  41.4397912  45.0253024  66.6079030  41.7182165  44.3761784
  65.8094276  42.1787206  45.3915837  66.1292796  41.5900265  44.9842902
  74.8513102  32.2689015  36.0323185  75.5539455  32.0696763  35.5543143
  74.5857291  31.4964957  36.3392029  74.9159735  32.1251981  36.0068627
  63.1824840  35.9468103  35.3216761  63.2840976  36.7494265  35.6497736
  63.9780726  35.7455439  35.0239841  63.3152745  36.0354002  35.3252116
  69.6141659  33.5324300  45.0854066  69.4224856  33.5479435  45.9353489
  70.4640255  33.7287974  45.0620721  69.7117381  33.5638651  45.2077361
  63.9988572  36.0615282  43.0637882  63.8574064  35.2099222  43.1882390
  64.2829135  36.1043942  42.2400088  64.0196418  35.9415032  42.9605506
  74.1527164  37.8982372  37.2082371  73.9061878  37.8178123  38.0419159
  74.4812287  37.1135840  37.0144898  74.1648408  37.7708637  37.3029894
  78.0475213  44.6065731  40.9969152  77.9089572  45.3046777  41.5017894
  77.2675211  44.4514388  40.6405334  77.9118440  44.6865898  41.0195426
  76.3853298  40.9062107  47.2491533  76.3801337  40.0341923  47.2533960
  77.0914292  41.1050276  46.7760989  76.4898302  40.8065981  47.1798569
  70.1124191  40.6339090  46.6205354  70.2567567  41.2140299  45.9848464
  70.4599840  41.0115387  47.3255208  70.1851653  40.7759794  46.6304349
  72.2844109  39.8329259  44.4030485  71.5367423  40.0260273  43.9978763
  72.4385634  39.0074478  44.1654606  72.1966536  39.7394370  44.3075891
  69.1851946  48.8241862  43.4866380  69.3341510  48.2644778  42.8339785
  69.9651948  48.9033864  43.8698899  69.3226040  48.7527428  43.4463330
  71.7105247  48.9956505  44.7650871  71.6348918  48.3265316  45.3201660
  71.6395106  49.6974293  45.2791537  71.6885854  49.0001412  44.9227719
  72.5245886  33.7279810  45.2925889  72.9818500  34.4603784  45.4198681
  72.6002215  33.3046275  46.0513145  72.6036856  33.7737048  45.4226965
  64.7678877  33.9745629  46.3815333  64.2321066  33.3625987  46.6976100
  64.8296642  34.5493765  47.0348999  64.6974510  33.9692557  46.5250759
  76.9973212  26.9069685  39.1619732  77.1156780  27.3646148  38.4287035
  76.8235387  26.1014946  38.8755949  76.9892383  26.8563457  39.0120666
  72.3675494  47.5157504  35.5974477  73.1325385  47.2467148  35.2757141
  72.2653584  47.0307514  36.3144540  72.4656989  47.4047069  35.6554305
  70.4028264  35.7181913  42.1367713  69.6124338  35.5373374  42.4585049
  70.7988887  34.9408866  42.1198007  70.3445140  35.5769374  42.1820261
  74.8894154  44.5469688  27.5774427  75.6567140  44.6069813  27.1680278
  74.4425463  43.9750129  27.0930745  74.9367582  44.4706263  27.4452137
  75.7871950  43.3524344  39.8627159  75.1116952  43.1209576  40.3640546
  75.7964326  42.7445527  39.2369264  75.6890455  43.2283269  39.8443311
  72.9166094  38.1942173  46.6191212  72.8525235  39.0552129  46.4911349
  73.0563282  37.8774166  45.8186763  72.9281564  38.2742339  46.4819425
  77.7888685  46.2089476  32.0937337  77.8708522  47.0156462  31.7698788
  78.2738427  46.2285435  32.8178110  77.8725842  46.3310138  32.1524235
  71.5985188  40.8874312  40.7607415  71.1747437  41.0878811  40.0246433
  71.4230043  40.0403160  40.8731715  71.5096068  40.7923093  40.6681105
  71.0996881  52.4024825  43.2228872  71.5892812  51.7035614  43.0404537
  70.5281114  52.1048695  43.8104929  71.0881411  52.2551049  43.2829913
  66.8867633  41.3826363  36.1935387  67.0432252  41.3173166  37.0491379
  67.2268226  42.1574916  35.9814067  66.9600868  41.4875561  36.2889981
  73.4246777  40.7584247  35.0628751  73.9662323  40.2554628  35.5267371
  73.7393336  40.7049442  34.2518236  73.5511175  40.6763668  35.0112563
  77.2963885  44.9686894  52.1755663  78.1098750  44.6972043  52.3360795
  77.1358851  44.6694434  51.3715859  77.3933833  44.8841820  52.0801069
  71.5933227  46.1501598  32.3468779  71.6626047  45.2916137  32.4861779
  72.3721682  46.3673479  32.0187803  71.7186077  46.0554462  32.3185936
  74.5736047  35.6520551  45.1151051  74.7878016  35.0131466  44.5614405
  73.9569946  36.0966375  44.6858913  74.5141376  35.6230695  44.9701482
  75.9840715  48.5739300  36.5605272  75.5920506  48.2706015  35.8428138
  76.1393787  49.4108390  36.3710226  75.9494305  48.6523136  36.4261769
  63.4601894  38.5661314  36.5096154  63.8400859  38.9845859  35.8456422
  62.8857259  39.1474770  36.8164998  63.4313219  38.7139173  36.4572895
  76.7375135  37.2609617  46.0534358  75.9251817  36.9535507  46.1347531
  77.1965069  36.7808617  46.6177070  76.6855520  37.1446109  46.1488952
  76.1480389  45.1389289  36.5011302  75.7895044  45.3103931  37.2775335
  75.6619100  45.6002494  35.9439301  76.0239086  45.2328260  36.5336572
  73.9650775  28.7620487  40.1038394  73.0944333  28.7359208  40.0571703
  74.2191117  28.5897679  39.2864239  73.8744336  28.7330631  39.9758531
  70.9368755  40.8188454  29.0411537  71.2261280  41.5953337  29.3155111
  71.0240554  40.3077185  29.7426036  70.9923011  40.8580372  29.1854035
  73.8328642  38.6669688  50.8363060  74.3028273  39.2911804  51.2230934
  73.8790523  37.9986664  51.3956275  73.9096518  38.6604368  50.9763132
  70.9899916  30.7726716  41.5611864  70.4738405  30.0806907  41.6863443
  70.4293845  31.4397493  41.5074463  70.8306429  30.7689973  41.5717930
  73.0592149  31.3119676  43.3904717  72.6723903  31.3368707  44.1718247
  72.5725087  30.7461354  42.9379233  72.9304658  31.2315426  43.4392620
  77.3085129  46.0293185  47.4478503  77.9464849  45.5353380  47.1140959
  76.6659220  45.9570585  46.8630730  77.3079355  45.9452193  47.3120858
  72.7249291  28.1986661  45.6814977  73.3542409  28.7346961  45.4036047
  72.8935154  28.1064020  46.5328542  72.8427086  28.2648023  45.7663505
  72.5263206  32.9857856  47.9541388  73.3536635  32.7143005  48.0100003
  72.5471052  33.7818697  48.3105206  72.6516056  33.0637610  48.0156571
  77.3639385  46.7212993  44.0883860  78.1531764  46.3702058  44.2085942
  77.5382983  47.5349381  43.8260494  77.5059667  46.7898850  44.0671728
  67.1032696  40.1321719  41.1411649  66.2620702  40.0325593  41.3490543
  67.3122704  40.9017199  41.4925970  67.0097388  40.2313762  41.2238964
  64.5808263  37.7541256  38.9696400  64.1864961  37.8284267  38.1946509
  64.0248380  38.1399202  39.5204761  64.4411075  37.8223030  38.9364059
  76.2173210  30.7322550  38.6500278  76.4222803  30.6644857  39.4957276
  75.8899634  31.5381371  38.5821456  76.1988458  30.8408490  38.7659934
  70.9149361  38.0603118  40.3909246  70.6112498  37.5059106  40.9919654
  70.2128782  38.2395328  39.9037281  70.7665571  38.0047900  40.4078952
  69.9715458  35.3703638  34.9553948  70.2475192  34.6522550  34.5431516
  70.5714127  35.9688557  34.7475054  70.1008722  35.3524008  34.8634709
  68.9767712  45.2752838  45.0981344  68.8688067  45.2854901  45.9643402
  69.1863493  46.1007619  44.9086298  68.9917823  45.3993913  45.1985436
  73.4725978  33.0417155  33.2300543  73.9269725  33.2127715  33.9548388
  73.9466024  32.4285266  32.8298319  73.6094298  32.9768040  33.2774305
  66.9941504  42.5265481  42.5603282  66.4029437  43.1674979  42.5306297
  67.7562527  42.9503098  42.5334581  67.0189764  42.6841319  42.5518429
  67.3902127  33.6867479  43.2271299  67.8503608  33.7606408  43.9646423
  67.4358233  34.4848733  42.8771121  67.4652682  33.8161626  43.2844056
  69.0385476  34.3534173  47.7943326  68.6471041  33.7067521  48.2299104
  69.2071339  34.9445609  48.4137582  69.0056387  34.3448441  47.9506032
  76.7531020  47.9774792  39.9935306  76.5550709  48.4665607  39.2991518
  76.1318731  48.1816034  40.5719440  76.6318584  48.0791331  39.9758529
  70.8138998  39.7459689  34.3345550  71.5581043  40.1333966  34.5728500
  70.9599694  38.9017115  34.4986038  70.9449583  39.6790162  34.3939520
  72.7318574  31.5409948  39.3677412  71.8854619  31.7132756  39.2418762
  72.7289706  30.7359292  39.7043240  72.6065724  31.4470977  39.3988539
  73.8016874  35.3185163  40.2339470  73.3276828  34.7926925  40.7444781
  74.1735010  34.7714635  39.6654331  73.7866763  35.1601159  40.2254617
  64.1789904  37.3156669  45.6023016  65.0415517  37.2152379  45.5160345
  63.8481687  36.7351379  45.0408588  64.2575101  37.2148296  45.5068421
  75.7300374  36.2121717  33.2965224  75.2023392  36.2950461  32.6070932
  76.1896082  36.9539589  33.2929868  75.7202224  36.3342380  33.1939919
  67.5391690  36.1399118  42.2633434  66.9144760  36.1517510  41.6559386
  67.2037285  36.6159293  42.9124674  67.3977182  36.2117635  42.2690002
  67.7233439  34.4824237  28.3206119  67.3746243  35.1343962  28.7837668
  67.2429885  34.4681350  27.5929990  67.6003683  34.5767290  28.2817210
  75.2837456  44.7825281  32.4274881  76.0071655  45.2483394  32.2839454
  74.8438047  44.8498890  31.6772478  75.3253149  44.8609117  32.2959662
  74.4523611  41.6422823  43.6775570  73.8380605  41.0980873  43.9724205
  74.9690896  41.1287059  43.1981386  74.4379274  41.4859232  43.6499798
  73.6919909  42.7127093  41.4119868  73.2647517  42.0876812  40.9785304
  73.6844853  42.4302015  42.2378876  73.6279050  42.5779874  41.4699696
  66.8082436  37.7492266  44.4808302  66.9675922  36.9935590  44.8860024
  66.6275329  38.2983206  45.1349040  66.8047795  37.7186080  44.6371008
  74.7502739  29.9153502  45.0359092  74.2543300  30.1117176  44.3450658
  75.5071801  30.3146170  44.8647893  74.7889563  30.0031235  44.9079229
  72.0205618  33.5895848  41.6262402  72.0448105  33.0555960  40.9375182
  72.2717092  33.0813156  42.2887993  72.0615537  33.4356752  41.6227047
  68.3006940  32.3166666  41.0068147  68.3405312  32.8175872  41.7202854
  67.4756605  32.4077059  40.7374070  68.1846466  32.4048482  41.0718685
  70.4836553  41.8827406  49.1088441  69.6332184  42.0199120  49.2446086
  70.6464681  41.1491184  49.5536143  70.3820417  41.7941507  49.1944040
  69.7221304  38.8327176  43.3042046  68.8913234  39.0000994  43.0977294
  69.6672821  38.4563126  44.0890931  69.5910719  38.8016907  43.3890574
  67.5305087  32.3236069  48.9398456  68.1557791  31.7798201  49.2127889
  67.0755567  31.8430986  48.3706247  67.5553348  32.1725550  48.8960050
  68.0957348  37.1082767  33.8332163  68.2360309  37.6055231  34.5360805
  68.5939881  36.4069062  33.9746377  68.1898429  37.0784746  33.9583742
  68.1257570  37.9749878  31.1624740  68.7602650  38.5710303  31.0974202
  68.2083181  37.6753336  31.9770610  68.2314121  38.0190786  31.2727827
  69.7036553  33.9063854  31.1370182  70.0252394  33.4266936  30.4829444
  69.9663497  34.7163500  30.9460994  69.7902578  33.9553752  31.0125674
  72.9333526  44.9282728  44.6568998  72.4258617  45.4818575  45.1009629
  72.6360172  44.9891018  43.8387773  72.8138411  45.0189039  44.6017455
  75.0995708  33.2936048  43.4993661  75.5250779  32.8408574  42.8877188
  74.4852701  32.7396118  43.7758449  75.0724353  33.1450024  43.4498686
  75.5441306  48.8445986  32.5872942  74.8270616  48.6706848  32.1220179
  76.1948044  48.6098558  32.0548428  75.5343157  48.7841778  32.4402160
  73.5389931  29.7651147  36.9084238  72.8958249  29.6148794  37.4769377
  73.1989338  29.5193493  36.1433343  73.3935008  29.7063270  36.8787253
  78.1289277  37.7210574  36.3314247  77.4580467  38.2640276  36.2027312
  78.8229028  38.1905430  36.0895942  78.1318145  37.8708845  36.2769775
  72.1776011  49.8607286  41.5626005  71.9541665  49.1026115  41.9310031
  71.6885854  49.8905307  40.8406445  72.0719460  49.7529511  41.5102746
  78.2917405  34.1766458  39.2404620  78.6445015  33.7496181  39.9150419
  77.4332206  34.0917301  39.3705696  78.2166849  34.1011198  39.3599631
  66.9901090  36.8073978  37.2987467  66.2713079  37.2238110  37.5660330
  67.3613452  37.3728216  36.7479105  66.9393021  36.9523259  37.2570274
  76.2900671  37.4401826  43.1889462  76.2698598  37.2585122  44.0424241
  76.3379871  38.3113845  43.1649046  76.2935312  37.5418365  43.3112757
  74.2347000  44.0289018  49.1137939  74.1942855  43.3838695  48.5283095
  75.0470319  43.9725636  49.4263351  74.3490154  43.9247985  49.0734888
  70.8254468  50.0807744  39.0163090  70.4114867  49.4181875  38.6266931
  71.5101842  50.2285603  38.4958784  70.8652840  50.0048402  38.8819587
  74.1919762  49.2397830  39.7686706  73.7936045  49.3500100  39.0007527
  73.5770982  49.4479896  40.3513266  74.0418651  49.2871398  39.7418006
  72.7647664  35.8471977  32.6360846  72.1712503  36.1688974  32.0845413
  72.8022942  35.0013073  32.4281952  72.6822053  35.7696306  32.5243617
  75.6405481  35.8051482  36.0662596  75.4119174  35.8284183  35.2240954
  75.9003557  34.9808949  36.1857607  75.6451669  35.6867562  35.9587794
  69.9224709  37.6585955  45.6687696  69.4103612  37.0507138  46.0272728
  69.7504205  38.3742548  46.1361672  69.8214346  37.6749254  45.7903920
  64.7690424  36.1023530  48.3190058  64.5993014  36.7624905  47.7738265
  64.3256374  36.3130092  49.0402547  64.6789757  36.2309512  48.3451688
  68.6950243  34.3428028  37.3616792  69.1707609  34.7045108  36.7266973
  68.1938843  34.9984496  37.6416935  68.6915602  34.4922217  37.3093533
  73.7993779  35.5810200  48.1089952  74.3565210  35.3524009  47.4768417
  73.4754844  36.3415865  47.8325164  73.8340190  35.6594036  47.9746449
  71.5176897  38.6677853  49.0741959  72.2688224  38.9829530  49.3881513
  71.7099473  38.4657024  48.2475881  71.6568311  38.6845235  48.9985355
  70.7376896  36.4869228  30.7290176  71.1175861  36.5048857  29.9441291
  69.9969492  36.9323217  30.6081023  70.6845734  36.5551003  30.5953744
  78.3662187  34.7951419  36.3165755  78.3656413  34.6400076  37.1750031
  78.1618367  35.6414406  36.2607140  78.3361965  34.8972040  36.4353694
  76.0903039  39.4748921  39.9701961  76.5856704  38.7571916  39.9305982
  75.2802815  39.1719719  39.8556448  76.0446932  39.3246567  39.9475687
  71.5361650  43.3246734  32.1198966  70.7272973  43.0013408  32.0732275
  72.0436559  42.6179956  32.0527215  71.4911317  43.1728051  32.1029260
  78.1554858  42.2252609  42.6579090  78.5809929  41.7027030  42.1049515
  77.7911778  42.8233446  42.1367713  78.1641460  42.2362836  42.4988100
  67.7908938  50.5216826  41.4176436  68.1055497  51.3353214  41.4254217
  68.2002351  50.1367045  42.0858595  67.8977036  50.5845528  41.5180527
  74.7433457  45.9386873  38.9880248  75.2144635  46.6527135  39.1570233
  75.0793636  45.3385623  39.5240117  74.8628572  45.9558337  39.0912624
  76.8310442  47.5488186  51.1672320  76.9407407  46.7596747  51.5229067
  77.1601338  47.4594122  50.3646658  76.8962848  47.4194039  51.1014711
  71.6602952  30.7114343  45.9438343  71.7930858  29.9145337  46.2719318
  72.0448105  31.2380746  46.5236618  71.7359281  30.6714260  46.0781845
  75.3807404  45.7304807  45.7507940  74.8328350  45.1062691  45.4828006
  75.8420432  45.9199079  45.0352020  75.3674613  45.6663857  45.6058371
  74.7335307  27.6344669  42.5419436  73.9281271  27.5242399  42.8587274
  74.6042043  27.7357125  41.6849302  74.5955440  27.6328340  42.4627476
  78.1901268  33.7990161  43.1359133  77.6064257  34.2999368  42.7236700
  78.5105562  33.2919718  42.5023456  78.1514443  33.7981996  42.9817640
  70.7296067  32.7130756  33.4117807  71.5511761  32.8829069  33.1699502
  70.2665718  32.8678017  32.6884105  70.7827229  32.7612489  33.2689452
  69.3191399  30.7073518  44.1916236  69.8635812  30.3664645  44.7820578
  69.3728335  31.5658980  44.3337521  69.4080518  30.7828778  44.2998110
  74.9465730  46.7355880  42.2817282  75.7664104  46.5918846  42.5433577
  74.6659807  47.3602079  42.8233719  75.0262473  46.8066232  42.4005221
  73.7770005  59.0497779  37.6565426  73.5420190  58.2165431  37.5497695
  73.9155646  59.3302445  36.8426627  73.7625668  58.9681282  37.5207781
  76.0760093  51.2183510  40.5549734  75.4565124  50.6276157  40.3859749
  75.9743956  51.8094945  39.9214057  75.9697768  51.2187592  40.4354723
  75.8029226  54.7635791  42.7993303  75.6787923  55.3498237  43.4343122
  76.4547510  54.2695987  43.1005578  75.8802875  54.7774596  42.9379232
  75.3387330  63.9283450  38.9321632  74.8554908  64.6533939  38.9081216
  76.1510648  64.2259580  39.0431790  75.3878078  64.0785803  38.9448911
  77.9067871  48.7958055  31.1504532  77.7243444  49.0129936  30.3245525
  78.7693484  48.9097068  31.2063147  78.0072460  48.8447953  31.0359019
  77.5182303  60.6345978  38.5927520  78.3571202  60.8668910  38.6401282
  77.5494072  59.7650289  38.5234556  77.6464020  60.5402924  38.5892165
  78.1435006  61.0546853  42.8940826  78.6833231  60.9117984  43.5644198
  77.4604952  61.4543604  43.2624852  78.1227159  61.0926524  43.0475247
  73.5472151  57.2747144  43.0475247  73.2810566  56.4586260  43.2066237
  73.5610715  57.3200299  42.1770763  73.5096873  57.1604048  42.9428729
  77.4529898  52.0732228  29.6627005  76.7388075  51.7870408  30.0749438
  77.9373866  52.4128854  30.3033393  77.4189261  52.0813878  29.8182640
  73.9565564  58.0605923  40.3286991  73.7741138  58.0352809  39.4759284
  74.6915233  58.5304861  40.3675900  74.0379628  58.1267285  40.2084910
  77.0211316  54.7790926  46.8369100  77.7451288  54.7643957  47.3233995
  77.1227453  55.4886281  46.3391068  77.1429525  54.8815629  46.8347887
  73.9236475  54.9399424  40.4786058  74.5009977  54.8035874  41.1178303
  73.2250536  54.4835208  40.7331642  73.9057496  54.8521690  40.6108348
  69.3995308  53.7911317  37.1933877  69.4855560  53.4143185  37.9747407
  70.0271105  53.4171762  36.7153835  69.5051859  53.6796799  37.2379354
  74.9871267  62.5603050  41.2465237  75.0275412  62.8317901  40.4185017
  75.5465791  63.0844958  41.6623025  75.0754612  62.6778805  41.1857125
  76.4385853  61.1444999  36.0719163  75.6123970  61.3906736  35.9453442
  76.4997844  61.0657079  36.9381221  76.3260020  61.1689948  36.1808108
  76.5829229  50.6872199  34.4731480  76.2954024  50.3173469  33.7363427
  77.2699697  51.1567054  34.2115185  76.6418126  50.7019168  34.3246555
  77.0690517  56.9583219  45.0253024  77.5811614  57.2367473  44.3761784
  76.7826860  57.6972514  45.3915837  77.1025380  57.1085573  44.9842902
  74.1557423  51.4653411  35.3216761  74.2573560  52.2679573  35.6497736
  74.9513310  51.2640747  35.0239841  74.2885329  51.5539310  35.3252116
  74.9721155  51.5800590  43.0637882  74.8306647  50.7284530  43.1882390
  75.2561719  51.6229250  42.2400088  74.9929001  51.4600340  42.9605506
  75.7411461  49.4930937  46.3815333  75.2053650  48.8811295  46.6976100
  75.8029225  50.0679073  47.0348999  75.6707093  49.4877865  46.5250759
  77.8600216  56.9011671  36.1935387  78.0164836  56.8358474  37.0491379
  78.2000810  57.6760224  35.9814067  77.9333451  57.0060869  36.2889981
  74.4334478  54.0846622  36.5096154  74.8133443  54.5031167  35.8456422
  73.8589843  54.6660077  36.8164998  74.4045803  54.2324481  36.4572895
  78.0765279  55.6507026  41.1411649  77.2353286  55.5510901  41.3490543
  78.2855287  56.4202507  41.4925970  77.9829972  55.7499070  41.2238964
  75.5540846  53.2726563  38.9696400  75.1597544  53.3469575  38.1946509
  74.9980963  53.6584510  39.5204761  75.4143659  53.3408338  38.9364059
  77.9674087  58.0450789  42.5603282  77.3762021  58.6860287  42.5306297
  78.7295111  58.4688406  42.5334581  77.9922348  58.2026627  42.5518429
  78.3634710  49.2052787  43.2271299  78.8236192  49.2791716  43.9646423
  78.4090817  50.0034041  42.8771121  78.4385265  49.3346934  43.2844056
  75.1522488  52.8341977  45.6023016  76.0148101  52.7337686  45.5160345
  74.8214271  52.2536687  45.0408588  75.2307684  52.7333604  45.5068421
  78.5124274  51.6584426  42.2633434  77.8877344  51.6702818  41.6559386
  78.1769869  52.1344601  42.9124674  78.3709766  51.7302943  42.2690002
  78.6966023  50.0009545  28.3206119  78.3478827  50.6529270  28.7837668
  78.2162468  49.9866658  27.5929990  78.5736266  50.0952598  28.2817210
  75.2249949  59.7184886  43.7037198  74.6949874  59.0277325  43.7532173
  75.4975043  59.7095072  42.8749907  75.1874672  59.6152018  43.5884614
  77.7815019  53.2677574  44.4808302  77.9408506  52.5120898  44.8860024
  77.6007913  53.8168514  45.1349040  77.7780378  53.2371388  44.6371008
  70.5045792  56.3912650  41.0605546  70.3989241  56.3459495  40.1957630
  69.7546012  56.7366431  41.3419831  70.3781395  56.4353559  40.9742876
  75.6043142  55.6903027  34.4314286  76.1135371  56.2867534  34.8125592
  76.0777414  55.4229001  33.7490706  75.7486517  55.7388842  34.3868809
  77.9633673  52.3259285  37.2987467  77.2445662  52.7423418  37.5660330
  78.3346036  52.8913524  36.7479105  77.9125605  52.4708567  37.2570274
  75.7423007  51.6208838  48.3190058  75.5725598  52.2810213  47.7738265
  75.2988957  51.8315399  49.0402547  75.6522341  51.7494820  48.3451688
  72.6425072  54.5255704  43.5778548  72.0951791  53.8556349  43.6959416
  73.4317450  54.1585552  43.6422015  72.6777256  54.3720690  43.6047249
  71.4012041  53.7376512  40.7324571  71.2233802  53.2853121  41.4579487
  71.1131064  54.5402673  40.9163049  71.3324995  53.7899069  40.8668074
  76.1054541  59.9875242  41.0655044  76.7099399  59.9471077  40.4368865
  75.8981854  60.8346394  41.0959100  76.1643439  60.1063245  40.9771161
  71.3405824  58.9709860  40.9353967  71.2430102  58.1606131  41.2444024
  72.1234693  58.9501653  40.5500235  71.4421960  58.8476950  40.9240830
  56.7505862   8.9166616  22.6990367  55.9988761   8.5382154  22.4706412
  57.1991873   8.9485049  21.9509177  56.7055528   8.8652223  22.5547869
  62.2030821   9.3391985  18.1275914  61.8682190  10.0168907  17.6920136
  62.7157692   8.9497296  17.5392785  62.2296403   9.3816563  17.9762705
  61.7435113  11.2906254  24.0687025  62.1274492  11.8593152  23.5291801
  61.6794254  10.5655764  23.5892841  61.7908540  11.2681717  23.9180888
  58.3290618   8.9285008  24.9653139  58.4300981   8.1185362  25.2750267
  57.7332363   8.8341954  24.3352818  58.2563156   8.7950036  24.9179378
  58.1691357  13.8462597  26.3667995  58.8128813  14.2875761  26.7564154
  58.4947613  13.0416023  26.2798254  58.3123186  13.7927792  26.4113473
  51.5255662   4.9505294  24.5905473  51.2905846   4.1172947  24.4837742
  51.6641303   5.2309960  23.7766674  51.5111324   4.8688798  24.4547828
  58.8711937   6.8574572  21.7387857  59.1927778   7.3979779  21.1349165
  59.5184034   6.2871343  21.8710147  59.0137992   6.8533747  21.6694892
  61.1159315   6.6859929  28.6627753  61.3982558   5.8911335  28.4414509
  61.8445475   7.1640517  28.6832814  61.2648879   6.6394526  28.6330768
  53.0872987   9.8290965  25.8661679  52.6040565  10.5541455  25.8421263
  53.8996305  10.1267095  25.9771837  53.1363734   9.9793319  25.8788958
  59.1587141   8.6223146  28.4711493  58.6414082   8.2630561  27.8672802
  59.8561532   8.0985320  28.4817560  59.1852722   8.4920834  28.3841752
  62.8150733   9.0717960  34.4327667  62.9034079   8.8844100  35.2805877
  63.2440445   8.4255389  34.0332513  62.8912835   8.9480968  34.4999418
  60.3821192   8.3549120  33.4145329  59.8192027   7.9421730  33.9384990
  61.1442216   8.2802025  33.8338472  60.4115641   8.2826520  33.5538329
  55.9417184  10.3447141  26.0181959  56.6437763   9.8299130  26.0754715
  55.8614667  10.6721292  26.8228834  56.0340944  10.3161367  26.1454751
  55.2667959   6.5353493  25.5267567  56.1056859   6.7676426  25.5741329
  55.2979729   5.6657804  25.4574602  55.3949677   6.4410439  25.5232212
  55.8920662   6.9554368  29.8280872  56.4318887   6.8125499  30.4984245
  55.2090609   7.3551119  30.1964899  55.8712816   6.9934039  29.9815294
  62.9270792   8.5026979  37.0971450  63.7111209   8.6157827  37.4627192
  62.7267387   7.6768116  37.2930136  63.0136817   8.3973698  37.1805836
  51.2957807   3.1754659  29.9815294  51.0296223   2.3593776  30.1406284
  51.3096372   3.2207814  29.1110809  51.2582530   3.0611564  29.8768776
  63.0841185  10.4137081  30.7437906  62.2856431  10.1736581  31.0011774
  63.5327197  10.4651474  31.4904953  63.0315797  10.3859472  30.8922830
  51.7051221   3.9613438  27.2627038  51.5226794   3.9360324  26.4099330
  52.4400890   4.4312376  27.3015947  51.7865285   4.0274801  27.1424957
  58.0444281   6.2222228  24.2970980  58.6818228   5.9833976  24.8422774
  58.4699353   6.4259387  23.5624141  58.2020447   6.2173239  24.2688138
  52.7356923   8.4610565  28.1805284  52.7761069   8.7325416  27.3525064
  53.2951447   8.9852473  28.5963072  52.8240269   8.5786320  28.1197172
  60.4265753   6.6994651  25.9764767  60.5004761   6.5369823  26.8306616
  61.2435259   6.8884841  25.7325248  60.5582112   6.7031393  26.0662792
  54.1871510   7.0452514  23.0059210  53.3609627   7.2914251  22.8793489
  54.2483501   6.9664595  23.8721268  54.0745677   7.0697463  23.1148154
  58.9670339   9.6629394  20.7078240  59.2568637   9.2718375  19.9837467
  59.6973819   9.8446099  21.1483515  59.1177223   9.6323208  20.6661047
  56.9076254  11.6396777  23.7738390  56.6876550  11.3494131  24.5665057
  56.6870776  10.9811732  23.2456302  56.8423848  11.4996485  23.8127298
  59.0744210  13.0126167  22.5569082  59.7268268  12.4802609  22.7860108
  58.3769819  12.6594819  22.9436956  59.0674928  12.8815690  22.6481250
  56.0225475   5.3665344  21.9636456  56.7771443   5.7478383  22.1771919
  55.4296087   5.8176488  22.4183153  56.0462188   5.4894172  22.0619335
  57.3423701   6.5373905  27.3376572  56.8204455   6.6774197  28.0228436
  57.7297722   5.7784570  27.5278689  57.3227402   6.4459429  27.4677648
  63.5390706   8.2769365  21.3237140  63.2977382   7.5437225  20.9164205
  63.7192039   8.8256222  20.6703474  63.5298330   8.2491756  21.1667363
  57.9070187  10.2434685  30.4206427  58.0559750   9.6837601  29.7679832
  58.6870189  10.3226687  30.8038946  58.0444280  10.1720251  30.3803376
  60.4323487  10.4149328  31.6990918  60.3567158   9.7458139  32.2541706
  60.3613347  11.1167117  32.2131584  60.4104094  10.4194236  31.8567766
  61.0893734   8.9350327  22.5314524  61.8543625   8.6659971  22.2097188
  60.9871824   8.4500338  23.2484587  61.1875230   8.8239892  22.5894352
  59.8215122  13.8217648  30.1568919  60.3111052  13.1228437  29.9744583
  59.2499354  13.5241518  30.7444976  59.8099652  13.6743872  30.2169960
  60.3151468   7.5694422  19.2808825  60.3844288   6.7108960  19.4201826
  61.0939923   7.7866303  18.9527850  60.4404318   7.4747286  19.2525983
  64.7058955   9.9932123  23.4945319  64.3138747   9.6898838  22.7768185
  64.8612027  10.8301213  23.3050272  64.6712545  10.0715960  23.3601816
  66.0857626   8.1405816  31.0223907  66.8750004   7.7894881  31.1425988
  66.2601224   8.9542205  30.7600541  66.2277907   8.2091673  31.0011775
  57.6985952   6.6945662  32.0321391  57.5906307   6.7047724  32.8983449
  57.9081734   7.5200442  31.8426345  57.7136063   6.8186737  32.1325483
  55.7159744   3.9458304  29.4943329  55.1247677   4.5867802  29.4646344
  56.4780768   4.3695921  29.4674628  55.7408005   4.1034143  29.4858476
  65.4749260   9.3967616  26.9275353  65.2768949   9.8858430  26.2331564
  64.8536971   9.6008857  27.5059486  65.3536825   9.4984154  26.9098576
  52.9735606   5.6192402  30.6377245  52.4435531   4.9284841  30.6872220
  53.2460700   5.6102587  29.8089953  52.9360329   5.5159533  30.5224661
  48.2531448   2.2920166  27.9945593  48.1474898   2.2467010  27.1297677
  47.5031668   2.6373946  28.2759878  48.1267051   2.3361074  27.9082923
  61.6551766   6.3475551  31.5909045  61.1476857   6.9011398  32.0349676
  61.3578412   6.4083841  30.7727820  61.5356651   6.4381862  31.5357502
  64.2659546  10.2638809  19.5212989  63.5488856  10.0899671  19.0560226
  64.9166284  10.0291381  18.9888475  64.2561397  10.2034601  19.3742206
  60.8994251  11.2800109  28.4966052  60.6759906  10.5218939  28.8650078
  60.4104095  11.3098131  27.7746492  60.7937700  11.1722334  28.4442793
  59.5472708  11.5000568  25.9503137  59.1333107  10.8374698  25.5606978
  60.2320083  11.6478426  25.4298831  59.5871080  11.4241226  25.8159634
  62.9138002  10.6590653  26.7026753  62.5154286  10.7692923  25.9347573
  62.2989222  10.8672719  27.2853313  62.7636892  10.7064221  26.6758053
  56.5127178  11.9409649  28.3516483  56.8273737  12.7546038  28.3594264
  56.9220591  11.5559868  29.0198642  56.6195276  12.0038352  28.4520574
  63.4651698   7.3579696  25.9220295  63.9362876   8.0719959  26.0910280
  63.8011876   6.7578446  26.4580164  63.5846813   7.3751160  26.0252670
  65.5528682   8.9681009  38.1012367  65.6625648   8.1789570  38.4569114
  65.8819579   8.8786946  37.2986705  65.6181088   8.8386862  38.0354757
  53.8540198   5.8882758  27.9995091  54.4585055   5.8478592  27.3708912
  53.6467511   6.7353910  28.0299147  53.9129095   6.0070760  27.9111207
  63.6683970   8.1548703  29.2157328  64.4882344   8.0111669  29.4773624
  63.3878048   8.7794902  29.7573766  63.7480714   8.2259055  29.3345268
  49.0891480   4.8717375  27.8694014  48.9915758   4.0613647  28.1784071
  49.8720350   4.8509169  27.4840282  49.1907617   4.7484465  27.8580877
  73.3397305  14.8989206  26.9353135  72.4835201  15.0597704  26.9862252
  73.3864959  14.0281270  26.9558196  73.2196417  14.7940007  26.9459201
  67.7238445  24.4351923  22.6990367  66.9721345  24.0567462  22.4706412
  68.1724457  24.4670357  21.9509177  67.6788112  24.3837531  22.5547869
  76.6491022  21.1675731  36.5413591  77.3557789  20.6727762  36.6700526
  76.8378957  21.6084813  35.8116249  76.7818928  21.1594082  36.4522637
  73.1763405  24.8577293  18.1275914  72.8414773  25.5354215  17.6920136
  73.6890275  24.4682604  17.5392785  73.2028986  24.9001871  17.9762705
  72.7167696  26.8091562  24.0687025  73.1007076  27.3778460  23.5291801
  72.6526838  26.0841072  23.5892841  72.7641124  26.7867025  23.9180888
  76.1849126  16.9581250  29.5784787  76.7305086  17.6366336  29.6378756
  76.1266003  16.8168710  28.7186368  76.2565041  17.0373251  29.4596847
  69.3023201  24.4470316  24.9653139  69.4033564  23.6370670  25.2750267
  68.7064947  24.3527262  24.3352818  69.2295740  24.3135344  24.9179378
  77.9614195  18.3865857  20.4518515  77.8453721  19.1373543  20.8810653
  78.7570082  18.1289810  20.7014602  78.0618785  18.4600704  20.5522606
  69.1423941  29.3647905  26.3667995  69.7861396  29.8061069  26.7564154
  69.4680196  28.5601331  26.2798254  69.2855770  29.3113100  26.4113473
  62.4988246  20.4690602  24.5905473  62.2638430  19.6358255  24.4837742
  62.6373886  20.7495268  23.7766674  62.4843908  20.3874106  24.4547828
  64.7978333  12.6376333  27.4889781  64.1783365  12.0468980  27.3199795
  64.6962197  13.2287768  26.8554104  64.6916009  12.6380415  27.3694770
  69.8444521  22.3759880  21.7387857  70.1660362  22.9165087  21.1349165
  70.4916617  21.8056651  21.8710147  69.9870576  22.3719055  21.6694892
  71.8946229  14.3775875  21.8222244  72.5926393  14.5564002  22.3143707
  72.2098561  13.8546214  21.1992633  72.0441566  14.3269647  21.8024254
  64.5247466  16.1828615  29.7333350  64.4006163  16.7691060  30.3683168
  65.1765751  15.6888810  30.0345625  64.6021115  16.1967419  29.8719279
  72.0834164  20.7646320  21.8102035  72.5227800  20.1563420  22.2556808
  71.9338827  20.3853693  21.0387500  72.1255630  20.6184791  21.7621203
  69.5505807  19.3590331  29.0120861  70.1954810  18.8662775  28.6931809
  69.7907584  19.5015118  29.8386939  69.6816392  19.3067774  29.0870394
  72.0891898  22.2045237  28.6627753  72.3715141  21.4096643  28.4414509
  72.8178059  22.6825825  28.6832814  72.2381462  22.1579834  28.6330768
  70.0673092   9.7468271  25.9043518  69.7376422  10.1979415  25.2347217
  69.3918094   9.6684435  26.4516525  69.9183529   9.8019406  25.8866742
  75.6843501  19.1173501  18.7632804  75.5994796  19.9734468  18.9082373
  76.1727884  18.8417825  19.4314964  75.7432398  19.2030822  18.8834886
  76.6161934  15.7358295  20.2630540  76.0873405  15.9517929  20.9227846
  77.1386954  16.4294434  20.1831509  76.6150387  15.8701432  20.3486139
  68.5061542  19.6321512  19.0638007  67.9218757  20.1371543  19.4703871
  68.1031637  19.4063899  18.3234599  68.3600845  19.6729760  19.0143033
  64.0605570  25.3476273  25.8661679  63.5773149  26.0726763  25.8421263
  64.8728889  25.6452403  25.9771837  64.1096318  25.4978627  25.8788958
  70.1319724  24.1408454  28.4711493  69.6146666  23.7815869  27.8672802
  70.8294116  23.6170628  28.4817560  70.1585305  24.0106142  28.3841752
  73.7883316  24.5903268  34.4327667  73.8766662  24.4029408  35.2805877
  74.2173029  23.9440697  34.0332513  73.8645419  24.4666275  34.4999418
  71.3553776  23.8734428  33.4145329  70.7924611  23.4607038  33.9384990
  72.1174800  23.7987333  33.8338472  71.3848225  23.8011828  33.5538329
  66.9149768  25.8632449  26.0181959  67.6170347  25.3484438  26.0754715
  66.8347251  26.1906600  26.8228834  67.0073528  25.8346675  26.1454751
  67.9628674  16.1008036  35.1462374  68.1349178  15.9913930  35.9947655
  68.4998032  16.7462441  34.9093566  68.0673678  16.1800037  35.2367471
  66.6286111  10.2150879  18.0844579  66.4461684  10.4322759  17.2585572
  67.4911724  10.3289891  18.1403193  66.7290700  10.2640777  17.9699066
  66.2400543  22.0538801  25.5267567  67.0789442  22.2861734  25.5741329
  66.2712312  21.1843112  25.4574602  66.3682261  21.9595747  25.5232212
  66.8653246  22.4739676  29.8280872  67.4051471  22.3310807  30.4984245
  66.1823192  22.8736427  30.1964899  66.8445400  22.5119347  29.9815294
  76.2894131  18.1530677  25.0225897  77.0451646  18.5862191  25.0614806
  76.3956455  17.5035446  25.5960533  76.4164301  18.1208161  25.1123922
  73.9003376  24.0212287  37.0971450  74.6843792  24.1343135  37.4627192
  73.6999970  23.1953424  37.2930136  73.9869401  23.9159006  37.1805836
  62.2690391  18.6939967  29.9815294  62.0028806  17.8779084  30.1406284
  62.2828955  18.7393122  29.1110809  62.2315113  18.5796872  29.8768776
  66.1748138  13.4925051  16.5967052  65.4606315  13.2063231  17.0089485
  66.6592107  13.8321677  17.2373440  66.1407501  13.5006701  16.7522687
  67.0188997  12.2318345  32.6282302  66.3260794  11.7615325  32.8743033
  67.6349325  12.0056650  33.2024009  67.0073527  12.1285477  32.7491454
  74.0573769  25.9322389  30.7437906  73.2589015  25.6921889  31.0011774
  74.5059780  25.9836782  31.4904953  74.0048380  25.9044780  30.8922830
  73.3495456  21.9955005  16.9728860  73.7646604  21.6640029  16.2813356
  72.5187386  21.7623907  16.8448997  73.2883465  21.9126261  16.8519708
  62.6783805  19.4798746  27.2627038  62.4959378  19.4545632  26.4099330
  63.4133474  19.9497684  27.3015947  62.7597869  19.5460108  27.1424957
  65.7429556  16.1983749  33.7709147  66.4669529  16.1836780  34.2574042
  65.8445693  16.9079104  33.2731115  65.8647765  16.3008452  33.7687934
  73.1174506  19.6782834  38.6358094  72.3247487  19.9926346  38.8210714
  73.2323433  19.8934302  37.7978879  73.0169916  19.7566670  38.5396429
  75.7905825  16.4016825  22.9253110  75.8852679  17.1406119  23.3792735
  75.1664668  15.9734300  23.3587674  75.7114855  16.4478145  23.0561257
  74.0458299  19.5803037  33.5743391  74.6197160  18.9430282  33.7291955
  73.9673102  19.5807120  32.7053048  74.1191533  19.4868149  33.4689801
  62.6454715  16.3592247  27.4126105  63.2228218  16.2228698  28.0518350
  61.9468777  15.9028031  27.6671689  62.6275736  16.2714513  27.5448394
  69.4022017  18.0126303  25.6264588  69.1441261  17.1798037  25.5995887
  69.4570500  18.2383916  24.7857088  69.3721795  17.9224074  25.4984725
  68.3756729  15.5664065  26.1129483  67.8006321  15.7256233  26.7493444
  67.9992406  14.9299474  25.6497933  68.2359542  15.4961878  26.1384041
  72.0430018  14.0387414  30.9721861  71.6544451  13.6141632  30.3174052
  71.3784716  14.2869564  31.4798888  71.8876946  14.0126135  30.9509729
  58.1213548  15.2104140  24.1273923  58.2073800  14.8336008  24.9087453
  58.7489346  14.8364585  23.6493882  58.2270099  15.0989622  24.1719401
  73.1468956  18.2686019  19.1698668  73.9609595  18.5600912  19.0581440
  73.0828098  17.6145881  18.5956961  73.2571695  18.2151214  19.0687505
  69.0176865  21.7407536  24.2970980  69.6550811  21.5019284  24.8422774
  69.4431936  21.9444695  23.5624141  69.1753031  21.7358547  24.2688138
  63.7089507  23.9795873  28.1805284  63.7493652  24.2510724  27.3525064
  64.2684031  24.5037781  28.5963072  63.7972853  24.0971628  28.1197172
  69.6579680  16.9609826  18.6345870  70.0424832  16.7417533  19.3862415
  69.4091300  17.7872772  18.7646946  69.6781752  17.0507972  18.7646946
  69.8248220  10.2416241  38.3508454  69.5101661  11.0115804  38.0878017
  69.5038153   9.6786497  37.7660681  69.7307139  10.2726510  38.2249804
  71.3998336  22.2179959  25.9764767  71.4737345  22.0555131  26.8306616
  72.2167843  22.4070149  25.7325248  71.5314695  22.2216701  26.0662792
  65.1604093  22.5637822  23.0059210  64.3342211  22.8099559  22.8793489
  65.2216084  22.4849903  23.8721268  65.0478260  22.5882771  23.1148154
  67.3780117   8.6306763  23.9654650  66.5102542   8.7029362  24.0312259
  67.6655321   9.4328842  24.1542625  67.2919865   8.7600910  24.0029417
  69.9402922  25.1814702  20.7078240  70.2301221  24.7903683  19.9837467
  70.6706403  25.3631407  21.1483515  70.0909806  25.1508516  20.6661047
  70.5297667  19.9832448  31.7931370  70.0309361  20.6948216  31.8716259
  71.3397892  20.3033115  31.7549533  70.5753774  20.1359297  31.7987939
  67.8808838  27.1582085  23.7738390  67.6609133  26.8679439  24.5665057
  67.6603360  26.4997040  23.2456302  67.8156432  27.0181793  23.8127298
  66.7925785  19.2455401  26.0394091  66.5039034  18.6192872  26.5739819
  67.6609133  19.1875688  26.1058772  66.8786037  19.1442945  26.1285046
  77.5803683  14.3890184  26.3576073  77.2368449  13.6680520  26.7083323
  77.6796725  14.1804036  25.5154431  77.5445726  14.2514388  26.2847753
  70.0476793  28.5311474  22.5569082  70.7000852  27.9987917  22.7860108
  69.3502402  28.1780127  22.9436956  70.0407511  28.4000997  22.6481250
  66.9958058  20.8850652  21.9636456  67.7504026  21.2663691  22.1771919
  66.4028671  21.3361796  22.4183153  67.0194772  21.0079479  22.0619335
  78.0416712  20.8515888  21.9000061  78.6074744  21.5109098  21.8158604
  77.3944615  21.1965587  22.3716463  78.0295468  20.9997830  21.9572818
  69.4564725  12.8413492  37.0893669  68.6464501  13.1471272  36.9783511
  69.9339412  13.5619075  37.2046253  69.4068204  12.9928094  37.0900740
  68.3156285  22.0559213  27.3376572  67.7937038  22.1959505  28.0228436
  68.7030305  21.2969878  27.5278689  68.2959986  21.9644737  27.4677648
  65.3047469  12.1065022  21.4071526  65.0172265  11.7366293  20.6703474
  65.9917937  12.5759877  21.1455231  65.3636366  12.1211992  21.2586602
  74.5123290  23.7954673  21.3237140  74.2709966  23.0622533  20.9164205
  74.6924623  24.3441530  20.6703474  74.5030914  23.7677064  21.1667363
  69.7422611  19.0863232  22.7358063  69.5465393  19.6937967  22.1418366
  69.9656956  18.3931176  22.2549737  69.7457252  19.0740758  22.5774144
  68.1401141  15.9717970  22.8538931  68.8623792  16.1359128  22.3942737
  67.6609133  16.6927635  22.7478271  68.1764871  16.1016200  22.7704545
  76.0994648  12.3081769  28.2335616  75.2605749  12.3343048  27.9973879
  76.1699015  12.9552505  28.8140963  75.9863042  12.4077895  28.2844733
  65.7908757  18.3776043  31.9593071  66.3029854  18.6560296  31.3101831
  65.5045100  19.1165337  32.3255884  65.8243620  18.5278396  31.9182949
  62.8775664  12.8846235  22.2556807  62.9791800  13.6872396  22.5837783
  63.6731550  12.6833571  21.9579888  63.0103569  12.9732133  22.2592163
  69.3092483  10.4702431  32.0194113  69.1175680  10.4857566  32.8693536
  70.1591079  10.6666106  31.9960767  69.4068205  10.5016783  32.1417407
  63.6939396  12.9993413  29.9977929  63.5524887  12.1477353  30.1222437
  63.9779959  13.0422073  29.1740135  63.7147242  12.8793163  29.8945553
  73.8477988  14.8360503  24.1422417  73.6012702  14.7556254  24.9759206
  74.1763111  14.0513971  23.9484945  73.8599232  14.7086768  24.2369940
  77.7426037  21.5443862  27.9309199  77.6040396  22.2424908  28.4357941
  76.9626035  21.3892519  27.5745380  77.6069264  21.6244029  27.9535473
  76.0804122  17.8440238  34.1831580  76.0752161  16.9720054  34.1874007
  76.7865116  18.0428407  33.7101036  76.1849126  17.7444112  34.1138616
  69.8075015  17.5717222  33.5545400  69.9518391  18.1518430  32.9188510
  70.1550664  17.9493518  34.2595255  69.8802477  17.7137926  33.5644395
  71.9794933  16.7707390  31.3370532  71.2318247  16.9638404  30.9318810
  72.1336458  15.9452610  31.0994653  71.8917360  16.6772501  31.2415938
  68.8802770  25.7619993  30.4206427  69.0292334  25.2022909  29.7679832
  69.6602772  25.8411995  30.8038946  69.0176864  25.6905559  30.3803376
  71.4056071  25.9334636  31.6990918  71.3299742  25.2643447  32.2541706
  71.3345930  26.6352424  32.2131584  71.3836678  25.9379544  31.8567766
  72.2196710  10.6657941  32.2265936  72.6769324  11.3981915  32.3538728
  72.2953038  10.2424406  32.9853192  72.2987680  10.7115179  32.3567012
  64.4629701  10.9123760  33.3155379  63.9271890  10.3004119  33.6316147
  64.5247466  11.4871896  33.9689046  64.3925334  10.9070688  33.4590806
  72.0626318  24.4535635  22.5314524  72.8276209  24.1845279  22.2097188
  71.9604408  23.9685646  23.2484587  72.1607813  24.3425200  22.5894352
  70.0979088  12.6560045  29.0707760  69.3075162  12.4751505  29.3925096
  70.4939710  11.8786997  29.0538054  70.0395964  12.5147506  29.1160308
  75.4822774  20.2902475  26.7967206  74.8067776  20.0587707  27.2980593
  75.4915150  19.6823658  26.1709311  75.3841278  20.1661400  26.7783358
  72.6116918  15.1320304  33.5531259  72.5476059  15.9930260  33.4251395
  72.7514106  14.8152297  32.7526810  72.6232388  15.2120470  33.4159472
  77.4839509  23.1467607  19.0277384  77.5659346  23.9534593  18.7038835
  77.9689251  23.1663566  19.7518157  77.5676666  23.2688270  19.0864282
  71.2936012  17.8252443  27.6947462  70.8698261  18.0256942  26.9586480
  71.1180867  16.9781291  27.8071761  71.2046892  17.7301225  27.6021152
  70.7947705  29.3402956  30.1568919  71.2843636  28.6413745  29.9744583
  70.2231938  29.0426826  30.7444976  70.7832235  29.1929180  30.2169960
  66.5818457  18.3204495  23.1275434  66.7383076  18.2551297  23.9831426
  66.9219050  19.0953047  22.9154114  66.6551692  18.4253693  23.2230028
  73.1197601  17.6962378  21.9968797  73.6613147  17.1932759  22.4607418
  73.4344160  17.6427573  21.1858283  73.2461998  17.6141799  21.9452609
  76.9914709  21.9065025  39.1095710  77.8049574  21.6350174  39.2700842
  76.8309675  21.6072565  38.3055905  77.0884657  21.8219951  39.0141115
  71.2884051  23.0879730  19.2808825  71.3576871  22.2294268  19.4201826
  72.0672506  23.3051611  18.9527850  71.4136901  22.9932594  19.2525983
  74.2686871  12.5898683  32.0491098  74.4828840  11.9509597  31.4954452
  73.6520770  13.0344506  31.6198960  74.2092200  12.5608826  31.9041529
  75.6791539  25.5117431  23.4945319  75.2871330  25.2084146  22.7768185
  75.8344611  26.3486521  23.3050272  75.6445129  25.5901268  23.3601816
  63.1552718  15.5039445  23.4436201  63.5351683  15.9223990  22.7796469
  62.5808083  16.0852901  23.7505045  63.1264043  15.6517304  23.3912942
  76.4325959  14.1987748  32.9874405  75.6202640  13.8913638  33.0687578
  76.8915893  13.7186748  33.5517117  76.3806344  14.0824240  33.0828999
  75.8431213  22.0767420  23.4351349  75.4845868  22.2482063  24.2115382
  75.3569924  22.5380625  22.8779348  75.7189910  22.1706391  23.4676618
  70.6319579  17.7566585  15.9751584  70.9212104  18.5331468  16.2495158
  70.7191378  17.2455317  16.6766083  70.6873835  17.7958504  16.1194081
  73.5279466  15.6047819  37.7703107  73.9979097  16.2289936  38.1570981
  73.5741346  14.9364795  38.3296322  73.6047342  15.5982500  37.9103179
  77.0035953  22.9671316  34.3818550  77.6415673  22.4731511  34.0481006
  76.3610044  22.8948716  33.7970777  77.0030179  22.8830324  34.2460905
  78.7292953  14.8160462  28.9484466  78.3020561  14.7286810  28.1932565
  78.0919006  14.9238237  29.5339310  78.5722560  14.8193122  28.9229907
  77.0590209  23.6591124  31.0223907  77.8482588  23.3080189  31.1425988
  77.2333807  24.4727512  30.7600541  77.2010491  23.7276981  31.0011775
  66.7983520  17.0699850  28.0751696  65.9571526  16.9703724  28.2830590
  67.0073528  17.8395330  28.4266016  66.7048212  17.1691893  28.1579011
  64.2759087  14.6919387  25.9036446  63.8815785  14.7662399  25.1286556
  63.7199204  15.0777333  26.4544808  64.1361899  14.7601161  25.8704106
  70.6100185  14.9981249  27.3249293  70.3063322  14.4437237  27.9259701
  69.9079605  15.1773459  26.8377327  70.4616394  14.9426031  27.3418999
  69.6666282  12.3081769  21.8893995  69.9426016  11.5900681  21.4771563
  70.2664951  12.9066689  21.6815101  69.7959546  12.2902139  21.7974756
  68.6718536  22.2130970  32.0321391  68.5638891  22.2233032  32.8983449
  68.8814317  23.0385750  31.8426345  68.6868647  22.3372044  32.1325483
  66.6892328  19.4643612  29.4943329  66.0980261  20.1053110  29.4646344
  67.4513351  19.8881229  29.4674628  66.7140588  19.6219450  29.4858476
  67.0852950  10.6245610  30.1611346  67.5454432  10.6984539  30.8986470
  67.1309057  11.4226864  29.8111168  67.1603506  10.7539757  30.2184103
  68.7336300  11.2912305  34.7283373  68.3421865  10.6445652  35.1639151
  68.9022163  11.8823740  35.3477629  68.7007211  11.2826573  34.8846079
  76.4481844  24.9152924  26.9275353  76.2501533  25.4043738  26.2331564
  75.8269555  25.1194165  27.5059486  76.3269408  25.0169462  26.9098576
  70.5089822  16.6837820  21.2685597  71.2531867  17.0712097  21.5068547
  70.6550518  15.8395246  21.4326085  70.6400407  16.6168293  21.3279567
  73.4967698  12.2563294  27.1679517  73.0227652  11.7305056  27.6784828
  73.8685834  11.7092767  26.5994378  73.4817587  12.0979290  27.1594664
  63.8740728  14.2534800  32.5363062  64.7366341  14.1530510  32.4500392
  63.5432511  13.6729510  31.9748635  63.9525925  14.1526427  32.4408468
  67.2342514  13.0777249  29.1973481  66.6095584  13.0895641  28.5899433
  66.8988109  13.5537425  29.8464721  67.0928006  13.1495766  29.2030049
  67.4184263  11.4202368  15.2546166  67.0697067  12.0722093  15.7177715
  66.9380709  11.4059481  14.5270037  67.2954507  11.5145422  15.2157257
  63.9468190  21.1377710  30.6377245  63.4168114  20.4470149  30.6872220
  64.2193283  21.1287895  29.8089953  63.9092912  21.0344841  30.5224661
  74.9788280  21.7203412  19.3614927  75.7022479  22.1861525  19.2179501
  74.5388871  21.7877022  18.6112525  75.0203972  21.7987249  19.2299709
  74.1474435  18.5800954  30.6115617  73.5331428  18.0359004  30.9064252
  74.6641720  18.0665191  30.1321433  74.1330098  18.4237363  30.5839845
  73.3870733  19.6505224  28.3459915  72.9598341  19.0254943  27.9125351
  73.3795677  19.3680146  29.1718922  73.3229874  19.5158005  28.4039743
  66.5033260  14.6870397  31.4148349  66.6626746  13.9313721  31.8200071
  66.3226153  15.2361337  32.0689087  66.4998619  14.6564211  31.5711055
  71.7156442  10.5273979  28.5602449  71.7398929   9.9934091  27.8715229
  71.9667916  10.0191288  29.2228040  71.7566361  10.3734883  28.5567094
  59.2264032  17.8105474  27.9945593  59.1207481  17.7652318  27.1297677
  58.4764252  18.1559254  28.2759878  59.0999635  17.8546382  27.9082923
  67.9957764   9.2544797  27.9408193  68.0356136   9.7554004  28.6542901
  67.1707429   9.3455191  27.6714117  67.8797290   9.3426613  28.0058732
  70.1787377  18.8205537  36.0428488  69.3283008  18.9577251  36.1786133
  70.3415505  18.0869315  36.4876190  70.0771241  18.7319638  36.1284087
  69.4172128  15.7705307  30.2382092  68.5864057  15.9379125  30.0317341
  69.3623645  15.3941258  31.0230978  69.2861543  15.7395038  30.3230621
  67.2255911   9.2614200  35.8738503  67.8508614   8.7176333  36.1467935
  66.7706391   8.7809117  35.3046294  67.2504172   9.1103681  35.8300097
  67.7908172  14.0460898  20.7672210  67.9311133  14.5433363  21.4700852
  68.2890704  13.3447193  20.9086424  67.8849253  14.0162877  20.8923789
  67.8208394  14.9128009  18.0964787  68.4553474  15.5088434  18.0314249
  67.9034005  14.6131467  18.9110657  67.9264945  14.9568918  18.2067874
  69.3987377  10.8441985  18.0710229  69.7203218  10.3645067  17.4169491
  69.6614321  11.6541631  17.8801041  69.4853402  10.8931883  17.9465721
  72.6284350  21.8660859  31.5909045  72.1209441  22.4196706  32.0349676
  72.3310996  21.9269149  30.7727820  72.5089235  21.9567170  31.5357502
  64.3261382  17.1095850  21.3654333  64.8353611  17.7060358  21.7465639
  64.7995654  16.8421824  20.6830753  64.4704758  17.1581666  21.3208856
  75.2392130  25.7824117  19.5212989  74.5221440  25.6084979  19.0560226
  75.8898868  25.5476689  18.9888475  75.2293980  25.7219909  19.3742206
  77.8240101  14.6588705  23.2654294  77.1531291  15.2018408  23.1367359
  78.5179851  15.1283561  23.0235988  77.8268969  14.8086977  23.2109821
  71.8726835  26.7985417  28.4966052  71.6492489  26.0404247  28.8650078
  71.3836678  26.8283439  27.7746492  71.7670284  26.6907642  28.4442793
  66.6851914  13.7452109  24.2327513  65.9663903  14.1616241  24.5000377
  67.0564276  14.3106347  23.6819152  66.6343845  13.8901390  24.1910320
  75.9851494  14.3779958  30.1229509  75.9649422  14.1963253  30.9764288
  76.0330695  15.2491976  30.0989093  75.9886135  14.4796496  30.2452804
  73.9297824  20.9667150  36.0477986  73.8893679  20.3216827  35.4623142
  74.7421143  20.9103767  36.3603398  74.0440978  20.8626116  36.0074935
  70.5205292  27.0185876  25.9503137  70.1065690  26.3560006  25.5606978
  71.2052666  27.1663734  25.4298831  70.5603664  26.9426534  25.8159634
  73.8870586  26.1775961  26.7026753  73.4886869  26.2878231  25.9347573
  73.2721806  26.3858027  27.2853313  73.7369475  26.2249529  26.6758053
  72.4598488  12.7850109  19.5700893  71.8663327  13.1067105  19.0185460
  72.4973766  11.9391204  19.3621999  72.3772877  12.7074437  19.4583664
  75.3356305  12.7429613  23.0002643  75.1069998  12.7662315  22.1581001
  75.5954381  11.9187080  23.1197654  75.3402493  12.6245693  22.8927841
  69.6175533  14.5964086  32.6027743  69.1054436  13.9885269  32.9612775
  69.4455029  15.3120679  33.0701719  69.5165170  14.6127385  32.7243967
  64.4641248  13.0401661  35.2530105  64.2943838  13.7003036  34.7078312
  64.0207198  13.2508223  35.9742594  64.3740581  13.1687644  35.2791735
  68.3901067  11.2806159  24.2956839  68.8658433  11.6423239  23.6607020
  67.8889667  11.9362627  24.5756982  68.3866426  11.4300348  24.2433580
  73.4944603  12.5188331  35.0429999  74.0516034  12.2902140  34.4108464
  73.1705668  13.2793996  34.7665211  73.5291014  12.5972167  34.9086496
  61.3643312  15.9448527  30.5118595  60.8170032  15.2749173  30.6299463
  62.1535690  15.5778375  30.5762062  61.3995496  15.7913513  30.5387296
  71.2127721  15.6055984  36.0082006  71.9639048  15.9207661  36.3221560
  71.4050297  15.4035155  35.1815928  71.3519135  15.6223366  35.9325402
  70.4327720  13.4247359  17.6630223  70.8126685  13.4426988  16.8781338
  69.6920316  13.8701348  17.5421070  70.3796558  13.4929134  17.5293791
  60.1230282  15.1569335  27.6664618  59.9452043  14.7045944  28.3919534
  59.8349304  15.9595496  27.8503096  60.0543235  15.2091893  27.8008121
  75.7853863  16.4127052  26.9042008  76.2807528  15.6950047  26.8646029
  74.9753639  16.1097850  26.7896495  75.7397756  16.2624698  26.8815734
  71.2312474  20.2624865  19.0539013  70.4223797  19.9391539  19.0072322
  71.7387383  19.5558088  18.9867261  71.1862141  20.1106182  19.0369307
  61.8602752  17.6897059  24.7786377  60.9948271  17.6782749  24.6669148
  61.9601567  17.5027281  25.6257516  61.7476919  17.6603120  24.8875321
  77.8505682  19.1630740  29.5919137  78.2760753  18.6405162  29.0389562
  77.4862602  19.7611577  29.0707760  77.8592284  19.1740967  29.4328147
  67.4859762  27.4594957  28.3516483  67.8006320  28.2731346  28.3594264
  67.8953175  27.0745176  29.0198642  67.5927859  27.5223660  28.4520574
  74.4384281  22.8765004  25.9220295  74.9095459  23.5905267  26.0910280
  74.7744460  22.2763754  26.4580164  74.5579396  22.8936468  26.0252670
  76.5261266  24.4866317  38.1012367  76.6358231  23.6974878  38.4569114
  76.8552162  24.3972254  37.2986705  76.5913672  24.3572170  38.0354757
  75.0758227  22.6682938  32.6847987  74.5279173  22.0440822  32.4168052
  75.5371256  22.8577210  31.9692067  75.0625437  22.6041988  32.5398418
  70.4246891   9.6508887  20.3457854  71.2462585   9.8207200  20.1039549
  69.9616542   9.8056148  19.6224152  70.4778053   9.6990620  20.2029499
  64.8272782  21.4068066  27.9995091  65.4317639  21.3663900  27.3708912
  64.6200094  22.2539218  28.0299147  64.8861679  21.5256068  27.9111207
  74.6416554  23.6734011  29.2157328  75.4614928  23.5296977  29.4773624
  74.3610631  24.2980210  29.7573766  74.7213297  23.7444363  29.3345268
  60.0624064  20.3902683  27.8694014  59.9648342  19.5798955  28.1784071
  60.8452934  20.3694477  27.4840282  60.1640200  20.2669773  27.8580877
  73.4720829  35.9875910  24.5905473  73.2371014  35.1543562  24.4837742
  73.6106470  36.2680576  23.7766674  73.4576492  35.9059414  24.4547828
  75.7710917  28.1561641  27.4889781  75.1515948  27.5654288  27.3199795
  75.6694780  28.7473076  26.8554104  75.6648592  28.1565723  27.3694770
  75.4980050  31.7013922  29.7333350  75.3738747  32.2876368  30.3683168
  76.1498334  31.2074118  30.0345625  75.5753699  31.7152727  29.8719279
  75.0338154  40.8661581  25.8661679  74.5505732  41.5912071  25.8421263
  75.8461472  41.1637711  25.9771837  75.0828902  41.0163935  25.8788958
  77.8882351  41.3817757  26.0181959  78.5902930  40.8669746  26.0754715
  77.8079834  41.7091908  26.8228834  77.9806112  41.3531983  26.1454751
  77.6018695  25.7336187  18.0844579  77.4194268  25.9508067  17.2585572
  78.4644308  25.8475199  18.1403193  77.7023284  25.7826084  17.9699066
  77.2133127  37.5724109  25.5267567  78.0522026  37.8047042  25.5741329
  77.2444896  36.7028420  25.4574602  77.3414844  37.4781055  25.5232212
  77.8385830  37.9924984  29.8280872  78.3784055  37.8496115  30.4984245
  77.1555776  38.3921735  30.1964899  77.8177983  38.0304655  29.9815294
  73.2422975  34.2125275  29.9815294  72.9761390  33.3964391  30.1406284
  73.2561539  34.2578430  29.1110809  73.2047697  34.0982180  29.8768776
  77.1480722  29.0110359  16.5967052  76.4338899  28.7248539  17.0089485
  77.6324690  29.3506985  17.2373440  77.1140085  29.0192009  16.7522687
  77.9921581  27.7503653  32.6282302  77.2993378  27.2800633  32.8743033
  78.6081908  27.5241958  33.2024009  77.9806111  27.6470785  32.7491454
  73.6516388  34.9984054  27.2627038  73.4691961  34.9730940  26.4099330
  74.3866057  35.4682992  27.3015947  73.7330452  35.0645416  27.1424957
  76.7162140  31.7169057  33.7709147  77.4402112  31.7022088  34.2574042
  76.8178276  32.4264412  33.2731115  76.8380349  31.8193760  33.7687934
  73.6187299  31.8777555  27.4126105  74.1960801  31.7414006  28.0518350
  72.9201360  31.4213339  27.6671689  73.6008320  31.7899821  27.5448394
  69.0946132  30.7289448  24.1273923  69.1806384  30.3521316  24.9087453
  69.7221929  30.3549893  23.6493882  69.2002683  30.6174930  24.1719401
  74.6822090  39.4981181  28.1805284  74.7226236  39.7696032  27.3525064
  75.2416615  40.0223089  28.5963072  74.7705436  39.6156936  28.1197172
  76.1336677  38.0823130  23.0059210  75.3074794  38.3284867  22.8793489
  76.1948668  38.0035211  23.8721268  76.0210844  38.1068079  23.1148154
  78.3512700  24.1492071  23.9654650  77.4835126  24.2214670  24.0312259
  78.6387905  24.9514150  24.1542625  78.2652449  24.2786218  24.0029417
  78.8541421  42.6767392  23.7738390  78.6341717  42.3864747  24.5665057
  78.6335943  42.0182347  23.2456302  78.7889016  42.5367101  23.8127298
  77.7658369  34.7640709  26.0394091  77.4771617  34.1378180  26.5739819
  78.6341717  34.7060996  26.1058772  77.8518620  34.6628253  26.1285046
  77.9690642  36.4035960  21.9636456  78.7236610  36.7848999  22.1771919
  77.3761255  36.8547104  22.4183153  77.9927356  36.5264787  22.0619335
  76.2780053  27.6250330  21.4071526  75.9904848  27.2551601  20.6703474
  76.9650521  28.0945185  21.1455231  76.3368950  27.6397299  21.2586602
  76.7641341  33.8961351  31.9593071  77.2762438  34.1745604  31.3101831
  76.4777683  34.6350645  32.3255884  76.7976204  34.0463704  31.9182949
  73.8508247  28.4031543  22.2556807  73.9524384  29.2057704  22.5837783
  74.6464134  28.2018878  21.9579888  73.9836153  28.4917441  22.2592163
  74.6671979  28.5178721  29.9977929  74.5257471  27.6662661  30.1222437
  74.9512543  28.5607381  29.1740135  74.6879825  28.3978471  29.8945553
  75.4362285  26.4309068  33.3155379  74.9004474  25.8189427  33.6316147
  75.4980049  27.0057204  33.9689046  75.3657917  26.4255996  33.4590806
  77.5551040  33.8389802  23.1275434  77.7115660  33.7736605  23.9831426
  77.8951633  34.6138355  22.9154114  77.6284275  33.9439001  23.2230028
  74.1285302  31.0224753  23.4436201  74.5084267  31.4409298  22.7796469
  73.5540667  31.6038209  23.7505045  74.0996627  31.1702612  23.3912942
  77.7716103  32.5885158  28.0751696  76.9304110  32.4889032  28.2830590
  77.9806111  33.3580638  28.4266016  77.6780796  32.6877201  28.1579011
  75.2491670  30.2104695  25.9036446  74.8548368  30.2847706  25.1286556
  74.6931787  30.5962641  26.4544808  75.1094483  30.2786469  25.8704106
  77.6624911  34.9828920  29.4943329  77.0712845  35.6238418  29.4646344
  78.4245935  35.4066537  29.4674628  77.6873172  35.1404758  29.4858476
  78.0585534  26.1430918  30.1611346  78.5187016  26.2169847  30.8986470
  78.1041641  26.9412172  29.8111168  78.1336089  26.2725065  30.2184103
  74.8473312  29.7720108  32.5363062  75.7098925  29.6715818  32.4500392
  74.5165095  29.1914818  31.9748635  74.9258508  29.6711735  32.4408468
  78.2075098  28.5962557  29.1973481  77.5828168  28.6080949  28.5899433
  77.8720693  29.0722733  29.8464721  78.0660590  28.6681074  29.2030049
  78.3916847  26.9387676  15.2546166  78.0429651  27.5907401  15.7177715
  77.9113292  26.9244789  14.5270037  78.2687090  27.0330729  15.2157257
  74.9200773  36.6563018  30.6377245  74.3900698  35.9655456  30.6872220
  75.1925867  36.6473203  29.8089953  74.8825496  36.5530149  30.5224661
  77.4765843  30.2055705  31.4148349  77.6359330  29.4499029  31.8200071
  77.2958737  30.7546645  32.0689087  77.4731202  30.1749519  31.5711055
  70.1996616  33.3290782  27.9945593  70.0940065  33.2837626  27.1297677
  69.4496836  33.6744562  28.2759878  70.0732219  33.3731690  27.9082923
  78.1988495  24.7799508  35.8738503  78.8241198  24.2361640  36.1467935
  77.7438975  24.2994425  35.3046294  78.2236755  24.6288989  35.8300097
  75.2993966  32.6281158  21.3654333  75.8086195  33.2245666  21.7465639
  75.7728238  32.3607132  20.6830753  75.4437341  32.6766974  21.3208856
  77.6584497  29.2637417  24.2327513  76.9396486  29.6801549  24.5000377
  78.0296860  29.8291655  23.6819152  77.6076429  29.4086698  24.1910320
  75.4373831  28.5586969  35.2530105  75.2676422  29.2188344  34.7078312
  74.9939781  28.7693531  35.9742594  75.3473165  28.6872952  35.2791735
  72.3375896  31.4633835  30.5118595  71.7902615  30.7934481  30.6299463
  73.1268274  31.0963683  30.5762062  72.3728079  31.3098821  30.5387296
  71.0962865  30.6754643  27.6664618  70.9184626  30.2231252  28.3919534
  70.8081887  31.4780804  27.8503096  71.0275818  30.7277201  27.8008121
  75.8005365  36.9253374  27.9995091  76.4050223  36.8849208  27.3708912
  75.5932678  37.7724526  28.0299147  75.8594263  37.0441376  27.9111207
  71.0356648  35.9087991  27.8694014  70.9380926  35.0984263  28.1784071
  71.8185517  35.8879784  27.4840282  71.1372784  35.7855081  27.8580877
   4.6282597  22.6504585  61.1045425   4.5976601  23.5049221  61.2763694
   5.2263946  22.3499877  61.6631568   4.7119755  22.7321081  61.2120227
   2.4499172  25.2256887  59.3763735   2.3338697  25.9764573  59.8055873
   3.2455058  24.9680840  59.6259822   2.5503761  25.2991733  59.4767826
   1.1046910  22.5749325  59.1875760   0.5758382  22.7908959  59.8473066
   1.6271930  23.2685463  59.1076729   1.1035363  22.7092462  59.2731359
   6.5594963  28.1495629  64.5608804   5.7292666  28.3606273  64.7242221
   6.5104215  27.3232684  64.2851088   6.4301699  28.0585236  64.5446169
   3.8159278  28.8194984  64.6973520   3.3794510  28.8231726  65.4532491
   3.4822194  29.5000483  64.2653097   3.7021898  28.9207440  64.7454352
   6.9503625  25.5375904  63.5893157   7.6120059  24.9766572  63.4889065
   6.3095037  25.0427935  63.9145848   6.9532492  25.3812313  63.6225497
   3.2368455  26.5541286  63.3305146   3.4724044  26.6986485  62.5031996
   3.3858019  27.3183694  63.7236659   3.2934259  26.6880341  63.2668750
   5.0658912  25.3942952  61.1674750   5.3967129  25.9270592  60.5614844
   5.6392000  25.4481840  61.8236701   5.1992591  25.4812521  61.1752531
   2.5301688  27.6906918  60.8245281   3.0959721  28.3500128  60.7403824
   1.8829592  28.0356617  61.2961683   2.5180445  27.8388860  60.8818038
   3.7264386  27.7413146  57.6170918   3.3471195  26.9550284  57.6100207
   3.0630632  28.2900003  57.4742562   3.5722861  27.7057970  57.5951715
   1.9724485  29.9858637  57.9522604   2.0544322  30.7925623  57.6284055
   2.4574227  30.0054596  58.6763377   2.0561643  30.1079300  58.0109502
   6.1097405  27.5918957  59.0115064   6.4931011  28.3410314  59.2413161
   5.3141518  27.8384777  58.7527053   6.0491187  27.7388651  59.0072637
  15.6015181  38.1689892  61.1045425  15.5709185  39.0234529  61.2763694
  16.1996529  37.8685185  61.6631568  15.6852338  38.2506389  61.2120227
   8.8014865  37.2565543  65.8598355   7.9452761  37.4174042  65.9107472
   8.8482519  36.3857607  65.8803416   8.6813977  37.1516345  65.8704421
   3.1856005  46.7928261  61.6235587   2.4338905  46.4143800  61.3951632
   3.6342017  46.8246695  60.8754397   3.1405672  46.7413868  61.4793089
  12.1108582  43.5252069  75.4658811  12.8175349  43.0304100  75.5945746
  12.2996517  43.9661151  74.7361469  12.2436488  43.5170419  75.3767857
   8.6380965  47.2153631  57.0521134   8.3032333  47.8930552  56.6165356
   9.1507835  46.8258942  56.4638005   8.6646546  47.2578209  56.9007925
   8.1785256  49.1667900  62.9932245   8.5624636  49.7354798  62.4537021
   8.1144398  48.4417410  62.5138061   8.2258684  49.1443363  62.8426108
  11.6466686  39.3157587  68.5030007  12.1922646  39.9942674  68.5623976
  11.5883563  39.1745048  67.6431588  11.7182601  39.3949589  68.3842067
   4.7640761  46.8046654  63.8898359   4.8651124  45.9947007  64.1995487
   4.1682507  46.7103600  63.2598038   4.6913300  46.6711682  63.8424598
  13.4231755  40.7442194  59.3763735  13.3071281  41.4949881  59.8055873
  14.2187642  40.4866148  59.6259822  13.5236345  40.8177041  59.4767826
   4.6041501  51.7224243  65.2913215   5.2478956  52.1637407  65.6809374
   4.9297756  50.9177669  65.2043474   4.7473330  51.6689437  65.3358693
   5.3062081  44.7336218  60.6633077   5.6277922  45.2741425  60.0594385
   5.9534177  44.1632989  60.7955367   5.4488136  44.7295393  60.5940112
   7.3563789  36.7352212  60.7467464   8.0543953  36.9140340  61.2388927
   7.6716121  36.2122552  60.1237853   7.5059126  36.6845985  60.7269474
   7.5451724  43.1222657  60.7347255   7.9845360  42.5139758  61.1802028
   7.3956387  42.7430031  59.9632720   7.5873190  42.9761129  60.6866423
   5.0123367  41.7166669  67.9366081   5.6572370  41.2239112  67.6177029
   5.2525144  41.8591456  68.7632159   5.1433952  41.6644112  68.0115614
   7.5509458  44.5621575  67.5872973   7.8332701  43.7672981  67.3659729
   8.2795619  45.0402163  67.6078034   7.6999022  44.5156172  67.5575988
   5.5290652  32.1044609  64.8288738   5.1993982  32.5555753  64.1592437
   4.8535654  32.0260772  65.3761745   5.3801089  32.1595744  64.8111962
  11.1461061  41.4749839  57.6878024  11.0612356  42.3310805  57.8327593
  11.6345444  41.1994163  58.3560184  11.2049958  41.5607160  57.8080106
  12.7367060  28.0930132  63.0738349  12.4220501  28.7833611  63.5058771
  12.2194002  28.0374914  62.3723850  12.6131530  28.1865021  63.0335298
  12.0779494  38.0934633  59.1875760  11.5490965  38.3094266  59.8473066
  12.6004514  38.7870771  59.1076729  12.0767947  38.2277770  59.2731359
  17.5327547  43.6680937  64.5608804  16.7025250  43.8791581  64.7242221
  17.4836799  42.8417992  64.2851088  17.4034282  43.5770544  64.5446169
   3.9679102  41.9897850  57.9883227   3.3836317  42.4947881  58.3949091
   3.5649197  41.7640237  57.2479819   3.8218405  42.0306098  57.9388253
   5.5937284  46.4984792  67.3956714   5.0764226  46.1392207  66.7918022
   6.2911676  45.9746966  67.4062780   5.6202865  46.3682480  67.3086972
   9.2500876  46.9479606  73.3572887   9.3384222  46.7605746  74.2051097
   9.6790589  46.3017035  72.9577733   9.3262979  46.8242613  73.4244638
   8.4256316  38.2363502  56.4652148   8.6652320  38.4441486  55.6527491
   8.7472157  37.4321010  56.5741093   8.5093474  38.1477603  56.3612701
   3.7346606  30.1656898  60.3111686   4.4892574  30.5335215  60.0728736
   3.5574141  30.5396452  61.0790866   3.8201085  30.2755085  60.3896575
   2.3767328  48.2208787  64.9427179   3.0787907  47.7060776  64.9999935
   2.2964811  48.5482938  65.7474054   2.4691088  48.1923013  65.0699971
  17.0281505  36.3151338  68.3559225  16.1909926  36.3853525  68.5906820
  16.9969736  36.3175833  67.4833528  16.8999787  36.3261565  68.2618773
   2.0903671  32.5727217  57.0089799   1.9079244  32.7899097  56.1830792
   2.9529284  32.6866229  57.0648413   2.1908260  32.6217114  56.8944286
   1.7018103  44.4115139  64.4512787   2.5407002  44.6438072  64.4986549
   1.7329872  43.5419450  64.3819822   1.8299821  44.3172085  64.4477432
   2.3270806  44.8316014  68.7526092   2.8669031  44.6887145  69.4229465
   1.6440752  45.2312765  69.1210119   2.3062960  44.8695685  68.9060514
   7.7703390  29.5753627  60.0438823   8.4989551  29.3969582  59.5976979
   7.8598283  30.4171707  60.2546001   7.8910052  29.6737506  60.0092340
  11.7511691  40.5107015  63.9471117  12.5069206  40.9438529  63.9860026
  11.8574015  39.8611784  64.5205753  11.8781861  40.4784498  64.0369142
  14.7891862  44.3380292  64.6973520  14.3527094  44.3417034  65.4532491
  14.4554777  45.0185791  64.2653097  14.6754482  44.4392748  64.7454352
  14.7089345  31.3794120  66.9402948  15.3515253  31.4492224  67.5264863
  14.9612366  30.7123343  66.4382490  14.8411477  31.2920468  66.9530227
   1.6365698  35.8501389  55.5212272   0.9223875  35.5639569  55.9334705
   2.1209667  36.1898015  56.1618660   1.6025061  35.8583039  55.6767907
   9.5191329  48.2898727  69.6683126   8.7206575  48.0498227  69.9256994
   9.9677340  48.3413120  70.4150173   9.4665940  48.2621118  69.8168050
  17.9236208  41.0561212  63.5893157  18.5852642  40.4951880  63.4889065
  17.2827620  40.5613242  63.9145848  17.9265076  40.8997621  63.6225497
   8.8113016  44.3531343  55.8974080   9.2264164  44.0216367  55.2058576
   7.9804946  44.1200245  55.7694217   8.7501025  44.2702599  55.7764928
  14.2101039  42.0726594  63.3305146  14.4456628  42.2171793  62.5031996
  14.3590603  42.8369002  63.7236659  14.2666842  42.2065649  63.2668750
  16.0391496  40.9128260  61.1674750  16.3699713  41.4455900  60.5614844
  16.6124584  40.9667148  61.8236701  16.1725175  40.9997829  61.1752531
  11.2523385  38.7593163  61.8498330  11.3470239  39.4982457  62.3037955
  10.6282228  38.3310638  62.2832894  11.1732415  38.8054483  61.9806477
   9.5075859  41.9379375  72.4988611  10.0814720  41.3006620  72.6537175
   9.4290662  41.9383458  71.6298268   9.5809093  41.8444487  72.3935021
  11.5046406  40.6041903  55.0835282  11.4226569  40.6744090  55.9490269
  12.1426127  41.1671646  54.8919022  11.5866243  40.6980874  55.1825231
   4.8639577  40.3702640  64.5509808   4.6058822  39.5374375  64.5241108
   4.9188060  40.5960253  63.7102308   4.8339355  40.2800412  64.4229945
   9.9440627  32.4731091  64.6513901   9.2396954  31.9840277  64.8097820
   9.9925602  32.4853566  63.7802345   9.8470679  32.4020739  64.5453241
   3.8374289  37.9240403  65.0374703   3.2623881  38.0832571  65.6738664
   3.4609966  37.2875812  64.5743153   3.6977102  37.8538216  65.0629261
   7.5047578  36.3963752  69.8967081   7.1162011  35.9717970  69.2419272
   6.8402276  36.6445902  70.4044108   7.3494506  36.3702473  69.8754949
  17.1470847  36.1538757  62.6714911  16.8907412  35.3418698  62.4812794
  17.9900161  36.1616324  62.4445099  17.2336873  36.0350754  62.6099728
  11.3273940  30.0938381  67.4091065  11.7084451  29.4116552  67.7958940
  10.5237224  29.8047983  67.2266730  11.2650401  29.9505430  67.4395121
   8.6086516  40.6262357  58.0943888   9.4227155  40.9177250  57.9826660
   8.5445658  39.9722219  57.5202181   8.7189255  40.5727552  57.9932726
  14.8296006  43.3088353  72.5073464  14.5934644  42.4776418  72.3885524
  15.4739235  43.2573960  73.0928308  14.8890677  43.1786041  72.5759357
   4.4794425  44.0983874  63.2216200   5.1168371  43.8595622  63.7667994
   4.9049496  44.3021033  62.4869361   4.6370591  44.0934884  63.1933358
   5.1197240  39.3186164  57.5591090   5.5042392  39.0993871  58.3107635
   4.8708860  40.1449109  57.6892166   5.1399312  39.4084310  57.6892166
  15.8532427  43.0932802  68.5701758  15.5478244  43.8260859  68.9315074
  15.1338643  42.6870731  68.2894544  15.7019769  43.1414535  68.5814895
   6.8615896  44.5756297  64.9009987   6.9354905  44.4131469  65.7551836
   7.6785403  44.7646486  64.6570468   6.9932255  44.5793039  64.9908012
  21.5534219  39.7325802  67.8970103  21.4858719  39.7521762  67.0272689
  21.5389882  40.5756130  68.1225773  21.5412976  39.8599537  67.8022579
   2.8397677  30.9883101  62.8899870   1.9720102  31.0605700  62.9557479
   3.1272881  31.7905180  63.0787845   2.7537425  31.1177248  62.9274637
  11.9630566  31.1360960  71.2211192  12.7084158  30.9470771  70.8074617
  11.5467870  31.6619198  70.6625048  12.0115540  31.1863106  71.0775765
   5.4020482  47.5391040  59.6323460   5.6918781  47.1480021  58.9082687
   6.1323963  47.7207745  60.0728735   5.5527366  47.5084854  59.5906267
  19.3392837  38.5070189  66.1716697  19.8900758  37.8738258  66.4113789
  19.3236952  39.0385581  66.8632201  19.4178033  38.4919137  66.3095555
   5.9915227  42.3408786  70.7176590   5.4926921  43.0524554  70.7961479
   6.8015452  42.6609452  70.6794753   6.0371334  42.4935634  70.7233159
   3.3426398  49.5158422  62.6983610   3.1226693  49.2255777  63.4910277
   3.1220920  48.8573377  62.1701522   3.2773992  49.3758131  62.7372518
   2.2543345  41.6031739  64.9639311   1.9656594  40.9769210  65.4985039
   3.1226693  41.5452026  65.0303992   2.3403597  41.5019283  65.0530266
  13.0421243  36.7466522  65.2821293  12.6986009  36.0256857  65.6328543
  13.1414285  36.5380373  64.4399651  13.0063286  36.6090726  65.2092973
   5.5094354  50.8887812  61.4814302   6.1618412  50.3564255  61.7105328
   4.8119962  50.5356465  61.8682176   5.5025071  50.7577335  61.5726470
   2.4575618  43.2426990  60.8881676   3.2121586  43.6240029  61.1017139
   1.8646231  43.6938134  61.3428373   2.4812332  43.3655817  60.9864555
  13.5034272  43.2092226  60.8245281  14.0692304  43.8685436  60.7403824
  12.8562175  43.5541924  61.2961683  13.4913028  43.3574168  60.8818038
   3.7773845  44.4135551  66.2621792   3.2554598  44.5535843  66.9473656
   4.1647865  43.6546216  66.4523909   3.7577546  44.3221075  66.3922868
   9.9740850  46.1531011  60.2482361   9.7327526  45.4198871  59.8409425
  10.1542183  46.7017868  59.5948694   9.9648474  46.1253402  60.0912583
   5.2040171  41.4439570  61.6603283   5.0082953  42.0514305  61.0663586
   5.4274516  40.7507514  61.1794957   5.2074812  41.4317096  61.5019364
   3.6018701  38.3294308  61.7784151   4.3241352  38.4935466  61.3187957
   3.1226693  39.0503973  61.6723491   3.6382431  38.4592538  61.6949765
  11.5612208  34.6658107  67.1580836  10.7223309  34.6919386  66.9219099
  11.6316575  35.3128842  67.7386183  11.4480602  34.7654233  67.2089953
  10.0081486  31.5643484  61.8908452  10.7107839  31.3651232  61.4128410
   9.7425675  30.7919426  62.1977295  10.0728119  31.4206450  61.8653894
  15.4369732  39.8726094  64.4442078  15.3503707  40.0281520  65.2976857
  14.9820212  40.5164169  64.0701483  15.3572989  39.9901849  64.5149185
   9.3095548  37.1936841  63.0667637   9.0630262  37.1132592  63.9004426
   9.6380671  36.4090309  62.8730165   9.3216792  37.0663106  63.1615160
  13.2043597  43.9020200  66.8554419  13.0657956  44.6001246  67.3603161
  12.4243595  43.7468857  66.4990600  13.0686824  43.9820367  66.8780693
  11.5421682  40.2016576  73.1076800  11.5369721  39.3296392  73.1119227
  12.2482676  40.4004745  72.6346256  11.6466686  40.1020450  73.0383836
   5.2692575  39.9293559  72.4790620   5.4135951  40.5094768  71.8433730
   5.6168224  40.3069856  73.1840475   5.3420037  40.0714264  72.4889615
   7.4412493  39.1283728  70.2615752   6.6935807  39.3214742  69.8564030
   7.5954018  38.3028947  70.0239873   7.3534920  39.0348839  70.1661158
   4.3420330  48.1196331  69.3451647   4.4909894  47.5599247  68.6925052
   5.1220332  48.1988333  69.7284166   4.4794424  48.0481897  69.3048596
  14.6996970  43.2598454  57.6170918  14.3203778  42.4735592  57.6100207
  14.0363215  43.8085311  57.4742562  14.5455445  43.2243278  57.5951715
   6.8673631  48.2910974  70.6236138   6.7917302  47.6219785  71.1786926
   6.7963490  48.9928762  71.1376804   6.8454238  48.2955882  70.7812986
  12.1541596  26.2024154  65.0204999  12.2725164  26.6600617  64.2872301
  11.9803771  25.3969415  64.7341216  12.1460767  26.1517926  64.8705932
   7.5243878  46.8111973  61.4559744   8.2893769  46.5421617  61.1342408
   7.4221968  46.3261983  62.1729807   7.6225373  46.7001538  61.5139572
   5.5596648  35.0136383  67.9952980   4.7692722  34.8327843  68.3170316
   5.9557270  34.2363335  67.9783274   5.5013524  34.8723843  68.0405528
  10.0462538  43.8424157  53.4359693  10.8135524  43.9024282  53.0265545
   9.5993847  43.2704598  52.9516012  10.0935966  43.7660733  53.3037404
  10.9440334  42.6478813  65.7212426  10.2685336  42.4164045  66.2225813
  10.9532710  42.0399996  65.0954531  10.8458838  42.5237738  65.7028578
   8.0734478  37.4896642  72.4776479   8.0093619  38.3506598  72.3496615
   8.2131666  37.1728635  71.6772030   8.0849948  37.5696808  72.3404692
  12.9457069  45.5043945  57.9522604  13.0276906  46.3110931  57.6284055
  13.4306811  45.5239904  58.6763377  13.0294226  45.6264607  58.0109502
   6.7553572  40.1828781  66.6192682   6.3315821  40.3833280  65.8831700
   6.5798427  39.3357629  66.7316981   6.6664452  40.0877562  66.5266372
   2.0436017  40.6780832  62.0520654   2.2000636  40.6127635  62.9076646
   2.3836610  41.4529385  61.8399334   2.1169252  40.7830031  62.1475248
   8.5815161  40.0538716  60.9214017   9.1230707  39.5509097  61.3852638
   8.8961720  40.0003911  60.1103503   8.7079558  39.9718137  60.8697829
  12.4532269  44.2641363  78.0340930  13.2667134  43.9926512  78.1946062
  12.2927235  43.9648903  77.2301125  12.5502217  44.1796289  77.9386335
   6.7501611  45.4456068  58.2054045   6.8194431  44.5870606  58.3447046
   7.5290066  45.6627948  57.8773070   6.8754461  45.3508932  58.1771203
   9.7304431  34.9475021  70.9736318   9.9446400  34.3085935  70.4199672
   9.1138330  35.3920844  70.5444180   9.6709760  34.9185164  70.8286749
  11.1409099  47.8693769  62.4190539  10.7488890  47.5660484  61.7013405
  11.2962171  48.7062859  62.2295492  11.1062689  47.9477606  62.2847036
  11.8943519  36.5564086  71.9119625  11.0820200  36.2489976  71.9932798
  12.3533453  36.0763086  72.4762337  11.8423904  36.4400578  72.0074219
  11.3048773  44.4343758  62.3596569  10.9463428  44.6058401  63.1360602
  10.8187484  44.8956963  61.8024568  11.1807470  44.5282729  62.3921838
   9.1219159  28.0574956  65.9623661   8.2512717  28.0313677  65.9156970
   9.3759501  27.8852148  65.1449506   9.0312720  28.0285100  65.8343797
   6.0937139  40.1142923  54.8996804   6.3829664  40.8907806  55.1740378
   6.1808938  39.6031655  55.6011303   6.1491395  40.1534841  55.0439301
   6.1468300  30.0681185  67.4197131   5.6306788  29.3761376  67.5448710
   5.5862229  30.7351962  67.3659730   5.9874813  30.0644442  67.4303197
  12.4653513  45.3247654  73.3063770  13.1033233  44.8307849  72.9726226
  11.8227604  45.2525054  72.7215997  12.4647739  45.2406662  73.1706125
  14.1910513  37.1736800  67.8729686  13.7638121  37.0863148  67.1177785
  13.5536566  37.2814575  68.4584530  14.0340120  37.1769459  67.8475127
  12.5207769  46.0167462  69.9469127  13.3100148  45.6656527  70.0671208
  12.6951367  46.8303850  69.6845761  12.6628051  46.0853319  69.9256995
   2.2601080  39.4276188  66.9996916   1.4189086  39.3280062  67.2075810
   2.4691088  40.1971668  67.3511236   2.1665772  39.5268231  67.0824231
  11.3741594  30.0277019  64.5085545  11.5791187  29.9599326  65.3542542
  11.0468018  30.8335840  64.4406723  11.3556841  30.1362959  64.6245200
   6.0717745  37.3557587  66.2494513   5.7680882  36.8013575  66.8504921
   5.3697165  37.5349797  65.7622547   5.9233954  37.3002369  66.2664219
   5.1283842  34.6658107  60.8139215   5.4043576  33.9477019  60.4016783
   5.7282511  35.2643027  60.6060321   5.2577106  34.6478477  60.7219976
  14.6275281  30.5808783  63.9888311  14.0149595  31.0679185  64.3742043
  14.7239456  29.9052274  64.5325962  14.5513179  30.5527092  64.1267169
   8.6294362  32.3371624  59.0885810   9.0838109  32.5082184  59.8133655
   9.1034408  31.7239735  58.6883586   8.7662682  32.2722509  59.1359572
   2.1509888  41.8219950  68.4188549   1.5597821  42.4629448  68.3891564
   2.9130911  42.2457567  68.3919848   2.1758148  41.9795788  68.4103696
  18.2700309  41.6525720  69.4165827  18.3283433  42.1012368  70.1625803
  17.6366777  42.0624532  68.9795907  18.1851604  41.7799454  69.4618375
  11.9099404  47.2729262  65.8520573  11.7119093  47.7620076  65.1576784
  11.2887115  47.4770503  66.4304706  11.7886968  47.3745800  65.8343796
   5.9707382  39.0414158  60.1930817   6.7149427  39.4288435  60.4313767
   6.1168078  38.1971584  60.3571305   6.1017967  38.9744631  60.2524787
   7.8886958  30.8364417  65.2262679   7.0423003  31.0087225  65.1004029
   7.8858090  30.0313761  65.5628507   7.7634108  30.7425446  65.2573806
   8.9585258  34.6139632  66.0924737   8.4845212  34.0881394  66.6030048
   9.3303394  34.0669105  65.5239598   8.9435147  34.4555628  66.0839884
  15.2221989  39.6742007  67.5031517  14.9820212  38.8348422  67.5073944
  15.7013996  39.7542174  68.2272291  15.2574172  39.5623407  67.6106320
  10.8868758  35.5076186  59.1550490  10.3591776  35.5904930  58.4656199
  11.3464466  36.2494058  59.1515135  10.8770608  35.6296849  59.0525186
  17.2227176  36.4543465  65.4560776  16.9836946  36.4139299  64.6181561
  17.3861077  37.3014617  65.5826497  17.2117479  36.5735550  65.3514258
  13.8273206  40.8393414  71.3865821  14.5507405  40.3865940  71.2076841
  13.5623168  41.1198080  70.6038149  13.8954479  40.8144382  71.2444537
   2.6960074  35.4353587  68.1218701   2.0713144  35.4471979  67.5144653
   2.3605669  35.9113762  68.7709941   2.5545566  35.5072104  68.1275269
   2.8801823  33.7778706  54.1791386   2.5314627  34.4298431  54.6422935
   2.3998269  33.7635819  53.4515257   2.7572067  33.8721759  54.1402477
  10.4405840  44.0779750  58.2860148  11.1640039  44.5437863  58.1424721
  10.0006431  44.1453359  57.5357745  10.4821533  44.1563587  58.1544929
   9.6091995  40.9377292  69.5360837   8.9948988  40.3935342  69.8309472
  10.1259280  40.4241529  69.0566653   9.5947658  40.7813701  69.5085065
   8.8488293  42.0081562  67.2705135   8.4215901  41.3831281  66.8370571
   8.8413237  41.7256484  68.0964142   8.7847434  41.8734343  67.3284963
   7.1774002  32.8850317  67.4847669   7.2016489  32.3510429  66.7960449
   7.4285476  32.3767625  68.1473260   7.2183921  32.7311221  67.4812314
   3.4575324  31.6121135  66.8653413   3.4973696  32.1130341  67.5788121
   2.6324989  31.7031529  66.5959337   3.3414850  31.7002951  66.9303952
   4.8789688  38.1281645  69.1627312   4.0481617  38.2955463  68.9562561
   4.8241205  37.7517596  69.9476198   4.7479103  38.0971376  69.2475841
   3.2525732  36.4037236  59.6917430   3.3928693  36.9009700  60.3946072
   3.7508264  35.7023531  59.8331644   3.3466813  36.3739215  59.8169009
   3.2825954  37.2704347  57.0210007   3.9171034  37.8664772  56.9559469
   3.3651565  36.9707805  57.8355877   3.3882505  37.3145255  57.1313094
  16.2608520  39.8019825  69.8896371  16.8526360  40.4417075  69.9214569
  16.6967514  39.1042861  70.1788438  16.4126951  39.7938175  69.9377204
   4.8604937  33.2018323  56.9955449   5.1820778  32.7221405  56.3414711
   5.1231881  34.0117969  56.8046261   4.9470962  33.2508221  56.8710941
   8.0901910  44.2237197  70.5154265   7.5827001  44.7773044  70.9594896
   7.7928556  44.2845487  69.6973040   7.9706795  44.3143508  70.4602722
  10.2564092  32.5890517  69.3578928  10.6819163  32.1363043  68.7462454
   9.6421085  32.0350587  69.6343716  10.2292737  32.4404493  69.3083953
  10.7009690  48.1400455  58.4458209   9.9839000  47.9661317  57.9805446
  11.3516428  47.9053027  57.9133695  10.6911540  48.0796247  58.2987426
   8.6958315  29.0605616  62.7669505   8.0526633  28.9103263  63.3354644
   8.3557722  28.8147962  62.0018610   8.5503392  29.0017739  62.7372520
  13.2857661  37.0165043  62.1899514  12.6148851  37.5594746  62.0612579
  13.9797411  37.4859899  61.9481208  13.2886529  37.1663314  62.1355041
   7.3344395  49.1561755  67.4211272   7.1110049  48.3980585  67.7895298
   6.8454238  49.1859776  66.6991712   7.2287844  49.0483980  67.3688013
  13.4485789  33.4720927  65.0989887  13.8013399  33.0450650  65.7735686
  12.5900590  33.3871770  65.2290963  13.3735233  33.3965668  65.2184897
   2.1469474  36.1028447  63.1572733   1.4281463  36.5192579  63.4245597
   2.5181836  36.6682685  62.6064372   2.0961405  36.2477728  63.1155540
  11.4469054  36.7356295  69.0474729  11.4266982  36.5539591  69.9009508
  11.4948255  37.6068314  69.0234313  11.4503695  36.8372834  69.1698024
   9.3915384  43.3243487  74.9723206   9.3511239  42.6793164  74.3868362
  10.2038703  43.2680105  75.2848618   9.5058538  43.2202454  74.9320155
   5.9822852  49.3762213  64.8748357   5.5683250  48.7136344  64.4852198
   6.6670226  49.5240072  64.3544051   6.0221224  49.3002872  64.7404854
   9.3488146  48.5352299  65.6271973   8.9504429  48.6454569  64.8592793
   8.7339366  48.7434365  66.2098533   9.1987035  48.5825867  65.6003273
   7.9216048  35.1426446  58.4946113   7.3280887  35.4643443  57.9430680
   7.9591326  34.2967542  58.2867219   7.8390437  35.0650775  58.3828884
  14.8809849  28.5939339  66.0274199  14.3740713  27.8868478  65.9595377
  15.6777282  28.2632528  66.1575276  14.9237088  28.4412490  66.0373194
  10.7973865  35.1005951  61.9247863  10.5687558  35.1238652  61.0826221
  11.0571941  34.2763418  62.0442874  10.8020053  34.9822031  61.8173061
   3.8518627  33.6382497  63.2202059   4.3275993  33.9999577  62.5852240
   3.3507227  34.2938965  63.5002202   3.8483986  33.7876686  63.1678800
  17.0829989  43.1104265  59.0115064  17.4663594  43.8595622  59.2413161
  16.2874102  43.3570085  58.7527053  17.0223771  43.2573959  59.0072637
   5.8945280  35.7823697  56.5875443   6.2744245  35.8003326  55.8026558
   5.1537876  36.2277686  56.4666290   5.8414118  35.8505472  56.4539011
  13.5230571  34.0905888  62.1751021  13.5224797  33.9354545  63.0335298
  13.3186751  34.9368875  62.1192407  13.4930349  34.1926509  62.2938961
  11.2471423  38.7703390  65.8287228  11.7425088  38.0526385  65.7891249
  10.4371199  38.4674188  65.7141715  11.2015316  38.6201036  65.8060954
   6.6930034  42.6201203  57.9784233   5.8841357  42.2967877  57.9317542
   7.2004943  41.9134425  57.9112481   6.6479701  42.4682520  57.9614527
  13.3123242  41.5207078  68.5164357  13.7378313  40.9981499  67.9634782
  12.9480162  42.1187915  67.9952980  13.3209844  41.5317305  68.3573367
   2.9477322  49.8171295  67.2761703   3.2623880  50.6307684  67.2839484
   3.3570735  49.4321514  67.9443862   3.0545419  49.8799997  67.3765794
   9.9001841  45.2341342  64.8465515  10.3713019  45.9481604  65.0155500
  10.2362020  44.6340092  65.3825384  10.0196956  45.2512806  64.9497890
  10.5375787  45.0259276  71.6093207   9.9896733  44.4017160  71.3413272
  10.9988816  45.2153548  70.8937287  10.5242997  44.9618326  71.4643638
  13.3469652  33.0944630  68.9944399  12.7632641  33.5953837  68.5821967
  13.6673946  32.5874187  68.3608723  13.3082827  33.0936465  68.8402907
   5.8864451  32.0085225  59.2703074   6.7080145  32.1783538  59.0284769
   5.4234102  32.1632486  58.5469372   5.9395613  32.0566958  59.1274719
  10.1034114  46.0310349  68.1402548  10.9232488  45.8873315  68.4018844
   9.8228191  46.6556548  68.6818986  10.1830857  46.1020701  68.2590488
  26.5747764  53.6875200  61.1045425  26.5441769  54.5419837  61.2763694
  27.1729113  53.3870493  61.6631568  26.6584922  53.7691697  61.2120227
  19.7747449  52.7750851  65.8598355  18.9185345  52.9359350  65.9107472
  19.8215103  51.9042915  65.8803416  19.6546560  52.6701653  65.8704421
  14.1588589  62.3113569  61.6235587  13.4071488  61.9329108  61.3951632
  14.6074600  62.3432003  60.8754397  14.1138256  62.2599176  61.4793089
  23.0841166  59.0437377  75.4658811  23.7907933  58.5489408  75.5945746
  23.2729101  59.4846459  74.7361469  23.2169071  59.0355727  75.3767857
  19.6113549  62.7338939  57.0521134  19.2764917  63.4115860  56.6165356
  20.1240419  62.3444250  56.4638005  19.6379130  62.7763517  56.9007925
  19.1517840  64.6853207  62.9932245  19.5357219  65.2540106  62.4537021
  19.0876981  63.9602718  62.5138061  19.1991267  64.6628671  62.8426108
  22.6199270  54.8342895  68.5030007  23.1655230  55.5127982  68.5623976
  22.5616146  54.6930356  67.6431588  22.6915184  54.9134897  68.3842067
  15.7373345  62.3231961  63.8898359  15.8383708  61.5132315  64.1995487
  15.1415090  62.2288908  63.2598038  15.6645884  62.1896990  63.8424598
  24.3964339  56.2627502  59.3763735  24.2803865  57.0135189  59.8055873
  25.1920225  56.0051456  59.6259822  24.4968928  56.3362349  59.4767826
  15.5774084  67.2409551  65.2913215  16.2211540  67.6822715  65.6809374
  15.9030340  66.4362977  65.2043474  15.7205913  67.1874745  65.3358693
   8.9338389  58.3452248  63.5150693   8.6988574  57.5119900  63.4082962
   9.0724030  58.6256914  62.7011894   8.9194052  58.2635751  63.3793048
  11.2328477  50.5137979  66.4135001  10.6133508  49.9230626  66.2445015
  11.1312340  51.1049414  65.7799324  11.1266152  50.5142061  66.2939990
  16.2794664  60.2521525  60.6633077  16.6010505  60.7926733  60.0594385
  16.9266761  59.6818297  60.7955367  16.4220719  60.2480701  60.5940112
  18.3296372  52.2537520  60.7467464  19.0276537  52.4325648  61.2388927
  18.6448705  51.7307860  60.1237853  18.4791709  52.2031293  60.7269474
  10.9597610  54.0590260  68.6578570  10.8356307  54.6452706  69.2928388
  11.6115894  53.5650456  68.9590845  11.0371259  54.0729065  68.7964499
  18.5184308  58.6407965  60.7347255  18.9577943  58.0325066  61.1802028
  18.3688971  58.2615339  59.9632720  18.5605773  58.4946437  60.6866423
  15.9855951  57.2351977  67.9366081  16.6304953  56.7424420  67.6177029
  16.2257728  57.3776764  68.7632159  16.1166536  57.1829419  68.0115614
  18.5242042  60.0806883  67.5872973  18.8065285  59.2858289  67.3659729
  19.2528202  60.5587471  67.6078034  18.6731606  60.0341480  67.5575988
  16.5023236  47.6229917  64.8288738  16.1726566  48.0741061  64.1592437
  15.8268238  47.5446080  65.3761745  16.3533672  47.6781052  64.8111962
  22.1193644  56.9935147  57.6878024  22.0344939  57.8496113  57.8327593
  22.6078027  56.7179471  58.3560184  22.1782541  57.0792468  57.8080106
  23.7099644  43.6115440  63.0738349  23.3953085  44.3018919  63.5058771
  23.1926585  43.5560222  62.3723850  23.5864114  43.7050329  63.0335298
  23.0512077  53.6119941  59.1875760  22.5223549  53.8279574  59.8473066
  23.5737097  54.3056079  59.1076729  23.0500530  53.7463078  59.2731359
  28.5060130  59.1866245  64.5608804  27.6757833  59.3976889  64.7242221
  28.4569383  58.3603300  64.2851088  28.3766866  59.0955852  64.5446169
  14.9411685  57.5083158  57.9883227  14.3568900  58.0133189  58.3949091
  14.5381780  57.2825545  57.2479819  14.7950989  57.5491406  57.9388253
  10.4955714  63.2237919  64.7906899  10.0123292  63.9488408  64.7666483
  11.3079032  63.5214049  64.9017057  10.5446462  63.3740272  64.8034178
  16.5669868  62.0170099  67.3956714  16.0496810  61.6577514  66.7918022
  17.2644259  61.4932274  67.4062780  16.5935449  61.8867787  67.3086972
  20.2233460  62.4664914  73.3572887  20.3116806  62.2791054  74.2051097
  20.6523172  61.8202343  72.9577733  20.2995562  62.3427921  73.4244638
  19.3988900  53.7548810  56.4652148  19.6384903  53.9626793  55.6527491
  19.7204741  52.9506318  56.5741093  19.4826058  53.6662911  56.3612701
  14.7079190  45.6842205  60.3111686  15.4625158  46.0520523  60.0728736
  14.5306725  46.0581760  61.0790866  14.7933668  45.7940393  60.3896575
  13.3499911  63.7394095  64.9427179  14.0520490  63.2246084  64.9999935
  13.2697394  64.0668246  65.7474054  13.4423672  63.7108321  65.0699971
  28.0014089  51.8336646  68.3559225  27.1642510  51.9038833  68.5906820
  27.9702320  51.8361141  67.4833528  27.8732371  51.8446873  68.2618773
  14.3978818  53.9769682  74.0707594  14.5699321  53.8675576  74.9192875
  14.9348175  54.6224087  73.8338786  14.5023822  54.0561683  74.1612691
  13.0636255  48.0912524  57.0089799  12.8811828  48.3084405  56.1830792
  13.9261868  48.2051537  57.0648413  13.1640844  48.1402422  56.8944286
  12.6750687  59.9300447  64.4512787  13.5139586  60.1623379  64.4986549
  12.7062456  59.0604758  64.3819822  12.8032404  59.8357393  64.4477432
  13.3003390  60.3501322  68.7526092  13.8401615  60.2072453  69.4229465
  12.6173336  60.7498073  69.1210119  13.2795543  60.3880993  68.9060514
  18.7435974  45.0938935  60.0438823  19.4722134  44.9154890  59.5976979
  18.8330867  45.9357015  60.2546001  18.8642636  45.1922814  60.0092340
  22.7244274  56.0292322  63.9471117  23.4801789  56.4623837  63.9860026
  22.8306599  55.3797092  64.5205753  22.8514445  55.9969806  64.0369142
  25.7624446  59.8565600  64.6973520  25.3259677  59.8602342  65.4532491
  25.4287361  60.5371099  64.2653097  25.6487066  59.9578056  64.7454352
  25.6821928  46.8979428  66.9402948  26.3247837  46.9677532  67.5264863
  25.9344949  46.2308650  66.4382490  25.8144061  46.8105776  66.9530227
  12.6098282  51.3686697  55.5212272  11.8956459  51.0824877  55.9334705
  13.0942250  51.7083323  56.1618660  12.5757645  51.3768347  55.6767907
  13.4539141  50.1079991  71.5527522  12.7610938  49.6376971  71.7988253
  14.0699468  49.8818295  72.1269229  13.4423671  50.0047123  71.6736674
  20.4923912  63.8084035  69.6683126  19.6939158  63.5683535  69.9256994
  20.9409924  63.8598428  70.4150173  20.4398524  63.7806426  69.8168050
  28.8968792  56.5746520  63.5893157  29.5585226  56.0137188  63.4889065
  28.2560204  56.0798550  63.9145848  28.8997659  56.4182929  63.6225497
  19.7845600  59.8716651  55.8974080  20.1996748  59.5401675  55.2058576
  18.9537529  59.6385553  55.7694217  19.7233608  59.7887907  55.7764928
   9.1133948  57.3560392  66.1872258   8.9309522  57.3307278  65.3344550
   9.8483617  57.8259330  66.2261167   9.1948012  57.4221754  66.0670177
  25.1833622  57.5911902  63.3305146  25.4189212  57.7357101  62.5031996
  25.3323186  58.3554310  63.7236659  25.2399426  57.7250956  63.2668750
  12.1779700  54.0745395  72.6954367  12.9019672  54.0598426  73.1819262
  12.2795836  54.7840750  72.1976335  12.2997909  54.1770098  72.6933154
  27.0124079  56.4313568  61.1674750  27.3432296  56.9641208  60.5614844
  27.5857167  56.4852456  61.8236701  27.1457758  56.5183137  61.1752531
  22.2255968  54.2778471  61.8498330  22.3202823  55.0167765  62.3037955
  21.6014812  53.8495946  62.2832894  22.1464998  54.3239791  61.9806477
  20.4808442  57.4564683  72.4988611  21.0547304  56.8191928  72.6537175
  20.4023246  57.4568766  71.6298268  20.5541677  57.3629795  72.3935021
   9.0804859  54.2353893  66.3371325   9.6578361  54.0990344  66.9763570
   8.3818920  53.7789677  66.5916909   9.0625880  54.1476159  66.4693614
  22.4778990  56.1227210  55.0835282  22.3959152  56.1929398  55.9490269
  23.1158710  56.6856954  54.8919022  22.5598827  56.2166182  55.1825231
  15.8372161  55.8887948  64.5509808  15.5791405  55.0559683  64.5241108
  15.8920644  56.1145561  63.7102308  15.8071939  55.7985720  64.4229945
  20.9173211  47.9916399  64.6513901  20.2129538  47.5025585  64.8097820
  20.9658185  48.0038874  63.7802345  20.8203263  47.9206047  64.5453241
  14.8106873  53.4425711  65.0374703  14.2356464  53.6017879  65.6738664
  14.4342549  52.8061120  64.5743153  14.6709685  53.3723524  65.0629261
  18.4780162  51.9149060  69.8967081  18.0894594  51.4903278  69.2419272
  17.8134860  52.1631210  70.4044108  18.3227089  51.8887781  69.8754949
  28.1203431  51.6724065  62.6714911  27.8639996  50.8604006  62.4812794
  28.9632745  51.6801632  62.4445099  28.2069456  51.5536062  62.6099728
   4.5563692  53.0865786  63.0519143   4.6423944  52.7097654  63.8332673
   5.1839489  52.7126231  62.5739102   4.6620243  52.9751268  63.0964621
  22.3006523  45.6123689  67.4091065  22.6817035  44.9301860  67.7958940
  21.4969807  45.3233291  67.2266730  22.2382985  45.4690737  67.4395121
  19.5819100  56.1447665  58.0943888  20.3959739  56.4362558  57.9826660
  19.5178241  55.4907527  57.5202181  19.6921839  56.0912860  57.9932726
  25.8028590  58.8273661  72.5073464  25.5667227  57.9961726  72.3885524
  26.4471819  58.7759268  73.0928308  25.8623261  58.6971349  72.5759357
  15.4527008  59.6169182  63.2216200  16.0900955  59.3780930  63.7667994
  15.8782080  59.8206341  62.4869361  15.6103174  59.6120192  63.1933358
  16.0929823  54.8371472  57.5591090  16.4774976  54.6179179  58.3107635
  15.8441443  55.6634417  57.6892166  16.1131896  54.9269618  57.6892166
  16.2598364  48.1177887  77.2753674  15.9451805  48.8877450  77.0123237
  15.9388296  47.5548143  76.6905901  16.1657283  48.1488156  77.1495024
  26.8265011  58.6118110  68.5701758  26.5210828  59.3446167  68.9315074
  26.1071226  58.2056039  68.2894544  26.6752353  58.6599843  68.5814895
  17.8348480  60.0941605  64.9009987  17.9087488  59.9316777  65.7551836
  18.6517986  60.2831794  64.6570468  17.9664839  60.0978347  64.9908012
  32.5266803  55.2511110  67.8970103  32.4591303  55.2707069  67.0272689
  32.5122465  56.0941438  68.1225773  32.5145559  55.3784845  67.8022579
  11.5954237  60.4399468  61.9304430  10.7692354  60.6861205  61.8038709
  11.6566228  60.3611549  62.7966488  11.4828404  60.4644417  62.0393374
  13.8130260  46.5068409  62.8899870  12.9452686  46.5791008  62.9557479
  14.1005465  47.3090488  63.0787845  13.7270009  46.6362556  62.9274637
  22.9363149  46.6546268  71.2211192  23.6816741  46.4656078  70.8074617
  22.5200454  47.1804506  70.6625048  22.9848123  46.7048413  71.0775765
  16.3753066  63.0576348  59.6323460  16.6651364  62.6665329  58.9082687
  17.1056547  63.2393053  60.0728735  16.5259950  63.0270162  59.5906267
  30.3125420  54.0255497  66.1716697  30.8633342  53.3923566  66.4113789
  30.2969535  54.5570889  66.8632201  30.3910616  54.0104445  66.3095555
  16.9647811  57.8594094  70.7176590  16.4659505  58.5709862  70.7961479
  17.7748035  58.1794760  70.6794753  17.0103918  58.0120942  70.7233159
  14.3158981  65.0343730  62.6983610  14.0959277  64.7441085  63.4910277
  14.0953503  64.3758685  62.1701522  14.2506576  64.8943439  62.7372518
  13.2275929  57.1217047  64.9639311  12.9389177  56.4954518  65.4985039
  14.0959277  57.0637334  65.0303992  13.3136180  57.0204591  65.0530266
  24.0153826  52.2651830  65.2821293  23.6718592  51.5442165  65.6328543
  24.1146869  52.0565681  64.4399651  23.9795869  52.1276033  65.2092973
  16.4826937  66.4073120  61.4814302  17.1350995  65.8749563  61.7105328
  15.7852546  66.0541773  61.8682176  16.4757655  66.2762643  61.5726470
  13.4308202  58.7612298  60.8881676  14.1854170  59.1425337  61.1017139
  12.8378815  59.2123442  61.3428373  13.4544916  58.8841125  60.9864555
  24.4766855  58.7277534  60.8245281  25.0424888  59.3870744  60.7403824
  23.8294759  59.0727232  61.2961683  24.4645612  58.8759476  60.8818038
  15.8914869  50.7175138  76.0138889  15.0814645  51.0232918  75.9028731
  16.3689556  51.4380721  76.1291473  15.8418348  50.8689739  76.0145960
  14.7506429  59.9320859  66.2621792  14.2287182  60.0721151  66.9473656
  15.1380449  59.1731524  66.4523909  14.7310129  59.8406383  66.3922868
  11.7397613  49.9826668  60.3316746  11.4522408  49.6127938  59.5948694
  12.4268081  50.4521523  60.0700451  11.7986510  49.9973637  60.1831822
  20.9473434  61.6716318  60.2482361  20.7060109  60.9384179  59.8409425
  21.1274766  62.2203175  59.5948694  20.9381057  61.6438710  60.0912583
  16.1772754  56.9624878  61.6603283  15.9815537  57.5699613  61.0663586
  16.4007100  56.2692822  61.1794957  16.1807395  56.9502404  61.5019364
  14.5751284  53.8479616  61.7784151  15.2973936  54.0120774  61.3187957
  14.0959277  54.5689281  61.6723491  14.6115015  53.9777846  61.6949765
  22.5344792  50.1843415  67.1580836  21.6955892  50.2104694  66.9219099
  22.6049159  50.8314150  67.7386183  22.4213185  50.2839541  67.2089953
  20.9814070  47.0828792  61.8908452  21.6840423  46.8836540  61.4128410
  20.7158259  46.3104734  62.1977295  21.0460702  46.9391758  61.8653894
  26.4102316  55.3911402  64.4442078  26.3236290  55.5466828  65.2976857
  25.9552795  56.0349477  64.0701483  26.3305572  55.5087157  64.5149185
   9.3125807  50.7607880  61.1802028   9.4141944  51.5634042  61.5083003
  10.1081694  50.5595216  60.8825108   9.4453713  50.8493779  61.1837383
  15.7442626  48.3464077  70.9439333  15.5525823  48.3619212  71.7938756
  16.5941222  48.5427751  70.9205987  15.8418348  48.3778428  71.0662627
  10.1289539  50.8755059  68.9223149   9.9875031  50.0238999  69.0467657
  10.4130103  50.9183719  68.0985355  10.1497385  50.7554809  68.8190773
  20.2828132  52.7122149  63.0667637  20.0362846  52.6317900  63.9004426
  20.6113255  51.9275617  62.8730165  20.2949375  52.5848414  63.1615160
  24.1776180  59.4205508  66.8554419  24.0390540  60.1186554  67.3603161
  23.3976178  59.2654165  66.4990600  24.0419407  59.5005675  66.8780693
  22.5154266  55.7201884  73.1076800  22.5102304  54.8481700  73.1119227
  23.2215259  55.9190053  72.6346256  22.6199270  55.6205758  73.0383836
  16.2425159  55.4478867  72.4790620  16.3868535  56.0280076  71.8433730
  16.5900807  55.8255164  73.1840475  16.3152620  55.5899571  72.4889615
  18.4145076  54.6469036  70.2615752  17.6668390  54.8400050  69.8564030
  18.5686601  53.8214255  70.0239873  18.3267504  54.5534147  70.1661158
  15.3152914  63.6381639  69.3451647  15.4642478  63.0784555  68.6925052
  16.0952916  63.7173641  69.7284166  15.4527008  63.5667205  69.3048596
  25.6729553  58.7783762  57.6170918  25.2936362  57.9920900  57.6100207
  25.0095799  59.3270619  57.4742562  25.5188028  58.7428586  57.5951715
  17.8406215  63.8096282  70.6236138  17.7649886  63.1405093  71.1786926
  17.7696074  64.5114070  71.1376804  17.8186821  63.8141189  70.7812986
  18.6546853  48.5419587  71.1511156  19.1119467  49.2743561  71.2783948
  18.7303182  48.1186052  71.9098412  18.7337823  48.5876825  71.2812232
  10.8979845  48.7885406  72.2400599  10.3622034  48.1765764  72.5561367
  10.9597609  49.3633542  72.8934266  10.8275477  48.7832334  72.3836026
  23.1274179  41.7209462  65.0204999  23.2457747  42.1785925  64.2872301
  22.9536355  40.9154723  64.7341216  23.1193350  41.6703234  64.8705932
  18.4976461  62.3297281  61.4559744  19.2626353  62.0606925  61.1342408
  18.3954551  61.8447291  62.1729807  18.5957957  62.2186846  61.5139572
  16.5329231  50.5321690  67.9952980  15.7425306  50.3513151  68.3170316
  16.9289854  49.7548643  67.9783274  16.4746107  50.3909151  68.0405528
  21.0195122  59.3609465  53.4359693  21.7868107  59.4209590  53.0265545
  20.5726431  58.7889906  52.9516012  21.0668549  59.2846040  53.3037404
  21.9172918  58.1664121  65.7212426  21.2417919  57.9349353  66.2225813
  21.9265294  57.5585304  65.0954531  21.8191422  58.0423046  65.7028578
  19.0467061  53.0081950  72.4776479  18.9826203  53.8691906  72.3496615
  19.1864249  52.6913943  71.6772030  19.0582532  53.0882116  72.3404692
  23.9189652  61.0229253  57.9522604  24.0009489  61.8296239  57.6284055
  24.4039394  61.0425212  58.6763377  24.0026810  61.1449915  58.0109502
  17.7286155  55.7014089  66.6192682  17.3048404  55.9018588  65.8831700
  17.5531011  54.8542937  66.7316981  17.6397036  55.6062870  66.5266372
  13.0168600  56.1966140  62.0520654  13.1733220  56.1312943  62.9076646
  13.3569193  56.9714693  61.8399334  13.0901835  56.3015338  62.1475248
  19.5547745  55.5724024  60.9214017  20.0963290  55.0694405  61.3852638
  19.8694304  55.5189219  60.1103503  19.6812142  55.4903445  60.8697829
  23.4264852  59.7826671  78.0340930  24.2399718  59.5111820  78.1946062
  23.2659819  59.4834211  77.2301125  23.5234801  59.6981597  77.9386335
  17.7234195  60.9641375  58.2054045  17.7927015  60.1055914  58.3447046
  18.5022650  61.1813256  57.8773070  17.8487045  60.8694239  58.1771203
  20.7037014  50.4660328  70.9736318  20.9178984  49.8271243  70.4199672
  20.0870914  50.9106152  70.5444180  20.6442344  50.4370472  70.8286749
  22.1141682  63.3879077  62.4190539  21.7221474  63.0845792  61.7013405
  22.2694754  64.2248167  62.2295492  22.0795272  63.4662913  62.2847036
   9.5902862  53.3801091  62.3681421   9.9701827  53.7985636  61.7041689
   9.0158227  53.9614547  62.6750265   9.5614187  53.5278950  62.3158162
  22.8676102  52.0749394  71.9119625  22.0552784  51.7675284  71.9932798
  23.3266037  51.5948394  72.4762337  22.8156487  51.9585886  72.0074219
  22.2781357  59.9529066  62.3596569  21.9196012  60.1243708  63.1360602
  21.7920068  60.4142271  61.8024568  22.1540054  60.0468037  62.3921838
  20.0951743  43.5760264  65.9623661  19.2245301  43.5498985  65.9156970
  20.3492084  43.4037456  65.1449506  20.0045303  43.5470408  65.8343797
  17.0669722  55.6328231  54.8996804  17.3562247  56.4093113  55.1740378
  17.1541521  55.1216962  55.6011303  17.1223979  55.6720149  55.0439301
  19.9629610  53.4809465  76.6948327  20.4329241  54.1051581  77.0816201
  20.0091490  52.8126441  77.2541542  20.0397486  53.4744145  76.8348399
  17.1200883  45.5866493  67.4197131  16.6039372  44.8946684  67.5448710
  16.5594812  46.2537270  67.3659730  16.9607397  45.5829750  67.4303197
  19.1893117  46.1259453  69.2489984  18.8024870  46.1508484  70.0303513
  18.7026054  45.5601131  68.7964500  19.0605626  46.0455203  69.2977887
  25.1643096  52.6922108  67.8729686  24.7370705  52.6048456  67.1177785
  24.5269149  52.7999883  68.4584530  25.0072704  52.6954767  67.8475127
  18.8550259  43.0126438  71.5400243  19.4843377  43.5486738  71.2621314
  19.0236121  42.9203797  72.3913809  18.9728053  43.0787800  71.6248772
  18.6564174  47.7997633  73.8126655  19.4837603  47.5282782  73.8685270
  18.6772020  48.5958474  74.1690473  18.7817024  47.8777387  73.8741838
  23.4940353  61.5352770  69.9469127  24.2832731  61.1841835  70.0671208
  23.6683951  62.3489158  69.6845761  23.6360635  61.6038627  69.9256995
  13.2333663  54.9461496  66.9996916  12.3921670  54.8465370  67.2075810
  13.4423671  55.7156976  67.3511236  13.1398356  55.0453539  67.0824231
  10.7109230  52.5681032  64.8281666  10.3165928  52.6424044  64.0531776
  10.1549347  52.9538979  65.3790028  10.5712043  52.6362807  64.7949326
  22.3474177  45.5462327  64.5085545  22.5523771  45.4784634  65.3542542
  22.0200601  46.3521148  64.4406723  22.3289425  45.6548267  64.6245200
  17.0450328  52.8742895  66.2494513  16.7413466  52.3198883  66.8504921
  16.3429749  53.0535105  65.7622547  16.8966538  52.8187677  66.2664219
  16.1016425  50.1843415  60.8139215  16.3776160  49.4662327  60.4016783
  16.7015095  50.7828334  60.6060321  16.2309690  50.1663785  60.7219976
  25.6007865  46.0994091  63.9888311  24.9882178  46.5864493  64.3742043
  25.6972040  45.4237582  64.5325962  25.5245762  46.0712400  64.1267169
  19.6026946  47.8556932  59.0885810  20.0570692  48.0267492  59.8133655
  20.0766992  47.2425043  58.6883586  19.7395266  47.7907817  59.1359572
  13.1242471  57.3405258  68.4188549  12.5330405  57.9814756  68.3891564
  13.8863495  57.7642875  68.3919848  13.1490732  57.4981096  68.4103696
  13.5203094  48.5007256  69.0856566  13.9804576  48.5746185  69.8231690
  13.5659201  49.2988510  68.7356388  13.5953649  48.6301403  69.1429323
  15.1686444  49.1673950  73.6528593  14.7772009  48.5207298  74.0884371
  15.3372307  49.7585386  74.2722849  15.1357354  49.1588218  73.8091299
  29.2432893  57.1711028  69.4165827  29.3016017  57.6197676  70.1625803
  28.6099360  57.5809840  68.9795907  29.1584188  57.2984762  69.4618375
  22.8831988  62.7914569  65.8520573  22.6851676  63.2805384  65.1576784
  22.2619699  62.9955811  66.4304706  22.7619552  62.8931108  65.8343796
  16.9439966  54.5599466  60.1930817  17.6882011  54.9473743  60.4313767
  17.0900662  53.7156892  60.3571305  17.0750551  54.4929939  60.2524787
  18.8619541  46.3549725  65.2262679  18.0155586  46.5272533  65.1004029
  18.8590674  45.5499069  65.5628507  18.7366691  46.2610754  65.2573806
  19.9317842  50.1324940  66.0924737  19.4577796  49.6066702  66.6030048
  20.3035978  49.5854412  65.5239598  19.9167731  49.9740936  66.0839884
  10.3090872  52.1296446  71.4608282  11.1716485  52.0292155  71.3745612
   9.9782655  51.5491156  70.8993855  10.3876068  52.0288073  71.3653688
  26.1954572  55.1927315  67.5031517  25.9552795  54.3533730  67.5073944
  26.6746579  55.2727482  68.2272291  26.2306756  55.0808715  67.6106320
  21.8601341  51.0261494  59.1550490  21.3324360  51.1090238  58.4656199
  22.3197050  51.7679366  59.1515135  21.8503192  51.1482157  59.0525186
  28.1959759  51.9728772  65.4560776  27.9569529  51.9324607  64.6181561
  28.3593661  52.8199924  65.5826497  28.1850063  52.0920857  65.3514258
  24.8005789  56.3578722  71.3865821  25.5239988  55.9051248  71.2076841
  24.5355752  56.6383387  70.6038149  24.8687063  56.3329690  71.2444537
  13.6692658  50.9538895  68.1218701  13.0445728  50.9657287  67.5144653
  13.3338253  51.4299070  68.7709941  13.5278150  51.0257412  68.1275269
  13.8534407  49.2964014  54.1791386  13.5047211  49.9483739  54.6422935
  13.3730852  49.2821127  53.4515257  13.7304650  49.3907067  54.1402477
  21.4138424  59.5965058  58.2860148  22.1372623  60.0623171  58.1424721
  20.9739015  59.6638667  57.5357745  21.4554116  59.6748894  58.1544929
  20.5824579  56.4562600  69.5360837  19.9681572  55.9120650  69.8309472
  21.0991864  55.9426836  69.0566653  20.5680241  56.2999009  69.5085065
  19.8220876  57.5266870  67.2705135  19.3948484  56.9016589  66.8370571
  19.8145820  57.2441792  68.0964142  19.7580017  57.3919651  67.3284963
  12.9383403  52.5632043  70.3393569  13.0976890  51.8075367  70.7445291
  12.7576297  53.1122983  70.9934307  12.9348762  52.5325857  70.4956275
  20.8803706  44.7293279  70.8944359  20.3844267  44.9256953  70.2035925
  21.6372768  45.1285947  70.7233160  20.9190531  44.8171012  70.7664495
  18.1506586  48.4035625  67.4847669  18.1749073  47.8695737  66.7960449
  18.4018059  47.8952933  68.1473260  18.1916504  48.2496529  67.4812314
  14.4307908  47.1306443  66.8653413  14.4706280  47.6315649  67.5788121
  13.6057573  47.2216836  66.5959337  14.3147434  47.2188259  66.9303952
  15.8522271  53.6466953  69.1627312  15.0214201  53.8140771  68.9562561
  15.7973789  53.2702903  69.9476198  15.7211686  53.6156684  69.2475841
  13.6606055  47.1375846  74.7983723  14.2858758  46.5937978  75.0713155
  13.2056535  46.6570763  74.2291514  13.6854315  46.9865327  74.7545317
  14.2258315  51.9222544  59.6917430  14.3661276  52.4195008  60.3946072
  14.7240848  51.2208839  59.8331644  14.3199396  51.8924523  59.8169009
  14.2558538  52.7889655  57.0210007  14.8903617  53.3850080  56.9559469
  14.3384148  52.4893113  57.8355877  14.3615089  52.8330563  57.1313094
  27.2341103  55.3205133  69.8896371  27.8258944  55.9602383  69.9214569
  27.6700098  54.6228169  70.1788438  27.3859535  55.3123483  69.9377204
  15.8337520  48.7203631  56.9955449  16.1553362  48.2406713  56.3414711
  16.0964464  49.5303277  56.8046261  15.9203546  48.7693529  56.8710941
  19.0634493  59.7422505  70.5154265  18.5559584  60.2958352  70.9594896
  18.7661139  59.8030795  69.6973040  18.9439378  59.8328816  70.4602722
  21.2296675  48.1075825  69.3578928  21.6551747  47.6548351  68.7462454
  20.6153669  47.5535895  69.6343716  21.2025321  47.9589801  69.3083953
  10.7611526  54.9857496  60.2899553  11.2703755  55.5822003  60.6710859
  11.2345798  54.7183470  59.6075973  10.9054901  55.0343311  60.2454076
  21.6742274  63.6585763  58.4458209  20.9571583  63.4846625  57.9805446
  22.3249011  63.4238335  57.9133695  21.6644124  63.5981555  58.2987426
  19.6690898  44.5790924  62.7669505  19.0259216  44.4288571  63.3354644
  19.3290305  44.3333270  62.0018610  19.5235976  44.5203047  62.7372520
  24.2590245  52.5350351  62.1899514  23.5881435  53.0780053  62.0612579
  24.9529995  53.0045207  61.9481208  24.2619112  52.6848622  62.1355041
  18.3076979  64.6747063  67.4211272  18.0842633  63.9165892  67.7895298
  17.8186822  64.7045084  66.6991712  18.2020428  64.5669288  67.3688013
  24.4218372  48.9906235  65.0989887  24.7745982  48.5635958  65.7735686
  23.5633174  48.9057078  65.2290963  24.3467817  48.9150975  65.2184897
  13.1202057  51.6213755  63.1572733  12.4014046  52.0377887  63.4245597
  13.4914420  52.1867993  62.6064372  13.0693989  51.7663036  63.1155540
  22.4201638  52.2541603  69.0474729  22.3999565  52.0724899  69.9009508
  22.4680839  53.1253622  69.0234313  22.4236279  52.3558142  69.1698024
  20.3647968  58.8428795  74.9723206  20.3243823  58.1978472  74.3868362
  21.1771286  58.7865413  75.2848618  20.4791121  58.7387762  74.9320155
  16.9555435  64.8947521  64.8748357  16.5415834  64.2321652  64.4852198
  17.6402810  65.0425380  64.3544051  16.9953807  64.8188179  64.7404854
  20.3220730  64.0537607  65.6271973  19.9237013  64.1639877  64.8592793
  19.7071949  64.2619673  66.2098533  20.1719619  64.1011175  65.6003273
  18.8948632  50.6611754  58.4946113  18.3013471  50.9828751  57.9430680
  18.9323909  49.8152850  58.2867219  18.8123021  50.5836083  58.3828884
  25.8542432  44.1124647  66.0274199  25.3473297  43.4053786  65.9595377
  26.6509866  43.7817836  66.1575276  25.8969672  43.9597798  66.0373194
  16.0525677  52.4725732  71.5272963  15.5404580  51.8646915  71.8857995
  15.8805173  53.1882325  71.9946939  15.9515314  52.4889031  71.6489187
  14.8251211  49.1567805  63.2202059  15.3008577  49.5184885  62.5852240
  14.3239810  49.8124273  63.5002202  14.8216570  49.3061994  63.1678800
  28.0562572  58.6289573  59.0115064  28.4396178  59.3780929  59.2413161
  27.2606686  58.8755393  58.7527053  27.9956354  58.7759267  59.0072637
  19.9294747  50.3949977  73.9675219  20.4866177  50.1663786  73.3353684
  19.6055812  51.1555642  73.6910431  19.9641157  50.4733813  73.8331716
  17.6477864  53.4817630  74.9327226  18.3989191  53.7969307  75.2466780
  17.8400441  53.2796801  74.1061148  17.7869278  53.4985012  74.8570622
  16.8677864  51.3009005  56.5875443  17.2476829  51.3188634  55.8026558
  16.1270460  51.7462994  56.4666290  16.8146702  51.3690780  56.4539011
  24.4963154  49.6091196  62.1751021  24.4957381  49.4539853  63.0335298
  24.2919334  50.4554183  62.1192407  24.4662932  49.7111817  62.2938961
   6.5580425  53.0330981  66.5909838   6.3802186  52.5807590  67.3164754
   6.2699447  53.8357142  66.7748316   6.4893378  53.0853538  66.7253341
  22.2204006  54.2888698  65.8287228  22.7157672  53.5711693  65.7891249
  21.4103782  53.9859496  65.7141715  22.1747900  54.1386344  65.8060954
  17.6662618  58.1386511  57.9784233  16.8573941  57.8153185  57.9317542
  18.1737527  57.4319733  57.9112481  17.6212285  57.9867828  57.9614527
   8.2952895  55.5658704  63.7031597   7.4298415  55.5544395  63.5914368
   8.3951711  55.3788927  64.5502736   8.1827062  55.5364766  63.8120541
  24.2855825  57.0392386  68.5164357  24.7110897  56.5166807  67.9634782
  23.9212745  57.6373223  67.9952980  24.2942428  57.0502613  68.3573367
  13.9209905  65.3356603  67.2761703  14.2356464  66.1492991  67.2839484
  14.3303318  64.9506822  67.9443862  14.0278003  65.3985305  67.3765794
  20.8734425  60.7526650  64.8465515  21.3445603  61.4666912  65.0155500
  21.2094603  60.1525400  65.3825384  20.9929540  60.7698114  64.9497890
  17.7903920  45.5254120  71.8023609  17.9231825  44.7285114  72.1304585
  18.1749072  46.0520523  72.3821885  17.8660249  45.4854037  71.9367112
  21.5108371  60.5444584  71.6093207  20.9629317  59.9202468  71.3413272
  21.9721400  60.7338856  70.8937287  21.4975581  60.4803634  71.4643638
  20.8636275  42.4484446  68.4004703  20.0582239  42.3382176  68.7172541
  20.7343010  42.5496902  67.5434568  20.7256408  42.4468117  68.3212743
  24.3202235  48.6129938  68.9944399  23.7365224  49.1139145  68.5821967
  24.6406529  48.1059495  68.3608723  24.2815411  48.6121773  68.8402907
  16.8597035  47.5270533  59.2703074  17.6812729  47.6968846  59.0284769
  16.3966685  47.6817794  58.5469372  16.9128197  47.5752266  59.1274719
  15.4492366  45.5213295  70.0501503  15.9936779  45.1804422  70.6405845
  15.5029302  46.3798757  70.1922788  15.5381486  45.5968555  70.1583376
  11.2622925  59.2829711  66.9240311  11.8667783  59.2425546  66.2954132
  11.0550238  60.1300863  66.9544367  11.3211823  59.4017714  66.8356427
  21.0766697  61.5495657  68.1402548  21.8965071  61.4058623  68.4018844
  20.7960775  62.1741855  68.6818986  21.1563441  61.6206009  68.2590488
  37.5480348  69.2060508  61.1045425  37.5174352  70.0605145  61.2763694
  38.1461696  68.9055801  61.6631568  37.6317506  69.2877005  61.2120227
  30.7480033  68.2936159  65.8598355  29.8917928  68.4544658  65.9107472
  30.7947686  67.4228223  65.8803416  30.6279144  68.1886961  65.8704421
  33.5931854  70.3528203  68.5030007  34.1387814  71.0313290  68.5623976
  33.5348730  70.2115664  67.6431588  33.6647768  70.4320205  68.3842067
  35.3696922  71.7812810  59.3763735  35.2536448  72.5320496  59.8055873
  36.1652809  71.5236764  59.6259822  35.4701512  71.8547657  59.4767826
  19.9070973  73.8637556  63.5150693  19.6721157  73.0305208  63.4082962
  20.0456613  74.1442222  62.7011894  19.8926635  73.7821059  63.3793048
  22.2061060  66.0323287  66.4135001  21.5866092  65.4415934  66.2445015
  22.1044924  66.6234722  65.7799324  22.0998736  66.0327369  66.2939990
  27.2527248  75.7706833  60.6633077  27.5743089  76.3112041  60.0594385
  27.8999344  75.2003605  60.7955367  27.3953303  75.7666009  60.5940112
  29.3028956  67.7722828  60.7467464  30.0009121  67.9510956  61.2388927
  29.6181288  67.2493168  60.1237853  29.4524293  67.7216600  60.7269474
  21.9330193  69.5775568  68.6578570  21.8088890  70.1638014  69.2928388
  22.5848478  69.0835764  68.9590845  22.0103843  69.5914373  68.7964499
  29.4916891  74.1593273  60.7347255  29.9310527  73.5510374  61.1802028
  29.3421554  73.7800647  59.9632720  29.5338357  74.0131744  60.6866423
  26.9588534  72.7537285  67.9366081  27.6037537  72.2609728  67.6177029
  27.1990311  72.8962072  68.7632159  27.0899119  72.7014727  68.0115614
  29.4974626  75.5992191  67.5872973  29.7797868  74.8043597  67.3659729
  30.2260786  76.0772778  67.6078034  29.6464189  75.5526788  67.5575988
  27.4755819  63.1415225  64.8288738  27.1459149  63.5926369  64.1592437
  26.8000821  63.0631388  65.3761745  27.3266256  63.1966360  64.8111962
  33.0926228  72.5120455  57.6878024  33.0077523  73.3681421  57.8327593
  33.5810611  72.2364779  58.3560184  33.1515125  72.5977776  57.8080106
  34.6832227  59.1300748  63.0738349  34.3685668  59.8204226  63.5058771
  34.1659169  59.0745530  62.3723850  34.5596698  59.2235636  63.0335298
  34.0244661  69.1305249  59.1875760  33.4956132  69.3464882  59.8473066
  34.5469681  69.8241387  59.1076729  34.0233114  69.2648386  59.2731359
  39.4792714  74.7051553  64.5608804  38.6490417  74.9162197  64.7242221
  39.4301966  73.8788608  64.2851088  39.3499449  74.6141160  64.5446169
  25.9144269  73.0268466  57.9883227  25.3301484  73.5318497  58.3949091
  25.5114364  72.8010852  57.2479819  25.7683573  73.0676714  57.9388253
  30.3721483  69.2734118  56.4652148  30.6117487  69.4812101  55.6527491
  30.6937324  68.4691626  56.5741093  30.4558641  69.1848219  56.3612701
  25.6811773  61.2027513  60.3111686  26.4357742  61.5705830  60.0728736
  25.5039308  61.5767068  61.0790866  25.7666252  61.3125701  60.3896575
  38.9746672  67.3521954  68.3559225  38.1375093  67.4224141  68.5906820
  38.9434903  67.3546449  67.4833528  38.8464955  67.3632181  68.2618773
  25.3711401  69.4954990  74.0707594  25.5431905  69.3860884  74.9192875
  25.9080759  70.1409395  73.8338786  25.4756405  69.5746991  74.1612691
  24.0368838  63.6097832  57.0089799  23.8544411  63.8269713  56.1830792
  24.8994451  63.7236845  57.0648413  24.1373428  63.6587730  56.8944286
  23.6483270  75.4485755  64.4512787  24.4872170  75.6808687  64.4986549
  23.6795039  74.5790066  64.3819822  23.7764988  75.3542701  64.4477432
  29.7168557  60.6124243  60.0438823  30.4454718  60.4340198  59.5976979
  29.8063450  61.4542323  60.2546001  29.8375219  60.7108121  60.0092340
  33.6976858  71.5477630  63.9471117  34.4534373  71.9809145  63.9860026
  33.8039182  70.8982400  64.5205753  33.8247029  71.5155114  64.0369142
  36.7357029  75.3750908  64.6973520  36.2992261  75.3787650  65.4532491
  36.4019945  76.0556407  64.2653097  36.6219649  75.4763363  64.7454352
  36.6554512  62.4164736  66.9402948  37.2980420  62.4862840  67.5264863
  36.9077533  61.7493958  66.4382490  36.7876644  62.3291084  66.9530227
  23.5830865  66.8872005  55.5212272  22.8689042  66.6010185  55.9334705
  24.0674834  67.2268631  56.1618660  23.5490228  66.8953655  55.6767907
  24.4271725  65.6265299  71.5527522  23.7343521  65.1562279  71.7988253
  25.0432052  65.4003603  72.1269229  24.4156255  65.5232431  71.6736674
  39.8701375  72.0931828  63.5893157  40.5317809  71.5322496  63.4889065
  39.2292787  71.5983858  63.9145848  39.8730243  71.9368237  63.6225497
  30.7578183  75.3901959  55.8974080  31.1729332  75.0586983  55.2058576
  29.9270113  75.1570861  55.7694217  30.6966192  75.3073215  55.7764928
  20.0866532  72.8745700  66.1872258  19.9042105  72.8492586  65.3344550
  20.8216201  73.3444638  66.2261167  20.1680596  72.9407062  66.0670177
  36.1566206  73.1097210  63.3305146  36.3921795  73.2542409  62.5031996
  36.3055770  73.8739618  63.7236659  36.2132009  73.2436264  63.2668750
  23.1512284  69.5930703  72.6954367  23.8752256  69.5783734  73.1819262
  23.2528420  70.3026058  72.1976335  23.2730493  69.6955406  72.6933154
  37.9856663  71.9498876  61.1674750  38.3164880  72.4826516  60.5614844
  38.5589751  72.0037764  61.8236701  38.1190342  72.0368445  61.1752531
  33.1988552  69.7963779  61.8498330  33.2935406  70.5353073  62.3037955
  32.5747395  69.3681254  62.2832894  33.1197582  69.8425099  61.9806477
  20.0537442  69.7539201  66.3371325  20.6310945  69.6175651  66.9763570
  19.3551504  69.2974985  66.5916909  20.0358464  69.6661467  66.4693614
  33.4511573  71.6412518  55.0835282  33.3691736  71.7114706  55.9490269
  34.0891294  72.2042262  54.8919022  33.5331411  71.7351489  55.1825231
  26.8104744  71.4073256  64.5509808  26.5523989  70.5744991  64.5241108
  26.8653227  71.6330869  63.7102308  26.7804522  71.3171028  64.4229945
  31.8905795  63.5101707  64.6513901  31.1862121  63.0210893  64.8097820
  31.9390769  63.5224181  63.7802345  31.7935846  63.4391355  64.5453241
  25.7839457  68.9611019  65.0374703  25.2089048  69.1203187  65.6738664
  25.4075133  68.3246428  64.5743153  25.6442269  68.8908832  65.0629261
  29.4512745  67.4334368  69.8967081  29.0627178  67.0088586  69.2419272
  28.7867444  67.6816518  70.4044108  29.2959673  67.4073089  69.8754949
  39.0936014  67.1909373  62.6714911  38.8372579  66.3789314  62.4812794
  39.9365328  67.1986940  62.4445099  39.1802040  67.0721370  62.6099728
  15.5296275  68.6051094  63.0519143  15.6156527  68.2282962  63.8332673
  16.1572073  68.2311539  62.5739102  15.6352826  68.4936576  63.0964621
  33.2739107  61.1308997  67.4091065  33.6549618  60.4487168  67.7958940
  32.4702391  60.8418599  67.2266730  33.2115568  60.9876045  67.4395121
  30.5551683  71.6632973  58.0943888  31.3692322  71.9547865  57.9826660
  30.4910825  71.0092835  57.5202181  30.6654422  71.6098167  57.9932726
  26.4259592  75.1354490  63.2216200  27.0633539  74.8966238  63.7667994
  26.8514663  75.3391649  62.4869361  26.5835758  75.1305500  63.1933358
  27.0662407  70.3556780  57.5591090  27.4507559  70.1364487  58.3107635
  26.8174027  71.1819725  57.6892166  27.0864479  70.4454926  57.6892166
  27.2330947  63.6363195  77.2753674  26.9184388  64.4062758  77.0123237
  26.9120880  63.0733451  76.6905901  27.1389866  63.6673464  77.1495024
  28.8081064  75.6126913  64.9009987  28.8820072  75.4502085  65.7551836
  29.6250570  75.8017102  64.6570468  28.9397422  75.6163655  64.9908012
  24.7862844  62.0253717  62.8899870  23.9185270  62.0976316  62.9557479
  25.0738048  62.8275796  63.0787845  24.7002592  62.1547864  62.9274637
  33.9095733  62.1731576  71.2211192  34.6549325  61.9841386  70.8074617
  33.4933037  62.6989814  70.6625048  33.9580707  62.2233721  71.0775765
  41.2858004  69.5440804  66.1716697  41.8365925  68.9108874  66.4113789
  41.2702119  70.0756197  66.8632201  41.3643200  69.5289753  66.3095555
  27.9380395  73.3779402  70.7176590  27.4392088  74.0895169  70.7961479
  28.7480619  73.6980068  70.6794753  27.9836501  73.5306250  70.7233159
  24.2008512  72.6402355  64.9639311  23.9121761  72.0139826  65.4985039
  25.0691860  72.5822642  65.0303992  24.2868764  72.5389899  65.0530266
  34.9886410  67.7837138  65.2821293  34.6451176  67.0627473  65.6328543
  35.0879452  67.5750989  64.4399651  34.9528453  67.6461341  65.2092973
  24.4040785  74.2797606  60.8881676  25.1586753  74.6610645  61.1017139
  23.8111398  74.7308749  61.3428373  24.4277499  74.4026433  60.9864555
  35.4499439  74.2462842  60.8245281  36.0157472  74.9056052  60.7403824
  34.8027342  74.5912540  61.2961683  35.4378195  74.3944784  60.8818038
  26.8647453  66.2360446  76.0138889  26.0547228  66.5418226  75.9028731
  27.3422139  66.9566028  76.1291473  26.8150931  66.3875047  76.0145960
  25.7239012  75.4506167  66.2621792  25.2019766  75.5906459  66.9473656
  26.1113032  74.6916831  66.4523909  25.7042713  75.3591691  66.3922868
  22.7130196  65.5011976  60.3316746  22.4254992  65.1313246  59.5948694
  23.4000664  65.9706831  60.0700451  22.7719093  65.5158945  60.1831822
  31.9206017  77.1901626  60.2482361  31.6792693  76.4569487  59.8409425
  32.1007350  77.7388483  59.5948694  31.9113641  77.1624018  60.0912583
  27.1505338  72.4810186  61.6603283  26.9548120  73.0884921  61.0663586
  27.3739683  71.7878130  61.1794957  27.1539979  72.4687712  61.5019364
  25.5483868  69.3664924  61.7784151  26.2706520  69.5306082  61.3187957
  25.0691861  70.0874589  61.6723491  25.5847598  69.4963154  61.6949765
  33.5077375  65.7028723  67.1580836  32.6688476  65.7290002  66.9219099
  33.5781743  66.3499458  67.7386183  33.3945769  65.8024849  67.2089953
  31.9546654  62.6014100  61.8908452  32.6573006  62.4021848  61.4128410
  31.6890842  61.8290042  62.1977295  32.0193286  62.4577066  61.8653894
  37.3834899  70.9096710  64.4442078  37.2968874  71.0652136  65.2976857
  36.9285379  71.5534785  64.0701483  37.3038156  71.0272465  64.5149185
  26.7175210  63.8649385  70.9439333  26.5258407  63.8804520  71.7938756
  27.5673806  64.0613059  70.9205987  26.8150932  63.8963736  71.0662627
  21.1022123  66.3940367  68.9223149  20.9607615  65.5424307  69.0467657
  21.3862686  66.4369027  68.0985355  21.1229969  66.2740117  68.8190773
  31.2560715  68.2307457  63.0667637  31.0095429  68.1503208  63.9004426
  31.5845838  67.4460925  62.8730165  31.2681959  68.1033722  63.1615160
  35.1508764  74.9390816  66.8554419  35.0123123  75.6371862  67.3603161
  34.3708762  74.7839473  66.4990600  35.0151991  75.0190983  66.8780693
  27.2157742  70.9664175  72.4790620  27.3601118  71.5465384  71.8433730
  27.5633391  71.3440472  73.1840475  27.2885204  71.1084879  72.4889615
  29.3877660  70.1654344  70.2615752  28.6400974  70.3585358  69.8564030
  29.5419185  69.3399563  70.0239873  29.3000087  70.0719455  70.1661158
  36.6462137  74.2969070  57.6170918  36.2668946  73.5106208  57.6100207
  35.9828382  74.8455927  57.4742562  36.4920612  74.2613894  57.5951715
  29.6279437  64.0604894  71.1511156  30.0852051  64.7928869  71.2783948
  29.7035766  63.6371360  71.9098412  29.7070407  64.1062133  71.2812232
  21.8712428  64.3070714  72.2400599  21.3354618  63.6951072  72.5561367
  21.9330193  64.8818850  72.8934266  21.8008061  64.3017642  72.3836026
  34.1006763  57.2394770  65.0204999  34.2190331  57.6971233  64.2872301
  33.9268939  56.4340031  64.7341216  34.0925934  57.1888542  64.8705932
  27.5061815  66.0506998  67.9952980  26.7157890  65.8698458  68.3170316
  27.9022438  65.2733951  67.9783274  27.4478691  65.9094459  68.0405528
  31.9927706  74.8794773  53.4359693  32.7600691  74.9394898  53.0265545
  31.5459015  74.3075214  52.9516012  32.0401133  74.8031348  53.3037404
  32.8905501  73.6849429  65.7212426  32.2150503  73.4534661  66.2225813
  32.8997877  73.0770611  65.0954531  32.7924006  73.5608354  65.7028578
  30.0199645  68.5267258  72.4776479  29.9558786  69.3877214  72.3496615
  30.1596833  68.2099251  71.6772030  30.0315115  68.6067424  72.3404692
  34.8922236  76.5414561  57.9522604  34.9742073  77.3481547  57.6284055
  35.3771978  76.5610520  58.6763377  34.9759394  76.6635223  58.0109502
  28.7018739  71.2199397  66.6192682  28.2780988  71.4203896  65.8831700
  28.5263594  70.3728245  66.7316981  28.6129620  71.1248178  66.5266372
  23.9901184  71.7151448  62.0520654  24.1465803  71.6498251  62.9076646
  24.3301777  72.4900001  61.8399334  24.0634419  71.8200646  62.1475248
  30.5280329  71.0909332  60.9214017  31.0695874  70.5879713  61.3852638
  30.8426888  71.0374527  60.1103503  30.6544726  71.0088753  60.8697829
  28.6966778  76.4826683  58.2054045  28.7659599  75.6241222  58.3447046
  29.4755233  76.6998564  57.8773070  28.8219628  76.3879547  58.1771203
  31.6769598  65.9845636  70.9736318  31.8911567  65.3456551  70.4199672
  31.0603497  66.4291460  70.5444180  31.6174927  65.9555780  70.8286749
  20.5635445  68.8986399  62.3681421  20.9434410  69.3170944  61.7041689
  19.9890810  69.4799854  62.6750265  20.5346770  69.0464258  62.3158162
  33.8408686  67.5934702  71.9119625  33.0285368  67.2860592  71.9932798
  34.2998621  67.1133702  72.4762337  33.7889071  67.4771194  72.0074219
  33.2513941  75.4714374  62.3596569  32.8928595  75.6429016  63.1360602
  32.7652651  75.9327579  61.8024568  33.1272638  75.5653345  62.3921838
  31.0684327  59.0945572  65.9623661  30.1977885  59.0684293  65.9156970
  31.3224668  58.9222764  65.1449506  30.9777887  59.0655716  65.8343797
  28.0402306  71.1513539  54.8996804  28.3294831  71.9278421  55.1740378
  28.1274105  70.6402270  55.6011303  28.0956562  71.1905457  55.0439301
  28.0933467  61.1051800  67.4197131  27.5771956  60.4131992  67.5448710
  27.5327396  61.7722578  67.3659730  27.9339980  61.1015058  67.4303197
  30.1625701  61.6444760  69.2489984  29.7757454  61.6693792  70.0303513
  29.6758638  61.0786439  68.7964500  30.0338209  61.5640511  69.2977887
  36.1375680  68.2107415  67.8729686  35.7103288  68.1233764  67.1177785
  35.5001733  68.3185191  68.4584530  35.9805287  68.2140075  67.8475127
  29.8282842  58.5311746  71.5400243  30.4575960  59.0672046  71.2621314
  29.9968705  58.4389105  72.3913809  29.9460637  58.5973108  71.6248772
  29.6296757  63.3182941  73.8126655  30.4570186  63.0468090  73.8685270
  29.6504603  64.1143782  74.1690473  29.7549607  63.3962695  73.8741838
  24.2066247  70.4646803  66.9996916  23.3654254  70.3650678  67.2075810
  24.4156255  71.2342284  67.3511236  24.1130940  70.5638847  67.0824231
  21.6841814  68.0866340  64.8281666  21.2898512  68.1609352  64.0531776
  21.1281931  68.4724287  65.3790028  21.5444626  68.1548115  64.7949326
  33.3206761  61.0647634  64.5085545  33.5256354  60.9969942  65.3542542
  32.9933185  61.8706456  64.4406723  33.3022009  61.1733575  64.6245200
  28.0182912  68.3928203  66.2494513  27.7146049  67.8384191  66.8504921
  27.3162333  68.5720413  65.7622547  27.8699122  68.3372985  66.2664219
  27.0749009  65.7028722  60.8139215  27.3508743  64.9847635  60.4016783
  27.6747678  66.3013642  60.6060321  27.2042274  65.6849093  60.7219976
  36.5740448  61.6179399  63.9888311  35.9614762  62.1049801  64.3742043
  36.6704623  60.9422890  64.5325962  36.4978346  61.5897707  64.1267169
  30.5759529  63.3742240  59.0885810  31.0303276  63.5452800  59.8133655
  31.0499575  62.7610351  58.6883586  30.7127850  63.3093125  59.1359572
  24.0975055  72.8590566  68.4188549  23.5062988  73.5000064  68.3891564
  24.8596078  73.2828183  68.3919848  24.1223315  73.0166404  68.4103696
  24.4935678  64.0192564  69.0856566  24.9537159  64.0931493  69.8231690
  24.5391784  64.8173818  68.7356388  24.5686233  64.1486711  69.1429323
  26.1419027  64.6859258  73.6528593  25.7504593  64.0392606  74.0884371
  26.3104890  65.2770694  74.2722849  26.1089938  64.6773526  73.8091299
  33.8564571  78.3099877  65.8520573  33.6584260  78.7990692  65.1576784
  33.2352282  78.5141119  66.4304706  33.7352136  78.4116416  65.8343796
  27.9172549  70.0784774  60.1930817  28.6614594  70.4659050  60.4313767
  28.0633246  69.2342200  60.3571305  28.0483135  70.0115247  60.2524787
  29.8352125  61.8735033  65.2262679  28.9888170  62.0457841  65.1004029
  29.8323257  61.0684377  65.5628507  29.7099275  61.7796062  65.2573806
  30.9050425  65.6510247  66.0924737  30.4310380  65.1252010  66.6030048
  31.2768561  65.1039720  65.5239598  30.8900314  65.4926244  66.0839884
  21.2823455  67.6481754  71.4608282  22.1449068  67.5477463  71.3745612
  20.9515238  67.0676463  70.8993855  21.3608652  67.5473381  71.3653688
  37.1687156  70.7112623  67.5031517  36.9285379  69.8719038  67.5073944
  37.6479163  70.7912790  68.2272291  37.2039340  70.5994023  67.6106320
  32.8333925  66.5446802  59.1550490  32.3056944  66.6275546  58.4656199
  33.2929633  67.2864674  59.1515135  32.8235775  66.6667464  59.0525186
  39.1692343  67.4914080  65.4560776  38.9302113  67.4509915  64.6181561
  39.3326244  68.3385232  65.5826497  39.1582646  67.6106165  65.3514258
  24.6425241  66.4724203  68.1218701  24.0178312  66.4842595  67.5144653
  24.3070836  66.9484378  68.7709941  24.5010733  66.5442720  68.1275269
  24.8266990  64.8149322  54.1791386  24.4779794  65.4669047  54.6422935
  24.3463436  64.8006435  53.4515257  24.7037234  64.9092375  54.1402477
  32.3871007  75.1150366  58.2860148  33.1105206  75.5808479  58.1424721
  31.9471598  75.1823975  57.5357745  32.4286700  75.1934202  58.1544929
  31.5557163  71.9747908  69.5360837  30.9414156  71.4305958  69.8309472
  32.0724447  71.4612144  69.0566653  31.5412825  71.8184317  69.5085065
  30.7953460  73.0452178  67.2705135  30.3681068  72.4201897  66.8370571
  30.7878404  72.7627100  68.0964142  30.7312601  72.9104959  67.3284963
  23.9115987  68.0817351  70.3393569  24.0709473  67.3260675  70.7445291
  23.7308880  68.6308291  70.9934307  23.9081346  68.0511165  70.4956275
  31.8536290  60.2478587  70.8944359  31.3576851  60.4442261  70.2035925
  32.6105352  60.6471255  70.7233160  31.8923114  60.3356320  70.7664495
  29.1239169  63.9220932  67.4847669  29.1481657  63.3881045  66.7960449
  29.3750643  63.4138241  68.1473260  29.1649088  63.7681836  67.4812314
  25.4040492  62.6491751  66.8653413  25.4438863  63.1500957  67.5788121
  24.5790156  62.7402144  66.5959337  25.2880018  62.7373567  66.9303952
  26.8254855  69.1652261  69.1627312  25.9946785  69.3326079  68.9562561
  26.7706372  68.7888211  69.9476198  26.6944270  69.1341992  69.2475841
  24.6338638  62.6561153  74.7983723  25.2591342  62.1123286  75.0713155
  24.1789118  62.1756071  74.2291514  24.6586899  62.5050635  74.7545317
  25.1990899  67.4407852  59.6917430  25.3393860  67.9380316  60.3946072
  25.6973432  66.7394147  59.8331644  25.2931980  67.4109831  59.8169009
  25.2291121  68.3074963  57.0210007  25.8636201  68.9035388  56.9559469
  25.3116732  68.0078421  57.8355877  25.3347672  68.3515871  57.1313094
  26.8070104  64.2388939  56.9955449  27.1285945  63.7592021  56.3414711
  27.0697048  65.0488585  56.8046261  26.8936129  64.2878836  56.8710941
  30.0367077  75.2607813  70.5154265  29.5292168  75.8143660  70.9594896
  29.7393723  75.3216103  69.6973040  29.9171962  75.3514124  70.4602722
  32.2029259  63.6261133  69.3578928  32.6284331  63.1733659  68.7462454
  31.5886252  63.0721203  69.6343716  32.1757904  63.4775109  69.3083953
  21.7344109  70.5042804  60.2899553  22.2436338  71.1007311  60.6710859
  22.2078381  70.2368778  59.6075973  21.8787485  70.5528619  60.2454076
  30.6423482  60.0976232  62.7669505  29.9991800  59.9473879  63.3354644
  30.3022889  59.8518578  62.0018610  30.4968559  60.0388355  62.7372520
  35.2322828  68.0535659  62.1899514  34.5614018  68.5965361  62.0612579
  35.9262579  68.5230514  61.9481208  35.2351696  68.2033930  62.1355041
  35.3950956  64.5091543  65.0989887  35.7478566  64.0821266  65.7735686
  34.5365757  64.4242386  65.2290963  35.3200400  64.4336283  65.2184897
  24.0934641  67.1399062  63.1572733  23.3746630  67.5563195  63.4245597
  24.4647003  67.7053301  62.6064372  24.0426573  67.2848344  63.1155540
  33.3934222  67.7726911  69.0474729  33.3732149  67.5910207  69.9009508
  33.4413422  68.6438930  69.0234313  33.3968863  67.8743450  69.1698024
  29.8681215  66.1797062  58.4946113  29.2746054  66.5014059  57.9430680
  29.9056493  65.3338158  58.2867219  29.7855604  66.1021391  58.3828884
  36.8275016  59.6309955  66.0274199  36.3205881  58.9239094  65.9595377
  37.6242450  59.3003143  66.1575276  36.8702255  59.4783106  66.0373194
  32.7439032  66.1376567  61.9247863  32.5152725  66.1609268  61.0826221
  33.0037108  65.3134034  62.0442874  32.7485220  66.0192647  61.8173061
  27.0258260  67.9911040  71.5272963  26.5137163  67.3832223  71.8857995
  26.8537756  68.7067632  71.9946939  26.9247897  68.0074339  71.6489187
  25.7983794  64.6753113  63.2202059  26.2741161  65.0370193  62.5852240
  25.2972394  65.3309581  63.5002202  25.7949153  64.8247302  63.1678800
  39.0295156  74.1474881  59.0115064  39.4128762  74.8966237  59.2413161
  38.2339269  74.3940701  58.7527053  38.9688938  74.2944575  59.0072637
  30.9027331  65.9135285  73.9675219  31.4598761  65.6849094  73.3353684
  30.5788396  66.6740950  73.6910431  30.9373741  65.9919121  73.8331716
  27.8410447  66.8194313  56.5875443  28.2209412  66.8373942  55.8026558
  27.1003043  67.2648302  56.4666290  27.7879285  66.8876088  56.4539011
  35.4695738  65.1276504  62.1751021  35.4689964  64.9725161  63.0335298
  35.2651918  65.9739491  62.1192407  35.4395516  65.2297125  62.2938961
  17.5313009  68.5516289  66.5909838  17.3534770  68.0992898  67.3164754
  17.2432031  69.3542450  66.7748316  17.4625962  68.6038846  66.7253341
  33.1936590  69.8074006  65.8287228  33.6890255  69.0897001  65.7891249
  32.3836366  69.5044804  65.7141715  33.1480483  69.6571652  65.8060954
  28.6395202  73.6571819  57.9784233  27.8306524  73.3338493  57.9317542
  29.1470110  72.9505041  57.9112481  28.5944868  73.5053136  57.9614527
  19.2685479  71.0844012  63.7031597  18.4030998  71.0729703  63.5914368
  19.3684295  70.8974235  64.5502736  19.1559646  71.0550074  63.8120541
  35.2588409  72.5577693  68.5164357  35.6843480  72.0352115  67.9634782
  34.8945329  73.1558531  67.9952980  35.2675011  72.5687920  68.3573367
  31.8467008  76.2711958  64.8465515  32.3178186  76.9852220  65.0155500
  32.1827187  75.6710708  65.3825384  31.9662123  76.2883422  64.9497890
  28.7636503  61.0439428  71.8023609  28.8964409  60.2470422  72.1304585
  29.1481656  61.5705831  72.3821885  28.8392832  61.0039345  71.9367112
  31.8368858  57.9669754  68.4004703  31.0314822  57.8567484  68.7172541
  31.7075594  58.0682210  67.5434568  31.6988991  57.9653424  68.3212743
  35.2934819  64.1315246  68.9944399  34.7097808  64.6324453  68.5821967
  35.6139113  63.6244803  68.3608723  35.2547994  64.1307081  68.8402907
  27.8329618  63.0455841  59.2703074  28.6545312  63.2154154  59.0284769
  27.3699269  63.2003102  58.5469372  27.8860780  63.0937574  59.1274719
  26.4224950  61.0398603  70.0501503  26.9669363  60.6989730  70.6405845
  26.4761886  61.8984065  70.1922788  26.5114069  61.1153863  70.1583376
  32.0499281  77.0680965  68.1402548  32.8697655  76.9243931  68.4018844
  31.7693359  77.6927163  68.6818986  32.1296024  77.1391317  68.2590488
  38.4488403  78.6600533  64.8288738  38.1191733  79.1111676  64.1592437
  37.7733405  78.5816696  65.3761745  38.2998839  78.7151668  64.8111962
  45.6564811  74.6486056  63.0738349  45.3418252  75.3389534  63.5058771
  45.1391752  74.5930838  62.3723850  45.5329281  74.7420944  63.0335298
  36.6544357  76.7212821  60.3111686  37.4090325  77.0891138  60.0728736
  36.4771892  77.0952376  61.0790866  36.7398835  76.8311009  60.3896575
  35.0101422  79.1283140  57.0089799  34.8276995  79.3455021  56.1830792
  35.8727035  79.2422153  57.0648413  35.1106011  79.1773038  56.8944286
  40.6901141  76.1309551  60.0438823  41.4187301  75.9525506  59.5976979
  40.7796034  76.9727631  60.2546001  40.8107803  76.2293429  60.0092340
  35.7595428  77.5439025  62.8899870  34.8917853  77.6161624  62.9557479
  36.0470632  78.3461103  63.0787845  35.6735176  77.6733172  62.9274637
  42.9279237  78.1199408  61.8908452  43.6305590  77.9207156  61.4128410
  42.6623426  77.3475350  62.1977295  42.9925869  77.9762374  61.8653894
  45.0739346  72.7580078  65.0204999  45.1922914  73.2156541  64.2872301
  44.9001522  71.9525339  64.7341216  45.0658517  72.7073850  64.8705932
  42.0416910  74.6130880  65.9623661  41.1710468  74.5869601  65.9156970
  42.2957251  74.4408072  65.1449506  41.9510470  74.5841024  65.8343797
  41.5492113  78.8927548  59.0885810  42.0035860  79.0638108  59.8133655
  42.0232159  78.2795658  58.6883586  41.6860433  78.8278433  59.1359572
  40.8084708  77.3920341  65.2262679  39.9620754  77.5643149  65.1004029
  40.8055841  76.5869685  65.5628507  40.6831858  77.2981370  65.2573806
  43.8066509  82.0632110  59.1550490  43.2789527  82.1460854  58.4656199
  44.2662217  82.8049981  59.1515135  43.7968359  82.1852772  59.0525186
  37.7802688  79.7574246  56.9955449  38.1018529  79.2777329  56.3414711
  38.0429631  80.5673893  56.8046261  37.8668713  79.8064144  56.8710941
  41.6156065  75.6161540  62.7669505  40.9724383  75.4659187  63.3354644
  41.2755472  75.3703885  62.0018610  41.4701143  75.5573663  62.7372520
  38.8062202  78.5641149  59.2703074  39.6277896  78.7339462  59.0284769
  38.3431853  78.7188410  58.5469372  38.8593364  78.6122882  59.1274719
  15.2966005  15.1068024  48.0385472  15.2660009  15.9612660  48.2103741
  15.8947353  14.8063316  48.5971615  15.3803162  15.1884520  48.1460274
   8.4965689  14.1943675  52.7938402   7.6403585  14.3552173  52.8447519
   8.5433343  13.3235739  52.8143463   8.3764801  14.0894477  52.8044468
   2.8806829  23.7306393  48.5575634   2.1289729  23.3521931  48.3291679
   3.3292841  23.7624826  47.8094444   2.8356496  23.6792000  48.4133136
  11.8059406  20.4630200  62.3998858  12.5126173  19.9682231  62.5285793
  11.9947341  20.9039282  61.6701516  11.9387312  20.4548551  62.3107904
   8.3331789  24.1531762  43.9861181   7.9983157  24.8308684  43.5505403
   8.8458659  23.7637073  43.3978052   8.3597370  24.1956340  43.8347972
   7.8736080  26.1046031  49.9272292   8.2575460  26.6732929  49.3877067
   7.8095221  25.3795541  49.4478108   7.9209507  26.0821494  49.7766155
  11.3417510  16.2535719  55.4370054  11.8873470  16.9320805  55.4964023
  11.2834387  16.1123179  54.5771635  11.4133425  16.3327720  55.3182114
   4.4591585  23.7424785  50.8238406   4.5601948  22.9325139  51.1335534
   3.8633331  23.6481731  50.1938085   4.3864124  23.6089813  50.7764644
  13.1182579  17.6820326  46.3103781  13.0022105  18.4328012  46.7395919
  13.9138466  17.4244279  46.5599868  13.2187168  17.7555173  46.4107873
   4.2992325  28.6602374  52.2253262   4.9429780  29.1015538  52.6149420
   4.6248580  27.8555800  52.1383521   4.4424154  28.6067569  52.2698739
   5.0012905  21.6714349  47.5973124   5.3228746  22.2119556  46.9934432
   5.6485001  21.1011120  47.7295414   5.1438960  21.6673524  47.5280159
   7.0514613  13.6730344  47.6807511   7.7494777  13.8518471  48.1728974
   7.3666945  13.1500683  47.0577900   7.2009950  13.6224116  47.6609521
   7.2402548  20.0600789  47.6687302   7.6796184  19.4517889  48.1142075
   7.0907211  19.6808162  46.8972767   7.2824014  19.9139260  47.6206469
   4.7074191  18.6544801  54.8706127   5.3523194  18.1617244  54.5517076
   4.9475968  18.7969587  55.6972206   4.8384776  18.6022243  54.9455661
   7.2460282  21.4999706  54.5213020   7.5283525  20.7051112  54.2999776
   7.9746443  21.9780294  54.5418081   7.3949846  21.4534303  54.4916035
  10.8411885  18.4127970  44.6218071  10.7563180  19.2688937  44.7667640
  11.3296268  18.1372294  45.2900230  10.9000782  18.4985291  44.7420153
  12.4317884   5.0308263  50.0078396  12.1171325   5.7211742  50.4398818
  11.9144826   4.9753045  49.3063896  12.3082354   5.1243152  49.9675345
  11.7730318  15.0312764  46.1215806  11.2441789  15.2472398  46.7813113
  12.2955338  15.7248903  46.0416776  11.7718771  15.1655901  46.2071406
  17.2278371  20.6059069  51.4948851  16.3976074  20.8169712  51.6582267
  17.1787623  19.7796123  51.2191134  17.0985106  20.5148675  51.4786216
   3.6629926  18.9275981  44.9223274   3.0787141  19.4326012  45.3289138
   3.2600021  18.7018368  44.1819866   3.5169229  18.9684229  44.8728300
   5.2888108  23.4362923  54.3296760   4.7715050  23.0770338  53.7258068
   5.9862500  22.9125097  54.3402826   5.3153689  23.3060611  54.2427019
   8.9451700  23.8857737  60.2912933   9.0335046  23.6983877  61.1391144
   9.3741413  23.2395166  59.8917780   9.0213803  23.7620745  60.3584685
   6.5122160  23.1688897  59.2730596   5.9492995  22.7561507  59.7970257
   7.2743184  23.0941802  59.6923739   6.5416609  23.0966297  59.4123596
   8.1207140  15.1741633  43.3992195   8.3603144  15.3819617  42.5867538
   8.4422981  14.3699142  43.5081139   8.2044298  15.0855734  43.2952748
   2.0718152  25.1586918  51.8767226   2.7738731  24.6438907  51.9339982
   1.9915635  25.4861069  52.6814101   2.1641912  25.1301144  52.0040018
  16.7232329  13.2529469  55.2899272  15.8860750  13.3231656  55.5246867
  16.6920560  13.2553964  54.4173574  16.5950611  13.2639696  55.1958820
   1.3968927  21.3493270  51.3852834   2.2357826  21.5816203  51.4326595
   1.4280696  20.4797581  51.3159869   1.5250645  21.2550216  51.3817478
   2.0221630  21.7694145  55.6866139   2.5619855  21.6265276  56.3569512
   1.3391576  22.1690896  56.0550165   2.0013784  21.8073816  55.8400561
  11.4462515  17.4485146  50.8811164  12.2020030  17.8816660  50.9200072
  11.5524839  16.7989915  51.4545800  11.5732685  17.4162630  50.9709189
  14.4842686  21.2758423  51.6313567  14.0477918  21.2795165  52.3872538
  14.1505601  21.9563922  51.1993144  14.3705306  21.3770879  51.6794399
   9.0571760  23.3166756  62.9556717   9.8412176  23.4297604  63.3212459
   8.8568354  22.4907893  63.1515403   9.1437785  23.2113475  63.0391103
  14.4040169   8.3172251  53.8742995  15.0466077   8.3870355  54.4604910
  14.6563190   7.6501474  53.3722536  14.5362301   8.2298599  53.8870274
   1.3316522  12.7879520  42.4552319   0.6174699  12.5017700  42.8674751
   1.8160491  13.1276146  43.0958706   1.2975885  12.7961170  42.6107954
   9.2142153  25.2276858  56.6023173   8.4157399  24.9876358  56.8597041
   9.6628164  25.2791251  57.3490220   9.1616764  25.1999249  56.7508097
  17.6187032  17.9939343  50.5233204  18.2803466  17.4330011  50.4229112
  16.9778444  17.4991374  50.8485895  17.6215900  17.8375752  50.5565544
   8.5063840  21.2909474  42.8314127   8.9214988  20.9594498  42.1398623
   7.6755770  21.0578377  42.7034264   8.4451849  21.2080730  42.7104974
  13.9051863  19.0104725  50.2645193  14.1407452  19.1549924  49.4372043
  14.0541426  19.7747133  50.6576706  13.9617666  19.1443780  50.2008796
  15.7342320  17.8506391  48.1014796  16.0650537  18.3834031  47.4954891
  16.3075408  17.9045279  48.7576747  15.8675999  17.9375960  48.1092578
  10.9474209  15.6971294  48.7838377  11.0421063  16.4360588  49.2378002
  10.3233052  15.2688769  49.2172941  10.8683239  15.7432615  48.9146524
   9.2026683  18.8757507  59.4328657   9.7765544  18.2384751  59.5877221
   9.1241486  18.8761589  58.5638315   9.2759917  18.7822618  59.3275068
  11.1997230  17.5420034  42.0175329  11.1177393  17.6122221  42.8830316
  11.8376950  18.1049778  41.8259069  11.2817067  17.6359005  42.1165278
   4.5590401  17.3080772  51.4849855   4.3009645  16.4752507  51.4581154
   4.6138884  17.5338385  50.6442355   4.5290179  17.2178543  51.3569992
   9.6391451   9.4109222  51.5853947   8.9347778   8.9218408  51.7437867
   9.6876426   9.4231697  50.7142392   9.5421503   9.3398870  51.4793287
   3.5325113  14.8618534  51.9714750   2.9574705  15.0210703  52.6078711
   3.1560790  14.2253943  51.5083200   3.3927926  14.7916347  51.9969308
   7.1998402  13.3341883  56.8307128   6.8112835  12.9096101  56.1759319
   6.5353100  13.5824033  57.3384155   7.0445330  13.3080605  56.8094996
  16.8421671  13.0916888  49.6054958  16.5858236  12.2796830  49.4152841
  17.6850985  13.0994455  49.3785145  16.9287696  12.9728886  49.5439775
  11.0224764   7.0316512  54.3431112  11.4035275   6.3494683  54.7298986
  10.2188048   6.7426114  54.1606777  10.9601225   6.8883561  54.3735168
   8.3037340  17.5640488  45.0283935   9.1177979  17.8555381  44.9166706
   8.2396481  16.9100350  44.4542228   8.4140079  17.5105683  44.9272772
  14.5246830  20.2466484  59.4413511  14.2885468  19.4154549  59.3225571
  15.1690059  20.1952091  60.0268355  14.5841501  20.1164172  59.5099404
   4.1745248  21.0362005  50.1556247   4.8119195  20.7973753  50.7008040
   4.6000320  21.2399164  49.4209408   4.3321415  21.0313016  50.1273404
   4.8148063  16.2564295  44.4931136   5.1993216  16.0372002  45.2447682
   4.5659684  17.0827241  44.6232213   4.8350136  16.3462441  44.6232213
  15.5483251  20.0310933  55.5041805  15.2429068  20.7638990  55.8655121
  14.8289467  19.6248862  55.2234591  15.3970593  20.0792666  55.5154942
   6.5566720  21.5134428  51.8350033   6.6305729  21.3509600  52.6891883
   7.3736227  21.7024618  51.5910515   6.6883079  21.5171170  51.9248059
  21.2485043  16.6703934  54.8310149  21.1809543  16.6899893  53.9612736
  21.2340706  17.5134261  55.0565820  21.2363800  16.7977668  54.7362626
   5.0971306  24.4769171  46.5663507   5.3869605  24.0858152  45.8422733
   5.8274787  24.6585876  47.0068782   5.2478190  24.4462985  46.5246314
  19.0343660  15.4448320  53.1056744  19.5851582  14.8116389  53.3453836
  19.0187776  15.9763713  53.7972248  19.1128857  15.4297268  53.2435602
   5.6866051  19.2786917  57.6516637   5.1877745  19.9902685  57.7301526
   6.4966276  19.5987584  57.6134800   5.7322158  19.4313766  57.6573206
   3.0377222  26.4536554  49.6323656   2.8177517  26.1633908  50.4250323
   2.8171744  25.7951509  49.1041569   2.9724816  26.3136262  49.6712565
   1.9494169  18.5409870  51.8979358   1.6607418  17.9147341  52.4325085
   2.8177517  18.4830158  51.9644039   2.0354421  18.4397414  51.9870313
  12.7372067  13.6844653  52.2161340  12.3936833  12.9634989  52.5668590
  12.8365109  13.4758505  51.3739698  12.7014110  13.5468857  52.1433020
   5.2045177  27.8265944  48.4154349   5.8569235  27.2942386  48.6445375
   4.5070786  27.4734596  48.8022223   5.1975895  27.6955466  48.5066517
   2.1526442  20.1805121  47.8221723   2.9072410  20.5618160  48.0357186
   1.5597055  20.6316265  48.2768420   2.1763156  20.3033949  47.9204602
  13.1985096  20.1470358  47.7585328  13.7643128  20.8063567  47.6743871
  12.5512999  20.4920056  48.2301730  13.1863852  20.2952299  47.8158085
   3.4724669  21.3513682  53.1961839   2.9505422  21.4913974  53.8813703
   3.8598689  20.5924347  53.3863956   3.4528370  21.2599206  53.3262915
   9.6691674  23.0909142  47.1822407   9.4278350  22.3577002  46.7749472
   9.8493007  23.6395999  46.5288741   9.6599298  23.0631533  47.0252630
   4.8990995  18.3817702  48.5943330   4.7033777  18.9892436  48.0003633
   5.1225340  17.6885646  48.1135004   4.9025636  18.3695227  48.4359410
   3.2969525  15.2672439  48.7124198   4.0192176  15.4313598  48.2528004
   2.8177517  15.9882104  48.6063538   3.3333255  15.3970669  48.6289812
  11.2563032  11.6036238  54.0920883  10.4174133  11.6297517  53.8559146
  11.3267399  12.2506974  54.6726230  11.1431426  11.7032364  54.1430000
   0.9477141  17.6730512  57.8178338   1.4598238  17.9514765  57.1687098
   0.6613484  18.4119806  58.1841151   0.9812004  17.8232866  57.7768216
   9.7032310   8.5021615  48.8248499  10.4058663   8.3029364  48.3468457
   9.4376499   7.7297558  49.1317342   9.7678943   8.3584581  48.7993940
  15.1320556  16.8104225  51.3782125  15.0454530  16.9659651  52.2316903
  14.6771036  17.4542301  51.0041530  15.0523813  16.9279980  51.4489231
   9.0046372  14.1314972  50.0007684   8.7581086  14.0510723  50.8344473
   9.3331495  13.3468440  49.8070212   9.0167616  14.0041237  50.0955207
  12.8994421  20.8398331  53.7894465  12.7608780  21.5379377  54.2943208
  12.1194419  20.6846988  53.4330647  12.7637648  20.9198498  53.8120740
  11.2372506  17.1394707  60.0416847  11.2320544  16.2674523  60.0459274
  11.9433500  17.3382876  59.5686303  11.3417510  17.0398581  59.9723882
   4.9643399  16.8671691  59.4130667   5.1086775  17.4472899  58.7773777
   5.3119048  17.2447987  60.1180522   5.0370861  17.0092395  59.4229662
   7.1363317  16.0661859  57.1955799   6.3886631  16.2592873  56.7904077
   7.2904842  15.2407079  56.9579920   7.0485744  15.9726970  57.1001205
   4.0371154  25.0574462  56.2791694   4.1860718  24.4977378  55.6265099
   4.8171156  25.1366464  56.6624213   4.1745248  24.9860028  56.2388643
  14.3947794  20.1976585  44.5510965  14.0154602  19.4113723  44.5440254
  13.7314039  20.7463442  44.4082609  14.2406268  20.1621409  44.5291762
   6.5624455  25.2289105  57.5576185   6.4868126  24.5597916  58.1126973
   6.4914314  25.9306894  58.0716851   6.5405062  25.2334013  57.7153033
   7.2194702  23.7490104  48.3899791   7.9844593  23.4799748  48.0682455
   7.1172792  23.2640115  49.1069854   7.3176197  23.6379669  48.4479618
   5.2547472  11.9514514  54.9293027   4.4643546  11.7705974  55.2510362
   5.6508094  11.1741466  54.9123321   5.1964348  11.8101975  54.9745575
   9.7413362  20.7802288  40.3699740  10.5086347  20.8402413  39.9605592
   9.2944671  20.2082729  39.8856059   9.7886790  20.7038864  40.2377451
  10.6391158  19.5856944  52.6552473   9.9636160  19.3542176  53.1565860
  10.6483534  18.9778127  52.0294578  10.5409662  19.4615869  52.6368625
   7.7685302  14.4274773  59.4116526   7.7044443  15.2884729  59.2836662
   7.9082490  14.1106766  58.6112077   7.7800772  14.5074939  59.2744738
  12.6407892  22.4422076  44.8862650  12.7227730  23.2489062  44.5624101
  13.1257635  22.4618035  45.6103424  12.7245050  22.5642739  44.9449549
   6.4504396  17.1206912  53.5532728   6.0266645  17.3211411  52.8171747
   6.2749251  16.2735760  53.6657028   6.3615276  17.0255694  53.4606419
   5.9516089  28.6357425  56.0154186   6.4412020  27.9368214  55.8329850
   5.3800321  28.3381295  56.6030243   5.9400619  28.4883649  56.0755226
   1.7386841  17.6158964  48.9860701   1.8951460  17.5505766  49.8416693
   2.0787434  18.3907516  48.7739381   1.8120076  17.7208162  49.0815295
   8.2765985  16.9916847  47.8554064   8.8181531  16.4887228  48.3192685
   8.5912544  16.9382042  47.0443549   8.4030382  16.9096268  47.8037876
  12.1483093  21.2019495  64.9680976  12.9617958  20.9304643  65.1286109
  11.9878059  20.9027034  64.1641172  12.2453041  21.1174421  64.8726382
   6.4452435  22.3834199  45.1394092   6.5145255  21.5248737  45.2787093
   7.2240890  22.6006080  44.8113117   6.5705285  22.2887063  45.1111249
   9.4255255  11.8853152  57.9076365   9.6397224  11.2464066  57.3539719
   8.8089154  12.3298976  57.4784226   9.3660584  11.8563295  57.7626796
  10.8359923  24.8071900  49.3530585  10.4439714  24.5038615  48.6353452
  10.9912995  25.6440990  49.1635539  10.8013512  24.8855737  49.2187083
  11.5894343  13.4942217  58.8459672  10.7771024  13.1868107  58.9272844
  12.0484277  13.0141217  59.4102384  11.5374727  13.3778709  58.9414266
  10.9999597  21.3721889  49.2936616  10.6414252  21.5436532  50.0700648
  10.5138308  21.8335094  48.7364615  10.8758294  21.4660860  49.3261885
   5.7887963  17.0521054  41.8336850   6.0780488  17.8285937  42.1080425
   5.8759762  16.5409786  42.5351350   5.8442219  17.0912973  41.9779348
  12.1604337  22.2625785  60.2403817  12.7984057  21.7685980  59.9066273
  11.5178428  22.1903185  59.6556044  12.1598563  22.1784793  60.1046172
  13.8861337  14.1114931  54.8069733  13.4588945  14.0241279  54.0517832
  13.2487390  14.2192706  55.3924577  13.7290944  14.1147591  54.7815174
  12.2158593  22.9545593  56.8809174  13.0050971  22.6034658  57.0011255
  12.3902191  23.7681981  56.6185807  12.3578875  23.0231450  56.8597042
   1.9551904  16.3654319  53.9336963   1.1139910  16.2658193  54.1415856
   2.1641912  17.1349799  54.2851283   1.8616596  16.4646362  54.0164277
  11.0692418   6.9655150  51.4425592  11.2742011   6.8977458  52.2882589
  10.7418841   7.7713971  51.3746770  11.0507665   7.0741090  51.5585247
   5.7668569  14.2935718  53.1834560   5.4631706  13.7391706  53.7844968
   5.0647989  14.4727928  52.6962594   5.6184778  14.2380500  53.2004266
   4.8234666  11.6036238  47.7479262   5.0994400  10.8855150  47.3356829
   5.4233335  12.2021158  47.5400368   4.9527930  11.5856609  47.6560023
   3.8286920  21.5085439  57.8906658   3.7207275  21.5187501  58.7568716
   4.0382701  22.3340219  57.7011612   3.8437031  21.6326514  57.9910749
  14.3226105   7.5186914  50.9228358  13.7100419   8.0057316  51.3082089
  14.4190280   6.8430405  51.4666009  14.2464003   7.4905223  51.0607216
   8.3245186   9.2749755  46.0225857   8.7788933   9.4460316  46.7473701
   8.7985232   8.6617866  45.6223633   8.4613506   9.2100640  46.0699618
   1.8460712  18.7598081  55.3528595   1.2548645  19.4007579  55.3231610
   2.6081735  19.1835698  55.3259895   1.8708972  18.9173920  55.3443743
  17.9651133  18.5903851  56.3505874  18.0234257  19.0390500  57.0965850
  17.3317601  19.0002664  55.9135954  17.8802428  18.7177585  56.3958422
  11.6050228  24.2107393  52.7860620  11.4069917  24.6998207  52.0916831
  10.9837939  24.4148634  53.3644753  11.4837792  24.3123931  52.7683843
   5.6658206  15.9792290  47.1270864   6.4100251  16.3666566  47.3653814
   5.8118902  15.1349715  47.2911352   5.7968791  15.9122762  47.1864834
   8.6536082  11.5517763  53.0264783   8.1796036  11.0259525  53.5370094
   9.0254218  11.0047236  52.4579645   8.6385971  11.3933759  53.0179931
  14.9172813  16.6120139  54.4371564  14.6771036  15.7726554  54.4413990
  15.3964820  16.6920305  55.1612337  14.9524996  16.5001538  54.5446366
  10.5819582  12.4454317  46.0890537  10.0542600  12.5283061  45.3996246
  11.0415290  13.1872189  46.0855182  10.5721432  12.5674980  45.9865232
  16.9178000  13.3921596  52.3900823  16.6787770  13.3517430  51.5521608
  17.0811901  14.2392748  52.5166544  16.9068303  13.5113681  52.2854305
  13.5224030  17.7771545  58.3205868  14.2458229  17.3244071  58.1416888
  13.2573992  18.0576211  57.5378196  13.5905303  17.7522514  58.1784584
   2.3910898  12.3731719  55.0558747   1.7663968  12.3850111  54.4484700
   2.0556493  12.8491894  55.7049988   2.2496390  12.4450236  55.0615316
  10.1356664  21.0157881  45.2200194  10.8590863  21.4815994  45.0764768
   9.6957255  21.0831491  44.4697791  10.1772356  21.0941718  45.0884976
   9.3042819  17.8755423  56.4700883   8.6899812  17.3313474  56.7649519
   9.8210104  17.3619660  55.9906699   9.2898482  17.7191832  56.4425112
   8.5439116  18.9459693  54.2045182   8.1166725  18.3209412  53.7710617
   8.5364061  18.6634615  55.0304189   8.4798258  18.8112474  54.2625009
   6.8724826   9.8228448  54.4187716   6.8967313   9.2888560  53.7300496
   7.1236300   9.3145757  55.0813307   6.9134745   9.6689352  54.4152361
   4.5740512  15.0659776  56.0967359   3.7432441  15.2333594  55.8902607
   4.5192029  14.6895727  56.8816245   4.4429927  15.0349507  56.1815887
   2.9476556  13.3415367  46.6257477   3.0879517  13.8387832  47.3286118
   3.4459088  12.6401662  46.7671691   3.0417637  13.3117346  46.7509056
   2.9776778  14.2082478  43.9550054   3.6121857  14.8042904  43.8899516
   3.0602389  13.9085936  44.7695924   3.0833329  14.2523387  44.0653140
  15.9559344  16.7397956  56.8236418  16.5477184  17.3795207  56.8554616
  16.3918338  16.0420993  57.1128485  16.1077775  16.7316306  56.8717251
   4.5555761  10.1396454  43.9295496   4.8771602   9.6599536  43.2754758
   4.8182705  10.9496100  43.7386307   4.6421786  10.1886352  43.8050988
   7.7852734  21.1615328  57.4494312   7.2777825  21.7151175  57.8934942
   7.4879380  21.2223618  56.6313086   7.6657619  21.2521639  57.3942769
   9.9514916   9.5268648  56.2918975  10.3769987   9.0741174  55.6802501
   9.3371909   8.9728719  56.5683762   9.9243561   9.3782624  56.2424000
  10.3960514  25.0778586  45.3798255   9.6789824  24.9039448  44.9145493
  11.0467252  24.8431158  44.8473741  10.3862364  25.0174378  45.2327473
  12.9808485  13.9543174  49.1239560  12.3099675  14.4972877  48.9952626
  13.6748235  14.4238030  48.8821255  12.9837353  14.1041446  49.0695088
   7.0295219  26.0939886  54.3551319   6.8060873  25.3358716  54.7235345
   6.5405062  26.1237908  53.6331758   6.9238668  25.9862111  54.3028060
  13.1436613  10.4099058  52.0329934  13.4964223   9.9828781  52.7075732
  12.2851414  10.3249902  52.1631010  13.0686057  10.3343799  52.1524944
   1.8420298  13.0406578  50.0912780   1.1232287  13.4570710  50.3585644
   2.2132660  13.6060817  49.5404418   1.7912229  13.1855859  50.0495587
  11.1419878  13.6734427  55.9814776  11.1217806  13.4917722  56.8349555
  11.1899079  14.5446445  55.9574360  11.1454519  13.7750965  56.1038071
   9.0866208  20.2621619  61.9063253   9.0462063  19.6171296  61.3208408
   9.8989527  20.2058236  62.2188665   9.2009362  20.1580586  61.8660202
   5.6773676  26.3140345  51.8088403   5.2634074  25.6514475  51.4192245
   6.3621050  26.4618203  51.2884098   5.7172048  26.2381003  51.6744901
   9.0438970  25.4730430  52.5612020   8.6455253  25.5832700  51.7932840
   8.4290190  25.6812496  53.1438580   8.8937859  25.5203998  52.5343319
   7.6166872  12.0804578  45.4286160   7.0231711  12.4021574  44.8770727
   7.6542150  11.2345673  45.2207266   7.5341261  12.0028906  45.3168931
  14.5760673   5.5317470  52.9614246  14.0691537   4.8246610  52.8935424
  15.3728106   5.2010659  53.0915323  14.6187912   5.3790621  52.9713241
  10.4924689  12.0384082  48.8587910  10.2638382  12.0616784  48.0166268
  10.7522765  11.2141549  48.9782920  10.4970877  11.9200162  48.7513108
   3.5469451  10.5760628  50.1542106   4.0226817  10.9377708  49.5192287
   3.0458051  11.2317096  50.4342248   3.5434810  10.7254817  50.1018847
  16.7780813  20.0482397  45.9455111  17.1614418  20.7973753  46.1753208
  15.9824926  20.2948216  45.6867100  16.7174595  20.1952090  45.9412684
   5.5896104  12.7201828  43.5215490   5.9695069  12.7381457  42.7366604
   4.8488700  13.1655817  43.4006337   5.5364942  12.7883603  43.3879058
  13.2181395  11.0284019  49.1091068  13.2175621  10.8732676  49.9675345
  13.0137575  11.8747007  49.0532454  13.1881173  11.1304640  49.2279008
  10.9422247  15.7081521  52.7627275  11.4375912  14.9904516  52.7231295
  10.1322023  15.4052319  52.6481762  10.8966140  15.5579168  52.7401001
   6.3880858  19.5579335  44.9124280   5.5792181  19.2346008  44.8657589
   6.8955767  18.8512557  44.8452528   6.3430525  19.4060651  44.8954574
  13.0074066  18.4585209  55.4504404  13.4329137  17.9359631  54.8974829
  12.6430986  19.0566046  54.9293027  13.0160668  18.4695436  55.2913414
   2.6428145  26.7549426  54.2101749   2.9574704  27.5685815  54.2179531
   3.0521559  26.3699645  54.8783909   2.7496243  26.8178129  54.3105841
   9.5952665  22.1719473  51.7805561  10.0663843  22.8859736  51.9495547
   9.9312844  21.5718223  52.3165431   9.7147780  22.1890937  51.8837937
  11.6829650  23.7820786  63.9597633  11.7926615  22.9929347  64.3154381
  12.0120546  23.6926723  63.1571972  11.7482055  23.6526639  63.8940024
  10.2326611  21.9637407  58.5433254   9.6847557  21.3395291  58.2753319
  10.6939640  22.1531679  57.8277333  10.2193821  21.8996457  58.3983685
  13.0420476  10.0322762  55.9284446  12.4583465  10.5331968  55.5162014
  13.3624770   9.5252318  55.2948770  13.0033651  10.0314597  55.7742953
   5.5815275   8.9463356  46.2043121   6.4030969   9.1161669  45.9624816
   5.1184926   9.1010617  45.4809419   5.6346437   8.9945089  46.0614765
   9.7984938  22.9688480  55.0742595  10.6183312  22.8251446  55.3358890
   9.5179015  23.5934679  55.6159033   9.8781681  23.0398832  55.1930535
  26.2698588  30.6253332  48.0385472  26.2392592  31.4797968  48.2103741
  26.8679937  30.3248624  48.5971615  26.3535746  30.7069828  48.1460274
  19.4698273  29.7128983  52.7938402  18.6136168  29.8737481  52.8447519
  19.5165927  28.8421047  52.8143463  19.3497384  29.6079784  52.8044468
  13.8539413  39.2491700  48.5575634  13.1022312  38.8707239  48.3291679
  14.3025424  39.2810134  47.8094444  13.8089079  39.1977308  48.4133136
  22.7791989  35.9815508  62.3998858  23.4858757  35.4867539  62.5285793
  22.9679925  36.4224590  61.6701516  22.9119895  35.9733859  62.3107904
  19.3064373  39.6717070  43.9861181  18.9715741  40.3493992  43.5505403
  19.8191243  39.2822381  43.3978052  19.3329954  39.7141648  43.8347972
  18.8468664  41.6231339  49.9272292  19.2308043  42.1918237  49.3877067
  18.7827805  40.8980849  49.4478108  18.8942091  41.6006802  49.7766155
  22.3150094  31.7721027  55.4370054  22.8606054  32.4506113  55.4964023
  22.2566970  31.6308487  54.5771635  22.3866008  31.8513028  55.3182114
  15.4324169  39.2610093  50.8238406  15.5334532  38.4510447  51.1335534
  14.8365914  39.1667039  50.1938085  15.3596707  39.1275121  50.7764644
  24.0915163  33.2005634  46.3103781  23.9754689  33.9513320  46.7395919
  24.8871049  32.9429587  46.5599868  24.1919752  33.2740481  46.4107873
  15.2724908  44.1787682  52.2253262  15.9162364  44.6200846  52.6149420
  15.5981164  43.3741108  52.1383521  15.4156737  44.1252877  52.2698739
   8.6289213  35.2830379  50.4490740   8.3939398  34.4498032  50.3423008
   8.7674854  35.5635045  49.6351941   8.6144876  35.2013883  50.3133095
  10.9279301  27.4516110  53.3475047  10.3084332  26.8608757  53.1785062
  10.8263164  28.0427545  52.7139371  10.8216976  27.4520192  53.2280037
  15.9745488  37.1899657  47.5973124  16.2961329  37.7304864  46.9934432
  16.6217585  36.6196428  47.7295414  16.1171543  37.1858832  47.5280159
  18.0247196  29.1915652  47.6807511  18.7227361  29.3703779  48.1728974
  18.3399529  28.6685991  47.0577900  18.1742533  29.1409424  47.6609521
  10.6548434  30.9968391  55.5918616  10.5307130  31.5830837  56.2268435
  11.3066718  30.5028587  55.8930891  10.7322083  31.0107196  55.7304546
  18.2135132  35.5786097  47.6687302  18.6528767  34.9703197  48.1142075
  18.0639794  35.1993470  46.8972767  18.2556597  35.4324568  47.6206469
  15.6806775  34.1730108  54.8706127  16.3255777  33.6802552  54.5517076
  15.9208552  34.3154895  55.6972206  15.8117360  34.1207551  54.9455661
  18.2192866  37.0185014  54.5213020  18.5016109  36.2236420  54.2999776
  18.9479026  37.4965602  54.5418081  18.3682430  36.9719611  54.4916035
  16.1974060  24.5608048  51.7628785  15.8677390  25.0119192  51.0932484
  15.5219062  24.4824212  52.3101792  16.0484496  24.6159183  51.7452008
  21.8144468  33.9313278  44.6218071  21.7295763  34.7874245  44.7667640
  22.3028851  33.6557602  45.2900230  21.8733365  34.0170599  44.7420153
  23.4050468  20.5493571  50.0078396  23.0903909  21.2397050  50.4398818
  22.8877409  20.4938353  49.3063896  23.2814938  20.6428460  49.9675345
  22.7462901  30.5498072  46.1215806  22.2174373  30.7657706  46.7813113
  23.2687921  31.2434211  46.0416776  22.7451354  30.6841209  46.2071406
  14.6362509  34.4461289  44.9223274  14.0519724  34.9511320  45.3289138
  14.2332604  34.2203676  44.1819866  14.4901813  34.4869537  44.8728300
  10.1906538  40.1616050  51.7246946   9.7074116  40.8866540  51.7006529
  11.0029856  40.4592180  51.8357104  10.2397286  40.3118404  51.7374225
  16.2620692  38.9548231  54.3296760  15.7447633  38.5955646  53.7258068
  16.9595083  38.4310405  54.3402826  16.2886273  38.8245919  54.2427019
  19.9184284  39.4043045  60.2912933  20.0067630  39.2169185  61.1391144
  20.3473996  38.7580474  59.8917780  19.9946386  39.2806052  60.3584685
  17.4854744  38.6874205  59.2730596  16.9225578  38.2746815  59.7970257
  18.2475767  38.6127110  59.6923739  17.5149192  38.6151605  59.4123596
  19.0939724  30.6926941  43.3992195  19.3335727  30.9004925  42.5867538
  19.4155565  29.8884450  43.5081139  19.1776881  30.6041042  43.2952748
  14.4030014  22.6220337  47.2451733  15.1575982  22.9898654  47.0068783
  14.2257548  22.9959891  48.0130912  14.4884492  22.7318525  47.3236621
  13.0450735  40.6772226  51.8767226  13.7471314  40.1624215  51.9339982
  12.9648218  41.0046377  52.6814101  13.1374496  40.6486452  52.0040018
  27.6964913  28.7714777  55.2899272  26.8593334  28.8416964  55.5246867
  27.6653144  28.7739272  54.4173574  27.5683195  28.7825004  55.1958820
  14.0929642  30.9147813  61.0047641  14.2650145  30.8053707  61.8532922
  14.6298999  31.5602218  60.7678833  14.1974646  30.9939814  61.0952737
  12.7587079  25.0290656  43.9429846  12.5762652  25.2462536  43.1170839
  13.6212692  25.1429668  43.9988460  12.8591668  25.0780554  43.8284333
  12.3701510  36.8678578  51.3852834  13.2090410  37.1001511  51.4326595
  12.4013280  35.9982889  51.3159869  12.4983228  36.7735524  51.3817478
  12.9954213  37.2879453  55.6866139  13.5352438  37.1450584  56.3569512
  12.3124160  37.6876204  56.0550165  12.9746367  37.3259124  55.8400561
  18.4386798  22.0317066  46.9778870  19.1672958  21.8533021  46.5317026
  18.5281691  22.8735146  47.1886048  18.5593460  22.1300945  46.9432387
  22.4195098  32.9670454  50.8811164  23.1752613  33.4001968  50.9200072
  22.5257423  32.3175223  51.4545800  22.5465269  32.9347938  50.9709189
  25.4575269  36.7943731  51.6313567  25.0210501  36.7980473  52.3872538
  25.1238185  37.4749230  51.1993144  25.3437889  36.8956187  51.6794399
  20.0304343  38.8352064  62.9556717  20.8144760  38.9482912  63.3212459
  19.8300938  38.0093201  63.1515403  20.1170369  38.7298783  63.0391103
   8.3991359  33.5079744  55.8400561   8.1329774  32.6918861  55.9991551
   8.4129923  33.5532899  54.9696076   8.3616081  33.3936649  55.7354043
  25.3772752  23.8357559  53.8742995  26.0198661  23.9055663  54.4604910
  25.6295773  23.1686782  53.3722536  25.5094885  23.7483907  53.8870274
  12.3049106  28.3064828  42.4552319  11.5907283  28.0203008  42.8674751
  12.7893074  28.6461454  43.0958706  12.2708469  28.3146478  42.6107954
  13.1489965  27.0458122  58.4867568  12.4561762  26.5755102  58.7328300
  13.7650292  26.8196427  59.0609276  13.1374495  26.9425254  58.6076721
  20.1874736  40.7462166  56.6023173  19.3889982  40.5061666  56.8597041
  20.6360748  40.7976559  57.3490220  20.1349348  40.7184557  56.7508097
  19.4796423  36.8094782  42.8314127  19.8947572  36.4779806  42.1398623
  18.6488353  36.5763684  42.7034264  19.4184432  36.7266038  42.7104974
   8.8084772  34.2938523  53.1212305   8.6260345  34.2685409  52.2684597
   9.5434441  34.7637461  53.1601214   8.8898836  34.3599885  53.0010224
  24.8784446  34.5290033  50.2645193  25.1140036  34.6735232  49.4372043
  25.0274010  35.2932441  50.6576706  24.9350250  34.6629088  50.2008796
  11.8730524  31.0123526  59.6294414  12.5970496  30.9976557  60.1159308
  11.9746660  31.7218881  59.1316382  11.9948733  31.1148229  59.6273200
  26.7074903  33.3691699  48.1014796  27.0383120  33.9019339  47.4954891
  27.2807991  33.4230587  48.7576747  26.8408582  33.4561268  48.1092578
  19.2475473  34.4922611  64.4943361  18.4548454  34.8066123  64.6795980
  19.3624400  34.7074079  63.6564145  19.1470884  34.5706447  64.3981695
  21.9206792  31.2156602  48.7838377  22.0153647  31.9545896  49.2378002
  21.2965636  30.7874077  49.2172941  21.8415822  31.2617922  48.9146524
  20.1759266  34.3942814  59.4328657  20.7498128  33.7570059  59.5877221
  20.0974070  34.3946897  58.5638315  20.2492501  34.3007926  59.3275068
   8.7755683  31.1732024  53.2711372   9.3529185  31.0368475  53.9103617
   8.0769744  30.7167808  53.5256956   8.7576704  31.0854290  53.4033661
  22.1729814  33.0605342  42.0175329  22.0909976  33.1307529  42.8830316
  22.8109534  33.6235086  41.8259069  22.2549651  33.1544313  42.1165278
  15.5322985  32.8266080  51.4849855  15.2742229  31.9937814  51.4581154
  15.5871468  33.0523693  50.6442355  15.5022763  32.7363851  51.3569992
  20.6124035  24.9294530  51.5853947  19.9080362  24.4403716  51.7437867
  20.6609009  24.9417005  50.7142392  20.5154086  24.8584178  51.4793287
  14.5057697  30.3803842  51.9714750  13.9307288  30.5396010  52.6078711
  14.1293373  29.7439251  51.5083200  14.3660509  30.3101655  51.9969308
  18.1730986  28.8527191  56.8307128  17.7845418  28.4281409  56.1759319
  17.5085684  29.1009341  57.3384155  18.0177913  28.8265912  56.8094996
  27.8154255  28.6102196  49.6054958  27.5590819  27.7982138  49.4152841
  28.6583569  28.6179763  49.3785145  27.9020280  28.4914194  49.5439775
   4.2514516  30.0243917  49.9859190   4.3374768  29.6475785  50.7672720
   4.8790313  29.6504362  49.5079148   4.3571067  29.9129399  50.0304668
  21.9957347  22.5501820  54.3431112  22.3767859  21.8679991  54.7298986
  21.1920631  22.2611422  54.1606777  21.9333809  22.4068869  54.3735168
  19.2769924  33.0825796  45.0283935  20.0910563  33.3740689  44.9166706
  19.2129065  32.4285658  44.4542228  19.3872663  33.0290991  44.9272772
  25.4979414  35.7651792  59.4413511  25.2618051  34.9339857  59.3225571
  26.1422643  35.7137399  60.0268355  25.5574085  35.6349480  59.5099404
  15.1477832  36.5547313  50.1556247  15.7851779  36.3159061  50.7008040
  15.5732904  36.7584472  49.4209408  15.3053998  36.5498324  50.1273404
   9.8390474  38.7935650  54.0390551   9.8794620  39.0650501  53.2110330
  10.3984999  39.3177558  54.4548339   9.9273820  38.9111405  53.9782439
  15.7880647  31.7749603  44.4931136  16.1725800  31.5557310  45.2447682
  15.5392267  32.6012549  44.6232213  15.8082720  31.8647749  44.6232213
  15.9549187  25.0556018  64.2093721  15.6402629  25.8255581  63.9463283
  15.6339120  24.4926274  63.6245948  15.8608107  25.0866287  64.0835071
  17.5299304  37.0319736  51.8350033  17.6038312  36.8694908  52.6891883
  18.3468810  37.2209926  51.5910515  17.6615663  37.0356478  51.9248059
  11.2905061  37.3777599  48.8644477  10.4643178  37.6239336  48.7378756
  11.3517052  37.2989680  49.7306535  11.1779228  37.4022548  48.9733421
  13.5081084  23.4446540  49.8239917  12.6403510  23.5169139  49.8897526
  13.7956289  24.2468619  50.0127892  13.4220833  23.5740687  49.8614684
  22.6313973  23.5924399  58.1551239  23.3767565  23.4034210  57.7414664
  22.2151278  24.1182637  57.5965095  22.6798947  23.6426545  58.0115812
  16.0703890  39.9954479  46.5663507  16.3602188  39.6043460  45.8422733
  16.8007371  40.1771184  47.0068782  16.2210774  39.9648293  46.5246314
  16.6598635  34.7972225  57.6516637  16.1610329  35.5087993  57.7301526
  17.4698859  35.1172892  57.6134800  16.7054742  34.9499074  57.6573206
  14.0109805  41.9721862  49.6323656  13.7910101  41.6819216  50.4250323
  13.7904327  41.3136817  49.1041569  13.9457399  41.8321570  49.6712565
  12.9226753  34.0595178  51.8979358  12.6340001  33.4332649  52.4325085
  13.7910101  34.0015465  51.9644039  13.0087004  33.9582722  51.9870313
  23.7104650  29.2029961  52.2161340  23.3669416  28.4820297  52.5668590
  23.8097693  28.9943813  51.3739698  23.6746693  29.0654165  52.1433020
  16.1777761  43.3451251  48.4154349  16.8301819  42.8127694  48.6445375
  15.4803370  42.9919904  48.8022223  16.1708479  43.2140774  48.5066517
  13.1259026  35.6990429  47.8221723  13.8804994  36.0803468  48.0357186
  12.5329639  36.1501573  48.2768420  13.1495739  35.8219256  47.9204602
  24.1717679  35.6655665  47.7585328  24.7375712  36.3248875  47.6743871
  23.5245583  36.0105364  48.2301730  24.1596436  35.8137607  47.8158085
  15.5865693  27.6553269  62.9478936  14.7765469  27.9611049  62.8368778
  16.0640380  28.3758852  63.0631520  15.5369172  27.8067871  62.9486007
  14.4457252  36.8698990  53.1961839  13.9238006  37.0099282  53.8813703
  14.8331273  36.1109655  53.3863956  14.4260953  36.7784514  53.3262915
  11.4348437  26.9204799  47.2656793  11.1473232  26.5506070  46.5288741
  12.1218905  27.3899654  47.0040498  11.4937334  26.9351769  47.1171869
  20.6424257  38.6094450  47.1822407  20.4010933  37.8762310  46.7749472
  20.8225590  39.1581307  46.5288741  20.6331881  38.5816841  47.0252630
  15.8723578  33.9003009  48.5943330  15.6766361  34.5077744  48.0003633
  16.0957924  33.2070953  48.1135004  15.8758219  33.8880535  48.4359410
  14.2702108  30.7857747  48.7124198  14.9924760  30.9498905  48.2528004
  13.7910101  31.5067412  48.6063538  14.3065839  30.9155977  48.6289812
  22.2295616  27.1221546  54.0920883  21.3906716  27.1482825  53.8559146
  22.2999983  27.7692282  54.6726230  22.1164009  27.2217672  54.1430000
  11.9209725  33.1915820  57.8178338  12.4330822  33.4700073  57.1687098
  11.6346067  33.9305114  58.1841151  11.9544588  33.3418173  57.7768216
  20.6764894  24.0206923  48.8248499  21.3791247  23.8214671  48.3468457
  20.4109083  23.2482866  49.1317342  20.7411526  23.8769889  48.7993940
   9.0076631  27.6986012  48.1142074   9.1092768  28.5012173  48.4423050
   9.8032518  27.4973348  47.8165155   9.1404537  27.7871910  48.1177430
  15.4393450  25.2842208  57.8779379  15.2476647  25.2997343  58.7278803
  16.2892046  25.4805883  57.8546034  15.5369172  25.3156560  58.0002674
   9.8240363  27.8133190  55.8563196   9.6825855  26.9617130  55.9807704
  10.1080927  27.8561850  55.0325402   9.8448209  27.6932940  55.7530820
  19.9778956  29.6500280  50.0007684  19.7313670  29.5696031  50.8344473
  20.3064079  28.8653748  49.8070212  19.9900199  29.5226545  50.0955207
  23.8727004  36.3583639  53.7894465  23.7341364  37.0564685  54.2943208
  23.0927002  36.2032296  53.4330647  23.7370231  36.4383806  53.8120740
  22.2105090  32.6580015  60.0416847  22.2053128  31.7859831  60.0459274
  22.9166083  32.8568184  59.5686303  22.3150094  32.5583889  59.9723882
  15.9375983  32.3856999  59.4130667  16.0819359  32.9658207  58.7773777
  16.2851631  32.7633295  60.1180522  16.0103444  32.5277703  59.4229662
  18.1095900  31.5847167  57.1955799  17.3619214  31.7778181  56.7904077
  18.2637425  30.7592387  56.9579920  18.0218328  31.4912278  57.1001205
  15.0103738  40.5759770  56.2791694  15.1593302  40.0162686  55.6265099
  15.7903740  40.6551772  56.6624213  15.1477831  40.5045336  56.2388643
  25.3680377  35.7161893  44.5510965  24.9887186  34.9299031  44.5440254
  24.7046623  36.2648750  44.4082609  25.2138852  35.6806717  44.5291762
  17.5357038  40.7474413  57.5576185  17.4600710  40.0783224  58.1126973
  17.4646898  41.4492201  58.0716851  17.5137645  40.7519321  57.7153033
  18.3497677  25.4797718  58.0851203  18.8070291  26.2121692  58.2123995
  18.4254006  25.0564183  58.8438458  18.4288647  25.5254956  58.2152279
  10.5930668  25.7263537  59.1740646  10.0572858  25.1143896  59.4901414
  10.6548433  26.3011673  59.8274313  10.5226301  25.7210465  59.3176073
  22.8225003  18.6587593  51.9545046  22.9408571  19.1164056  51.2212348
  22.6487179  17.8532854  51.6681263  22.8144174  18.6081365  51.8045979
  18.1927285  39.2675412  48.3899791  18.9577177  38.9985056  48.0682455
  18.0905375  38.7825423  49.1069854  18.2908781  39.1564977  48.4479618
  16.2280055  27.4699822  54.9293027  15.4376130  27.2891282  55.2510362
  16.6240678  26.6926774  54.9123321  16.1696931  27.3287283  54.9745575
  21.6123741  35.1042252  52.6552473  20.9368743  34.8727484  53.1565860
  21.6216118  34.4963435  52.0294578  21.5142246  34.9801177  52.6368625
  18.7417885  29.9460081  59.4116526  18.6777027  30.8070037  59.2836662
  18.8815073  29.6292074  58.6112077  18.7533355  30.0260247  59.2744738
  17.4236979  32.6392220  53.5532728  16.9999228  32.8396719  52.8171747
  17.2481835  31.7921068  53.6657028  17.3347860  32.5441002  53.4606419
  16.9248673  44.1542733  56.0154186  17.4144603  43.4553522  55.8329850
  16.3532905  43.8566603  56.6030243  16.9133203  44.0068957  56.0755226
  12.7119424  33.1344272  48.9860701  12.8684043  33.0691074  49.8416693
  13.0520017  33.9092824  48.7739381  12.7852659  33.2393470  49.0815295
  19.2498569  32.5102155  47.8554064  19.7914114  32.0072536  48.3192685
  19.5645128  32.4567350  47.0443549  19.3762966  32.4281576  47.8037876
  23.1215676  36.7204802  64.9680976  23.9350542  36.4489951  65.1286109
  22.9610643  36.4212342  64.1641172  23.2185625  36.6359728  64.8726382
  17.4185019  37.9019507  45.1394092  17.4877839  37.0434045  45.2787093
  18.1973474  38.1191388  44.8113117  17.5437869  37.8072371  45.1111249
  20.3987838  27.4038460  57.9076365  20.6129808  26.7649374  57.3539719
  19.7821737  27.8484283  57.4784226  20.3393168  27.3748603  57.7626796
  21.8092506  40.3257208  49.3530585  21.4172298  40.0223923  48.6353452
  21.9645578  41.1626298  49.1635539  21.7746096  40.4041045  49.2187083
   9.2853686  30.3179222  49.3021468   9.6652651  30.7363767  48.6381735
   8.7109051  30.8992678  49.6090311   9.2565011  30.4657081  49.2498209
  22.5626926  29.0127525  58.8459672  21.7503608  28.7053415  58.9272844
  23.0216861  28.5326525  59.4102384  22.5107311  28.8964017  58.9414266
  21.9732181  36.8907197  49.2936616  21.6146836  37.0621840  50.0700648
  21.4870892  37.3520402  48.7364615  21.8490878  36.9846168  49.3261885
  19.7902567  20.5138395  52.8963707  18.9196125  20.4877116  52.8497017
  20.0442908  20.3415587  52.0789553  19.6996127  20.4848539  52.7683844
  16.7620546  32.5706362  41.8336850  17.0513071  33.3471245  42.1080425
  16.8492345  32.0595094  42.5351350  16.8174803  32.6098281  41.9779348
  19.6580434  30.4187596  63.6288374  20.1280065  31.0429713  64.0156248
  19.7042314  29.7504572  64.1881589  19.7348310  30.4122277  63.7688445
  16.8151707  22.5244624  54.3537178  16.2990196  21.8324815  54.4788757
  16.2545636  23.1915401  54.2999777  16.6558221  22.5207881  54.3643244
  18.8843941  23.0637584  56.1830030  18.4975694  23.0886615  56.9643560
  18.3976878  22.4979262  55.7304547  18.7556450  22.9833335  56.2317934
  23.1336920  37.7811093  60.2403817  23.7716641  37.2871288  59.9066273
  22.4911012  37.7088493  59.6556044  23.1331147  37.6970101  60.1046172
  24.8593920  29.6300239  54.8069733  24.4321528  29.5426587  54.0517832
  24.2219973  29.7378014  55.3924577  24.7023528  29.6332899  54.7815174
  18.5501083  19.9504569  58.4740290  19.1794201  20.4864869  58.1961361
  18.7186945  19.8581928  59.3253856  18.6678877  20.0165931  58.5588818
  18.3514997  24.7375764  60.7466702  19.1788427  24.4660913  60.8025316
  18.3722844  25.5336606  61.1030520  18.4767848  24.8155518  60.8081885
  23.1891177  38.4730901  56.8809174  23.9783555  38.1219966  57.0011255
  23.3634775  39.2867289  56.6185807  23.3311459  38.5416758  56.8597042
  12.9284487  31.8839627  53.9336963  12.0872494  31.7843501  54.1415856
  13.1374495  32.6535107  54.2851283  12.8349180  31.9831670  54.0164277
  10.4060054  29.5059164  51.7621713  10.0116752  29.5802176  50.9871823
   9.8500171  29.8917110  52.3130075  10.2662867  29.5740938  51.7289373
  22.0425001  22.4840458  51.4425592  22.2474594  22.4162766  52.2882589
  21.7151425  23.2899279  51.3746770  22.0240249  22.5926398  51.5585247
  16.7401152  29.8121026  53.1834560  16.4364290  29.2577014  53.7844968
  16.0380573  29.9913236  52.6962594  16.5917362  29.7565808  53.2004266
  15.7967249  27.1221546  47.7479262  16.0726984  26.4040458  47.3356829
  16.3965919  27.7206466  47.5400368  15.9260514  27.1041916  47.6560023
  14.8019503  37.0270747  57.8906658  14.6939858  37.0372809  58.7568716
  15.0115285  37.8525527  57.7011612  14.8169614  37.1511821  57.9910749
  25.2958689  23.0372222  50.9228358  24.6833002  23.5242624  51.3082089
  25.3922864  22.3615713  51.4666009  25.2196586  23.0090531  51.0607216
  19.2977770  24.7935063  46.0225857  19.7521516  24.9645624  46.7473701
  19.7717816  24.1803174  45.6223633  19.4346090  24.7285948  46.0699618
  12.8193295  34.2783389  55.3528595  12.2281228  34.9192887  55.3231610
  13.5814319  34.7021006  55.3259895  12.8441556  34.4359227  55.3443743
  13.2153918  25.4385387  56.0196613  13.6755400  25.5124316  56.7571737
  13.2610025  26.2366641  55.6696434  13.2904473  25.5679534  56.0769370
  14.8637268  26.1052082  60.5868640  14.4722833  25.4585429  61.0224418
  15.0323130  26.6963517  61.2062896  14.8308178  26.0966350  60.7431346
  22.5782811  39.7292701  52.7860620  22.3802500  40.2183515  52.0916831
  21.9570522  39.9333942  53.3644753  22.4570376  39.8309239  52.7683843
  16.6390790  31.4977597  47.1270864  17.3832835  31.8851874  47.3653814
  16.7851486  30.6535023  47.2911352  16.7701375  31.4308070  47.1864834
  18.5570365  23.2927856  52.1602726  17.7106410  23.4650664  52.0344075
  18.5541498  22.4877200  52.4968554  18.4317515  23.1988885  52.1913853
  19.6268666  27.0703071  53.0264783  19.1528620  26.5444833  53.5370094
  19.9986801  26.5232544  52.4579645  19.6118555  26.9119067  53.0179931
  10.0041696  29.0674577  58.3948329  10.8667309  28.9670287  58.3085659
   9.6733479  28.4869287  57.8333901  10.0826892  28.9666204  58.2993735
  21.5552165  27.9639625  46.0890537  21.0275184  28.0468369  45.3996246
  22.0147873  28.7057497  46.0855182  21.5454016  28.0860288  45.9865232
  24.4956613  33.2956853  58.3205868  25.2190812  32.8429379  58.1416888
  24.2306576  33.5761519  57.5378196  24.5637887  33.2707821  58.1784584
  13.3643482  27.8917026  55.0558747  12.7396552  27.9035418  54.4484700
  13.0289077  28.3677202  55.7049988  13.2228974  27.9635543  55.0615316
  13.5485230  26.2342145  41.1131432  13.1998035  26.8861870  41.5762982
  13.0681676  26.2199258  40.3855304  13.4255474  26.3285199  41.0742524
  10.0769157  35.9517487  56.4962512   9.5469082  35.2609925  56.5457486
  10.3494251  35.9427672  55.6675220  10.0393880  35.8484618  56.3809928
  21.1089248  36.5343189  45.2200194  21.8323447  37.0001302  45.0764768
  20.6689839  36.6016799  44.4697791  21.1504940  36.6127026  45.0884976
  20.2775403  33.3940731  56.4700883  19.6632396  32.8498781  56.7649519
  20.7942688  32.8804968  55.9906699  20.2631065  33.2377140  56.4425112
  19.5171700  34.4645001  54.2045182  19.0899308  33.8394720  53.7710617
  19.5096644  34.1819923  55.0304189  19.4530841  34.3297782  54.2625009
  12.6334227  29.5010174  57.2733616  12.7927714  28.7453498  57.6785338
  12.4527121  30.0501114  57.9274354  12.6299586  29.4703988  57.4296322
  20.5754530  21.6671410  57.8284405  20.0795091  21.8635084  57.1375972
  21.3323592  22.0664078  57.6573207  20.6141355  21.7549144  57.7004542
  17.8457410  25.3413756  54.4187716  17.8699897  24.8073868  53.7300496
  18.0968883  24.8331065  55.0813307  17.8867328  25.1874660  54.4152361
   5.3565000  32.6245251  53.8530860   5.2508449  32.5792095  52.9882944
   4.6065220  32.9699031  54.1345145   5.2300602  32.6686159  53.7668190
  14.1258732  24.0684574  53.7993460  14.1657104  24.5693781  54.5128168
  13.3008397  24.1594968  53.5299383  14.0098258  24.1566390  53.8643998
  16.3088345  33.6345314  61.9013755  15.4583975  33.7717028  62.0371400
  16.4716473  32.9009092  62.3461457  16.2072208  33.5459415  61.9869354
  15.5473095  30.5845084  56.0967359  14.7165025  30.7518902  55.8902607
  15.4924613  30.2081035  56.8816245  15.4162510  30.5534815  56.1815887
  13.3556879  24.0753977  61.7323770  13.9809582  23.5316110  62.0053202
  12.9007359  23.5948894  61.1631560  13.3805139  23.9243458  61.6885364
  13.9209139  28.8600675  46.6257477  14.0612100  29.3573140  47.3286118
  14.4191672  28.1586970  46.7671691  14.0150220  28.8302654  46.7509056
  13.9509362  29.7267786  43.9550054  14.5854441  30.3228211  43.8899516
  14.0334972  29.4271244  44.7695924  14.0565913  29.7708695  44.0653140
  26.9291927  32.2583264  56.8236418  27.5209768  32.8980514  56.8554616
  27.3650922  31.5606300  57.1128485  27.0810359  32.2501614  56.8717251
  15.5288344  25.6581762  43.9295496  15.8504185  25.1784844  43.2754758
  15.7915288  26.4681408  43.7386307  15.6154370  25.7071660  43.8050988
  18.7585317  36.6800636  57.4494312  18.2510408  37.2336483  57.8934942
  18.4611963  36.7408926  56.6313086  18.6390202  36.7706947  57.3942769
  20.9247499  25.0453956  56.2918975  21.3502571  24.5926482  55.6802501
  20.3104493  24.4914026  56.5683762  20.8976145  24.8967932  56.2424000
  10.4562349  31.9235627  47.2239600  10.9654579  32.5200135  47.6050905
  10.9296622  31.6561601  46.5416019  10.6005725  31.9721443  47.1794123
  21.3693098  40.5963894  45.3798255  20.6522407  40.4224756  44.9145493
  22.0199835  40.3616466  44.8473741  21.3594948  40.5359686  45.2327473
  19.3641722  21.5169056  49.7009552  18.7210040  21.3666702  50.2694690
  19.0241129  21.2711401  48.9358657  19.2186800  21.4581178  49.6712567
  23.9541069  29.4728482  49.1239560  23.2832259  30.0158185  48.9952626
  24.6480819  29.9423338  48.8821255  23.9569936  29.6226754  49.0695088
  18.0027802  41.6125194  54.3551319  17.7793457  40.8544024  54.7235345
  17.5137646  41.6423216  53.6331758  17.8971251  41.5047419  54.3028060
  24.1169196  25.9284366  52.0329934  24.4696806  25.5014089  52.7075732
  23.2583998  25.8435210  52.1631010  24.0418641  25.8529107  52.1524944
  12.8152881  28.5591886  50.0912780  12.0964870  28.9756018  50.3585644
  13.1865243  29.1246124  49.5404418  12.7644813  28.7041167  50.0495587
  22.1152462  29.1919735  55.9814776  22.0950389  29.0103030  56.8349555
  22.1631663  30.0631753  55.9574360  22.1187103  29.2936273  56.1038071
  20.0598792  35.7806927  61.9063253  20.0194647  35.1356604  61.3208408
  20.8722110  35.7243544  62.2188665  20.1741945  35.6765893  61.8660202
  16.6506259  41.8325652  51.8088403  16.2366658  41.1699783  51.4192245
  17.3353634  41.9803511  51.2884098  16.6904631  41.7566311  51.6744901
  20.0171554  40.9915738  52.5612020  19.6187837  41.1018008  51.7932840
  19.4022773  41.1997804  53.1438580  19.8670443  41.0389306  52.5343319
  18.5899456  27.5989886  45.4286160  17.9964295  27.9206882  44.8770727
  18.6274733  26.7530981  45.2207266  18.5073845  27.5214214  45.3168931
  25.5493256  21.0502778  52.9614246  25.0424121  20.3431917  52.8935424
  26.3460690  20.7195967  53.0915323  25.5920495  20.8975929  52.9713241
  21.4657272  27.5569390  48.8587910  21.2370965  27.5802092  48.0166268
  21.7255348  26.7326857  48.9782920  21.4703460  27.4385470  48.7513108
  15.7476501  29.4103863  58.4613010  15.2355404  28.8025046  58.8198042
  15.5755997  30.1260456  58.9286986  15.6466138  29.4267162  58.5829234
  10.5942215  27.8541438  61.1115372  10.4244806  28.5142813  60.5663579
  10.1508165  28.0648000  61.8327861  10.5041549  27.9827421  61.1377001
  14.5202035  26.0945936  50.1542106  14.9959401  26.4563016  49.5192287
  14.0190634  26.7502404  50.4342248  14.5167394  26.2440125  50.1018847
  27.7513396  35.5667704  45.9455111  28.1347002  36.3159061  46.1753208
  26.9557510  35.8133524  45.6867100  27.6907178  35.7137398  45.9412684
  19.6245571  27.3328108  60.9015266  20.1817001  27.1041917  60.2693731
  19.3006636  28.0933773  60.6250478  19.6591981  27.4111944  60.7671763
   7.4944280  30.7588304  56.3703862   6.9470999  30.0888950  56.4884730
   8.2836658  30.3918152  56.4347329   7.5296463  30.6053290  56.3972562
  17.3428688  30.4195761  61.8667273  18.0940015  30.7347438  62.1806827
  17.5351265  30.2174932  61.0401195  17.4820102  30.4363143  61.7910669
  16.5628688  28.2387136  43.5215490  16.9427653  28.2566765  42.7366604
  15.8221284  28.6841125  43.4006337  16.5097526  28.3068911  43.3879058
  24.1913978  26.5469327  49.1091068  24.1908205  26.3917984  49.9675345
  23.9870158  27.3932314  49.0532454  24.1613756  26.6489948  49.2279008
   6.2531249  29.9709112  53.5249885   6.0753010  29.5185721  54.2504800
   5.9650271  30.7735273  53.7088362   6.1844202  30.0231670  53.6593388
  21.9154830  31.2266829  52.7627275  22.4108496  30.5089824  52.7231295
  21.1054606  30.9237627  52.6481762  21.8698724  31.0764475  52.7401001
  17.3613442  35.0764642  44.9124280  16.5524765  34.7531316  44.8657589
  17.8688351  34.3697865  44.8452528  17.3163109  34.9245959  44.8954574
   7.9903719  32.5036836  50.6371644   7.1249239  32.4922526  50.5254415
   8.0902535  32.3167058  51.4842783   7.8777886  32.4742897  50.7460588
  23.9806649  33.9770517  55.4504404  24.4061721  33.4544939  54.8974829
  23.6163569  34.5751354  54.9293027  23.9893252  33.9880744  55.2913414
  13.6160729  42.2734734  54.2101749  13.9307288  43.0871123  54.2179531
  14.0254142  41.8884953  54.8783909  13.7228827  42.3363437  54.3105841
  20.5685249  37.6904781  51.7805561  21.0396427  38.4045044  51.9495547
  20.9045427  37.0903531  52.3165431  20.6880364  37.7076245  51.8837937
  22.6562233  39.3006094  63.9597633  22.7659199  38.5114655  64.3154381
  22.9853130  39.2112031  63.1571972  22.7214639  39.1711947  63.8940024
  17.4854744  22.4632252  58.7363656  17.6182649  21.6663245  59.0644632
  17.8699896  22.9898655  59.3161932  17.5611072  22.4232168  58.8707159
  21.2059195  37.4822715  58.5433254  20.6580141  36.8580599  58.2753319
  21.6672224  37.6716987  57.8277333  21.1926404  37.4181765  58.3983685
  20.5587099  19.3862578  55.3344749  19.7533063  19.2760307  55.6512588
  20.4293834  19.4875033  54.4774615  20.4207232  19.3846248  55.2552790
  24.0153059  25.5508070  55.9284446  23.4316048  26.0517276  55.5162014
  24.3357353  25.0437626  55.2948770  23.9766235  25.5499905  55.7742953
  16.5547858  24.4648664  46.2043121  17.3763553  24.6346977  45.9624816
  16.0917509  24.6195925  45.4809419  16.6079021  24.5130397  46.0614765
  15.1443190  22.4591427  56.9841550  15.6887603  22.1182553  57.5745892
  15.1980126  23.3176888  57.1262834  15.2332310  22.5346686  57.0923423
  10.9573749  36.2207843  53.8580358  11.5618607  36.1803677  53.2294179
  10.7501062  37.0678995  53.8884414  11.0162646  36.3395845  53.7696474
  20.7717521  38.4873788  55.0742595  21.5915895  38.3436754  55.3358890
  20.4911599  39.1119987  55.6159033  20.8514265  38.5584140  55.1930535
   6.1925031  35.2042460  53.7279281   6.0949309  34.3938732  54.0369338
   6.9753901  35.1834254  53.3425549   6.2941168  35.0809550  53.7166144
  30.4430857  45.2314290  52.7938402  29.5868752  45.3922789  52.8447519
  30.4898510  44.3606354  52.8143463  30.3229968  45.1265092  52.8044468
  24.8271996  54.7677008  48.5575634  24.0754896  54.3892547  48.3291679
  25.2758008  54.7995442  47.8094444  24.7821663  54.7162616  48.4133136
  33.7524573  51.5000816  62.3998858  34.4591340  51.0052847  62.5285793
  33.9412508  51.9409898  61.6701516  33.8852479  51.4919166  62.3107904
  30.2796956  55.1902378  43.9861181  29.9448325  55.8679299  43.5505403
  30.7923827  54.8007689  43.3978052  30.3062537  55.2326956  43.8347972
  29.8201247  57.1416647  49.9272292  30.2040627  57.7103545  49.3877067
  29.7560389  56.4166157  49.4478108  29.8674675  57.1192110  49.7766155
  33.2882678  47.2906334  55.4370054  33.8338638  47.9691421  55.4964023
  33.2299554  47.1493795  54.5771635  33.3598592  47.3698336  55.3182114
  26.4056752  54.7795401  50.8238406  26.5067115  53.9695754  51.1335534
  25.8098498  54.6852347  50.1938085  26.3329291  54.6460429  50.7764644
  26.2457492  59.6972990  52.2253262  26.8894947  60.1386154  52.6149420
  26.5713748  58.8926416  52.1383521  26.3889321  59.6438184  52.2698739
  19.6021797  50.8015687  50.4490740  19.3671981  49.9683339  50.3423008
  19.7407437  51.0820353  49.6351941  19.5877459  50.7199191  50.3133095
  21.9011884  42.9701418  53.3475047  21.2816916  42.3794065  53.1785062
  21.7995748  43.5612853  52.7139371  21.7949560  42.9705500  53.2280037
  26.9478072  52.7084965  47.5973124  27.2693913  53.2490172  46.9934432
  27.5950168  52.1381736  47.7295414  27.0904127  52.7044140  47.5280159
  21.6281017  46.5153699  55.5918616  21.5039714  47.1016145  56.2268435
  22.2799302  46.0213895  55.8930891  21.7054667  46.5292504  55.7304546
  29.1867715  51.0971405  47.6687302  29.6261351  50.4888505  48.1142075
  29.0372378  50.7178778  46.8972767  29.2289181  50.9509876  47.6206469
  26.6539358  49.6915416  54.8706127  27.2988361  49.1987859  54.5517076
  26.8941135  49.8340203  55.6972206  26.7849943  49.6392859  54.9455661
  29.1925450  52.5370322  54.5213020  29.4748692  51.7421728  54.2999776
  29.9211610  53.0150910  54.5418081  29.3415013  52.4904919  54.4916035
  32.7877052  49.4498586  44.6218071  32.7028347  50.3059552  44.7667640
  33.2761435  49.1742910  45.2900230  32.8465949  49.5355907  44.7420153
  25.6095093  49.9646597  44.9223274  25.0252308  50.4696628  45.3289138
  25.2065188  49.7388984  44.1819866  25.4634397  50.0054845  44.8728300
  21.1639121  55.6801358  51.7246946  20.6806700  56.4051848  51.7006529
  21.9762440  55.9777488  51.8357104  21.2129869  55.8303712  51.7374225
  27.2353275  54.4733539  54.3296760  26.7180217  54.1140954  53.7258068
  27.9327667  53.9495713  54.3402826  27.2618857  54.3431227  54.2427019
  30.8916867  54.9228353  60.2912933  30.9800213  54.7354493  61.1391144
  31.3206580  54.2765782  59.8917780  30.9678970  54.7991360  60.3584685
  28.4587327  54.2059513  59.2730596  27.8958162  53.7932122  59.7970257
  29.2208351  54.1312418  59.6923739  28.4881776  54.1336913  59.4123596
  24.0183319  56.1957534  51.8767226  24.7203898  55.6809523  51.9339982
  23.9380802  56.5231685  52.6814101  24.1107079  56.1671760  52.0040018
  25.0662225  46.4333121  61.0047641  25.2382729  46.3239015  61.8532922
  25.6031583  47.0787526  60.7678833  25.1707229  46.5125122  61.0952737
  23.3434094  52.3863886  51.3852834  24.1822993  52.6186819  51.4326595
  23.3745863  51.5168197  51.3159869  23.4715812  52.2920832  51.3817478
  23.9686797  52.8064761  55.6866139  24.5085022  52.6635892  56.3569512
  23.2856743  53.2061512  56.0550165  23.9478951  52.8444432  55.8400561
  33.3927682  48.4855762  50.8811164  34.1485197  48.9187276  50.9200072
  33.4990006  47.8360531  51.4545800  33.5197853  48.4533245  50.9709189
  36.4307853  52.3129039  51.6313567  35.9943085  52.3165781  52.3872538
  36.0970769  52.9934538  51.1993144  36.3170473  52.4141495  51.6794399
  31.0036927  54.3537372  62.9556717  31.7877343  54.4668219  63.3212459
  30.8033521  53.5278509  63.1515403  31.0902952  54.2484091  63.0391103
  19.3723942  49.0265052  55.8400561  19.1062357  48.2104168  55.9991551
  19.3862506  49.0718207  54.9696076  19.3348664  48.9121957  55.7354043
  24.1222549  42.5643430  58.4867568  23.4294345  42.0940410  58.7328300
  24.7382876  42.3381735  59.0609276  24.1107078  42.4610562  58.6076721
  31.1607320  56.2647474  56.6023173  30.3622566  56.0246974  56.8597041
  31.6093332  56.3161867  57.3490220  31.1081931  56.2369865  56.7508097
  30.4529007  52.3280090  42.8314127  30.8680156  51.9965114  42.1398623
  29.6220937  52.0948992  42.7034264  30.3917016  52.2451346  42.7104974
  19.7817356  49.8123831  53.1212305  19.5992929  49.7870717  52.2684597
  20.5167025  50.2822769  53.1601214  19.8631420  49.8785193  53.0010224
  22.8463107  46.5308834  59.6294414  23.5703080  46.5161865  60.1159308
  22.9479244  47.2404189  59.1316382  22.9681317  46.6333537  59.6273200
  30.2208057  50.0107919  64.4943361  29.4281038  50.3251430  64.6795980
  30.3356984  50.2259387  63.6564145  30.1203467  50.0891755  64.3981695
  31.1491850  49.9128122  59.4328657  31.7230711  49.2755367  59.5877221
  31.0706653  49.9132205  58.5638315  31.2225085  49.8193234  59.3275068
  19.7488266  46.6917332  53.2711372  20.3261769  46.5553783  53.9103617
  19.0502328  46.2353116  53.5256956  19.7309288  46.6039598  53.4033661
  26.5055568  48.3451388  51.4849855  26.2474813  47.5123122  51.4581154
  26.5604051  48.5709001  50.6442355  26.4755346  48.2549159  51.3569992
  25.4790280  45.8989150  51.9714750  24.9039872  46.0581318  52.6078711
  25.1025957  45.2624559  51.5083200  25.3393093  45.8286963  51.9969308
  29.1463569  44.3712499  56.8307128  28.7578002  43.9466717  56.1759319
  28.4818267  44.6194649  57.3384155  28.9910497  44.3451220  56.8094996
  15.2247099  45.5429225  49.9859190  15.3107351  45.1661093  50.7672720
  15.8522897  45.1689670  49.5079148  15.3303650  45.4314707  50.0304668
  30.2502507  48.6011104  45.0283935  31.0643146  48.8925997  44.9166706
  30.1861649  47.9470966  44.4542228  30.3605246  48.5476299  44.9272772
  36.4711998  51.2837100  59.4413511  36.2350635  50.4525165  59.3225571
  37.1155226  51.2322707  60.0268355  36.5306668  51.1534788  59.5099404
  26.1210416  52.0732621  50.1556247  26.7584363  51.8344369  50.7008040
  26.5465487  52.2769780  49.4209408  26.2786582  52.0683632  50.1273404
  20.8123058  54.3120958  54.0390551  20.8527203  54.5835809  53.2110330
  21.3717582  54.8362866  54.4548339  20.9006404  54.4296713  53.9782439
  26.9281771  40.5741326  64.2093721  26.6135212  41.3440889  63.9463283
  26.6071704  40.0111582  63.6245948  26.8340690  40.6051595  64.0835071
  37.4948418  51.0681549  55.5041805  37.1894235  51.8009606  55.8655121
  36.7754634  50.6619478  55.2234591  37.3435760  51.1163282  55.5154942
  28.5031888  52.5505044  51.8350033  28.5770896  52.3880216  52.6891883
  29.3201394  52.7395234  51.5910515  28.6348246  52.5541786  51.9248059
  22.2637644  52.8962907  48.8644477  21.4375762  53.1424644  48.7378756
  22.3249635  52.8174988  49.7306535  22.1511811  52.9207856  48.9733421
  24.4813668  38.9631848  49.8239917  23.6136093  39.0354447  49.8897526
  24.7688872  39.7653927  50.0127892  24.3953416  39.0925995  49.8614684
  33.6046557  39.1109707  58.1551239  34.3500149  38.9219518  57.7414664
  33.1883861  39.6367945  57.5965095  33.6531531  39.1611853  58.0115812
  27.0436473  55.5139787  46.5663507  27.3334772  55.1228768  45.8422733
  27.7739954  55.6956492  47.0068782  27.1943357  55.4833601  46.5246314
  27.6331218  50.3157533  57.6516637  27.1342912  51.0273301  57.7301526
  28.4431443  50.6358200  57.6134800  27.6787325  50.4684382  57.6573206
  24.9842389  57.4907169  49.6323656  24.7642684  57.2004524  50.4250323
  24.7636911  56.8322124  49.1041569  24.9189983  57.3506878  49.6712565
  23.8959336  49.5780486  51.8979358  23.6072585  48.9517957  52.4325085
  24.7642684  49.5200773  51.9644039  23.9819588  49.4768030  51.9870313
  27.1510345  58.8636559  48.4154349  27.8034403  58.3313002  48.6445375
  26.4535953  58.5105212  48.8022223  27.1441063  58.7326082  48.5066517
  24.0991609  51.2175737  47.8221723  24.8537577  51.5988776  48.0357186
  23.5062222  51.6686881  48.2768420  24.1228323  51.3404564  47.9204602
  35.1450263  51.1840973  47.7585328  35.7108296  51.8434183  47.6743871
  34.4978166  51.5290671  48.2301730  35.1329019  51.3322915  47.8158085
  26.5598276  43.1738577  62.9478936  25.7498052  43.4796357  62.8368778
  27.0372963  43.8944160  63.0631520  26.5101755  43.3253178  62.9486007
  25.4189836  52.3884298  53.1961839  24.8970590  52.5284590  53.8813703
  25.8063856  51.6294963  53.3863956  25.3993537  52.2969822  53.3262915
  22.4081020  42.4390107  47.2656793  22.1205816  42.0691378  46.5288741
  23.0951488  42.9084962  47.0040498  22.4669917  42.4537076  47.1171869
  31.6156841  54.1279758  47.1822407  31.3743517  53.3947618  46.7749472
  31.7958174  54.6766615  46.5288741  31.6064465  54.1002149  47.0252630
  26.8456162  49.4188317  48.5943330  26.6498944  50.0263052  48.0003633
  27.0690507  48.7256261  48.1135004  26.8490803  49.4065843  48.4359410
  25.2434692  46.3043055  48.7124198  25.9657344  46.4684213  48.2528004
  24.7642684  47.0252720  48.6063538  25.2798422  46.4341285  48.6289812
  33.2028199  42.6406854  54.0920883  32.3639300  42.6668133  53.8559146
  33.2732567  43.2877590  54.6726230  33.0896593  42.7402980  54.1430000
  22.8942308  48.7101128  57.8178338  23.4063405  48.9885381  57.1687098
  22.6078651  49.4490422  58.1841151  22.9277172  48.8603481  57.7768216
  19.9809215  43.2171320  48.1142074  20.0825351  44.0197481  48.4423050
  20.7765101  43.0158655  47.8165155  20.1137120  43.3057218  48.1177430
  26.4126034  40.8027516  57.8779379  26.2209231  40.8182651  58.7278803
  27.2624630  40.9991191  57.8546034  26.5101756  40.8341867  58.0002674
  20.7972947  43.3318498  55.8563196  20.6558439  42.4802438  55.9807704
  21.0813510  43.3747158  55.0325402  20.8180793  43.2118248  55.7530820
  34.8459588  51.8768947  53.7894465  34.7073947  52.5749993  54.2943208
  34.0659586  51.7217604  53.4330647  34.7102815  51.9569114  53.8120740
  33.1837673  48.1765323  60.0416847  33.1785712  47.3045139  60.0459274
  33.8898667  48.3753492  59.5686303  33.2882677  48.0769197  59.9723882
  26.9108566  47.9042307  59.4130667  27.0551942  48.4843515  58.7773777
  27.2584215  48.2818603  60.1180522  26.9836028  48.0463011  59.4229662
  29.0828484  47.1032475  57.1955799  28.3351798  47.2963489  56.7904077
  29.2370009  46.2777694  56.9579920  28.9950911  47.0097586  57.1001205
  25.9836321  56.0945078  56.2791694  26.1325885  55.5347994  55.6265099
  26.7636324  56.1737080  56.6624213  26.1210415  56.0230644  56.2388643
  28.5089622  56.2659721  57.5576185  28.4333293  55.5968532  58.1126973
  28.4379481  56.9677509  58.0716851  28.4870229  56.2704629  57.7153033
  29.3230261  40.9983026  58.0851203  29.7802875  41.7307000  58.2123995
  29.3986590  40.5749491  58.8438458  29.4021231  41.0440264  58.2152279
  21.5663252  41.2448845  59.1740646  21.0305442  40.6329204  59.4901414
  21.6281017  41.8196981  59.8274313  21.4958885  41.2395773  59.3176073
  29.1659869  54.7860720  48.3899791  29.9309760  54.5170364  48.0682455
  29.0637959  54.3010730  49.1069854  29.2641364  54.6750285  48.4479618
  27.2012639  42.9885130  54.9293027  26.4108713  42.8076590  55.2510362
  27.5973262  42.2112082  54.9123321  27.1429515  42.8472590  54.9745575
  32.5856325  50.6227560  52.6552473  31.9101327  50.3912792  53.1565860
  32.5948701  50.0148743  52.0294578  32.4874830  50.4986485  52.6368625
  29.7150469  45.4645389  59.4116526  29.6509610  46.3255345  59.2836662
  29.8547657  45.1477382  58.6112077  29.7265939  45.5445555  59.2744738
  34.5873060  53.4792692  44.8862650  34.6692897  54.2859678  44.5624101
  35.0722802  53.4988651  45.6103424  34.6710217  53.6013354  44.9449549
  28.3969563  48.1577528  53.5532728  27.9731812  48.3582027  52.8171747
  28.2214418  47.3106376  53.6657028  28.3080444  48.0626309  53.4606419
  27.8981256  59.6728041  56.0154186  28.3877187  58.9738830  55.8329850
  27.3265489  59.3751911  56.6030243  27.8865786  59.5254265  56.0755226
  23.6852008  48.6529579  48.9860701  23.8416627  48.5876382  49.8416693
  24.0252601  49.4278132  48.7739381  23.7585243  48.7578778  49.0815295
  30.2231152  48.0287463  47.8554064  30.7646698  47.5257844  48.3192685
  30.5377712  47.9752658  47.0443549  30.3495550  47.9466884  47.8037876
  34.0948260  52.2390110  64.9680976  34.9083125  51.9675259  65.1286109
  33.9343226  51.9397650  64.1641172  34.1918208  52.1545036  64.8726382
  28.3917602  53.4204815  45.1394092  28.4610423  52.5619353  45.2787093
  29.1706057  53.6376695  44.8113117  28.5170452  53.3257679  45.1111249
  31.3720422  42.9223768  57.9076365  31.5862391  42.2834682  57.3539719
  30.7554321  43.3669591  57.4784226  31.3125751  42.8933911  57.7626796
  32.7825090  55.8442516  49.3530585  32.3904882  55.5409231  48.6353452
  32.9378162  56.6811606  49.1635539  32.7478680  55.9226353  49.2187083
  20.2586269  45.8364530  49.3021468  20.6385234  46.2549075  48.6381735
  19.6841634  46.4177986  49.6090311  20.2297594  45.9842389  49.2498209
  33.5359510  44.5312833  58.8459672  32.7236192  44.2238723  58.9272844
  33.9949444  44.0511833  59.4102384  33.4839895  44.4149325  58.9414266
  32.9464765  52.4092505  49.2936616  32.5879419  52.5807148  50.0700648
  32.4603475  52.8705710  48.7364615  32.8223461  52.5031476  49.3261885
  30.6313017  45.9372904  63.6288374  31.1012649  46.5615021  64.0156248
  30.6774898  45.2689880  64.1881589  30.7080893  45.9307584  63.7688445
  29.8576524  38.5822892  56.1830030  29.4708278  38.6071923  56.9643560
  29.3709462  38.0164570  55.7304547  29.7289033  38.5018643  56.2317934
  34.1069504  53.2996401  60.2403817  34.7449224  52.8056596  59.9066273
  33.4643595  53.2273801  59.6556044  34.1063730  53.2155409  60.1046172
  29.5233666  35.4689877  58.4740290  30.1526784  36.0050177  58.1961361
  29.6919529  35.3767236  59.3253856  29.6411461  35.5351239  58.5588818
  29.3247581  40.2561072  60.7466702  30.1521010  39.9846221  60.8025316
  29.3455427  41.0521914  61.1030520  29.4500431  40.3340826  60.8081885
  34.1623760  53.9916209  56.8809174  34.9516139  53.6405274  57.0011255
  34.3367358  54.8052597  56.6185807  34.3044042  54.0602066  56.8597042
  23.9017071  47.4024935  53.9336963  23.0605077  47.3028809  54.1415856
  24.1107079  48.1720415  54.2851283  23.8081763  47.5016978  54.0164277
  21.3792638  45.0244472  51.7621713  20.9849336  45.0987483  50.9871823
  20.8232755  45.4102418  52.3130075  21.2395450  45.0926246  51.7289373
  27.7133736  45.3306334  53.1834560  27.4096873  44.7762322  53.7844968
  27.0113157  45.5098544  52.6962594  27.5649946  45.2751116  53.2004266
  25.7752087  52.5456055  57.8906658  25.6672442  52.5558117  58.7568716
  25.9847868  53.3710835  57.7011612  25.7902198  52.6697129  57.9910749
  23.7925879  49.7968697  55.3528595  23.2013812  50.4378195  55.3231610
  24.5546902  50.2206314  55.3259895  23.8174139  49.9544535  55.3443743
  24.1886502  40.9570695  56.0196613  24.6487983  41.0309624  56.7571737
  24.2342608  41.7551949  55.6696434  24.2637057  41.0864842  56.0769370
  25.8369851  41.6237390  60.5868640  25.4455416  40.9770737  61.0224418
  26.0055714  42.2148825  61.2062896  25.8040762  41.6151657  60.7431346
  33.5515395  55.2478009  52.7860620  33.3535084  55.7368823  52.0916831
  32.9303106  55.4519250  53.3644753  33.4302959  55.3494547  52.7683843
  27.6123373  47.0162905  47.1270864  28.3565418  47.4037182  47.3653814
  27.7584070  46.1720331  47.2911352  27.7433958  46.9493378  47.1864834
  20.9774279  44.5859885  58.3948329  21.8399892  44.4855595  58.3085659
  20.6466062  44.0054595  57.8333901  21.0559476  44.4851512  58.2993735
  24.3376065  43.4102334  55.0558747  23.7129135  43.4220726  54.4484700
  24.0021660  43.8862510  55.7049988  24.1961557  43.4820851  55.0615316
  21.0501741  51.4702794  56.4962512  20.5201665  50.7795233  56.5457486
  21.3226834  51.4612980  55.6675220  21.0126463  51.3669926  56.3809928
  32.0821831  52.0528497  45.2200194  32.8056030  52.5186610  45.0764768
  31.6422422  52.1202106  44.4697791  32.1237524  52.1312334  45.0884976
  30.4904284  49.9830309  54.2045182  30.0631892  49.3580028  53.7710617
  30.4829228  49.7005231  55.0304189  30.4263425  49.8483090  54.2625009
  23.6066811  45.0195482  57.2733616  23.7660297  44.2638806  57.6785338
  23.4259704  45.5686422  57.9274354  23.6032170  44.9889296  57.4296322
  31.5487114  37.1856718  57.8284405  31.0527675  37.3820392  57.1375972
  32.3056176  37.5849386  57.6573207  31.5873938  37.2734452  57.7004542
  28.8189993  40.8599064  54.4187716  28.8432480  40.3259176  53.7300496
  29.0701467  40.3516372  55.0813307  28.8599912  40.7059968  54.4152361
  16.3297583  48.1430559  53.8530860  16.2241032  48.0977403  52.9882944
  15.5797803  48.4884339  54.1345145  16.2033186  48.1871467  53.7668190
  25.0991316  39.5869882  53.7993460  25.1389687  40.0879088  54.5128168
  24.2740980  39.6780276  53.5299383  24.9830841  39.6751698  53.8643998
  27.2820928  49.1530622  61.9013755  26.4316559  49.2902336  62.0371400
  27.4449056  48.4194400  62.3461457  27.1804792  49.0644723  61.9869354
  26.5205679  46.1030392  56.0967359  25.6897609  46.2704210  55.8902607
  26.4657196  45.7266343  56.8816245  26.3895094  46.0720123  56.1815887
  24.3289462  39.5939285  61.7323770  24.9542166  39.0501417  62.0053202
  23.8739942  39.1134202  61.1631560  24.3537723  39.4428766  61.6885364
  29.7317901  52.1985944  57.4494312  29.2242992  52.7521791  57.8934942
  29.4344547  52.2594234  56.6313086  29.6122786  52.2892255  57.3942769
  31.8980083  40.5639264  56.2918975  32.3235155  40.1111790  55.6802501
  31.2837076  40.0099334  56.5683762  31.8708728  40.4153240  56.2424000
  21.4294933  47.4420935  47.2239600  21.9387162  48.0385443  47.6050905
  21.9029205  47.1746909  46.5416019  21.5738309  47.4906751  47.1794123
  32.3425681  56.1149202  45.3798255  31.6254991  55.9410064  44.9145493
  32.9932419  55.8801774  44.8473741  32.3327532  56.0544994  45.2327473
  28.9760386  57.1310502  54.3551319  28.7526040  56.3729332  54.7235345
  28.4870229  57.1608524  53.6331758  28.8703835  57.0232727  54.3028060
  23.7885465  44.0777194  50.0912780  23.0697454  44.4941326  50.3585644
  24.1597827  44.6431432  49.5404418  23.7377397  44.2226475  50.0495587
  33.0885046  44.7105043  55.9814776  33.0682973  44.5288338  56.8349555
  33.1364246  45.5817061  55.9574360  33.0919687  44.8121581  56.1038071
  31.0331375  51.2992235  61.9063253  30.9927230  50.6541911  61.3208408
  31.8454694  51.2428852  62.2188665  31.1474529  51.1951201  61.8660202
  27.6238843  57.3510960  51.8088403  27.2099242  56.6885091  51.4192245
  28.3086217  57.4988819  51.2884098  27.6637215  57.2751619  51.6744901
  30.9904137  56.5101046  52.5612020  30.5920420  56.6203316  51.7932840
  30.3755357  56.7183112  53.1438580  30.8403026  56.5574614  52.5343319
  26.7209084  44.9289171  58.4613010  26.2087987  44.3210354  58.8198042
  26.5488580  45.6445764  58.9286986  26.6198721  44.9452470  58.5829234
  21.5674799  43.3726746  61.1115372  21.3977389  44.0328121  60.5663579
  21.1240749  43.5833308  61.8327861  21.4774132  43.5012729  61.1377001
  30.5978154  42.8513416  60.9015266  31.1549585  42.6227225  60.2693731
  30.2739219  43.6119081  60.6250478  30.6324565  42.9297252  60.7671763
  18.4676863  46.2773612  56.3703862  17.9203583  45.6074258  56.4884730
  19.2569242  45.9103460  56.4347329  18.5029047  46.1238598  56.3972562
  28.3161272  45.9381069  61.8667273  29.0672599  46.2532746  62.1806827
  28.5083848  45.7360240  61.0401195  28.4552686  45.9548451  61.7910669
  17.2263833  45.4894420  53.5249885  17.0485594  45.0371029  54.2504800
  16.9382855  46.2920581  53.7088362  17.1576786  45.5416978  53.6593388
  32.8887414  46.7452137  52.7627275  33.3841079  46.0275132  52.7231295
  32.0787190  46.4422935  52.6481762  32.8431307  46.5949783  52.7401001
  28.3346025  50.5949950  44.9124280  27.5257348  50.2716624  44.8657589
  28.8420934  49.8883172  44.8452528  28.2895692  50.4431267  44.8954574
  18.9636303  48.0222143  50.6371644  18.0981822  48.0107834  50.5254415
  19.0635119  47.8352366  51.4842783  18.8510470  47.9928205  50.7460588
  34.9539233  49.4955825  55.4504404  35.3794304  48.9730246  54.8974829
  34.5896153  50.0936662  54.9293027  34.9625835  49.5066052  55.2913414
  24.5893313  57.7920042  54.2101749  24.9039872  58.6056431  54.2179531
  24.9986726  57.4070261  54.8783909  24.6961411  57.8548744  54.3105841
  31.5417832  53.2090089  51.7805561  32.0129010  53.9230351  51.9495547
  31.8778011  52.6088839  52.3165431  31.6612947  53.2261553  51.8837937
  33.6294817  54.8191402  63.9597633  33.7391782  54.0299963  64.3154381
  33.9585713  54.7297338  63.1571972  33.6947223  54.6897255  63.8940024
  28.4587327  37.9817559  58.7363656  28.5915233  37.1848553  59.0644632
  28.8432480  38.5083962  59.3161932  28.5343656  37.9417476  58.8707159
  32.1791779  53.0008023  58.5433254  31.6312725  52.3765907  58.2753319
  32.6404807  53.1902295  57.8277333  32.1658988  52.9367073  58.3983685
  34.9885643  41.0693377  55.9284446  34.4048632  41.5702584  55.5162014
  35.3089937  40.5622934  55.2948770  34.9498818  41.0685213  55.7742953
  26.1175774  37.9776735  56.9841550  26.6620187  37.6367861  57.5745892
  26.1712710  38.8362196  57.1262834  26.2064893  38.0531994  57.0923423
  21.9306333  51.7393151  53.8580358  22.5351190  51.6988985  53.2294179
  21.7233645  52.5864303  53.8884414  21.9895230  51.8581153  53.7696474
  31.7450105  54.0059096  55.0742595  32.5648479  53.8622062  55.3358890
  31.4644183  54.6305295  55.6159033  31.8246848  54.0769448  55.1930535
  17.1657615  50.7227768  53.7279281  17.0681893  49.9124040  54.0369338
  17.9486485  50.7019561  53.3425549  17.2673752  50.5994858  53.7166144
  48.2163755  61.6623947  48.0385472  48.1857760  62.5168584  48.2103741
  48.8145104  61.3619240  48.5971615  48.3000913  61.7440444  48.1460274
  41.4163440  60.7499598  52.7938402  40.5601336  60.9108097  52.8447519
  41.4631094  59.8791662  52.8143463  41.2962552  60.6450400  52.8044468
  35.8004580  70.2862316  48.5575634  35.0487479  69.9077855  48.3291679
  36.2490591  70.3180750  47.8094444  35.7554247  70.2347923  48.4133136
  44.7257157  67.0186124  62.3998858  45.4323924  66.5238155  62.5285793
  44.9145092  67.4595206  61.6701516  44.8585062  67.0104474  62.3107904
  41.2529540  70.7087686  43.9861181  40.9180908  71.3864607  43.5505403
  41.7656410  70.3192997  43.3978052  41.2795121  70.7512264  43.8347972
  40.7933831  72.6601954  49.9272292  41.1773210  73.2288853  49.3877067
  40.7292972  71.9351465  49.4478108  40.8407258  72.6377418  49.7766155
  44.2615261  62.8091642  55.4370054  44.8071221  63.4876729  55.4964023
  44.2032137  62.6679103  54.5771635  44.3331175  62.8883644  55.3182114
  37.3789336  70.2980708  50.8238406  37.4799699  69.4881062  51.1335534
  36.7831081  70.2037655  50.1938085  37.3061875  70.1645737  50.7764644
  46.0380330  64.2376249  46.3103781  45.9219856  64.9883936  46.7395919
  46.8336216  63.9800203  46.5599868  46.1384919  64.3111096  46.4107873
  37.2190076  75.2158298  52.2253262  37.8627531  75.6571462  52.6149420
  37.5446331  74.4111724  52.1383521  37.3621904  75.1623492  52.2698739
  30.5754380  66.3200995  50.4490740  30.3404565  65.4868647  50.3423008
  30.7140021  66.6005661  49.6351941  30.5610043  66.2384498  50.3133095
  32.8744468  58.4886726  53.3475047  32.2549499  57.8979373  53.1785062
  32.7728331  59.0798161  52.7139371  32.7682143  58.4890808  53.2280037
  37.9210655  68.2270272  47.5973124  38.2426496  68.7675480  46.9934432
  38.5682752  67.6567044  47.7295414  38.0636710  68.2229448  47.5280159
  39.9712363  60.2286267  47.6807511  40.6692528  60.4074395  48.1728974
  40.2864696  59.7056607  47.0577900  40.1207701  60.1780040  47.6609521
  32.6013601  62.0339007  55.5918616  32.4772298  62.6201453  56.2268435
  33.2531885  61.5399203  55.8930891  32.6787250  62.0477812  55.7304546
  40.1600299  66.6156712  47.6687302  40.5993934  66.0073813  48.1142075
  40.0104962  66.2364086  46.8972767  40.2021764  66.4695184  47.6206469
  37.6271942  65.2100724  54.8706127  38.2720944  64.7173167  54.5517076
  37.8673719  65.3525511  55.6972206  37.7582527  65.1578166  54.9455661
  40.1658033  68.0555630  54.5213020  40.4481276  67.2607036  54.2999776
  40.8944194  68.5336218  54.5418081  40.3147597  68.0090227  54.4916035
  38.1439227  55.5978664  51.7628785  37.8142557  56.0489808  51.0932484
  37.4684229  55.5194827  52.3101792  37.9949663  55.6529799  51.7452008
  43.7609635  64.9683894  44.6218071  43.6760930  65.8244860  44.7667640
  44.2494019  64.6928218  45.2900230  43.8198533  65.0541215  44.7420153
  44.6928069  61.5868688  46.1215806  44.1639540  61.8028321  46.7813113
  45.2153088  62.2804826  46.0416776  44.6916522  61.7211825  46.2071406
  50.1476121  67.1614992  51.4948851  49.3173825  67.3725636  51.6582267
  50.0985374  66.3352047  51.2191134  50.0182857  67.0704599  51.4786216
  36.5827676  65.4831905  44.9223274  35.9984892  65.9881936  45.3289138
  36.1797772  65.2574292  44.1819866  36.4366980  65.5240153  44.8728300
  32.1371705  71.1986666  51.7246946  31.6539283  71.9237155  51.7006529
  32.9495023  71.4962796  51.8357104  32.1862453  71.3489020  51.7374225
  38.2085859  69.9918847  54.3296760  37.6912801  69.6326262  53.7258068
  38.9060250  69.4681021  54.3402826  38.2351440  69.8616534  54.2427019
  41.8649451  70.4413661  60.2912933  41.9532797  70.2539801  61.1391144
  42.2939164  69.7951090  59.8917780  41.9411553  70.3176668  60.3584685
  39.4319911  69.7244821  59.2730596  38.8690746  69.3117430  59.7970257
  40.1940934  69.6497726  59.6923739  39.4614359  69.6522221  59.4123596
  41.0404891  61.7297557  43.3992195  41.2800894  61.9375541  42.5867538
  41.3620732  60.9255065  43.5081139  41.1242049  61.6411658  43.2952748
  36.3495181  53.6590952  47.2451733  37.1041149  54.0269270  47.0068783
  36.1722716  54.0330507  48.0130912  36.4349659  53.7689140  47.3236621
  34.9915902  71.7142842  51.8767226  35.6936482  71.1994831  51.9339982
  34.9113385  72.0416993  52.6814101  35.0839663  71.6857068  52.0040018
  49.6430080  59.8085393  55.2899272  48.8058501  59.8787580  55.5246867
  49.6118311  59.8109888  54.4173574  49.5148362  59.8195620  55.1958820
  36.0394809  61.9518429  61.0047641  36.2115312  61.8424323  61.8532922
  36.5764166  62.5972834  60.7678833  36.1439813  62.0310430  61.0952737
  34.7052246  56.0661271  43.9429846  34.5227819  56.2833152  43.1170839
  35.5677859  56.1800284  43.9988460  34.8056835  56.1151169  43.8284333
  34.3166678  67.9049194  51.3852834  35.1555577  68.1372126  51.4326595
  34.3478447  67.0353505  51.3159869  34.4448395  67.8106140  51.3817478
  34.9419381  68.3250069  55.6866139  35.4817606  68.1821200  56.3569512
  34.2589327  68.7246820  56.0550165  34.9211535  68.3629740  55.8400561
  44.3660266  64.0041070  50.8811164  45.1217781  64.4372584  50.9200072
  44.4722590  63.3545839  51.4545800  44.4930436  63.9718553  50.9709189
  47.4040437  67.8314347  51.6313567  46.9675669  67.8351089  52.3872538
  47.0703352  68.5119846  51.1993144  47.2903057  67.9326803  51.6794399
  41.9769510  69.8722680  62.9556717  42.7609927  69.9853527  63.3212459
  41.7766105  69.0463817  63.1515403  42.0635536  69.7669399  63.0391103
  30.3456526  64.5450360  55.8400561  30.0794941  63.7289476  55.9991551
  30.3595090  64.5903515  54.9696076  30.3081248  64.4307264  55.7354043
  47.3237920  54.8728175  53.8742995  47.9663828  54.9426279  54.4604910
  47.5760940  54.2057398  53.3722536  47.4560052  54.7854523  53.8870274
  34.2514273  59.3435444  42.4552319  33.5372450  59.0573624  42.8674751
  34.7358241  59.6832070  43.0958706  34.2173636  59.3517094  42.6107954
  35.0955132  58.0828738  58.4867568  34.4026929  57.6125718  58.7328300
  35.7115459  57.8567043  59.0609276  35.0839662  57.9795870  58.6076721
  42.1339904  71.7832782  56.6023173  41.3355149  71.5432282  56.8597041
  42.5825915  71.8347175  57.3490220  42.0814515  71.7555173  56.7508097
  50.5384783  64.5495267  50.5233204  51.2001217  63.9885935  50.4229112
  49.8976195  64.0547297  50.8485895  50.5413650  64.3931676  50.5565544
  41.4261591  67.8465398  42.8314127  41.8412739  67.5150422  42.1398623
  40.5953520  67.6134300  42.7034264  41.3649599  67.7636654  42.7104974
  30.7549939  65.3309139  53.1212305  30.5725513  65.3056025  52.2684597
  31.4899608  65.8008077  53.1601214  30.8364003  65.3970501  53.0010224
  46.8249614  65.5660649  50.2645193  47.0605203  65.7105848  49.4372043
  46.9739177  66.3303057  50.6576706  46.8815417  65.6999703  50.2008796
  33.8195691  62.0494142  59.6294414  34.5435663  62.0347173  60.1159308
  33.9211828  62.7589497  59.1316382  33.9413900  62.1518845  59.6273200
  48.6540070  64.4062315  48.1014796  48.9848287  64.9389955  47.4954891
  49.2273158  64.4601203  48.7576747  48.7873749  64.4931884  48.1092578
  41.1940640  65.5293227  64.4943361  40.4013621  65.8436738  64.6795980
  41.3089568  65.7444695  63.6564145  41.0936051  65.6077063  64.3981695
  43.8671959  62.2527218  48.7838377  43.9618814  62.9916512  49.2378002
  43.2430803  61.8244693  49.2172941  43.7880990  62.2988538  48.9146524
  42.1224433  65.4313430  59.4328657  42.6963295  64.7940675  59.5877221
  42.0439237  65.4317513  58.5638315  42.1957668  65.3378542  59.3275068
  30.7220850  62.2102640  53.2711372  31.2994352  62.0739091  53.9103617
  30.0234911  61.7538424  53.5256956  30.7041871  62.1224906  53.4033661
  44.1194981  64.0975958  42.0175329  44.0375143  64.1678145  42.8830316
  44.7574701  64.6605701  41.8259069  44.2014818  64.1914929  42.1165278
  37.4788152  63.8636695  51.4849855  37.2207396  63.0308430  51.4581154
  37.5336635  64.0894308  50.6442355  37.4487930  63.7734467  51.3569992
  42.5589202  55.9665146  51.5853947  41.8545529  55.4774332  51.7437867
  42.6074176  55.9787621  50.7142392  42.4619254  55.8954794  51.4793287
  36.4522864  61.4174458  51.9714750  35.8772455  61.5766626  52.6078711
  36.0758540  60.7809867  51.5083200  36.3125676  61.3472271  51.9969308
  40.1196153  59.8897807  56.8307128  39.7310585  59.4652025  56.1759319
  39.4550851  60.1379957  57.3384155  39.9643080  59.8636528  56.8094996
  49.7619422  59.6472812  49.6054958  49.5055987  58.8352753  49.4152841
  50.6048736  59.6550379  49.3785145  49.8485447  59.5284809  49.5439775
  26.1979683  61.0614533  49.9859190  26.2839935  60.6846401  50.7672720
  26.8255480  60.6874978  49.5079148  26.3036234  60.9500015  50.0304668
  43.9422514  53.5872436  54.3431112  44.3233026  52.9050607  54.7298986
  43.1385799  53.2982038  54.1606777  43.8798976  53.4439484  54.3735168
  41.2235091  64.1196412  45.0283935  42.0375730  64.4111305  44.9166706
  41.1594232  63.4656274  44.4542228  41.3337830  64.0661607  44.9272772
  47.4444581  66.8022408  59.4413511  47.2083218  65.9710473  59.3225571
  48.0887810  66.7508015  60.0268355  47.5039252  66.6720096  59.5099404
  37.0942999  67.5917929  50.1556247  37.7316946  67.3529677  50.7008040
  37.5198071  67.7955088  49.4209408  37.2519165  67.5868939  50.1273404
  31.7855642  69.8306266  54.0390551  31.8259787  70.1021117  53.2110330
  32.3450166  70.3548174  54.4548339  31.8738988  69.9482021  53.9782439
  37.7345814  62.8120219  44.4931136  38.1190967  62.5927926  45.2447682
  37.4857435  63.6383164  44.6232213  37.7547887  62.9018365  44.6232213
  37.9014355  56.0926634  64.2093721  37.5867796  56.8626197  63.9463283
  37.5804287  55.5296890  63.6245948  37.8073274  56.1236903  64.0835071
  48.4681002  66.5866857  55.5041805  48.1626819  67.3194914  55.8655121
  47.7487217  66.1804786  55.2234591  48.3168344  66.6348590  55.5154942
  39.4764471  68.0690352  51.8350033  39.5503479  67.9065524  52.6891883
  40.2933977  68.2580541  51.5910515  39.6080830  68.0727094  51.9248059
  54.1682794  63.2259857  54.8310149  54.1007294  63.2455817  53.9612736
  54.1538456  64.0690185  55.0565820  54.1561550  63.3533592  54.7362626
  33.2370228  68.4148215  48.8644477  32.4108346  68.6609952  48.7378756
  33.2982219  68.3360296  49.7306535  33.1244395  68.4393164  48.9733421
  35.4546252  54.4817156  49.8239917  34.5868677  54.5539755  49.8897526
  35.7421456  55.2839235  50.0127892  35.3686000  54.6111303  49.8614684
  44.5779140  54.6295015  58.1551239  45.3232732  54.4404825  57.7414664
  44.1616445  55.1553253  57.5965095  44.6264115  54.6797160  58.0115812
  38.0169057  71.0325095  46.5663507  38.3067355  70.6414076  45.8422733
  38.7472538  71.2141800  47.0068782  38.1675941  71.0018909  46.5246314
  51.9541411  62.0004244  53.1056744  52.5049333  61.3672313  53.3453836
  51.9385527  62.5319636  53.7972248  52.0326608  61.9853192  53.2435602
  38.6063802  65.8342841  57.6516637  38.1075496  66.5458609  57.7301526
  39.4164026  66.1543507  57.6134800  38.6519909  65.9869689  57.6573206
  35.9574972  73.0092477  49.6323656  35.7375268  72.7189832  50.4250323
  35.7369494  72.3507432  49.1041569  35.8922567  72.8692186  49.6712565
  34.8691920  65.0965794  51.8979358  34.5805168  64.4703265  52.4325085
  35.7375268  65.0386081  51.9644039  34.9552172  64.9953338  51.9870313
  45.6569817  60.2400577  52.2161340  45.3134583  59.5190912  52.5668590
  45.7562860  60.0314428  51.3739698  45.6211860  60.1024780  52.1433020
  38.1242928  74.3821867  48.4154349  38.7766986  73.8498310  48.6445375
  37.4268537  74.0290520  48.8022223  38.1173646  74.2511390  48.5066517
  35.0724193  66.7361045  47.8221723  35.8270161  67.1174084  48.0357186
  34.4794806  67.1872189  48.2768420  35.0960907  66.8589872  47.9204602
  46.1182847  66.7026281  47.7585328  46.6840879  67.3619491  47.6743871
  45.4710750  67.0475979  48.2301730  46.1061603  66.8508223  47.8158085
  37.5330860  58.6923885  62.9478936  36.7230636  58.9981665  62.8368778
  38.0105547  59.4129468  63.0631520  37.4834339  58.8438486  62.9486007
  36.3922420  67.9069606  53.1961839  35.8703173  68.0469898  53.8813703
  36.7796440  67.1480271  53.3863956  36.3726121  67.8155130  53.3262915
  33.3813604  57.9575415  47.2656793  33.0938399  57.5876685  46.5288741
  34.0684072  58.4270270  47.0040498  33.4402501  57.9722384  47.1171869
  42.5889425  69.6465066  47.1822407  42.3476101  68.9132926  46.7749472
  42.7690758  70.1951922  46.5288741  42.5797049  69.6187457  47.0252630
  37.8188745  64.9373625  48.5943330  37.6231528  65.5448360  48.0003633
  38.0423091  64.2441569  48.1135004  37.8223386  64.9251151  48.4359410
  36.2167275  61.8228363  48.7124198  36.9389927  61.9869521  48.2528004
  35.7375268  62.5438028  48.6063538  36.2531006  61.9526593  48.6289812
  44.1760783  58.1592162  54.0920883  43.3371883  58.1853441  53.8559146
  44.2465150  58.8062897  54.6726230  44.0629176  58.2588288  54.1430000
  33.8674892  64.2286436  57.8178338  34.3795989  64.5070689  57.1687098
  33.5811235  64.9675730  58.1841151  33.9009755  64.3788789  57.7768216
  48.0518307  63.3660149  51.3782125  47.9652281  63.5215575  52.2316903
  47.5968787  64.0098224  51.0041530  47.9721563  63.4835904  51.4489231
  30.9541798  58.7356627  48.1142074  31.0557935  59.5382789  48.4423050
  31.7497685  58.5343963  47.8165155  31.0869704  58.8242526  48.1177430
  37.3858617  56.3212824  57.8779379  37.1941814  56.3367959  58.7278803
  38.2357213  56.5176498  57.8546034  37.4834339  56.3527175  58.0002674
  31.7705530  58.8503806  55.8563196  31.6291022  57.9987746  55.9807704
  32.0546094  58.8932466  55.0325402  31.7913376  58.7303556  55.7530820
  41.9244123  60.6870896  50.0007684  41.6778837  60.6066647  50.8344473
  42.2529246  59.9024364  49.8070212  41.9365366  60.5597161  50.0955207
  45.8192172  67.3954255  53.7894465  45.6806531  68.0935301  54.2943208
  45.0392169  67.2402912  53.4330647  45.6835398  67.4754422  53.8120740
  44.1570257  63.6950631  60.0416847  44.1518295  62.8230447  60.0459274
  44.8631251  63.8938800  59.5686303  44.2615261  63.5954505  59.9723882
  37.8841150  63.4227614  59.4130667  38.0284526  64.0028823  58.7773777
  38.2316799  63.8003911  60.1180522  37.9568611  63.5648318  59.4229662
  40.0561067  62.6217783  57.1955799  39.3084381  62.8148797  56.7904077
  40.2102593  61.7963002  56.9579920  39.9683495  62.5282894  57.1001205
  36.9568905  71.6130386  56.2791694  37.1058469  71.0533302  55.6265099
  37.7368907  71.6922388  56.6624213  37.0942999  71.5415952  56.2388643
  47.3145544  66.7532509  44.5510965  46.9352353  65.9669647  44.5440254
  46.6511790  67.3019366  44.4082609  47.1604019  66.7177333  44.5291762
  39.4822206  71.7845029  57.5576185  39.4065877  71.1153840  58.1126973
  39.4112065  72.4862817  58.0716851  39.4602813  71.7889936  57.7153033
  40.2962844  56.5168334  58.0851203  40.7535459  57.2492308  58.2123995
  40.3719173  56.0934799  58.8438458  40.3753814  56.5625572  58.2152279
  32.5395836  56.7634153  59.1740646  32.0038025  56.1514511  59.4901414
  32.6013600  57.3382289  59.8274313  32.4691468  56.7581081  59.3176073
  40.1392453  70.3046028  48.3899791  40.9042344  70.0355672  48.0682455
  40.0370543  69.8196038  49.1069854  40.2373948  70.1935593  48.4479618
  38.1745222  58.5070437  54.9293027  37.3841297  58.3261898  55.2510362
  38.5705845  57.7297390  54.9123321  38.1162099  58.3657898  54.9745575
  42.6611113  67.3358212  40.3699740  43.4284098  67.3958337  39.9605592
  42.2142422  66.7638653  39.8856059  42.7084540  67.2594788  40.2377451
  43.5588909  66.1412868  52.6552473  42.8833910  65.9098100  53.1565860
  43.5681285  65.5334051  52.0294578  43.4607413  66.0171793  52.6368625
  40.6883053  60.9830697  59.4116526  40.6242194  61.8440653  59.2836662
  40.8280240  60.6662690  58.6112077  40.6998523  61.0630863  59.2744738
  45.5605643  68.9978000  44.8862650  45.6425481  69.8044986  44.5624101
  46.0455385  69.0173959  45.6103424  45.6442801  69.1198662  44.9449549
  39.3702146  63.6762836  53.5532728  38.9464396  63.8767335  52.8171747
  39.1947002  62.8291684  53.6657028  39.2813027  63.5811617  53.4606419
  38.8713840  75.1913349  56.0154186  39.3609770  74.4924138  55.8329850
  38.2998072  74.8937219  56.6030243  38.8598370  75.0439573  56.0755226
  34.6584591  64.1714887  48.9860701  34.8149211  64.1061690  49.8416693
  34.9985185  64.9463440  48.7739381  34.7317826  64.2764086  49.0815295
  41.1963736  63.5472771  47.8554064  41.7379282  63.0443152  48.3192685
  41.5110295  63.4937966  47.0443549  41.3228133  63.4652192  47.8037876
  45.0680843  67.7575418  64.9680976  45.8815709  67.4860567  65.1286109
  44.9075810  67.4582958  64.1641172  45.1650792  67.6730344  64.8726382
  39.3650186  68.9390122  45.1394092  39.4343006  68.0804661  45.2787093
  40.1438641  69.1562003  44.8113117  39.4903036  68.8442986  45.1111249
  42.3453005  58.4409075  57.9076365  42.5594975  57.8019990  57.3539719
  41.7286905  58.8854899  57.4784226  42.2858335  58.4119219  57.7626796
  43.7557673  71.3627824  49.3530585  43.3637465  71.0594539  48.6353452
  43.9110746  72.1996914  49.1635539  43.7211263  71.4411660  49.2187083
  31.2318853  61.3549838  49.3021468  31.6117818  61.7734383  48.6381735
  30.6574218  61.9363294  49.6090311  31.2030178  61.5027697  49.2498209
  44.5092093  60.0498141  58.8459672  43.6968775  59.7424031  58.9272844
  44.9682028  59.5697141  59.4102384  44.4572478  59.9334633  58.9414266
  43.9197348  67.9277813  49.2936616  43.5612003  68.0992455  50.0700648
  43.4336059  68.3891018  48.7364615  43.7956045  68.0216784  49.3261885
  38.7085714  63.6076978  41.8336850  38.9978238  64.3841861  42.1080425
  38.7957512  63.0965709  42.5351350  38.7639970  63.6468896  41.9779348
  41.6045601  61.4558212  63.6288374  42.0745232  62.0800328  64.0156248
  41.6507481  60.7875188  64.1881589  41.6813477  61.4492892  63.7688445
  40.8309108  54.1008200  56.1830030  40.4440861  54.1257231  56.9643560
  40.3442045  53.5349878  55.7304547  40.7021617  54.0203950  56.2317934
  45.0802087  68.8181709  60.2403817  45.7181808  68.3241904  59.9066273
  44.4376179  68.7459109  59.6556044  45.0796314  68.7340717  60.1046172
  46.8059088  60.6670855  54.8069733  46.3786696  60.5797203  54.0517832
  46.1685141  60.7748630  55.3924577  46.6488695  60.6703514  54.7815174
  40.4966250  50.9875185  58.4740290  41.1259368  51.5235485  58.1961361
  40.6652112  50.8952544  59.3253856  40.6144044  51.0536547  58.5588818
  40.2980165  55.7746380  60.7466702  41.1253594  55.5031529  60.8025316
  40.3188011  56.5707221  61.1030520  40.4233015  55.8526134  60.8081885
  45.1356344  69.5101517  56.8809174  45.9248722  69.1590582  57.0011255
  45.3099942  70.3237905  56.6185807  45.2776626  69.5787374  56.8597042
  34.8749654  62.9210243  53.9336963  34.0337661  62.8214117  54.1415856
  35.0839662  63.6905723  54.2851283  34.7814347  63.0202286  54.0164277
  32.3525221  60.5429780  51.7621713  31.9581919  60.6172791  50.9871823
  31.7965338  60.9287726  52.3130075  32.2128034  60.6111554  51.7289373
  38.6866319  60.8491642  53.1834560  38.3829457  60.2947630  53.7844968
  37.9845740  61.0283852  52.6962594  38.5382529  60.7936424  53.2004266
  37.7432416  58.1592162  47.7479262  38.0192151  57.4411074  47.3356829
  38.3431086  58.7577082  47.5400368  37.8725681  58.1412532  47.6560023
  36.7484670  68.0641362  57.8906658  36.6405025  68.0743425  58.7568716
  36.9580452  68.8896143  57.7011612  36.7634781  68.1882437  57.9910749
  41.2442937  55.8305679  46.0225857  41.6986683  56.0016239  46.7473701
  41.7182983  55.2173790  45.6223633  41.3811257  55.7656564  46.0699618
  34.7658462  65.3154005  55.3528595  34.1746396  65.9563503  55.3231610
  35.5279486  65.7391622  55.3259895  34.7906723  65.4729843  55.3443743
  35.1619085  56.4756003  56.0196613  35.6220567  56.5494932  56.7571737
  35.2075192  57.2737257  55.6696434  35.2369640  56.6050150  56.0769370
  36.8102435  57.1422698  60.5868640  36.4188000  56.4956045  61.0224418
  36.9788298  57.7334133  61.2062896  36.7773345  57.1336965  60.7431346
  50.8848884  65.1459775  56.3505874  50.9432008  65.5946423  57.0965850
  50.2515352  65.5558587  55.9135954  50.8000179  65.2733509  56.3958422
  44.5247979  70.7663316  52.7860620  44.3267667  71.2554131  52.0916831
  43.9035690  70.9704558  53.3644753  44.4035543  70.8679855  52.7683843
  38.5855957  62.5348213  47.1270864  39.3298002  62.9222490  47.3653814
  38.7316653  61.6905639  47.2911352  38.7166542  62.4678686  47.1864834
  41.5733833  58.1073687  53.0264783  41.0993787  57.5815449  53.5370094
  41.9451969  57.5603159  52.4579645  41.5583722  57.9489683  53.0179931
  31.9506863  60.1045193  58.3948329  32.8132476  60.0040903  58.3085659
  31.6198646  59.5239903  57.8333901  32.0292059  60.0036820  58.2993735
  47.8370563  63.1676062  54.4371564  47.5968786  62.3282477  54.4413990
  48.3162571  63.2476229  55.1612337  47.8722747  63.0557462  54.5446366
  43.5017332  59.0010241  46.0890537  42.9740351  59.0838985  45.3996246
  43.9613041  59.7428113  46.0855182  43.4919183  59.1230904  45.9865232
  49.8375750  59.9477519  52.3900823  49.5985520  59.9073354  51.5521608
  50.0009652  60.7948672  52.5166544  49.8266054  60.0669604  52.2854305
  46.4421781  64.3327469  58.3205868  47.1655979  63.8799995  58.1416888
  46.1771743  64.6132134  57.5378196  46.5103054  64.3078437  58.1784584
  35.3108649  58.9287642  55.0558747  34.6861719  58.9406034  54.4484700
  34.9754244  59.4047817  55.7049988  35.1694141  59.0006159  55.0615316
  35.4950398  57.2712761  41.1131432  35.1463202  57.9232486  41.5762982
  35.0146843  57.2569874  40.3855304  35.3720642  57.3655814  41.0742524
  43.0554415  67.5713805  45.2200194  43.7788614  68.0371918  45.0764768
  42.6155006  67.6387414  44.4697791  43.0970107  67.6497641  45.0884976
  42.2240570  64.4311347  56.4700883  41.6097563  63.8869397  56.7649519
  42.7407855  63.9175583  55.9906699  42.2096232  64.2747756  56.4425112
  41.4636867  65.5015617  54.2045182  41.0364475  64.8765336  53.7710617
  41.4561812  65.2190539  55.0304189  41.3996008  65.3668398  54.2625009
  34.5799394  60.5380790  57.2733616  34.7392881  59.7824114  57.6785338
  34.3992288  61.0871730  57.9274354  34.5764753  60.5074604  57.4296322
  42.5219697  52.7042026  57.8284405  42.0260259  52.9005700  57.1375972
  43.2788759  53.1034694  57.6573207  42.5606522  52.7919759  57.7004542
  39.7922577  56.3784372  54.4187716  39.8165064  55.8444484  53.7300496
  40.0434050  55.8701680  55.0813307  39.8332496  56.2245276  54.4152361
  27.3030167  63.6615867  53.8530860  27.1973616  63.6162711  52.9882944
  26.5530387  64.0069647  54.1345145  27.1765770  63.7056775  53.7668190
  36.0723899  55.1055190  53.7993460  36.1122271  55.6064396  54.5128168
  35.2473564  55.1965584  53.5299383  35.9563425  55.1937006  53.8643998
  38.2553512  64.6715930  61.9013755  37.4049143  64.8087644  62.0371400
  38.4181640  63.9379708  62.3461457  38.1537376  64.5830031  61.9869354
  37.4938263  61.6215700  56.0967359  36.6630192  61.7889518  55.8902607
  37.4389780  61.2451650  56.8816245  37.3627677  61.5905431  56.1815887
  35.3022046  55.1124593  61.7323770  35.9274749  54.5686725  62.0053202
  34.8472526  54.6319510  61.1631560  35.3270306  54.9614074  61.6885364
  35.8674306  59.8971291  46.6257477  36.0077267  60.3943755  47.3286118
  36.3656839  59.1957586  46.7671691  35.9615387  59.8673270  46.7509056
  35.8974529  60.7638402  43.9550054  36.5319608  61.3598827  43.8899516
  35.9800140  60.4641860  44.7695924  36.0031080  60.8079310  44.0653140
  48.8757095  63.2953880  56.8236418  49.4674935  63.9351130  56.8554616
  49.3116089  62.5976916  57.1128485  49.0275526  63.2872230  56.8717251
  37.4753512  56.6952378  43.9295496  37.7969353  56.2155460  43.2754758
  37.7380455  57.5052024  43.7386307  37.5619537  56.7442276  43.8050988
  40.7050484  67.7171252  57.4494312  40.1975575  68.2707099  57.8934942
  40.4077131  67.7779542  56.6313086  40.5855369  67.8077563  57.3942769
  42.8712667  56.0824572  56.2918975  43.2967738  55.6297098  55.6802501
  42.2569660  55.5284642  56.5683762  42.8441312  55.9338548  56.2424000
  32.4027517  62.9606243  47.2239600  32.9119746  63.5570751  47.6050905
  32.8761789  62.6932217  46.5416019  32.5470892  63.0092058  47.1794123
  43.3158265  71.6334510  45.3798255  42.5987574  71.4595372  44.9145493
  43.9665002  71.3987082  44.8473741  43.3060115  71.5730302  45.2327473
  45.9006236  60.5099098  49.1239560  45.2297426  61.0528800  48.9952626
  46.5945986  60.9793954  48.8821255  45.9035103  60.6597369  49.0695088
  39.9492970  72.6495810  54.3551319  39.7258624  71.8914640  54.7235345
  39.4602813  72.6793831  53.6331758  39.8436419  72.5418035  54.3028060
  46.0634363  56.9654982  52.0329934  46.4161973  56.5384705  52.7075732
  45.2049165  56.8805825  52.1631010  45.9883808  56.8899723  52.1524944
  34.7618048  59.5962502  50.0912780  34.0430037  60.0126634  50.3585644
  35.1330411  60.1616740  49.5404418  34.7109980  59.7411783  50.0495587
  44.0617629  60.2290350  55.9814776  44.0415556  60.0473646  56.8349555
  44.1096830  61.1002369  55.9574360  44.0652270  60.3306889  56.1038071
  42.0063959  66.8177542  61.9063253  41.9659814  66.1727219  61.3208408
  42.8187277  66.7614160  62.2188665  42.1207113  66.7136509  61.8660202
  38.5971427  72.8696268  51.8088403  38.1831825  72.2070399  51.4192245
  39.2818801  73.0174127  51.2884098  38.6369798  72.7936927  51.6744901
  41.9636721  72.0286354  52.5612020  41.5653004  72.1388624  51.7932840
  41.3487940  72.2368420  53.1438580  41.8135610  72.0759922  52.5343319
  40.5364623  58.6360501  45.4286160  39.9429462  58.9577498  44.8770727
  40.5739900  57.7901597  45.2207266  40.4539012  58.5584830  45.3168931
  43.4122439  58.5940006  48.8587910  43.1836132  58.6172707  48.0166268
  43.6720515  57.7697473  48.9782920  43.4168627  58.4756086  48.7513108
  37.6941668  60.4474479  58.4613010  37.1820571  59.8395662  58.8198042
  37.5221164  61.1631072  58.9286986  37.5931305  60.4637778  58.5829234
  32.5407382  58.8912054  61.1115372  32.3709973  59.5513429  60.5663579
  32.0973332  59.1018616  61.8327861  32.4506716  59.0198036  61.1377001
  36.4667202  57.1316552  50.1542106  36.9424568  57.4933632  49.5192287
  35.9655801  57.7873020  50.4342248  36.4632561  57.2810741  50.1018847
  49.6978563  66.6038320  45.9455111  50.0812169  67.3529676  46.1753208
  48.9022677  66.8504140  45.6867100  49.6372346  66.7508014  45.9412684
  41.5710738  58.3698724  60.9015266  42.1282168  58.1412533  60.2693731
  41.2471803  59.1304389  60.6250478  41.6057148  58.4482560  60.7671763
  29.4409447  61.7958920  56.3703862  28.8936166  61.1259565  56.4884730
  30.2301825  61.4288768  56.4347329  29.4761631  61.6423906  56.3972562
  39.2893855  61.4566377  61.8667273  40.0405182  61.7718054  62.1806827
  39.4816432  61.2545548  61.0401195  39.4285269  61.4733759  61.7910669
  38.5093855  59.2757752  43.5215490  38.8892820  59.2937381  42.7366604
  37.7686451  59.7211741  43.4006337  38.4562693  59.3439527  43.3879058
  46.1379145  57.5839943  49.1091068  46.1373372  57.4288600  49.9675345
  45.9335326  58.4302930  49.0532454  46.1078923  57.6860564  49.2279008
  28.1996416  61.0079728  53.5249885  28.0218178  60.5556337  54.2504800
  27.9115439  61.8105889  53.7088362  28.1309370  61.0602285  53.6593388
  43.8619998  62.2637445  52.7627275  44.3573663  61.5460440  52.7231295
  43.0519773  61.9608243  52.6481762  43.8163891  62.1135091  52.7401001
  39.3078609  66.1135258  44.9124280  38.4989932  65.7901932  44.8657589
  39.8153518  65.4068480  44.8452528  39.2628276  65.9616575  44.8954574
  29.9368886  63.5407451  50.6371644  29.0714406  63.5293142  50.5254415
  30.0367702  63.3537674  51.4842783  29.8243053  63.5113513  50.7460588
  45.9271816  65.0141133  55.4504404  46.3526888  64.4915554  54.8974829
  45.5628736  65.6121970  54.9293027  45.9358419  65.0251360  55.2913414
  35.5625896  73.3105350  54.2101749  35.8772455  74.1241738  54.2179531
  35.9719310  72.9255569  54.8783909  35.6693994  73.3734052  54.3105841
  42.5150416  68.7275397  51.7805561  42.9861594  69.4415659  51.9495547
  42.8510594  68.1274147  52.3165431  42.6345531  68.7446861  51.8837937
  44.6027400  70.3376710  63.9597633  44.7124366  69.5485271  64.3154381
  44.9318297  70.2482646  63.1571972  44.6679806  70.2082563  63.8940024
  39.4319911  53.5002867  58.7363656  39.5647816  52.7033861  59.0644632
  39.8165064  54.0269270  59.3161932  39.5076240  53.4602784  58.8707159
  43.1524362  68.5193331  58.5433254  42.6045308  67.8951215  58.2753319
  43.6137391  68.7087603  57.8277333  43.1391572  68.4552381  58.3983685
  45.9618227  56.5878685  55.9284446  45.3781215  57.0887892  55.5162014
  46.2822521  56.0808242  55.2948770  45.9231402  56.5870520  55.7742953
  38.5013026  55.5019280  46.2043121  39.3228720  55.6717593  45.9624816
  38.0382677  55.6566541  45.4809419  38.5544188  55.5501013  46.0614765
  37.0908358  53.4962042  56.9841550  37.6352771  53.1553169  57.5745892
  37.1445293  54.3547504  57.1262834  37.1797477  53.5717302  57.0923423
  32.9038916  67.2578458  53.8580358  33.5083774  67.2174293  53.2294179
  32.6966229  68.1049611  53.8884414  32.9627814  67.3766461  53.7696474
  42.7182688  69.5244404  55.0742595  43.5381062  69.3807370  55.3358890
  42.4376766  70.1490603  55.6159033  42.7979432  69.5954756  55.1930535
  28.1390199  66.2413076  53.7279281  28.0414477  65.4309347  54.0369338
  28.9219068  66.2204869  53.3425549  28.2406335  66.1180166  53.7166144
  59.1896339  77.1809255  48.0385472  59.1590343  78.0353892  48.2103741
  59.7877688  76.8804548  48.5971615  59.2733497  77.2625752  48.1460274
  52.3896024  76.2684906  52.7938402  51.5333919  76.4293405  52.8447519
  52.4363677  75.3976970  52.8143463  52.2695135  76.1635708  52.8044468
  55.2347845  78.3276950  55.4370054  55.7803805  79.0062037  55.4964023
  55.1764721  78.1864411  54.5771635  55.3063759  78.4068952  55.3182114
  57.0112913  79.7561557  46.3103781  56.8952439  80.5069243  46.7395919
  57.8068800  79.4985511  46.5599868  57.1117503  79.8296404  46.4107873
  43.8477051  74.0072034  53.3475047  43.2282083  73.4164681  53.1785062
  43.7460915  74.5983469  52.7139371  43.7414727  74.0076116  53.2280037
  48.8943239  83.7455580  47.5973124  49.2159080  84.2860788  46.9934432
  49.5415335  83.1752352  47.7295414  49.0369294  83.7414756  47.5280159
  50.9444947  75.7471575  47.6807511  51.6425112  75.9259703  48.1728974
  51.2597279  75.2241915  47.0577900  51.0940284  75.6965347  47.6609521
  43.5746184  77.5524315  55.5918616  43.4504881  78.1386761  56.2268435
  44.2264469  77.0584511  55.8930891  43.6519834  77.5663120  55.7304546
  51.1332882  82.1342020  47.6687302  51.5726518  81.5259121  48.1142075
  50.9837545  81.7549394  46.8972767  51.1754348  81.9880492  47.6206469
  48.6004525  80.7286032  54.8706127  49.2453528  80.2358475  54.5517076
  48.8406302  80.8710819  55.6972206  48.7315110  80.6763474  54.9455661
  51.1390617  83.5740938  54.5213020  51.4213860  82.7792344  54.2999776
  51.8676777  84.0521526  54.5418081  51.2880180  83.5275535  54.4916035
  49.1171811  71.1163972  51.7628785  48.7875141  71.5675116  51.0932484
  48.4416812  71.0380135  52.3101792  48.9682247  71.1715107  51.7452008
  54.7342219  80.4869202  44.6218071  54.6493514  81.3430168  44.7667640
  55.2226602  80.2113526  45.2900230  54.7931116  80.5726523  44.7420153
  56.3248218  67.1049495  50.0078396  56.0101659  67.7952974  50.4398818
  55.8075160  67.0494277  49.3063896  56.2012689  67.1984383  49.9675345
  55.6660652  77.1053996  46.1215806  55.1372124  77.3213629  46.7813113
  56.1885672  77.7990134  46.0416776  55.6649105  77.2397133  46.2071406
  47.5560260  81.0017213  44.9223274  46.9717475  81.5067244  45.3289138
  47.1530355  80.7759600  44.1819866  47.4099564  81.0425461  44.8728300
  52.0137474  77.2482865  43.3992195  52.2533478  77.4560848  42.5867538
  52.3353315  76.4440373  43.5081139  52.0974632  77.1596966  43.2952748
  47.3227765  69.1776260  47.2451733  48.0773733  69.5454577  47.0068783
  47.1455299  69.5515815  48.0130912  47.4082243  69.2874448  47.3236621
  60.6162663  75.3270701  55.2899272  59.7791084  75.3972888  55.5246867
  60.5850894  75.3295196  54.4173574  60.4880946  75.3380928  55.1958820
  47.0127392  77.4703737  61.0047641  47.1847896  77.3609631  61.8532922
  47.5496750  78.1158142  60.7678833  47.1172396  77.5495738  61.0952737
  45.6784829  71.5846579  43.9429846  45.4960402  71.8018460  43.1170839
  46.5410442  71.6985592  43.9988460  45.7789419  71.6336477  43.8284333
  51.3584548  68.5872990  46.9778870  52.0870709  68.4088945  46.5317026
  51.4479441  69.4291070  47.1886048  51.4791210  68.6856868  46.9432387
  55.3392849  79.5226377  50.8811164  56.0950364  79.9557892  50.9200072
  55.4455174  78.8731147  51.4545800  55.4663020  79.4903861  50.9709189
  41.3189109  80.0635668  55.8400561  41.0527525  79.2474784  55.9991551
  41.3327673  80.1088823  54.9696076  41.2813832  79.9492572  55.7354043
  58.2970503  70.3913483  53.8742995  58.9396412  70.4611587  54.4604910
  58.5493524  69.7242705  53.3722536  58.4292635  70.3039831  53.8870274
  45.2246856  74.8620752  42.4552319  44.5105033  74.5758932  42.8674751
  45.7090825  75.2017378  43.0958706  45.1906220  74.8702402  42.6107954
  46.0687716  73.6014046  58.4867568  45.3759512  73.1311026  58.7328300
  46.6848043  73.3752350  59.0609276  46.0572246  73.4981178  58.6076721
  52.3994174  83.3650706  42.8314127  52.8145323  83.0335730  42.1398623
  51.5686104  83.1319608  42.7034264  52.3382183  83.2821962  42.7104974
  41.7282523  80.8494447  53.1212305  41.5458096  80.8241333  52.2684597
  42.4632192  81.3193385  53.1601214  41.8096587  80.9155809  53.0010224
  57.7982197  81.0845957  50.2645193  58.0337786  81.2291156  49.4372043
  57.9471761  81.8488365  50.6576706  57.8548000  81.2185011  50.2008796
  44.7928275  77.5679450  59.6294414  45.5168247  77.5532481  60.1159308
  44.8944411  78.2774805  59.1316382  44.9146484  77.6704153  59.6273200
  59.6272654  79.9247623  48.1014796  59.9580871  80.4575263  47.4954891
  60.2005742  79.9786511  48.7576747  59.7606333  80.0117192  48.1092578
  54.8404543  77.7712526  48.7838377  54.9351397  78.5101820  49.2378002
  54.2163387  77.3430001  49.2172941  54.7613573  77.8173846  48.9146524
  41.6953433  77.7287948  53.2711372  42.2726936  77.5924398  53.9103617
  40.9967495  77.2723732  53.5256956  41.6774455  77.6410214  53.4033661
  55.0927564  79.6161265  42.0175329  55.0107727  79.6863453  42.8830316
  55.7307285  80.1791009  41.8259069  55.1747402  79.7100237  42.1165278
  48.4520735  79.3822003  51.4849855  48.1939980  78.5493738  51.4581154
  48.5069218  79.6079616  50.6442355  48.4220513  79.2919775  51.3569992
  53.5321786  71.4850454  51.5853947  52.8278112  70.9959640  51.7437867
  53.5806760  71.4972929  50.7142392  53.4351837  71.4140102  51.4793287
  47.4255448  76.9359766  51.9714750  46.8505039  77.0951934  52.6078711
  47.0491124  76.2995175  51.5083200  47.2858260  76.8657579  51.9969308
  51.0928736  75.4083115  56.8307128  50.7043169  74.9837333  56.1759319
  50.4283435  75.6565265  57.3384155  50.9375664  75.3821836  56.8094996
  60.7352005  75.1658120  49.6054958  60.4788570  74.3538061  49.4152841
  61.5781319  75.1735687  49.3785145  60.8218031  75.0470117  49.5439775
  37.1712266  76.5799841  49.9859190  37.2572518  76.2031709  50.7672720
  37.7988064  76.2060286  49.5079148  37.2768817  76.4685323  50.0304668
  54.9155098  69.1057744  54.3431112  55.2965610  68.4235915  54.7298986
  54.1118382  68.8167346  54.1606777  54.8531560  68.9624792  54.3735168
  52.1967675  79.6381720  45.0283935  53.0108313  79.9296613  44.9166706
  52.1326816  78.9841582  44.4542228  52.3070414  79.5846914  44.9272772
  48.0675583  83.1103237  50.1556247  48.7049530  82.8714985  50.7008040
  48.4930654  83.3140396  49.4209408  48.2251749  83.1054247  50.1273404
  48.7078398  78.3305527  44.4931136  49.0923551  78.1113234  45.2447682
  48.4590018  79.1568472  44.6232213  48.7280470  78.4203673  44.6232213
  48.8746938  71.6111942  64.2093721  48.5600379  72.3811505  63.9463283
  48.5536871  71.0482198  63.6245948  48.7805857  71.6422211  64.0835071
  50.4497055  83.5875660  51.8350033  50.5236063  83.4250832  52.6891883
  51.2666561  83.7765849  51.5910515  50.5813413  83.5912402  51.9248059
  46.4278835  70.0002464  49.8239917  45.5601261  70.0725063  49.8897526
  46.7154039  70.8024543  50.0127892  46.3418583  70.1296611  49.8614684
  55.5511724  70.1480323  58.1551239  56.2965316  69.9590133  57.7414664
  55.1349029  70.6738561  57.5965095  55.5996698  70.1982468  58.0115812
  62.9273995  77.5189552  53.1056744  63.4781916  76.8857621  53.3453836
  62.9118110  78.0504944  53.7972248  63.0059191  77.5038500  53.2435602
  49.5796386  81.3528149  57.6516637  49.0808079  82.0643916  57.7301526
  50.3896610  81.6728815  57.6134800  49.6252492  81.5054997  57.6573206
  45.8424503  80.6151102  51.8979358  45.5537752  79.9888573  52.4325085
  46.7107851  80.5571389  51.9644039  45.9284755  80.5138646  51.9870313
  56.6302401  75.7585885  52.2161340  56.2867167  75.0376220  52.5668590
  56.7295444  75.5499736  51.3739698  56.5944444  75.6210088  52.1433020
  46.0456777  82.2546353  47.8221723  46.8002745  82.6359392  48.0357186
  45.4527389  82.7057496  48.2768420  46.0693490  82.3775180  47.9204602
  48.5063444  74.2109193  62.9478936  47.6963219  74.5166973  62.8368778
  48.9838130  74.9314776  63.0631520  48.4566922  74.3623794  62.9486007
  47.3655003  83.4254914  53.1961839  46.8435757  83.5655206  53.8813703
  47.7529024  82.6665578  53.3863956  47.3458704  83.3340438  53.3262915
  44.3546187  73.4760723  47.2656793  44.0670983  73.1061993  46.5288741
  45.0416655  73.9455578  47.0040498  44.4135085  73.4907692  47.1171869
  48.7921329  80.4558933  48.5943330  48.5964111  81.0633668  48.0003633
  49.0155674  79.7626877  48.1135004  48.7955970  80.4436459  48.4359410
  47.1899859  77.3413671  48.7124198  47.9122511  77.5054829  48.2528004
  46.7107852  78.0623336  48.6063538  47.2263590  77.4711901  48.6289812
  55.1493366  73.6777470  54.0920883  54.3104467  73.7038749  53.8559146
  55.2197734  74.3248205  54.6726230  55.0361760  73.7773596  54.1430000
  44.8407476  79.7471744  57.8178338  45.3528572  80.0255997  57.1687098
  44.5543818  80.4861038  58.1841151  44.8742339  79.8974097  57.7768216
  53.5962645  70.5762847  48.8248499  54.2988998  70.3770595  48.3468457
  53.3306833  69.8038789  49.1317342  53.6609277  70.4325813  48.7993940
  59.0250890  78.8845457  51.3782125  58.9384865  79.0400883  52.2316903
  58.5701370  79.5283532  51.0041530  58.9454147  79.0021212  51.4489231
  41.9274382  74.2541935  48.1142074  42.0290518  75.0568097  48.4423050
  42.7230269  74.0529271  47.8165155  42.0602287  74.3427834  48.1177430
  48.3591201  71.8398132  57.8779379  48.1674398  71.8553267  58.7278803
  49.2089797  72.0361806  57.8546034  48.4566923  71.8712483  58.0002674
  42.7438114  74.3689114  55.8563196  42.6023606  73.5173054  55.9807704
  43.0278677  74.4117774  55.0325402  42.7645960  74.2488864  55.7530820
  52.8976706  76.2056204  50.0007684  52.6511421  76.1251955  50.8344473
  53.2261829  75.4209672  49.8070212  52.9097950  76.0782469  50.0955207
  48.8573734  78.9412922  59.4130667  49.0017109  79.5214131  58.7773777
  49.2049382  79.3189219  60.1180522  48.9301195  79.0833626  59.4229662
  51.0293651  78.1403091  57.1955799  50.2816965  78.3334105  56.7904077
  51.1835176  77.3148310  56.9579920  50.9416079  78.0468202  57.1001205
  51.2695428  72.0353641  58.0851203  51.7268042  72.7677616  58.2123995
  51.3451757  71.6120107  58.8438458  51.3486398  72.0810880  58.2152279
  43.5128419  72.2819461  59.1740646  42.9770609  71.6699819  59.4901414
  43.5746184  72.8567597  59.8274313  43.4424052  72.2766389  59.3176073
  55.7422754  65.2143517  51.9545046  55.8606322  65.6719980  51.2212348
  55.5684930  64.4088778  51.6681263  55.7341925  65.1637289  51.8045979
  49.1477806  74.0255745  54.9293027  48.3573881  73.8447206  55.2510362
  49.5438429  73.2482698  54.9123321  49.0894682  73.8843206  54.9745575
  53.6343697  82.8543520  40.3699740  54.4016682  82.9143645  39.9605592
  53.1875006  82.2823961  39.8856059  53.6817124  82.7780095  40.2377451
  54.5321492  81.6598176  52.6552473  53.8566494  81.4283408  53.1565860
  54.5413868  81.0519358  52.0294578  54.4339997  81.5357101  52.6368625
  51.6615636  76.5016005  59.4116526  51.5974777  77.3625961  59.2836662
  51.8012824  76.1847998  58.6112077  51.6731106  76.5816171  59.2744738
  50.3434730  79.1948144  53.5532728  49.9196979  79.3952643  52.8171747
  50.1679585  78.3476992  53.6657028  50.2545611  79.0996925  53.4606419
  45.6317175  79.6900195  48.9860701  45.7881794  79.6246998  49.8416693
  45.9717768  80.4648748  48.7739381  45.7050410  79.7949393  49.0815295
  52.1696320  79.0658079  47.8554064  52.7111865  78.5628460  48.3192685
  52.4842879  79.0123274  47.0443549  52.2960717  78.9837500  47.8037876
  50.3382769  84.4575430  45.1394092  50.4075590  83.5989969  45.2787093
  51.1171225  84.6747311  44.8113117  50.4635619  84.3628294  45.1111249
  53.3185589  73.9594383  57.9076365  53.5327559  73.3205298  57.3539719
  52.7019488  74.4040207  57.4784226  53.2590918  73.9304527  57.7626796
  42.2051437  76.8735146  49.3021468  42.5850401  77.2919691  48.6381735
  41.6306801  77.4548601  49.6090311  42.1762761  77.0213005  49.2498209
  55.4824677  75.5683449  58.8459672  54.6701359  75.2609339  58.9272844
  55.9414612  75.0882449  59.4102384  55.4305062  75.4519941  58.9414266
  54.8929932  83.4463121  49.2936616  54.5344586  83.6177763  50.0700648
  54.4068642  83.9076326  48.7364615  54.7688629  83.5402092  49.3261885
  52.7100318  67.0694319  52.8963707  51.8393876  67.0433040  52.8497017
  52.9640659  66.8971511  52.0789553  52.6193878  67.0404463  52.7683844
  49.6818297  79.1262286  41.8336850  49.9710822  79.9027168  42.1080425
  49.7690096  78.6151017  42.5351350  49.7372553  79.1654204  41.9779348
  49.7349458  69.0800547  54.3537178  49.2187947  68.3880739  54.4788757
  49.1743387  69.7471325  54.2999777  49.5755971  69.0763805  54.3643244
  51.8041692  69.6193508  56.1830030  51.4173445  69.6442539  56.9643560
  51.3174629  69.0535186  55.7304547  51.6754201  69.5389258  56.2317934
  57.7791671  76.1856162  54.8069733  57.3519279  76.0982511  54.0517832
  57.1417724  76.2933938  55.3924577  57.6221278  76.1888822  54.7815174
  51.4698833  66.5060493  58.4740290  52.0991951  67.0420793  58.1961361
  51.6384696  66.4137852  59.3253856  51.5876628  66.5721855  58.5588818
  51.2712748  71.2931688  60.7466702  52.0986178  71.0216837  60.8025316
  51.2920594  72.0892529  61.1030520  51.3965598  71.3711442  60.8081885
  45.8482238  78.4395551  53.9336963  45.0070245  78.3399425  54.1415856
  46.0572246  79.2091031  54.2851283  45.7546931  78.5387594  54.0164277
  43.3257805  76.0615087  51.7621713  42.9314503  76.1358099  50.9871823
  42.7697922  76.4473034  52.3130075  43.1860617  76.1296862  51.7289373
  54.9622752  69.0396381  51.4425592  55.1672345  68.9718689  52.2882589
  54.6349176  69.8455203  51.3746770  54.9438000  69.1482322  51.5585247
  49.6598903  76.3676950  53.1834560  49.3562040  75.8132938  53.7844968
  48.9578324  76.5469160  52.6962594  49.5115113  76.3121732  53.2004266
  48.7165000  73.6777470  47.7479262  48.9924734  72.9596382  47.3356829
  49.3163669  74.2762389  47.5400368  48.8458265  73.6597840  47.6560023
  58.2156440  69.5928146  50.9228358  57.6030753  70.0798548  51.3082089
  58.3120614  68.9171637  51.4666009  58.1394337  69.5646454  51.0607216
  52.2175521  71.3490987  46.0225857  52.6719267  71.5201547  46.7473701
  52.6915566  70.7359098  45.6223633  52.3543841  71.2841872  46.0699618
  45.7391046  80.8339313  55.3528595  45.1478979  81.4748811  55.3231610
  46.5012069  81.2576930  55.3259895  45.7639307  80.9915151  55.3443743
  46.1351669  71.9941311  56.0196613  46.5953150  72.0680240  56.7571737
  46.1807775  72.7922565  55.6696434  46.2102224  72.1235458  56.0769370
  47.7835018  72.6608005  60.5868640  47.3920584  72.0141353  61.0224418
  47.9520881  73.2519441  61.2062896  47.7505929  72.6522273  60.7431346
  49.5588541  78.0533521  47.1270864  50.3030585  78.4407798  47.3653814
  49.7049237  77.2090947  47.2911352  49.6899126  77.9863994  47.1864834
  51.4768116  69.8483780  52.1602726  50.6304161  70.0206588  52.0344075
  51.4739248  69.0433124  52.4968554  51.3515266  69.7544809  52.1913853
  52.5466416  73.6258995  53.0264783  52.0726371  73.1000757  53.5370094
  52.9184552  73.0788467  52.4579645  52.5316305  73.4674991  53.0179931
  42.9239447  75.6230501  58.3948329  43.7865060  75.5226210  58.3085659
  42.5931230  75.0425211  57.8333901  43.0024643  75.5222128  58.2993735
  58.8103147  78.6861370  54.4371564  58.5701370  77.8467785  54.4413990
  59.2895154  78.7661537  55.1612337  58.8455331  78.5742770  54.5446366
  54.4749916  74.5195549  46.0890537  53.9472935  74.6024293  45.3996246
  54.9345624  75.2613421  46.0855182  54.4651767  74.6416212  45.9865232
  60.8108334  75.4662827  52.3900823  60.5718104  75.4258662  51.5521608
  60.9742235  76.3133979  52.5166544  60.7998637  75.5854912  52.2854305
  46.2841233  74.4472950  55.0558747  45.6594303  74.4591342  54.4484700
  45.9486827  74.9233125  55.7049988  46.1426724  74.5191467  55.0615316
  46.4682981  72.7898069  41.1131432  46.1195786  73.4417794  41.5762982
  45.9879427  72.7755182  40.3855304  46.3453225  72.8841122  41.0742524
  54.0286999  83.0899113  45.2200194  54.7521197  83.5557226  45.0764768
  53.5887590  83.1572722  44.4697791  54.0702691  83.1682949  45.0884976
  53.1973154  79.9496655  56.4700883  52.5830147  79.4054705  56.7649519
  53.7140439  79.4360891  55.9906699  53.1828816  79.7933064  56.4425112
  52.4369451  81.0200925  54.2045182  52.0097059  80.3950644  53.7710617
  52.4294395  80.7375847  55.0304189  52.3728592  80.8853706  54.2625009
  45.5531978  76.0566098  57.2733616  45.7125465  75.3009422  57.6785338
  45.3724871  76.6057038  57.9274354  45.5497337  76.0259912  57.4296322
  53.4952281  68.2227334  57.8284405  52.9992842  68.4191008  57.1375972
  54.2521343  68.6220002  57.6573207  53.5339106  68.3105067  57.7004542
  50.7655160  71.8969680  54.4187716  50.7897648  71.3629792  53.7300496
  51.0166634  71.3886988  55.0813307  50.8065079  71.7430583  54.4152361
  38.2762750  79.1801175  53.8530860  38.1706199  79.1348019  52.9882944
  37.5262970  79.5254955  54.1345145  38.1498353  79.2242083  53.7668190
  47.0456483  70.6240498  53.7993460  47.0854854  71.1249704  54.5128168
  46.2206147  70.7150891  53.5299383  46.9296009  70.7122314  53.8643998
  48.4670846  77.1401008  56.0967359  47.6362776  77.3074826  55.8902607
  48.4122363  76.7636958  56.8816245  48.3360261  77.1090739  56.1815887
  46.2754629  70.6309901  61.7323770  46.9007333  70.0872033  62.0053202
  45.8205109  70.1504818  61.1631560  46.3002890  70.4799382  61.6885364
  46.8406890  75.4156599  46.6257477  46.9809851  75.9129063  47.3286118
  47.3389423  74.7142894  46.7671691  46.9347971  75.3858578  46.7509056
  46.8707112  76.2823710  43.9550054  47.5052192  76.8784135  43.8899516
  46.9532723  75.9827168  44.7695924  46.9763663  76.3264618  44.0653140
  48.4486095  72.2137686  43.9295496  48.7701936  71.7340768  43.2754758
  48.7113039  73.0237332  43.7386307  48.5352121  72.2627583  43.8050988
  53.8445250  71.6009880  56.2918975  54.2700322  71.1482406  55.6802501
  53.2302243  71.0469950  56.5683762  53.8173896  71.4523856  56.2424000
  43.3760100  78.4791551  47.2239600  43.8852330  79.0756058  47.6050905
  43.8494372  78.2117525  46.5416019  43.5203476  78.5277366  47.1794123
  52.2839473  68.0724979  49.7009552  51.6407791  67.9222626  50.2694690
  51.9438880  67.8267325  48.9358657  52.1384550  68.0137102  49.6712567
  56.8738819  76.0284406  49.1239560  56.2030009  76.5714108  48.9952626
  57.5678570  76.4979261  48.8821255  56.8767687  76.1782677  49.0695088
  57.0366947  72.4840290  52.0329934  57.3894557  72.0570013  52.7075732
  56.1781748  72.3991133  52.1631010  56.9616392  72.4085030  52.1524944
  45.7350632  75.1147809  50.0912780  45.0162621  75.5311942  50.3585644
  46.1062994  75.6802048  49.5404418  45.6842564  75.2597091  50.0495587
  55.0350213  75.7475658  55.9814776  55.0148140  75.5658954  56.8349555
  55.0829413  76.6187677  55.9574360  55.0384854  75.8492197  56.1038071
  51.5097206  74.1545809  45.4286160  50.9162046  74.4762806  44.8770727
  51.5472484  73.3086905  45.2207266  51.4271595  74.0770138  45.3168931
  58.4691007  67.6058702  52.9614246  57.9621872  66.8987841  52.8935424
  59.2658441  67.2751890  53.0915323  58.5118246  67.4531853  52.9713241
  54.3855023  74.1125314  48.8587910  54.1568716  74.1358015  48.0166268
  54.6453099  73.2882781  48.9782920  54.3901211  73.9941394  48.7513108
  48.6674251  75.9659787  58.4613010  48.1553154  75.3580970  58.8198042
  48.4953747  76.6816379  58.9286986  48.5663888  75.9823086  58.5829234
  43.5139966  74.4097362  61.1115372  43.3442556  75.0698737  60.5663579
  43.0705916  74.6203923  61.8327861  43.4239300  74.5383344  61.1377001
  47.4399785  72.6501860  50.1542106  47.9157152  73.0118940  49.5192287
  46.9388385  73.3058328  50.4342248  47.4365144  72.7996049  50.1018847
  52.5443322  73.8884032  60.9015266  53.1014752  73.6597841  60.2693731
  52.2204387  74.6489697  60.6250478  52.5789732  73.9667868  60.7671763
  40.4142031  77.3144228  56.3703862  39.8668750  76.6444873  56.4884730
  41.2034409  76.9474076  56.4347329  40.4494214  77.1609214  56.3972562
  49.4826439  74.7943060  43.5215490  49.8625403  74.8122689  42.7366604
  48.7419035  75.2397049  43.4006337  49.4295276  74.8624835  43.3879058
  57.1111729  73.1025251  49.1091068  57.1105955  72.9473908  49.9675345
  56.9067909  73.9488238  49.0532454  57.0811507  73.2045872  49.2279008
  39.1729000  76.5265036  53.5249885  38.9950761  76.0741645  54.2504800
  38.8848022  77.3291197  53.7088362  39.1041953  76.5787593  53.6593388
  54.8352581  77.7822753  52.7627275  55.3306246  77.0645748  52.7231295
  54.0252357  77.4793551  52.6481762  54.7896474  77.6320399  52.7401001
  50.2811193  81.6320566  44.9124280  49.4722515  81.3087240  44.8657589
  50.7886101  80.9253788  44.8452528  50.2360859  81.4801883  44.8954574
  40.9101470  79.0592759  50.6371644  40.0446989  79.0478450  50.5254415
  41.0100286  78.8722982  51.4842783  40.7975637  79.0298821  50.7460588
  56.9004400  80.5326440  55.4504404  57.3259471  80.0100862  54.8974829
  56.5361320  81.1307278  54.9293027  56.9091003  80.5436668  55.2913414
  53.4882999  84.2460705  51.7805561  53.9594178  84.9600967  51.9495547
  53.8243178  83.6459455  52.3165431  53.6078114  84.2632169  51.8837937
  50.4052494  69.0188175  58.7363656  50.5380400  68.2219169  59.0644632
  50.7897647  69.5454578  59.3161932  50.4808823  68.9788092  58.8707159
  53.4784850  65.9418501  55.3344749  52.6730813  65.8316231  55.6512588
  53.3491585  66.0430957  54.4774615  53.3404982  65.9402172  55.2552790
  56.9350810  72.1063993  55.9284446  56.3513799  72.6073200  55.5162014
  57.2555104  71.5993550  55.2948770  56.8963985  72.1055828  55.7742953
  49.4745609  71.0204588  46.2043121  50.2961304  71.1902901  45.9624816
  49.0115260  71.1751849  45.4809419  49.5276771  71.0686321  46.0614765
  48.0640941  69.0147350  56.9841550  48.6085354  68.6738477  57.5745892
  48.1177877  69.8732812  57.1262834  48.1530061  69.0902610  57.0923423
  25.9649412   7.5631463  34.9725518  25.9343416   8.4176099  35.1443788
  26.5630761   7.2626755  35.5311662  26.0486570   7.6447959  35.0800321
  19.1649097   6.6507114  39.7278449  18.3086992   6.8115612  39.7787566
  19.2116751   5.7799178  39.7483510  19.0448208   6.5457916  39.7384515
  13.5490237  16.1869832  35.4915680  12.7973136  15.8085370  35.2631725
  13.9976248  16.2188265  34.7434491  13.5039903  16.1355439  35.3473183
  22.4742813  12.9193639  49.3338905  23.1809581  12.4245670  49.4625839
  22.6630749  13.3602721  48.6041563  22.6070719  12.9111990  49.2447950
  19.0015196  16.6095201  30.9201227  18.6666565  17.2872123  30.4845450
  19.5142067  16.2200512  30.3318099  19.0280778  16.6519779  30.7688019
  18.5419488  18.5609470  36.8612339  18.9258867  19.1296368  36.3217114
  18.4778629  17.8358980  36.3818155  18.5892915  18.5384933  36.7106202
  22.0100918   8.7099158  42.3710100  22.5556878   9.3884244  42.4304070
  21.9517794   8.5686619  41.5111682  22.0816832   8.7891159  42.2522161
  15.1274993  16.1988224  37.7578453  15.2285356  15.3888578  38.0675581
  14.5316738  16.1045170  37.1278131  15.0547531  16.0653252  37.7104691
  23.7865987  10.1383765  33.2443828  23.6705512  10.8891451  33.6735966
  24.5821873   9.8807718  33.4939915  23.8870576  10.2118612  33.3447920
  14.9675732  21.1165813  39.1593309  15.6113188  21.5578977  39.5489467
  15.2931988  20.3119239  39.0723568  15.1107561  21.0631008  39.2038786
   8.3240037  12.2208510  37.3830787   8.0890221  11.3876163  37.2763055
   8.4625678  12.5013176  36.5691987   8.3095700  12.1392014  37.2473141
  15.6696312  14.1277788  34.5313171  15.9912153  14.6682995  33.9274479
  16.3168409  13.5574559  34.6635460  15.8122367  14.1236963  34.4620206
  17.7198020   6.1293783  34.6147557  18.4178185   6.3081910  35.1069021
  18.0350353   5.6064122  33.9917947  17.8693357   6.0787555  34.5949567
  10.3499258   7.9346523  42.5258663  10.2257954   8.5208968  43.1608482
  11.0017542   7.4406718  42.8270938  10.4272907   7.9485327  42.6644592
  17.9085956  12.5164228  34.6027349  18.3479591  11.9081328  35.0482122
  17.7590618  12.1371601  33.8312814  17.9507421  12.3702699  34.5546516
  15.3757599  11.1108240  41.8046174  16.0206601  10.6180683  41.4857123
  15.6159376  11.2533026  42.6312253  15.5068184  11.0585682  41.8795707
  17.9143690  13.9563145  41.4553067  18.1966933  13.1614551  41.2339823
  18.6429850  14.4343733  41.4758128  18.0633254  13.9097742  41.4256082
  21.5095292  10.8691409  31.5558118  21.4246587  11.7252376  31.7007687
  21.9979675  10.5935733  32.2240277  21.5684189  10.9548730  31.6760200
  23.1001292  -2.5128298  36.9418443  22.7854732  -1.8224819  37.3738865
  22.5828233  -2.5683515  36.2403943  22.9765762  -2.4193409  36.9015392
  22.4413725   7.4876203  33.0555853  21.9125197   7.7035837  33.7153159
  22.9638745   8.1812342  32.9756822  22.4402178   7.6219340  33.1411452
  14.3313333  11.3839420  31.8563321  13.7470548  11.8889451  32.2629185
  13.9283428  11.1581807  31.1159913  14.1852637  11.4247668  31.8068346
   9.8857362  17.0994181  38.6586993   9.4024940  17.8244671  38.6346576
  10.6980680  17.3970311  38.7697150   9.9348109  17.2496535  38.6714272
  15.9571516  15.8926362  41.2636807  15.4398457  15.5333777  40.6598115
  16.6545907  15.3688536  41.2742873  15.9837097  15.7624050  41.1767066
  19.6135108  16.3421176  47.2252980  19.7018454  16.1547316  48.0731191
  20.0424820  15.6958605  46.8257827  19.6897210  16.2184184  47.2924732
  17.1805568  15.6252336  46.2070642  16.6176402  15.2124946  46.7310304
  17.9426591  15.5505242  46.6263786  17.2100016  15.5529736  46.3463643
  18.7890548   7.6305072  30.3332242  19.0286551   7.8383056  29.5207585
  19.1106389   6.8262581  30.4421186  18.8727705   7.5419173  30.2292795
  12.7401559  17.6150357  38.8107272  13.4422138  17.1002346  38.8680029
  12.6599042  17.9424508  39.6154148  12.8325319  17.5864583  38.9380065
  27.3915737   5.7092908  42.2239319  26.5544158   5.7795095  42.4586913
  27.3603967   5.7117403  41.3513621  27.2634019   5.7203135  42.1298867
  13.7880466   7.8525944  47.9387688  13.9600969   7.7431839  48.7872969
  14.3249823   8.4980349  47.7018880  13.8925470   7.9317946  48.0292784
  12.0652334  13.8056709  38.3192881  12.9041234  14.0379642  38.3666642
  12.0964104  12.9361020  38.2499916  12.1934052  13.7113655  38.3157525
  12.6905037  14.2257584  42.6206186  13.2303262  14.0828715  43.2909558
  12.0074984  14.6254335  42.9890212  12.6697191  14.2637255  42.7740608
  22.1145922   9.9048585  37.8151210  22.8703437  10.3380099  37.8540119
  22.2208247   9.2553355  38.3885846  22.2416093   9.8726069  37.9049236
  19.7255167  15.7730195  49.8896764  20.5095584  15.8861043  50.2552506
  19.5251762  14.9471332  50.0855450  19.8121192  15.6676914  49.9731150
   8.0942182  10.4457875  42.7740608   7.8280598   9.6296992  42.9331598
   8.1080747  10.4911031  41.9036123   8.0566905  10.3314780  42.6694090
  25.0723576   0.7735690  40.8083041  25.7149485   0.8433795  41.3944957
  25.3246597   0.1064913  40.3062583  25.2045708   0.6862039  40.8210321
  11.9999929   5.2442959  29.3892366  11.2858107   4.9581139  29.8014798
  12.4843898   5.5839585  30.0298753  11.9659293   5.2524609  29.5448001
  19.8825560  17.6840297  43.5363219  19.0840806  17.4439797  43.7937088
  20.3311572  17.7354690  44.2830267  19.8300172  17.6562688  43.6848144
  28.2870440  10.4502782  37.4573251  28.9486874   9.8893450  37.3569159
  27.6461852   9.9554813  37.7825942  28.2899307  10.2939191  37.4905591
  19.1747247  13.7472913  29.7654174  19.5898396  13.4157937  29.0738670
  18.3439177  13.5141816  29.6374311  19.1135256  13.6644169  29.6445021
   8.5035596  11.2316654  40.0552352   8.3211169  11.2063540  39.2024644
   9.2385265  11.7015592  40.0941261   8.5849660  11.2978017  39.9350270
  24.5735270  11.4668164  37.1985239  24.8090860  11.6113363  36.3712090
  24.7224834  12.2310572  37.5916753  24.6301074  11.6007219  37.1348843
  11.5681348   7.9501657  46.5634461  12.2921320   7.9354688  47.0499355
  11.6697484   8.6597013  46.0656429  11.6899557   8.0526361  46.5613247
  26.4025727  10.3069830  35.0354843  26.7333944  10.8397470  34.4294938
  26.9758815  10.3608718  35.6916794  26.5359406  10.3939399  35.0432625
  18.9426297  11.4300742  51.4283408  18.1499278  11.7444254  51.6136027
  19.0575224  11.6452210  50.5904192  18.8421708  11.5084579  51.3321742
  21.6157616   8.1534733  35.7178423  21.7104471   8.8924027  36.1718049
  20.9916460   7.7252209  36.1512988  21.5366646   8.1996054  35.8486571
  19.8710090  11.3320946  46.3668704  20.4448952  10.6948190  46.5217268
  19.7924894  11.3325028  45.4978362  19.9443325  11.2386057  46.2615115
   8.4706506   8.1110155  40.2051418   9.0480009   7.9746606  40.8443664
   7.7720568   7.6545939  40.4597003   8.4527528   8.0232421  40.3373708
  21.8680638   9.9983473  28.9515375  21.7860800  10.0685660  29.8170362
  22.5060358  10.5613217  28.7599116  21.9500475  10.0922444  29.0505325
  15.2273809   9.7644211  38.4189902  14.9693053   8.9315946  38.3921201
  15.2822291   9.9901824  37.5782402  15.1973587   9.6741982  38.2910038
  20.3074859   1.8672661  38.5193994  19.6031186   1.3781847  38.6777913
  20.3559833   1.8795136  37.6482439  20.2104910   1.7962309  38.4133334
  14.2008521   7.3181973  38.9054796  13.6258112   7.4774142  39.5418757
  13.8244197   6.6817382  38.4423247  14.0611333   7.2479786  38.9309355
  17.8681809   5.7905323  43.7647175  17.4796242   5.3659540  43.1099366
  17.2036508   6.0387472  44.2724201  17.7128737   5.7644044  43.7435043
  27.5105079   5.5480327  36.5395005  27.2541643   4.7360269  36.3492888
  28.3534393   5.5557894  36.3125192  27.5971104   5.4292325  36.4779822
  21.6908171  -0.5120049  41.2771159  22.0718683  -1.1941878  41.6639033
  20.8871455  -0.8010447  41.0946824  21.6284633  -0.6553000  41.3075215
  18.9720748  10.0203927  31.9623982  19.7861387  10.3118820  31.8506753
  18.9079889   9.3663789  31.3882275  19.0823487   9.9669122  31.8612819
  25.1930238  12.7029923  46.3753557  24.9568875  11.8717988  46.2565618
  25.8373467  12.6515530  46.9608402  25.2524909  12.5727611  46.4439451
  14.8428656  13.4925445  37.0896294  15.4802603  13.2537192  37.6348087
  15.2683728  13.6962603  36.3549454  15.0004822  13.4876455  37.0613451
   9.5341298  15.7313781  40.9730598   9.5745444  16.0028632  40.1450377
  10.0935822  16.2555689  41.3888386   9.6224644  15.8489536  40.9122486
  15.4831471   8.7127734  31.4271183  15.8676624   8.4935441  32.1787728
  15.2343091   9.5390680  31.5572260  15.5033544   8.8025881  31.5572260
  26.2166659  12.4874372  42.4381852  25.9112476  13.2202429  42.7995168
  25.4972874  12.0812302  42.1574638  26.0654001  12.5356105  42.4494989
  17.2250128  13.9697867  38.7690080  17.2989136  13.8073039  39.6231930
  18.0419634  14.1588057  38.5250562  17.3566487  13.9734610  38.8588106
  31.9168451   9.1267373  41.7650196  31.8492951   9.1463332  40.8952783
  31.9024113   9.9697700  41.9905867  31.9047207   9.2541107  41.6702673
  10.9855885  14.3155730  35.7984524  10.1594002  14.5617467  35.6718802
  11.0467876  14.2367811  36.6646582  10.8730052  14.3400679  35.9073468
  22.3264797   0.5302530  45.0891286  23.0718389   0.3412341  44.6754711
  21.9102102   1.0560768  44.5305142  22.3749771   0.5804676  44.9455859
  15.7654714  16.9332610  33.5003554  16.0553012  16.5421592  32.7762780
  16.4958194  17.1149315  33.9408829  15.9161598  16.9026424  33.4586361
  29.7027068   7.9011759  40.0396791  30.2534990   7.2679828  40.2793883
  29.6871183   8.4327152  40.7312295  29.7812264   7.8860707  40.1775649
  16.3549459  11.7350356  44.5856684  15.8561152  12.4466124  44.6641572
  17.1649683  12.0551023  44.5474846  16.4005566  11.8877205  44.5913253
  13.7060629  18.9099993  36.5663703  13.4860925  18.6197347  37.3590370
  13.4855151  18.2514948  36.0381616  13.6408223  18.7699701  36.6052612
  12.6177576  10.9973309  38.8319405  12.3290825  10.3710780  39.3665132
  13.4860924  10.9393597  38.8984085  12.7037828  10.8960853  38.9210360
  23.4055474   6.1408093  39.1501387  23.0620240   5.4198428  39.5008636
  23.5048517   5.9321944  38.3079745  23.3697517   6.0032296  39.0773067
  15.8728585  20.2829383  35.3494396  16.5252643  19.7505825  35.5785422
  15.1754194  19.9298035  35.7362270  15.8659303  20.1518906  35.4406563
  12.8209850  12.6368560  34.7561770  13.5755818  13.0181599  34.9697233
  12.2280462  13.0879704  35.2108467  12.8446563  12.7597388  34.8544648
  23.8668503  12.6033797  34.6925375  24.4326536  13.2627007  34.6083918
  23.2196407  12.9483495  35.1641777  23.8547260  12.7515738  34.7498131
  15.2816517   4.5931401  49.8818982  14.4716293   4.8989180  49.7708825
  15.7591204   5.3136983  49.9971566  15.2319996   4.7446002  49.8826053
  14.1408076  13.8077122  40.1301885  13.6188830  13.9477413  40.8153750
  14.5282097  13.0487786  40.3204003  14.1211777  13.7162645  40.2602962
  20.3375081  15.5472581  34.1162454  20.0961757  14.8140442  33.7089519
  20.5176414  16.0959438  33.4628787  20.3282705  15.5194972  33.9592677
  15.5674402  10.8381141  35.5283376  15.3717185  11.4455875  34.9343679
  15.7908748  10.1449085  35.0475050  15.5709043  10.8258666  35.3699457
  13.9652932   7.7235879  35.6464245  14.6875584   7.8877037  35.1868051
  13.4860925   8.4445543  35.5403585  14.0016663   7.8534108  35.5629859
  21.9246440   4.0599677  41.0260930  21.0857540   4.0860956  40.7899193
  21.9950807   4.7070413  41.6066276  21.8114833   4.1595803  41.0770047
  11.6160549  10.1293951  44.7518385  12.1281646  10.4078204  44.1027144
  11.3296891  10.8683245  45.1181198  11.6495412  10.2796305  44.7108263
  20.3715718   0.9585054  35.7588546  21.0742071   0.7592803  35.2808504
  20.1059907   0.1860997  36.0657389  20.4362350   0.8148020  35.7333987
  25.8003963   9.2667664  38.3122171  25.7137938   9.4223090  39.1656950
  25.3454443   9.9105740  37.9381577  25.7207220   9.3843419  38.3829278
  15.1344274   2.2220340  44.8119426  14.9427471   2.2375474  45.6618850
  15.9842870   2.4184014  44.7886081  15.2319996   2.2534691  44.9342721
  19.6729780   6.5878411  36.9347731  19.4264494   6.5074162  37.7684520
  20.0014903   5.8031879  36.7410258  19.6851023   6.4604677  37.0295254
  23.5677828  13.2961771  40.7234512  23.4292188  13.9942816  41.2283255
  22.7877826  13.1410427  40.3670694  23.4321055  13.3761937  40.7460786
  21.9055913   9.5958146  46.9756894  21.9003952   8.7237962  46.9799320
  22.6116907   9.7946315  46.5026350  22.0100917   9.4962020  46.9063929
  15.6326807   9.3235130  46.3470714  15.7770183   9.9036338  45.7113824
  15.9802455   9.7011427  47.0520569  15.7054268   9.4655834  46.3569709
  17.8046724   8.5225298  44.1295846  17.0570038   8.7156313  43.7244124
  17.9588249   7.6970518  43.8919967  17.7169152   8.4290410  44.0341251
  14.7054562  17.5137902  43.2131741  14.8544126  16.9540817  42.5605145
  15.4854564  17.5929903  43.5964260  14.8428655  17.4423467  43.1728690
  17.2307862  17.6852544  44.4916232  17.1551534  17.0161355  45.0467020
  17.1597722  18.3870333  45.0056898  17.2088469  17.6897452  44.6493080
  18.0448501   2.4175849  45.0191249  18.5021115   3.1499823  45.1464042
  18.1204830   1.9942314  45.7778505  18.1239471   2.4633087  45.1492326
  17.8878109  16.2053543  35.3239838  18.6528000  15.9363187  35.0022502
  17.7856199  15.7203554  36.0409900  17.9859605  16.0943108  35.3819665
  15.9230879   4.4077953  41.8633073  15.1326954   4.2269413  42.1850409
  16.3191502   3.6304905  41.8463368  15.8647755   4.2665414  41.9085622
  20.4096770  13.2365727  27.3039787  21.1769755  13.2965852  26.8945639
  19.9628079  12.6646169  26.8196106  20.4570197  13.1602303  27.1717497
  21.3074565  12.0420383  39.5892519  20.6319567  11.8105615  40.0905906
  21.3166941  11.4341566  38.9634624  21.2093070  11.9179308  39.5708672
  18.4368709   6.8838212  46.3456572  18.3727851   7.7448168  46.2176709
  18.5765897   6.5670205  45.5452124  18.4484179   6.9638379  46.2084785
  23.3091300  14.8985515  31.8202697  23.3911137  15.7052502  31.4964148
  23.7941042  14.9181475  32.5443471  23.3928458  15.0206178  31.8789596
  17.1187803   9.5770351  40.4872775  16.6950052   9.7774850  39.7511794
  16.9432658   8.7299199  40.5997075  17.0298684   9.4819133  40.3946465
  16.6199497  21.0920864  42.9494233  17.1095427  20.3931653  42.7669897
  16.0483729  20.7944734  43.5370290  16.6084027  20.9447088  43.0095273
  12.4070248  10.0722403  35.9200748  12.5634867  10.0069206  36.7756740
  12.7470841  10.8470955  35.7079427  12.4803483  10.1771601  36.0155342
  18.9449393   9.4480286  34.7894111  19.4864938   8.9450667  35.2532732
  19.2595952   9.3945481  33.9783596  19.0713790   9.3659707  34.7377923
  22.8166500  13.6582934  51.9021023  23.6301366  13.3868083  52.0626156
  22.6561467  13.3590474  51.0981219  22.9136449  13.5737860  51.8066429
  17.1135843  14.8397638  32.0734139  17.1828663  13.9812176  32.2127139
  17.8924298  15.0569519  31.7453164  17.2388693  14.7450502  32.0451296
  20.0938662   4.3416591  44.8416411  20.3080632   3.7027505  44.2879765
  19.4772561   4.7862415  44.4124273  20.0343991   4.3126734  44.6966843
  21.5043330  17.2635339  36.2870632  21.1123122  16.9602054  35.5693498
  21.6596402  18.1004429  36.0975586  21.4696920  17.3419176  36.1527129
   8.9804510   7.2557353  36.2361515   9.3603475   7.6741898  35.5721782
   8.4059875   7.8370809  36.5430358   8.9515835   7.4035212  36.1838256
  22.2577750   5.9505656  45.7799719  21.4454432   5.6431546  45.8612891
  22.7167685   5.4704656  46.3442431  22.2058135   5.8342148  45.8754313
  21.6683005  13.8285328  36.2276663  21.3097660  13.9999971  37.0040695
  21.1821716  14.2898534  35.6704661  21.5441702  13.9224299  36.2601932
  16.4571370   9.5084493  28.7676897  16.7463895  10.2849376  29.0420472
  16.5443169   8.9973225  29.4691397  16.5125627   9.5476412  28.9119395
  19.3531258   7.3565727  50.5628421  19.8230889   7.9807844  50.9496295
  19.3993138   6.6882703  51.1221636  19.4299134   7.3500408  50.7028492
  22.8287744  14.7189224  47.1743864  23.4667465  14.2249420  46.8406320
  22.1861836  14.6466624  46.5896091  22.8281971  14.6348232  47.0386219
  24.5544744   6.5678370  41.7409779  24.1272352   6.4804718  40.9857879
  23.9170797   6.6756145  42.3264623  24.3974352   6.5711030  41.7155221
  18.0465821   1.6753895  47.6806749  18.8739251   1.4039044  47.7365363
  18.0673667   2.4714737  48.0370567  18.1718672   1.7533649  47.7421932
  22.8842001  15.4109032  43.8149220  23.6734379  15.0598097  43.9351302
  23.0585599  16.2245421  43.5525854  23.0262283  15.4794889  43.7937088
  12.6235311   8.8217758  40.8677009  11.7823318   8.7221632  41.0755903
  12.8325319   9.5913238  41.2191330  12.5300004   8.9209801  40.9504324
  10.1010878   6.4437295  38.6961760   9.7067576   6.5180307  37.9211870
   9.5450995   6.8295241  39.2470122   9.9613691   6.5119069  38.6629420
  21.7375825  -0.5781411  38.3765639  21.9425418  -0.6459103  39.2222636
  21.4102249   0.2277410  38.3086816  21.7191073  -0.4695471  38.4925294
  16.4351976   6.7499157  40.1174607  16.1315114   6.1955145  40.7185015
  15.7331397   6.9291367  39.6302641  16.2868186   6.6943939  40.1344312
  15.4918073   4.0599677  34.6819309  15.7677808   3.3418589  34.2696876
  16.0916743   4.6584597  34.4740415  15.6211338   4.0420048  34.5900070
  14.4970327  13.9648878  44.8246705  14.3890682  13.9750940  45.6908763
  14.7066109  14.7903658  44.6351658  14.5120438  14.0889953  44.9250796
  24.9909513  -0.0249647  37.8568404  24.3783826   0.4620755  38.2422136
  25.0873688  -0.7006156  38.4006056  24.9147410  -0.0531338  37.9947263
  18.9928594   1.7313194  32.9565904  19.4472340   1.9023755  33.6813748
  19.4668639   1.1181305  32.5563679  19.1296914   1.6664080  33.0039665
  12.5144119  11.2161520  42.2868642  11.9232052  11.8571018  42.2571657
  13.2765143  11.6399137  42.2599942  12.5392380  11.3737359  42.2783789
  14.5588092   3.0430213  47.5208687  14.1673657   2.3963560  47.9564465
  14.7273954   3.6341648  48.1402942  14.5259002   3.0344481  47.6771393
  22.2733635  16.6670832  39.7200667  22.0753324  17.1561646  39.0256878
  21.6521346  16.8712073  40.2984800  22.1521200  16.7687370  39.7023890
  16.3341614   8.4355729  34.0610911  17.0783659   8.8230005  34.2993861
  16.4802310   7.5913154  34.2251399  16.4652199   8.3686201  34.1204881
  19.3219490   4.0081202  39.9604830  18.8479444   3.4822964  40.4710141
  19.6937625   3.4610675  39.3919692  19.3069379   3.8497199  39.9519977
  25.5856220   9.0683578  41.3711611  25.3454443   8.2289993  41.3754037
  26.0648227   9.1483744  42.0952384  25.6208404   8.9564977  41.4786413
  21.2502989   4.9017757  33.0230584  20.7226008   4.9846501  32.3336293
  21.7098697   5.6435628  33.0195229  21.2404840   5.0238419  32.9205279
  27.5861407   5.8485035  39.3240870  27.3471177   5.8080869  38.4861655
  27.7495308   6.6956187  39.4506591  27.5751711   5.9677120  39.2194352
  24.1907437  10.2334984  45.2545915  24.9141636   9.7807511  45.0756935
  23.9257400  10.5139650  44.4718243  24.2588711  10.2085953  45.1124630
  13.0594306   4.8295158  41.9898794  12.4347376   4.8413550  41.3824747
  12.7239901   5.3055333  42.6390034  12.9179798   4.9013675  41.9955363
   9.7719981  12.8895618  43.4302559   9.2419906  12.1988057  43.4797533
  10.0445075  12.8805803  42.6015267   9.7344704  12.7862750  43.3149974
  20.8040072  13.4721320  32.1540241  21.5274271  13.9379433  32.0104814
  20.3640663  13.5394930  31.4037838  20.8455764  13.5505157  32.0225023
  19.9726227  10.3318862  43.4040930  19.3583220   9.7876913  43.6989565
  20.4893512   9.8183099  42.9246746  19.9581889  10.1755271  43.3765159
  19.2122524  11.4023132  41.1385229  18.7850132  10.7772851  40.7050664
  19.2047468  11.1198054  41.9644236  19.1481665  11.2675913  41.1965056
  12.3285051   6.4388305  44.2073663  12.4878538   5.6831630  44.6125385
  12.1477945   6.9879245  44.8614400  12.3250410   6.4082119  44.3636369
  20.2705354  -1.3950459  44.7624452  19.7745915  -1.1986785  44.0716019
  21.0274416  -0.9957791  44.5913254  20.3092179  -1.3072725  44.6344589
  17.5408234   2.2791887  41.3527763  17.5650721   1.7451999  40.6640543
  17.7919707   1.7709196  42.0153353  17.5818152   2.1252791  41.3492407
   5.0515823   9.5623382  40.7870907   4.9459273   9.5170226  39.9222991
   4.3016043   9.9077162  41.0685192   4.9251426   9.6064290  40.7008237
  16.0039169  10.5723445  48.8353802  15.1534799  10.7095159  48.9711447
  16.1667297   9.8387223  49.2801503  15.9023032  10.4837546  48.9209401
  15.2423919   7.5223215  43.0307406  14.4115849   7.6897033  42.8242654
  15.1875436   7.1459166  43.8156291  15.1113334   7.4912946  43.1155934
  13.6159963   5.7978807  33.5597524  13.7562924   6.2951271  34.2626165
  14.1142496   5.0965101  33.7011737  13.7101044   5.7680785  33.6849103
  13.6460185   6.6645918  30.8890101  14.2805265   7.2606343  30.8239562
  13.7285796   6.3649375  31.7035971  13.7516736   6.7086826  30.9993187
  26.6242751   9.1961395  43.7576465  27.2160592   9.8358646  43.7894663
  27.0601746   8.4984432  44.0468532  26.7761182   9.1879745  43.8057297
  15.2239168   2.5959893  30.8635543  15.5455009   2.1162975  30.2094805
  15.4866112   3.4059539  30.6726354  15.3105194   2.6449791  30.7391035
  18.4536141  13.6178767  44.3834359  17.9461232  14.1714614  44.8274989
  18.1562787  13.6787057  43.5653133  18.3341026  13.7085079  44.3282815
  20.6198323   1.9832087  43.2259022  21.0453395   1.5304613  42.6142548
  20.0055316   1.4292158  43.5023809  20.5926969   1.8346063  43.1764047
  10.1513173   8.8613758  34.1579647  10.6605403   9.4578266  34.5390952
  10.6247446   8.5939732  33.4756066  10.2956549   8.9099574  34.1134169
  21.0643921  17.5342025  32.3138302  20.3473231  17.3602887  31.8485540
  21.7150659  17.2994597  31.7813788  21.0545772  17.4737818  32.1667520
  23.6491893   6.4106614  36.0579607  22.9783083   6.9536316  35.9292673
  24.3431643   6.8801469  35.8161302  23.6520760   6.5604885  36.0035135
  17.6978626  18.5503326  41.2891366  17.4744281  17.7922155  41.6575392
  17.2088470  18.5801347  40.5671805  17.5922075  18.4425550  41.2368107
  23.8120020   2.8662497  38.9669981  24.1647630   2.4392220  39.6415779
  22.9534822   2.7813341  39.0971057  23.7369465   2.7907238  39.0864991
  12.5103705   5.4970017  37.0252827  11.7915694   5.9134149  37.2925691
  12.8816067   6.0624256  36.4744465  12.4595637   5.6419298  36.9835634
  21.8103286   6.1297866  42.9154823  21.7901213   5.9481161  43.7689602
  21.8582487   7.0009884  42.8914406  21.8137927   6.2314404  43.0378117
  19.7549616  12.7185058  48.8403299  19.7145471  12.0734735  48.2548455
  20.5672934  12.6621675  49.1528711  19.8692769  12.6144025  48.8000248
  16.3457083  18.7703784  38.7428450  15.9317482  18.1077914  38.3532292
  17.0304458  18.9181642  38.2224144  16.3855455  18.6944442  38.6084947
  19.7122377  17.9293869  39.4952067  19.3138661  18.0396139  38.7272887
  19.0973597  18.1375935  40.0778627  19.5621267  17.9767437  39.4683366
  18.2850279   4.5368017  32.3626207  17.6915119   4.8585013  31.8110774
  18.3225557   3.6909112  32.1547313  18.2024669   4.4592345  32.2508978
  25.2444080  -2.0119091  39.8954293  24.7374945  -2.7189951  39.8275470
  26.0411514  -2.3425902  40.0255370  25.2871319  -2.1645940  39.9053288
  21.1608096   4.4947521  35.7927957  20.9321789   4.5180223  34.9506315
  21.4206172   3.6704988  35.9122967  21.1654284   4.3763601  35.6853154
  15.4427325   6.3481994  45.3953057  14.9306228   5.7403177  45.7538088
  15.2706821   7.0638587  45.8627033  15.3416962   6.3645294  45.5169281
  14.2152859   3.0324068  37.0882152  14.6910225   3.3941147  36.4532334
  13.7141458   3.6880535  37.3682295  14.2118218   3.1818256  37.0358893
  19.3196395   4.2706239  47.8355312  19.8767825   4.0420048  47.2033778
  18.9957460   5.0311905  47.5590525  19.3542805   4.3490076  47.7011810
  17.0379512   7.3573892  48.8007320  17.7890839   7.6725569  49.1146874
  17.2302089   7.1553063  47.9741241  17.1770926   7.3741274  48.7250715
  16.2579512   5.1765267  30.4555536  16.6378477   5.1944897  29.6706651
  15.5172108   5.6219256  30.3346384  16.2048349   5.2447042  30.3219105
  23.8864802   3.4847459  36.0431115  23.8859029   3.3296115  36.9015391
  23.6820982   4.3310446  35.9872501  23.8564580   3.5868079  36.1619054
  21.6105654   8.1644960  39.6967322  22.1059320   7.4467955  39.6571342
  20.8005430   7.8615758  39.5821809  21.5649548   8.0142607  39.6741048
  17.0564266  12.0142774  31.8464326  16.2475589  11.6909447  31.7997636
  17.5639175  11.3075996  31.7792575  17.0113933  11.8624090  31.8294621
   7.6854543   9.4414967  37.5711691   6.8200063   9.4300657  37.4594462
   7.7853359   9.2545190  38.4182830   7.5728710   9.4121028  37.6800635
  23.6757473  10.9148648  42.3844451  24.1012545  10.3923070  41.8314876
  23.3114393  11.5129485  41.8633074  23.6844076  10.9258875  42.2253460
  13.3111553  19.2112865  41.1441796  13.6258112  20.0249254  41.1519578
  13.7204966  18.8263084  41.8123955  13.4179651  19.2741568  41.2445888
  20.2636073  14.6282912  38.7145608  20.7347251  15.3423175  38.8835593
  20.5996251  14.0281662  39.2505478  20.3831188  14.6454376  38.8177984
  22.3513057  16.2384226  50.8937680  22.4610023  15.4492786  51.2494427
  22.6803954  16.1490162  50.0912018  22.4165463  16.1090078  50.8280071
  20.9010019  14.4200846  45.4773301  20.3530965  13.7958730  45.2093366
  21.3623048  14.6095118  44.7617380  20.8877228  14.3559896  45.3323732
  23.7103883   2.4886201  42.8624493  23.1266872   2.9895407  42.4502060
  24.0308177   1.9815757  42.2288816  23.6717059   2.4878036  42.7083000
  16.2498682   1.4026796  33.1383168  17.0714377   1.5725108  32.8964863
  15.7868333   1.5574057  32.4149465  16.3029845   1.4508529  32.9954812
  10.6524573  13.1585974  40.7920405  11.2569430  13.1181808  40.1634225
  10.4451886  14.0057126  40.8224460  10.7113470  13.2773976  40.7036521
  20.4668345  15.4251919  42.0082642  21.2866719  15.2814885  42.2698937
  20.1862423  16.0498118  42.5499080  20.5465089  15.4962271  42.1270581
   5.8875855  12.1420591  40.6619328   5.7900133  11.3316863  40.9709384
   6.6704725  12.1212385  40.2765596   5.9891992  12.0187682  40.6506191
  19.2972621  27.7393818  37.3830787  19.0622805  26.9061471  37.2763055
  19.4358261  28.0198484  36.5691987  19.2828283  27.6577322  37.2473141
  21.5962708  19.9079549  40.2815094  20.9767740  19.3172196  40.1125109
  21.4946572  20.4990984  39.6479417  21.4900384  19.9083631  40.1620084
  21.3231841  23.4531831  42.5258663  21.1990538  24.0394276  43.1608482
  21.9750126  22.9592026  42.8270938  21.4005490  23.4670635  42.6644592
  34.0733875  13.0057010  36.9418443  33.7587316  13.6960489  37.3738865
  33.5560817  12.9501792  36.2403943  33.9498346  13.0991899  36.9015392
  28.1538151  31.1437644  46.2070642  27.5908986  30.7310254  46.7310304
  28.9159175  31.0690549  46.6263786  28.1832600  31.0715044  46.3463643
  29.7623131  23.1490380  30.3332242  30.0019135  23.3568364  29.5207585
  30.0838972  22.3447889  30.4421186  29.8460289  23.0604481  30.2292795
  24.7613049  23.3711252  47.9387688  24.9333553  23.2617147  48.7872969
  25.2982407  24.0165657  47.7018880  24.8658053  23.4503254  48.0292784
  23.4270486  17.4854095  30.8769893  23.2446059  17.7025976  30.0510885
  24.2896099  17.5993107  30.9328507  23.5275075  17.5343993  30.7624380
  23.6637621  29.7442892  42.6206186  24.2035846  29.6014023  43.2909558
  22.9807567  30.1439643  42.9890212  23.6429775  29.7822563  42.7740608
  19.0674766  25.9643183  42.7740608  18.8013181  25.1482300  42.9331598
  19.0813330  26.0096339  41.9036123  19.0299488  25.8500088  42.6694090
  36.0456160  16.2920998  40.8083041  36.6882068  16.3619102  41.3944957
  36.2979181  15.6250221  40.3062583  36.1778292  16.2047347  40.8210321
  23.8173372  19.5021561  45.4207615  23.1245169  19.0318541  45.6668347
  24.4333700  19.2759866  45.9949322  23.8057902  19.3988693  45.5416768
  19.4768180  26.7501962  40.0552352  19.2943753  26.7248848  39.2024644
  20.2117849  27.2200900  40.0941261  19.5582244  26.8163325  39.9350270
  22.5413931  23.4686965  46.5634461  23.2653904  23.4539996  47.0499355
  22.6430068  24.1782320  46.0656429  22.6632140  23.5711668  46.5613247
  29.9158881  26.9486050  51.4283408  29.1231862  27.2629562  51.6136027
  30.0307808  27.1637518  50.5904192  29.8154291  27.0269887  51.3321742
  14.9197923  22.4807356  36.9199237  15.0058175  22.1039224  37.7012767
  15.5473721  22.1067802  36.4419195  15.0254474  22.3692838  36.9644714
  20.5073882  31.2499089  40.9730598  20.5478027  31.5213940  40.1450377
  21.0668406  31.7740997  41.3888386  20.5957228  31.3674844  40.9122486
  26.6232595  17.5119457  51.1433768  26.3086036  18.2819020  50.8803330
  26.3022528  16.9489714  50.5585994  26.5291514  17.5429726  51.0175117
  33.2997381  16.0487838  45.0891286  34.0450973  15.8597649  44.6754711
  32.8834685  16.5746076  44.5305142  33.3482355  16.0989984  44.9455859
  23.5910160  26.5158617  38.8319405  23.3023409  25.8896088  39.3665132
  24.4593508  26.4578905  38.8984085  23.6770412  26.4146161  38.9210360
  26.2549100  20.1116709  49.8818982  25.4448876  20.4174488  49.7708825
  26.7323787  20.8322291  49.9971566  26.2052579  20.2631310  49.8826053
  22.5893132  25.6479259  44.7518385  23.1014229  25.9263512  44.1027144
  22.3029475  26.3868553  45.1181198  22.6227995  25.7981613  44.7108263
  19.6760039  20.1549451  35.0482121  19.7776175  20.9575612  35.3763097
  20.4715925  19.9536787  34.7505202  19.8087944  20.2435350  35.0517476
  20.4923771  20.2696629  42.7903243  20.3509263  19.4180570  42.9147751
  20.7764334  20.3125290  41.9665449  20.5131617  20.1496379  42.6870867
  25.6787145  33.0323210  43.2131741  25.8276709  32.4726125  42.5605145
  26.4587147  33.1115211  43.5964260  25.8161239  32.9608775  43.1728690
  28.2040446  33.2037852  44.4916232  28.1284117  32.5346663  45.0467020
  28.1330305  33.9055641  45.0056898  28.1821053  33.2082760  44.6493080
  21.2614076  18.1826977  46.1080693  20.7256265  17.5707335  46.4241460
  21.3231841  18.7575113  46.7614360  21.1909709  18.1773904  46.2516120
  33.4908411  11.1151032  38.8885092  33.6091979  11.5727495  38.1552395
  33.3170586  10.3096293  38.6021310  33.4827582  11.0644804  38.7386026
  23.3802832  25.5907711  35.9200748  23.5367451  25.5254513  36.7756740
  23.7203425  26.3656263  35.7079427  23.4536067  25.6956909  36.0155342
  33.7899084  29.1768242  51.9021023  34.6033949  28.9053390  52.0626156
  33.6294050  28.8775782  51.0981219  33.8869032  29.0923168  51.8066429
  19.9537093  22.7742661  36.2361515  20.3336058  23.1927206  35.5721782
  19.3792458  23.3556117  36.5430358  19.9248418  22.9220520  36.1838256
  30.3263841  22.8751035  50.5628421  30.7963472  23.4993152  50.9496295
  30.3725721  22.2068011  51.1221636  30.4031717  22.8685716  50.7028492
  29.2184490  12.4068008  45.4080337  29.8477608  12.9428308  45.1301407
  29.3870353  12.3145367  46.2593903  29.3362285  12.4729371  45.4928865
  29.0198405  17.1939203  47.6806749  29.8471834  16.9224352  47.7365363
  29.0406251  17.9900045  48.0370567  29.1451255  17.2718957  47.7421932
  23.5967895  24.3403066  40.8677009  22.7555901  24.2406940  41.0755903
  23.8057903  25.1098546  41.2191330  23.5032587  24.4395109  40.9504324
  21.0743462  21.9622603  38.6961760  20.6800160  22.0365615  37.9211870
  20.5183579  22.3480549  39.2470122  20.9346274  22.0304377  38.6629420
  25.4702911  29.4834186  44.8246705  25.3623266  29.4936248  45.6908763
  25.6798692  30.3088966  44.6351658  25.4853022  29.6075261  44.9250796
  35.9642096  15.4935661  37.8568404  35.3516410  15.9806063  38.2422136
  36.0606271  14.8179152  38.4006056  35.8879994  15.4653970  37.9947263
  23.4876703  26.7346828  42.2868642  22.8964636  27.3756326  42.2571657
  24.2497726  27.1584445  42.2599942  23.5124963  26.8922667  42.2783789
  23.8837326  17.8948826  42.9536660  24.3438807  17.9687755  43.6911784
  23.9293432  18.6930080  42.6036481  23.9587881  18.0242973  43.0109416
  25.5320675  18.5615521  47.5208687  25.1406240  17.9148868  47.9564465
  25.7006538  19.1526956  48.1402942  25.4991586  18.5529789  47.6771393
  20.6725103  21.5238017  45.3288376  21.5350716  21.4233726  45.2425706
  20.3416886  20.9432726  44.7673948  20.7510300  21.4229643  45.2333782
  24.2168638  18.6905584  28.0471479  23.8681442  19.3425309  28.5103029
  23.7365084  18.6762697  27.3195350  24.0938882  18.7848638  28.0082571
  20.7452565  28.4080926  43.4302559  20.2152489  27.7173365  43.4797533
  21.0177658  28.3991111  42.6015267  20.7077287  28.3048057  43.3149974
  23.3017635  21.9573613  44.2073663  23.4611121  21.2016938  44.6125385
  23.1210528  22.5064553  44.8614400  23.2982994  21.9267427  44.3636369
  31.2437938  14.1234849  44.7624452  30.7478499  14.3198523  44.0716019
  32.0007000  14.5227517  44.5913254  31.2824762  14.2112583  44.6344589
  26.9771752  26.0908753  48.8353802  26.1267383  26.2280467  48.9711447
  27.1399880  25.3572531  49.2801503  26.8755616  26.0022854  48.9209401
  24.0240286  16.5317416  48.6663817  24.6492990  15.9879549  48.9393249
  23.5690766  16.0512333  48.0971607  24.0488547  16.3806897  48.6225411
  21.1245757  24.3799066  34.1579647  21.6337986  24.9763574  34.5390952
  21.5980029  24.1125040  33.4756066  21.2689133  24.4284882  34.1134169
  36.2176664  13.5066217  39.8954293  35.7107528  12.7995357  39.8275470
  37.0144098  13.1759406  40.0255370  36.2603903  13.3539368  39.9053288
  21.2625623  20.3104878  48.0455419  21.0928213  20.9706252  47.5003625
  20.8191573  20.5211439  48.7667908  21.1724956  20.4390860  48.0717048
  30.2928978  19.7891547  47.8355312  30.8500409  19.5605356  47.2033778
  29.9690043  20.5497213  47.5590525  30.3275389  19.8675384  47.7011810
  18.1627687  23.2151743  43.3043909  17.6154407  22.5452389  43.4224777
  18.9520065  22.8481591  43.3687376  18.1979871  23.0616730  43.3312609
  28.0112096  22.8759200  48.8007320  28.7623423  23.1910877  49.1146874
  28.2034672  22.6738371  47.9741241  28.1503510  22.8926582  48.7250715
  16.9214657  22.4272551  40.4589932  16.7436418  21.9749160  41.1844847
  16.6333679  23.2298712  40.6428409  16.8527610  22.4795109  40.5933434
  18.6587127  24.9600275  37.5711691  17.7932646  24.9485965  37.4594462
  18.7585943  24.7730498  38.4182830  18.5461294  24.9306336  37.6800635
  24.2844137  34.7298173  41.1441796  24.5990696  35.5434562  41.1519578
  24.6937550  34.3448392  41.8123955  24.3912235  34.7926876  41.2445888
  28.1538151  14.9195691  45.6703703  28.2866057  14.1226684  45.9984678
  28.5383304  15.4462094  46.2501979  28.2294480  14.8795607  45.8047206
  25.8126598  14.9154866  43.9181597  26.3571011  14.5745993  44.5085938
  25.8663534  15.7740327  44.0602881  25.9015717  14.9910125  44.0263470
  21.6257157  28.6771282  40.7920405  22.2302014  28.6367116  40.1634225
  21.4184469  29.5242434  40.8224460  21.6846054  28.7959284  40.7036521
  16.8608439  27.6605899  40.6619328  16.7632717  26.8502171  40.9709384
  17.6437309  27.6397693  40.2765596  16.9624575  27.5372989  40.6506191
  55.3940564  59.4749563  49.3338905  56.1007331  58.9801594  49.4625839
  55.5828500  59.9158645  48.6041563  55.5268470  59.4667914  49.2447950
  51.4617238  65.1165394  36.8612339  51.8456618  65.6852292  36.3217114
  51.3976380  64.3914904  36.3818155  51.5090666  65.0940857  36.7106202
  47.8873483  67.6721737  39.1593309  48.5310939  68.1134901  39.5489467
  48.2129739  66.8675163  39.0723568  48.0305312  67.6186931  39.2038786
  60.8159529  59.6178431  38.4288898  59.9857232  59.8289075  38.5922314
  60.7668781  58.7915486  38.1531181  60.6866264  59.5268038  38.4126263
  42.8055112  63.6550105  38.6586993  42.3222691  64.3800595  38.6346576
  43.6178431  63.9526235  38.7697150  42.8545860  63.8052459  38.6714272
  48.8769267  62.4482286  41.2636807  48.3596208  62.0889701  40.6598115
  49.5743658  61.9244460  41.2742873  48.9034848  62.3179974  41.1767066
  52.5332859  62.8977100  47.2252980  52.6216204  62.7103240  48.0731191
  52.9622571  62.2514529  46.8257827  52.6094961  62.7740107  47.2924732
  50.1003318  62.1808260  46.2070642  49.5374153  61.7680869  46.7310304
  50.8624342  62.1061165  46.6263786  50.1297767  62.1085660  46.3463643
  45.6599310  64.1706281  38.8107272  46.3619889  63.6558270  38.8680029
  45.5796793  64.4980432  39.6154148  45.7523070  64.1420507  38.9380065
  45.6102788  60.7813508  42.6206186  46.1501013  60.6384639  43.2909558
  44.9272734  61.1810259  42.9890212  45.5894942  60.8193179  42.7740608
  58.0723844  60.2877786  38.5653613  57.6359076  60.2914528  39.3212585
  57.7386760  60.9683285  38.1333191  57.9586464  60.3890242  38.6134446
  52.6452918  62.3286119  49.8896764  53.4293334  62.4416967  50.2552506
  52.4449512  61.5027256  50.0855450  52.7318943  62.2232838  49.9731150
  52.8023311  64.2396221  43.5363219  52.0038557  63.9995721  43.7937088
  53.2509323  64.2910614  44.2830267  52.7497922  64.2118612  43.6848144
  59.3223478  56.8625754  35.0354843  59.6531695  57.3953394  34.4294938
  59.8956566  56.9164642  35.6916794  59.4557157  56.9495323  35.0432625
  51.8624048  57.9856666  51.4283408  51.0697029  58.3000178  51.6136027
  51.9772975  58.2008134  50.5904192  51.7619459  58.0640502  51.3321742
  52.7907841  57.8876869  46.3668704  53.3646702  57.2504114  46.5217268
  52.7122645  57.8880952  45.4978362  52.8641076  57.7941981  46.2615115
  58.1127989  59.2585847  46.3753557  57.8766626  58.4273912  46.2565618
  58.7571218  59.2071454  46.9608402  58.1722659  59.1283535  46.4439451
  59.1364409  59.0430296  42.4381852  58.8310226  59.7758353  42.7995168
  58.4170625  58.6368225  42.1574638  58.9851752  59.0912029  42.4494989
  64.8366201  55.6823296  41.7650196  64.7690702  55.7019256  40.8952783
  64.8221864  56.5253624  41.9905867  64.8244958  55.8097031  41.6702673
  48.6852464  63.4888534  33.5003554  48.9750763  63.0977515  32.7762780
  49.4155945  63.6705239  33.9408829  48.8359349  63.4582348  33.4586361
  46.6258380  65.4655916  36.5663703  46.4058675  65.1753271  37.3590370
  46.4052902  64.8070872  36.0381616  46.5605974  65.3255625  36.6052612
  48.7926336  66.8385306  35.3494396  49.4450394  66.3061749  35.5785422
  48.0951944  66.4853959  35.7362270  48.7857054  66.7074829  35.4406563
  56.7866254  59.1589720  34.6925375  57.3524287  59.8182930  34.6083918
  56.1394157  59.5039419  35.1641777  56.7745010  59.3071662  34.7498131
  53.2572832  62.1028505  34.1162454  53.0159508  61.3696365  33.7089519
  53.4374165  62.6515362  33.4628787  53.2480456  62.0750896  33.9592677
  56.4875579  59.8517694  40.7234512  56.3489938  60.5498740  41.2283255
  55.7075577  59.6966351  40.3670694  56.3518806  59.9317861  40.7460786
  54.8253664  56.1514070  46.9756894  54.8201703  55.2793886  46.9799320
  55.5314658  56.3502239  46.5026350  54.9298668  56.0517944  46.9063929
  47.6252313  64.0693825  43.2131741  47.7741876  63.5096741  42.5605145
  48.4052315  64.1485827  43.5964260  47.7626406  63.9979391  43.1728690
  57.9828952  59.2095948  31.4851011  57.6035761  58.4233086  31.4780301
  57.3195197  59.7582805  31.3422656  57.8287427  59.1740772  31.4631808
  50.1505613  64.2408468  44.4916232  50.0749284  63.5717279  45.0467020
  50.0795472  64.9426256  45.0056898  50.1286220  64.2453376  44.6493080
  50.8075860  62.7609467  35.3239838  51.5725751  62.4919111  35.0022502
  50.7053950  62.2759477  36.0409900  50.9057356  62.6499032  35.3819665
  56.2289051  61.4541439  31.8202697  56.3108888  62.2608425  31.4964148
  56.7138793  61.4737398  32.5443471  56.3126209  61.5762102  31.8789596
  49.5397247  67.6476788  42.9494233  50.0293178  66.9487577  42.7669897
  48.9681480  67.3500658  43.5370290  49.5281777  67.5003012  43.0095273
  55.7364251  60.2138857  51.9021023  56.5499116  59.9424006  52.0626156
  55.5759217  59.9146397  51.0981219  55.8334199  60.1293783  51.8066429
  54.4241081  63.8191263  36.2870632  54.0320873  63.5157978  35.5693498
  54.5794153  64.6560353  36.0975586  54.3894671  63.8975100  36.1527129
  54.5880756  60.3841252  36.2276663  54.2295410  60.5555895  37.0040695
  54.1019466  60.8454457  35.6704661  54.4639453  60.4780223  36.2601932
  55.7485495  61.2745148  47.1743864  56.3865216  60.7805343  46.8406320
  55.1059587  61.2022548  46.5896091  55.7479722  61.1904156  47.0386219
  55.8039752  61.9664956  43.8149220  56.5932130  61.6154021  43.9351302
  55.9783349  62.7801344  43.5525854  55.9460033  62.0350813  43.7937088
  47.4168078  60.5204802  44.8246705  47.3088433  60.5306864  45.6908763
  47.6263859  61.3459582  44.6351658  47.4318189  60.6445876  44.9250796
  55.1931386  63.2226756  39.7200667  54.9951075  63.7117570  39.0256878
  54.5719097  63.4267997  40.2984800  55.0718951  63.3243294  39.7023890
  57.1105188  56.7890908  45.2545915  57.8339387  56.3363434  45.0756935
  56.8455150  57.0695574  44.4718243  57.1786461  56.7641876  45.1124630
  53.7237822  60.0277244  32.1540241  54.4472021  60.4935357  32.0104814
  53.2838414  60.0950854  31.4037838  53.7653515  60.1061081  32.0225023
  37.9713574  56.1179306  40.7870907  37.8657023  56.0726150  39.9222991
  37.2213794  56.4633086  41.0685192  37.8449177  56.1620214  40.7008237
  51.3733892  60.1734691  44.3834359  50.8658983  60.7270538  44.8274989
  51.0760538  60.2342981  43.5653133  51.2538777  60.2641002  44.3282815
  53.9841672  64.0897949  32.3138302  53.2670982  63.9158811  31.8485540
  54.6348410  63.8550521  31.7813788  53.9743523  64.0293741  32.1667520
  50.6176377  65.1059249  41.2891366  50.3942032  64.3478079  41.6575392
  50.1286220  65.1357271  40.5671805  50.5119826  64.9981474  41.2368107
  52.6747367  59.2740982  48.8403299  52.6343221  58.6290659  48.2548455
  53.4870685  59.2177599  49.1528711  52.7890520  59.1699948  48.8000248
  49.2654834  65.3259707  38.7428450  48.8515233  64.6633838  38.3532292
  49.9502208  65.4737566  38.2224144  49.3053206  65.2500366  38.6084947
  52.6320128  64.4849793  39.4952067  52.2336411  64.5952063  38.7272887
  52.0171348  64.6931859  40.0778627  52.4819017  64.5323361  39.4683366
  60.3661971  59.0601759  32.8795157  60.7495577  59.8093116  33.1093254
  59.5706084  59.3067579  32.6207146  60.3055753  59.2071453  32.8752731
  46.2309304  65.7668789  41.1441796  46.5455863  66.5805178  41.1519578
  46.6402717  65.3819008  41.8123955  46.3377402  65.8297492  41.2445888
  53.1833823  61.1838836  38.7145608  53.6545002  61.8979099  38.8835593
  53.5194002  60.5837586  39.2505478  53.3028938  61.2010300  38.8177984
  55.2710808  62.7940149  50.8937680  55.3807773  62.0048710  51.2494427
  55.6001705  62.7046085  50.0912018  55.3363214  62.6646002  50.8280071
  53.8207770  60.9756770  45.4773301  53.2728716  60.3514654  45.2093366
  54.2820798  61.1651042  44.7617380  53.8074979  60.9115820  45.3323732
  53.3866096  61.9807843  42.0082642  54.2064470  61.8370809  42.2698937
  53.1060174  62.6054042  42.5499080  53.4662839  62.0518195  42.1270581
  38.8073606  58.6976515  40.6619328  38.7097884  57.8872787  40.9709384
  39.5902476  58.6768308  40.2765596  38.9089743  58.5743605  40.6506191
  69.8579746  69.6372694  34.9725518  69.8273751  70.4917331  35.1443788
  70.4561095  69.3367987  35.5311662  69.9416904  69.7189191  35.0800321
  63.0579431  68.7248345  39.7278449  62.2017327  68.8856844  39.7787566
  63.1047085  67.8540409  39.7483510  62.9378543  68.6199147  39.7384515
  57.4420571  78.2611063  35.4915680  56.6903470  77.8826602  35.2631725
  57.8906583  78.2929497  34.7434491  57.3970238  78.2096670  35.3473183
  66.3673148  74.9934871  49.3338905  67.0739915  74.4986902  49.4625839
  66.5561083  75.4343953  48.6041563  66.5001053  74.9853221  49.2447950
  65.9031252  70.7840389  42.3710100  66.4487212  71.4625476  42.4304070
  65.8448129  70.6427850  41.5111682  65.9747167  70.8632391  42.2522161
  59.0205327  78.2729456  37.7578453  59.1215690  77.4629809  38.0675581
  58.4247072  78.1786402  37.1278131  58.9477866  78.1394484  37.7104691
  67.6796321  72.2124996  33.2443828  67.5635847  72.9632683  33.6735966
  68.4752208  71.9548950  33.4939915  67.7800910  72.2859843  33.3447920
  52.2170371  74.2949742  37.3830787  51.9820556  73.4617394  37.2763055
  52.3556012  74.5754408  36.5691987  52.2026034  74.2133245  37.2473141
  54.5160459  66.4635473  40.2815094  53.8965490  65.8728120  40.1125109
  54.4144322  67.0546908  39.6479417  54.4098134  66.4639555  40.1620084
  59.5626646  76.2019020  34.5313171  59.8842487  76.7424227  33.9274479
  60.2098743  75.6315791  34.6635460  59.7052702  76.1978195  34.4620206
  61.6128354  68.2035014  34.6147557  62.3108519  68.3823142  35.1069021
  61.9280687  67.6805354  33.9917947  61.7623692  68.1528787  34.5949567
  54.2429592  70.0087754  42.5258663  54.1188289  70.5950200  43.1608482
  54.8947876  69.5147950  42.8270938  54.3203241  70.0226559  42.6644592
  61.8016290  74.5905459  34.6027349  62.2409925  73.9822560  35.0482122
  61.6520953  74.2112833  33.8312814  61.8437756  74.4443931  34.5546516
  59.2687933  73.1849471  41.8046174  59.9136935  72.6921914  41.4857123
  59.5089710  73.3274258  42.6312253  59.3998518  73.1326914  41.8795707
  61.8074024  76.0304377  41.4553067  62.0897267  75.2355783  41.2339823
  62.5360185  76.5084965  41.4758128  61.9563588  75.9838974  41.4256082
  59.7855218  63.5727411  38.6968832  59.4558548  64.0238555  38.0272531
  59.1100220  63.4943574  39.2441838  59.6365654  63.6278546  38.6792055
  65.4025626  72.9432641  31.5558118  65.3176921  73.7993607  31.7007687
  65.8910010  72.6676965  32.2240277  65.4614524  73.0289962  31.6760200
  66.9931626  59.5612934  36.9418443  66.6785067  60.2516413  37.3738865
  66.4758567  59.5057716  36.2403943  66.8696096  59.6547823  36.9015392
  66.3344060  69.5617435  33.0555853  65.8055531  69.7777068  33.7153159
  66.8569080  70.2553573  32.9756822  66.3332513  69.6960572  33.1411452
  58.2243667  73.4580652  31.8563321  57.6400883  73.9630683  32.2629185
  57.8213763  73.2323039  31.1159913  58.0782971  73.4988900  31.8068346
  53.7787696  79.1735413  38.6586993  53.2955274  79.8985902  38.6346576
  54.5911014  79.4711543  38.7697150  53.8278444  79.3237767  38.6714272
  59.8501850  77.9667594  41.2636807  59.3328792  77.6075009  40.6598115
  60.5476241  77.4429768  41.2742873  59.8767431  77.8365282  41.1767066
  61.0735902  77.6993568  46.2070642  60.5106737  77.2866177  46.7310304
  61.8356925  77.6246473  46.6263786  61.1030350  77.6270968  46.3463643
  62.6820882  69.7046304  30.3332242  62.9216886  69.9124288  29.5207585
  63.0036723  68.9003812  30.4421186  62.7658040  69.6160405  30.2292795
  57.9911172  61.6339700  34.1791780  58.7457140  62.0018017  33.9408830
  57.8138707  62.0079254  34.9470959  58.0765650  61.7437887  34.2576668
  56.6331893  79.6891589  38.8107272  57.3352473  79.1743578  38.8680029
  56.5529376  80.0165740  39.6154148  56.7255654  79.6605815  38.9380065
  71.2846071  67.7834140  42.2239319  70.4474492  67.8536327  42.4586913
  71.2534302  67.7858635  41.3513621  71.1564353  67.7944367  42.1298867
  57.6810800  69.9267176  47.9387688  57.8531304  69.8173070  48.7872969
  58.2180157  70.5721581  47.7018880  57.7855804  70.0059177  48.0292784
  56.3468237  64.0410019  30.8769893  56.1643810  64.2581899  30.0510885
  57.2093850  64.1549031  30.9328507  56.4472826  64.0899916  30.7624380
  55.9582669  75.8797941  38.3192881  56.7971568  76.1120874  38.3666642
  55.9894438  75.0102252  38.2499916  56.0864386  75.7854887  38.3157525
  56.5835372  76.2998816  42.6206186  57.1233597  76.1569947  43.2909558
  55.9005318  76.6995567  42.9890212  56.5627526  76.3378487  42.7740608
  62.0267956  61.0436429  33.9118916  62.7554116  60.8652384  33.4657073
  62.1162849  61.8854509  34.1226095  62.1474618  61.1420308  33.8772434
  66.0076257  71.9789817  37.8151210  66.7633772  72.4121331  37.8540119
  66.1138581  71.3294586  38.3885846  66.1346427  71.9467300  37.9049236
  51.9872517  72.5199107  42.7740608  51.7210932  71.7038223  42.9331598
  52.0011081  72.5652262  41.9036123  51.9497239  72.4056012  42.6694090
  68.9653911  62.8476922  40.8083041  69.6079819  62.9175026  41.3944957
  69.2176931  62.1806145  40.3062583  69.0976043  62.7603270  40.8210321
  55.8930264  67.3184191  29.3892366  55.1788441  67.0322371  29.8014798
  56.3774232  67.6580817  30.0298753  55.8589627  67.3265841  29.5448001
  56.7371123  66.0577485  45.4207615  56.0442920  65.5874465  45.6668347
  57.3531451  65.8315790  45.9949322  56.7255653  65.9544617  45.5416768
  63.0677582  75.8214145  29.7654174  63.4828730  75.4899169  29.0738670
  62.2369511  75.5883047  29.6374311  63.0065590  75.7385401  29.6445021
  52.3965930  73.3057886  40.0552352  52.2141504  73.2804772  39.2024644
  53.1315599  73.7756824  40.0941261  52.4779994  73.3719248  39.9350270
  68.4665605  73.5409396  37.1985239  68.7021194  73.6854595  36.3712090
  68.6155168  74.3051804  37.5916753  68.5231408  73.6748451  37.1348843
  55.4611682  70.0242889  46.5634461  56.1851654  70.0095920  47.0499355
  55.5627819  70.7338244  46.0656429  55.5829891  70.1267592  46.5613247
  70.2956061  72.3811062  35.0354843  70.6264278  72.9138702  34.4294938
  70.8689150  72.4349950  35.6916794  70.4289741  72.4680631  35.0432625
  62.8356632  73.5041974  51.4283408  62.0429612  73.8185485  51.6136027
  62.9505559  73.7193442  50.5904192  62.7352042  73.5825810  51.3321742
  65.5087951  70.2275965  35.7178423  65.6034805  70.9665259  36.1718049
  64.8846794  69.7993440  36.1512988  65.4296981  70.2737285  35.8486571
  63.7640424  73.4062177  46.3668704  64.3379286  72.7689422  46.5217268
  63.6855228  73.4066260  45.4978362  63.8373659  73.3127289  46.2615115
  52.3636841  70.1851387  40.2051418  52.9410343  70.0487838  40.8443664
  51.6650903  69.7287171  40.4597003  52.3457862  70.0973653  40.3373708
  65.7610972  72.0724705  28.9515375  65.6791134  72.1426892  29.8170362
  66.3990692  72.6354448  28.7599116  65.8430809  72.1663676  29.0505325
  59.1204143  71.8385442  38.4189902  58.8623387  71.0057177  38.3921201
  59.1752626  72.0643055  37.5782402  59.0903921  71.7483214  38.2910038
  64.2005193  63.9413893  38.5193994  63.4961520  63.4523079  38.6777913
  64.2490167  63.9536368  37.6482439  64.1035245  63.8703541  38.4133334
  58.0938855  69.3923205  38.9054796  57.5188446  69.5515373  39.5418757
  57.7174531  68.7558614  38.4423247  57.9541667  69.3221018  38.9309355
  61.7612144  67.8646554  43.7647175  61.3726577  67.4400772  43.1099366
  61.0966842  68.1128704  44.2724201  61.6059072  67.8385275  43.7435043
  71.4035413  67.6221559  36.5395005  71.1471978  66.8101500  36.3492888
  72.2464727  67.6299126  36.3125192  71.4901438  67.5033556  36.4779822
  47.8395674  69.0363280  36.9199237  47.9255926  68.6595148  37.7012767
  48.4671471  68.6623725  36.4419195  47.9452225  68.9248762  36.9644714
  65.5838505  61.5621183  41.2771159  65.9649017  60.8799354  41.6639033
  64.7801790  61.2730785  41.0946824  65.5214967  61.4188232  41.3075215
  62.8651082  72.0945159  31.9623982  63.6791721  72.3860052  31.8506753
  62.8010223  71.4405021  31.3882275  62.9753821  72.0410354  31.8612819
  58.7358990  75.5666676  37.0896294  59.3732937  75.3278424  37.6348087
  59.1614062  75.7703835  36.3549454  58.8935157  75.5617686  37.0613451
  53.4271633  77.8055013  40.9730598  53.4675778  78.0769864  40.1450377
  53.9866157  78.3296921  41.3888386  53.5154979  77.9230768  40.9122486
  59.3761805  70.7868966  31.4271183  59.7606958  70.5676673  32.1787728
  59.1273426  71.6131911  31.5572260  59.3963878  70.8767112  31.5572260
  59.5430346  64.0675381  51.1433768  59.2283787  64.8374944  50.8803330
  59.2220278  63.5045637  50.5585994  59.4489265  64.0985650  51.0175117
  61.1180462  76.0439099  38.7690080  61.1919471  75.8814271  39.6231930
  61.9349969  76.2329288  38.5250562  61.2496821  76.0475841  38.8588106
  54.8786219  76.3896962  35.7984524  54.0524337  76.6358699  35.6718802
  54.9398210  76.3109043  36.6646582  54.7660386  76.4141911  35.9073468
  57.0962243  62.4565903  36.7579964  56.2284668  62.5288502  36.8237573
  57.3837447  63.2587982  36.9467939  57.0101991  62.5860050  36.7954730
  66.2195131  62.6043762  45.0891286  66.9648723  62.4153573  44.6754711
  65.8032436  63.1302000  44.5305142  66.2680106  62.6545908  44.9455859
  59.6585048  79.0073842  33.5003554  59.9483346  78.6162823  32.7762780
  60.3888529  79.1890547  33.9408829  59.8091932  78.9767656  33.4586361
  73.5957402  69.9752991  40.0396791  74.1465324  69.3421060  40.2793883
  73.5801518  70.5068383  40.7312295  73.6742599  69.9601939  40.1775649
  60.2479793  73.8091588  44.5856684  59.7491487  74.5207356  44.6641572
  61.0580017  74.1292254  44.5474846  60.2935900  73.9618436  44.5913253
  57.5990964  80.9841224  36.5663703  57.3791259  80.6938579  37.3590370
  57.3785486  80.3256179  36.0381616  57.5338558  80.8440933  36.6052612
  56.5107911  73.0714541  38.8319405  56.2221159  72.4452012  39.3665132
  57.3791259  73.0134828  38.8984085  56.5968163  72.9702085  38.9210360
  67.2985809  68.2149324  39.1501387  66.9550574  67.4939659  39.5008636
  67.3978851  68.0063175  38.3079745  67.2627851  68.0773528  39.0773067
  56.7140184  74.7109792  34.7561770  57.4686152  75.0922831  34.9697233
  56.1210797  75.1620936  35.2108467  56.7376898  74.8338619  34.8544648
  59.1746851  66.6672632  49.8818982  58.3646627  66.9730412  49.7708825
  59.6521538  67.3878215  49.9971566  59.1250330  66.8187233  49.8826053
  58.0338411  75.8818353  40.1301885  57.5119164  76.0218645  40.8153750
  58.4212431  75.1229018  40.3204003  58.0142112  75.7903877  40.2602962
  55.0229595  65.9324162  34.1996840  54.7354390  65.5625432  33.4628787
  55.7100063  66.4019017  33.9380545  55.0818492  65.9471131  34.0511916
  59.4604736  72.9122372  35.5283376  59.2647519  73.5197107  34.9343679
  59.6839082  72.2190316  35.0475050  59.4639377  72.8999898  35.3699457
  57.8583266  69.7977110  35.6464245  58.5805918  69.9618268  35.1868051
  57.3791259  70.5186775  35.5403585  57.8946997  69.9275340  35.5629859
  65.8176774  66.1340909  41.0260930  64.9787875  66.1602188  40.7899193
  65.8881141  66.7811644  41.6066276  65.7045167  66.2337035  41.0770047
  55.5090883  72.2035183  44.7518385  56.0211980  72.4819436  44.1027144
  55.2227226  72.9424477  45.1181198  55.5425746  72.3537536  44.7108263
  64.2646052  63.0326286  35.7588546  64.9672405  62.8334034  35.2808504
  63.9990241  62.2602228  36.0657389  64.3292685  62.8889252  35.7333987
  69.6934298  71.3408896  38.3122171  69.6068272  71.4964322  39.1656950
  69.2384778  71.9846971  37.9381577  69.6137554  71.4584651  38.3829278
  52.5957789  66.7105374  35.0482121  52.6973926  67.5131536  35.3763097
  53.3913676  66.5092710  34.7505202  52.7285695  66.7991273  35.0517476
  59.0274608  64.2961571  44.8119426  58.8357805  64.3116706  45.6618850
  59.8773204  64.4925246  44.7886081  59.1250330  64.3275922  44.9342721
  53.4121521  66.8252553  42.7903243  53.2707013  65.9736493  42.9147751
  53.6962085  66.8681213  41.9665449  53.4329368  66.7052303  42.6870867
  63.5660114  68.6619643  36.9347731  63.3194828  68.5815394  37.7684520
  63.8945237  67.8773111  36.7410258  63.5781357  68.5345908  37.0295254
  65.7986248  71.6699378  46.9756894  65.7934286  70.7979194  46.9799320
  66.5047242  71.8687547  46.5026350  65.9031252  71.5703252  46.9063929
  59.5257141  71.3976361  46.3470714  59.6700517  71.9777570  45.7113824
  59.8732790  71.7752658  47.0520569  59.5984602  71.5397066  46.3569709
  61.6977058  70.5966530  44.1295846  60.9500372  70.7897544  43.7244124
  61.8518584  69.7711749  43.8919967  61.6099486  70.5031641  44.0341251
  58.5984896  79.5879133  43.2131741  58.7474460  79.0282049  42.5605145
  59.3784898  79.6671135  43.5964260  58.7358990  79.5164699  43.1728690
  61.9378835  64.4917081  45.0191249  62.3951450  65.2241055  45.1464042
  62.0135164  64.0683546  45.7778505  62.0169805  64.5374319  45.1492326
  54.1811827  64.7382900  46.1080693  53.6454016  64.1263258  46.4241460
  54.2429591  65.3131036  46.7614360  54.1107459  64.7329828  46.2516120
  66.4106161  57.6706956  38.8885092  66.5289730  58.1283419  38.1552395
  66.2368337  56.8652217  38.6021310  66.4025332  57.6200728  38.7386026
  61.7808444  78.2794775  35.3239838  62.5458335  78.0104419  35.0022502
  61.6786534  77.7944785  36.0409900  61.8789939  78.1684340  35.3819665
  59.8161213  66.4819185  41.8633073  59.0257288  66.3010645  42.1850409
  60.2121836  65.7046137  41.8463368  59.7578090  66.3406645  41.9085622
  64.3027104  75.3106959  27.3039787  65.0700089  75.3707084  26.8945639
  63.8558413  74.7387400  26.8196106  64.3500531  75.2343535  27.1717497
  62.3299044  68.9579444  46.3456572  62.2658185  69.8189400  46.2176709
  62.4696231  68.6411437  45.5452124  62.3414514  69.0379610  46.2084785
  61.0118138  71.6511583  40.4872775  60.5880387  71.8516082  39.7511794
  60.8362993  70.8040431  40.5997075  60.9229018  71.5560364  40.3946465
  56.3000583  72.1463634  35.9200748  56.4565202  72.0810437  36.7756740
  56.6401176  72.9212187  35.7079427  56.3733817  72.2512833  36.0155342
  62.8379727  71.5221518  34.7894111  63.3795273  71.0191899  35.2532732
  63.1526286  71.4686713  33.9783596  62.9644124  71.4400939  34.7377923
  61.0066177  76.9138870  32.0734139  61.0758997  76.0553408  32.2127139
  61.7854632  77.1310750  31.7453164  61.1319027  76.8191733  32.0451296
  63.9868997  66.4157822  44.8416411  64.2010966  65.7768737  44.2879765
  63.3702896  66.8603646  44.4124273  63.9274326  66.3867966  44.6966843
  52.8734844  69.3298585  36.2361515  53.2533809  69.7483130  35.5721782
  52.2990209  69.9112041  36.5430358  52.8446169  69.4776444  36.1838256
  66.1508085  68.0246888  45.7799719  65.3384766  67.7172778  45.8612891
  66.6098019  67.5445888  46.3442431  66.0988469  67.9083380  45.8754313
  65.5613339  75.9026560  36.2276663  65.2027994  76.0741203  37.0040695
  65.0752050  76.3639765  35.6704661  65.4372036  75.9965531  36.2601932
  63.3783725  59.5257758  39.8303754  62.5077283  59.4996479  39.7837064
  63.6324066  59.3534950  39.0129600  63.2877285  59.4967902  39.7023891
  60.3501705  71.5825725  28.7676897  60.6394229  72.3590608  29.0420472
  60.4373503  71.0714457  29.4691397  60.4055961  71.6217643  28.9119395
  63.2461592  69.4306959  50.5628421  63.7161223  70.0549076  50.9496295
  63.2923472  68.7623935  51.1221636  63.3229468  69.4241639  50.7028492
  60.4032866  61.5363987  41.2877225  59.8871354  60.8444178  41.4128804
  59.8426795  62.2034764  41.2339823  60.2439379  61.5327244  41.2983291
  62.4725099  62.0756947  43.1170077  62.0856852  62.1005978  43.8983607
  61.9858036  61.5098625  42.6644594  62.3437608  61.9952697  43.1657981
  68.4475079  68.6419602  41.7409779  68.0202687  68.5545950  40.9857879
  67.8101132  68.7497377  42.3264623  68.2904686  68.6452261  41.7155221
  62.1382241  58.9623932  45.4080337  62.7675359  59.4984232  45.1301407
  62.3068104  58.8701291  46.2593903  62.2560035  59.0285294  45.4928865
  61.9396156  63.7495127  47.6806749  62.7669585  63.4780276  47.7365363
  61.9604002  64.5455969  48.0370567  62.0649006  63.8274881  47.7421932
  56.5165646  70.8958990  40.8677009  55.6753652  70.7962864  41.0755903
  56.7255654  71.6654470  41.2191330  56.4230338  70.9951033  40.9504324
  53.9941213  68.5178527  38.6961760  53.5997910  68.5921538  37.9211870
  53.4381329  68.9036473  39.2470122  53.8544025  68.5860301  38.6629420
  65.6306159  61.4959821  38.3765639  65.8355753  61.4282128  39.2222636
  65.3032583  62.3018642  38.3086816  65.6121407  61.6045761  38.4925294
  60.3282310  68.8240389  40.1174607  60.0245448  68.2696377  40.7185015
  59.6261731  69.0032599  39.6302641  60.1798520  68.7685171  40.1344312
  59.3848408  66.1340909  34.6819309  59.6608142  65.4159821  34.2696876
  59.9847077  66.7325829  34.4740415  59.5141672  66.1161279  34.5900070
  58.3900661  76.0390110  44.8246705  58.2821016  76.0492172  45.6908763
  58.5996443  76.8644890  44.6351658  58.4050773  76.1631184  44.9250796
  68.8839847  62.0491585  37.8568404  68.2714161  62.5361987  38.2422136
  68.9804022  61.3735076  38.4006056  68.8077745  62.0209894  37.9947263
  62.8858928  63.8054426  32.9565904  63.3402675  63.9764986  33.6813748
  63.3598974  63.1922537  32.5563679  63.0227248  63.7405311  33.0039665
  56.4074453  73.2902752  42.2868642  55.8162387  73.9312250  42.2571657
  57.1695477  73.7140369  42.2599942  56.4322714  73.4478590  42.2783789
  56.8035076  64.4504750  42.9536660  57.2636558  64.5243679  43.6911784
  56.8491183  65.2486004  42.6036481  56.8785632  64.5798897  43.0109416
  58.4518426  65.1171445  47.5208687  58.0603991  64.4704792  47.9564465
  58.6204289  65.7082880  48.1402942  58.4189336  65.1085712  47.6771393
  60.2271948  70.5096960  34.0610911  60.9713993  70.8971237  34.2993861
  60.3732644  69.6654386  34.2251399  60.3582533  70.4427433  34.1204881
  62.1451524  62.3047219  39.0942772  61.2987569  62.4770027  38.9684122
  62.1422656  61.4996563  39.4308601  62.0198673  62.2108248  39.1253899
  63.2149824  66.0822434  39.9604830  62.7409778  65.5564196  40.4710141
  63.5867960  65.5351907  39.3919692  63.1999713  65.9238430  39.9519977
  53.5922854  68.0793940  45.3288376  54.4548467  67.9789650  45.2425706
  53.2614637  67.4988650  44.7673948  53.6708050  67.9785567  45.2333782
  69.4786554  71.1424809  41.3711611  69.2384777  70.3031224  41.3754037
  69.9578562  71.2224976  42.0952384  69.5138738  71.0306209  41.4786413
  65.1433324  66.9758988  33.0230584  64.6156342  67.0587732  32.3336293
  65.6029032  67.7176860  33.0195229  65.1335174  67.0979651  32.9205279
  71.4791742  67.9226267  39.3240870  71.2401511  67.8822101  38.4861655
  71.6425643  68.7697419  39.4506591  71.4682045  68.0418352  39.2194352
  68.0837772  72.3076216  45.2545915  68.8071970  71.8548742  45.0756935
  67.8187734  72.5880882  44.4718243  68.1519045  72.2827184  45.1124630
  56.9524640  66.9036389  41.9898794  56.3277710  66.9154781  41.3824747
  56.6170235  67.3796564  42.6390034  56.8110132  66.9754906  41.9955363
  57.1366389  65.2461508  28.0471479  56.7879193  65.8981233  28.5103029
  56.6562835  65.2318621  27.3195350  57.0136633  65.3404561  28.0082571
  53.6650316  74.9636849  43.4302559  53.1350240  74.2729288  43.4797533
  53.9375409  74.9547035  42.6015267  53.6275038  74.8603981  43.3149974
  64.6970406  75.5462552  32.1540241  65.4204605  76.0120665  32.0104814
  64.2570997  75.6136161  31.4037838  64.7386098  75.6246389  32.0225023
  63.8656561  72.4060094  43.4040930  63.2513554  71.8618144  43.6989565
  64.3823846  71.8924331  42.9246746  63.8512224  72.2496503  43.3765159
  63.1052858  73.4764364  41.1385229  62.6780466  72.8514083  40.7050664
  63.0977803  73.1939286  41.9644236  63.0411999  73.3417145  41.1965056
  56.2215385  68.5129537  44.2073663  56.3808872  67.7572861  44.6125385
  56.0408279  69.0620477  44.8614400  56.2180744  68.4823351  44.3636369
  64.1635688  60.6790773  44.7624452  63.6676250  60.8754447  44.0716019
  64.9204750  61.0783441  44.5913254  64.2022513  60.7668507  44.6344589
  61.4338568  64.3533119  41.3527763  61.4581055  63.8193231  40.6640543
  61.6850042  63.8450427  42.0153353  61.4748487  64.1994023  41.3492407
  48.9446158  71.6364614  40.7870907  48.8389607  71.5911458  39.9222991
  48.1946378  71.9818394  41.0685192  48.8181761  71.6805522  40.7008237
  57.7139890  63.0803937  40.7333507  57.7538262  63.5813143  41.4468214
  56.8889555  63.1714331  40.4639430  57.5979416  63.1685753  40.7984045
  59.8969503  72.6464677  48.8353802  59.0465134  72.7836391  48.9711447
  60.0597631  71.9128455  49.2801503  59.7953367  72.5578778  48.9209401
  59.1354254  69.5964447  43.0307406  58.3046183  69.7638265  42.8242654
  59.0805771  69.2200397  43.8156291  59.0043668  69.5654178  43.1155934
  56.9438037  63.0873340  48.6663817  57.5690740  62.5435472  48.9393249
  56.4888517  62.6068257  48.0971607  56.9686297  62.9362821  48.6225411
  57.5090297  67.8720038  33.5597524  57.6493258  68.3692502  34.2626165
  58.0072830  67.1706333  33.7011737  57.6031378  67.8422017  33.6849103
  57.5390520  68.7387149  30.8890101  58.1735599  69.3347574  30.8239562
  57.6216131  68.4390607  31.7035971  57.6447071  68.7828057  30.9993187
  70.5173086  71.2702627  43.7576465  71.1090926  71.9099877  43.7894663
  70.9532080  70.5725663  44.0468532  70.6691517  71.2620977  43.8057297
  59.1169503  64.6701125  30.8635543  59.4385344  64.1904207  30.2094805
  59.3796446  65.4800771  30.6726354  59.2035528  64.7191023  30.7391035
  62.3466475  75.6919999  44.3834359  61.8391567  76.2455846  44.8274989
  62.0493122  75.7528289  43.5653133  62.2271360  75.7826310  44.3282815
  64.5128658  64.0573319  43.2259022  64.9383729  63.6045845  42.6142548
  63.8985651  63.5033389  43.5023809  64.4857303  63.9087295  43.1764047
  54.0443508  70.9354990  34.1579647  54.5535737  71.5319498  34.5390952
  54.5177780  70.6680964  33.4756066  54.1886883  70.9840805  34.1134169
  62.9522880  60.5288418  36.6349599  62.3091198  60.3786065  37.2034737
  62.6122287  60.2830764  35.8698703  62.8067958  60.4700541  36.6052614
  67.5422227  68.4847845  36.0579607  66.8713417  69.0277548  35.9292673
  68.2361977  68.9542701  35.8161302  67.5451094  68.6346116  36.0035135
  67.7050354  64.9403729  38.9669981  68.0577965  64.5133452  39.6415779
  66.8465156  64.8554572  39.0971057  67.6299799  64.8648470  39.0864991
  56.4034039  67.5711249  37.0252827  55.6846029  67.9875381  37.2925691
  56.7746402  68.1365487  36.4744465  56.3525971  67.7160530  36.9835634
  65.7033620  68.2039097  42.9154823  65.6831548  68.0222393  43.7689602
  65.7512821  69.0751116  42.8914406  65.7068261  68.3055636  43.0378117
  63.6479950  74.7926289  48.8403299  63.6075805  74.1475966  48.2548455
  64.4603268  74.7362907  49.1528711  63.7623104  74.6885256  48.8000248
  62.1780614  66.6109248  32.3626207  61.5845453  66.9326245  31.8110774
  62.2155891  65.7650344  32.1547313  62.0955003  66.5333577  32.2508978
  69.1374415  60.0622141  39.8954293  68.6305279  59.3551280  39.8275470
  69.9341848  59.7315330  40.0255370  69.1801654  59.9095292  39.9053288
  65.0538430  66.5688753  35.7927957  64.8252123  66.5921454  34.9506315
  65.3136507  65.7446220  35.9122967  65.0584618  66.4504833  35.6853154
  59.3357659  68.4223226  45.3953057  58.8236562  67.8144409  45.7538088
  59.1637155  69.1379819  45.8627033  59.2347296  68.4386525  45.5169281
  54.1823374  66.8660801  48.0455419  54.0125964  67.5262176  47.5003625
  53.7389323  67.0767363  48.7667908  54.0922707  66.9946783  48.0717048
  58.1083193  65.1065299  37.0882152  58.5840559  65.4682379  36.4532334
  57.6071793  65.7621767  37.3682295  58.1048552  65.2559488  37.0358893
  63.2126729  66.3447471  47.8355312  63.7698159  66.1161280  47.2033778
  62.8887794  67.1053136  47.5590525  63.2473139  66.4231307  47.7011810
  51.0825438  69.7707667  43.3043909  50.5352157  69.1008312  43.4224777
  51.8717816  69.4037515  43.3687376  51.1177622  69.6172653  43.3312609
  60.9309846  69.4315124  48.8007320  61.6821173  69.7466801  49.1146874
  61.1232423  69.2294295  47.9741241  61.0701261  69.4482506  48.7250715
  60.1509846  67.2506499  30.4555536  60.5308811  67.2686128  29.6706651
  59.4102442  67.6960488  30.3346384  60.0978684  67.3188274  30.3219105
  67.7795137  65.5588690  36.0431115  67.7789363  65.4037347  36.9015391
  67.5751317  66.4051677  35.9872501  67.7494914  65.6609311  36.1619054
  49.8412408  68.9828475  40.4589932  49.6634169  68.5305084  41.1844847
  49.5531430  69.7854636  40.6428409  49.7725361  69.0351033  40.5933434
  65.5035989  70.2386192  39.6967322  65.9989654  69.5209187  39.6571342
  64.6935764  69.9356990  39.5821809  65.4579882  70.0883838  39.6741048
  60.9494600  74.0884005  31.8464326  60.1405923  73.7650679  31.7997636
  61.4569509  73.3817227  31.7792575  60.9044267  73.9365322  31.8294621
  51.5784877  71.5156198  37.5711691  50.7130397  71.5041889  37.4594462
  51.6783693  71.3286421  38.4182830  51.4659044  71.4862260  37.6800635
  67.5687807  72.9889880  42.3844451  67.9942879  72.4664301  41.8314876
  67.2044727  73.5870717  41.8633074  67.5774410  73.0000107  42.2253460
  57.2041887  81.2854097  41.1441796  57.5188446  82.0990486  41.1519578
  57.6135301  80.9004316  41.8123955  57.3109985  81.3482799  41.2445888
  64.1566407  76.7024144  38.7145608  64.6277585  77.4164406  38.8835593
  64.4926585  76.1022894  39.2505478  64.2761522  76.7195608  38.8177984
  61.0735902  61.4751614  45.6703703  61.2063807  60.6782608  45.9984678
  61.4581055  62.0018017  46.2501979  61.1492231  61.4351531  45.8047206
  64.7940353  76.4942078  45.4773301  64.2461299  75.8699962  45.2093366
  65.2553382  76.6836350  44.7617380  64.7807563  76.4301128  45.3323732
  64.1468257  58.3981941  42.2684796  63.3414221  58.2879670  42.5852635
  64.0174993  58.4994396  41.4114662  64.0088390  58.3965611  42.1892837
  67.6034218  64.5627432  42.8624493  67.0197206  65.0636639  42.4502060
  67.9238512  64.0556989  42.2288816  67.5647393  64.5619267  42.7083000
  60.1429017  63.4768027  33.1383168  60.9644711  63.6466340  32.8964863
  59.6798668  63.6315288  32.4149465  60.1960179  63.5249760  32.9954812
  58.7324349  61.4710789  43.9181597  59.2768762  61.1301916  44.5085938
  58.7861284  62.3296251  44.0602881  58.8213468  61.5466049  44.0263470
  54.5454907  75.2327206  40.7920405  55.1499765  75.1923040  40.1634225
  54.3382220  76.0798358  40.8224460  54.6043805  75.3515208  40.7036521
  49.7806190  74.2161823  40.6619328  49.6830468  73.4058095  40.9709384
  50.5635059  74.1953616  40.2765596  49.8822326  74.0928913  40.6506191
  36.6332820   0.0194902  21.9065565  36.6026824   0.8739539  22.0783835
  37.2314168  -0.2809806  22.4651709  36.7169977   0.1011398  22.0140367
  29.8332504  -0.8929447  26.6618496  28.9770400  -0.7320949  26.7127612
  29.8800158  -1.7637383  26.6823557  29.7131616  -0.9978645  26.6724562
  24.2173644   8.6433271  22.4255727  23.4656544   8.2648809  22.1971772
  24.6659656   8.6751704  21.6774537  24.1723311   8.5918878  22.2813229
  33.1426221   5.3757078  36.2678952  33.8492988   4.8809109  36.3965886
  33.3314156   5.8166160  35.5381610  33.2754127   5.3675429  36.1787997
  29.6698604   9.0658640  17.8541274  29.3349972   9.7435562  17.4185496
  30.1825474   8.6763952  17.2658146  29.6964185   9.1083218  17.7028066
  29.2102895  11.0172909  23.7952386  29.5942275  11.5859808  23.2557161
  29.1462037  10.2922419  23.3158202  29.2576323  10.9948372  23.6446248
  32.6784325   1.1662597  29.3050147  33.2240285   1.8447683  29.3644117
  32.6201202   1.0250058  28.4451729  32.7500240   1.2454598  29.1862208
  25.7958400   8.6551663  24.6918500  25.8968763   7.8452017  25.0015627
  25.2000146   8.5608609  24.0618178  25.7230939   8.5216691  24.6444738
  34.4549394   2.5947204  20.1783875  34.3388920   3.3454890  20.6076013
  35.2505281   2.3371157  20.4279962  34.5553984   2.6682051  20.2787967
  25.6359140  13.5729252  26.0933356  26.2796595  14.0142416  26.4829514
  25.9615395  12.7682678  26.0063614  25.7790969  13.5194447  26.1378833
  18.9923445   4.6771949  24.3170833  18.7573629   3.8439602  24.2103102
  19.1309085   4.9576615  23.5032034  18.9779107   4.5955453  24.1813188
  26.3379720   6.5841227  21.4653217  26.6595561   7.1246434  20.8614525
  26.9851816   6.0137998  21.5975507  26.4805775   6.5800402  21.3960253
  28.3881428  -1.4142778  21.5487604  29.0861592  -1.2354651  22.0409067
  28.7033760  -1.9372439  20.9257993  28.5376765  -1.4649006  21.5289614
  21.0182665   0.3909962  29.4598710  20.8941362   0.9772407  30.0948529
  21.6700950  -0.1029843  29.7610985  21.0956314   0.4048766  29.5984639
  28.5769363   4.9727667  21.5367396  29.0162999   4.3644767  21.9822168
  28.4274026   4.5935040  20.7652861  28.6190829   4.8266138  21.4886563
  26.0441006   3.5671679  28.7386221  26.6890009   3.0744122  28.4197170
  26.2842783   3.7096465  29.5652299  26.1751591   3.5149121  28.8135754
  28.5827097   6.4126585  28.3893114  28.8650340   5.6177990  28.1679869
  29.3113258   6.8907172  28.4098175  28.7316661   6.3661181  28.3596129
  32.1778700   3.3254848  18.4898165  32.0929995   4.1815815  18.6347734
  32.6663083   3.0499172  19.1580324  32.2367597   3.4112170  18.6100246
  33.1097133  -0.0560358  19.9895900  32.5808604   0.1599276  20.6493206
  33.6322153   0.6375781  19.9096869  33.1085586   0.0782779  20.0751499
  38.5645186   5.5185947  25.3628944  37.7342889   5.7296590  25.5262361
  38.5154438   4.6923001  25.0871228  38.4351921   5.4275553  25.3466310
  20.5540769   9.5557620  25.5927039  20.0708347  10.2808110  25.5686623
  21.3664088   9.8533750  25.7037197  20.6031517   9.7059974  25.6054319
  26.6254923   8.3489801  28.1976854  26.1081865   7.9897216  27.5938162
  27.3229315   7.8251975  28.2082920  26.6520504   8.2187489  28.1107113
  30.2818515   8.7984615  34.1593027  30.3701861   8.6110755  35.0071237
  30.7108228   8.1522045  33.7597874  30.3580618   8.6747623  34.2264778
  27.8488975   8.0815775  33.1410689  27.2859810   7.6688385  33.6650350
  28.6109999   8.0068681  33.5603832  27.8783424   8.0093176  33.2803690
  23.4084967  10.0713796  25.7447319  24.1105546   9.5565785  25.8020076
  23.3282450  10.3987948  26.5494194  23.5008727  10.0428022  25.8720112
  38.0599144  -1.8343653  29.1579366  37.2227565  -1.7641465  29.3926960
  38.0287375  -1.8319158  28.2853668  37.9317426  -1.8233426  29.0638914
  24.4563873   0.3089383  34.8727734  24.6284377   0.1995278  35.7213016
  24.9933231   0.9543789  34.6358927  24.5608877   0.3881385  34.9632831
  22.7335742   6.2620148  25.2532927  23.5724641   6.4943081  25.3006689
  22.7647511   5.3924460  25.1839963  22.8617460   6.1677095  25.2497572
  23.3588445   6.6821023  29.5546233  23.8986670   6.5392154  30.2249605
  22.6758391   7.0817774  29.9230259  23.3380599   6.7200694  29.7080655
  32.7829330   2.3612024  24.7491257  33.5386845   2.7943538  24.7880166
  32.8891654   1.7116794  25.3225893  32.9099500   2.3289508  24.8389283
  35.8209501   6.1885301  25.4993660  35.3844733   6.1922044  26.2552632
  35.4872416   6.8690800  25.0673238  35.7072121   6.2897757  25.5474493
  30.3938575   8.2293634  36.8236811  31.1778991   8.3424482  37.1892553
  30.1935169   7.4034771  37.0195496  30.4804600   8.1240353  36.9071197
  18.7625590   2.9021314  29.7080654  18.4964005   2.0860431  29.8671645
  18.7764154   2.9474470  28.8376170  18.7250312   2.7878219  29.6034136
  30.5508968  10.1403736  30.4703266  29.7524214   9.9003236  30.7277135
  30.9994979  10.1918129  31.2170314  30.4983579  10.1126127  30.6188190
  38.9553847   2.9066221  24.3913297  39.6170281   2.3456890  24.2909206
  38.3145259   2.4118252  24.7165989  38.9582715   2.7502630  24.4245638
  29.8430655   6.2036353  16.6994221  30.2581803   5.8721376  16.0078716
  29.0122585   5.9705255  16.5714357  29.7818664   6.1207608  16.5785068
  19.1719004   3.6880094  26.9892399  18.9894577   3.6626980  26.1364691
  19.9068673   4.1579031  27.0281307  19.2533068   3.7541456  26.8690317
  35.2418678   3.9231604  24.1325286  35.4774267   4.0676802  23.3052137
  35.3908242   4.6874012  24.5256800  35.2984481   4.0570658  24.0688890
  22.2364755   0.4065096  33.4974507  22.9604728   0.3918127  33.9839402
  22.3380892   1.1160452  32.9996476  22.3582964   0.5089800  33.4953294
  37.0709135   2.7633269  21.9694890  37.4017352   3.2960910  21.3634985
  37.6442223   2.8172157  22.6256841  37.2042814   2.8502838  21.9772672
  29.6109705   3.8864181  38.3623454  28.8182686   4.2007693  38.5476074
  29.7258632   4.1015649  37.5244239  29.5105115   3.9648018  38.2661789
  32.2841024   0.6098172  22.6518470  32.3787878   1.3487466  23.1058096
  31.6599867   0.1815648  23.0853035  32.2050054   0.6559493  22.7826618
  30.5393498   3.7884385  33.3008751  31.1132359   3.1511629  33.4557315
  30.4608301   3.7888467  32.4318409  30.6126732   3.6949496  33.1955162
  19.1389914   0.5673594  27.1391465  19.7163417   0.4310045  27.7783711
  18.4403976   0.1109378  27.3937050  19.1210935   0.4795860  27.2713755
  25.8957216   2.2207650  25.3529948  25.6376460   1.3879385  25.3261248
  25.9505699   2.4465263  24.5122449  25.8656994   2.1305421  25.2250085
  24.8691928  -0.2254588  25.8394843  24.2941520  -0.0662419  26.4758804
  24.4927605  -0.8619179  25.3763294  24.7294741  -0.2956775  25.8649402
  28.5365217  -1.7531238  30.6987222  28.1479650  -2.1777021  30.0439413
  27.8719915  -1.5049089  31.2064248  28.3812145  -1.7792517  30.6775090
  29.6404155   2.4767366  18.8964029  30.4544794   2.7682259  18.7846800
  29.5763297   1.8227229  18.3222322  29.7506894   2.4232561  18.7952866
  35.8613645   5.1593362  33.3093604  35.6252283   4.3281427  33.1905665
  36.5056874   5.1078970  33.8948448  35.9208316   5.0291050  33.3779498
  25.5112064   5.9488884  24.0236341  26.1486010   5.7100631  24.5688134
  25.9367135   6.1526043  23.2889501  25.6688230   5.9439894  23.9953498
  20.2024706   8.1877220  27.9070644  20.2428851   8.4592071  27.0790424
  20.7619230   8.7119128  28.3228432  20.2908052   8.3052975  27.8462533
  36.8850066   4.9437811  29.3721899  36.5795883   5.6765868  29.7335214
  36.1656282   4.5375741  29.0914685  36.7337408   4.9919544  29.3835036
  27.8933535   6.4261306  25.7030127  27.9672544   6.2636478  26.5571977
  28.7103042   6.6151496  25.4590609  28.0249894   6.4298049  25.7928153
  42.5851858   1.5830812  28.6990243  42.5176358   1.6026771  27.8292830
  42.5707521   2.4261139  28.9245914  42.5730615   1.7104546  28.6042720
  26.4338121   9.3896049  20.4343600  26.7236420   8.9985031  19.7102827
  27.1641602   9.5712754  20.8748876  26.5845005   9.3589863  20.3926407
  40.3710476   0.3575198  26.9736837  40.9218397  -0.2756733  27.2133929
  40.3554591   0.8890591  27.6652342  40.4495672   0.3424146  27.1115696
  27.0232866   4.1913795  31.5196731  26.5244560   4.9029563  31.5981619
  27.8333091   4.5114462  31.4814893  27.0688973   4.3440644  31.5253299
  24.3744037  11.3663432  23.5003750  24.1544332  11.0760786  24.2930417
  24.1538559  10.7078387  22.9721662  24.3091631  11.2263140  23.5392659
  23.2860984   3.4536748  25.7659452  22.9974233   2.8274220  26.3005179
  24.1544332   3.3957036  25.8324132  23.3721236   3.3524293  25.8550406
  34.0738882  -1.4028468  26.0841434  33.7303648  -2.1238133  26.4348683
  34.1731924  -1.6114617  25.2419792  34.0380925  -1.5404265  26.0113114
  26.5411992  12.7392822  22.2834442  27.1936050  12.2069264  22.5125469
  25.8437601  12.3861474  22.6702317  26.5342710  12.6082345  22.3746610
  23.4893257   5.0931999  21.6901817  24.2439225   5.4745038  21.9037279
  22.8963870   5.5443143  22.1448513  23.5129971   5.2160827  21.7884695
  34.5351911   5.0597236  21.6265422  35.1009943   5.7190446  21.5423965
  33.8879814   5.4046934  22.0981824  34.5230667   5.2079177  21.6838178
  25.9499924  -2.9505160  36.8159029  25.1399700  -2.6447381  36.7048871
  26.4274611  -2.2299578  36.9311613  25.9003403  -2.7990559  36.8166100
  24.8091484   6.2640561  27.0641932  24.2872237   6.4040852  27.7493797
  25.1965504   5.5051225  27.2544050  24.7895185   6.1726085  27.1943009
  31.0058489   8.0036020  21.0502501  30.7645165   7.2703881  20.6429566
  31.1859822   8.5522877  20.3968834  30.9966113   7.9758411  20.8932724
  26.2357810   3.2944580  22.4623423  26.0400592   3.9019314  21.8683726
  26.4592155   2.6012524  21.9815097  26.2392451   3.2822105  22.3039504
  24.6336340   0.1799318  22.5804292  25.3558991   0.3440476  22.1208098
  24.1544332   0.9008982  22.4743631  24.6700070   0.3097547  22.4969906
  32.5929847  -3.4836884  27.9600977  31.7540948  -3.4575605  27.7239240
  32.6634214  -2.8366148  28.5406323  32.4798241  -3.3840758  28.0110093
  22.2843956   2.5857390  31.6858431  22.7965053   2.8641643  31.0367191
  21.9980299   3.3246684  32.0521244  22.3178819   2.7359744  31.6448310
  36.4687371   1.7231103  25.2462218  36.3821345   1.8786529  26.0996997
  36.0137851   2.3669179  24.8721623  36.3890628   1.8406858  25.3169325
  25.8027682  -5.3216221  31.7459473  25.6110879  -5.3061087  32.5958897
  26.6526278  -5.1252547  31.7226128  25.9003404  -5.2901870  31.8682768
  30.3413187  -0.9558150  23.8687778  30.0947901  -1.0362399  24.7024567
  30.6698310  -1.7404682  23.6750305  30.3534431  -1.0831884  23.9635301
  34.2361236   5.7525210  27.6574559  34.0975595   6.4506255  28.1623301
  33.4561234   5.5973866  27.3010741  34.1004463   5.8325376  27.6800833
  32.5739321   2.0521585  33.9096941  32.5687359   1.1801402  33.9139367
  33.2800315   2.2509754  33.4366396  32.6784325   1.9525459  33.8403976
  26.3010214   1.7798569  33.2810761  26.4453590   2.3599777  32.6453871
  26.6485863   2.1574866  33.9860615  26.3737676   1.9219273  33.2909756
  28.4730132   0.9788737  31.0635892  27.7253446   1.1719752  30.6584171
  28.6271657   0.1533957  30.8260014  28.3852559   0.8853849  30.9681298
  25.3737969   9.9701341  30.1471788  25.5227533   9.4104257  29.4945192
  26.1537971  10.0493342  30.5304307  25.5112063   9.8986906  30.1068737
  35.7314609   5.1103463  18.4191058  35.3521417   4.3240601  18.4120348
  35.0680854   5.6590320  18.2762702  35.5773083   5.0748287  18.3971855
  27.8991270  10.1415984  31.4256279  27.8234941   9.4724794  31.9807067
  27.8281129  10.8433772  31.9396945  27.8771877  10.1460891  31.5833127
  28.7131909  -5.1260712  31.9531296  29.1704523  -4.3936738  32.0804088
  28.7888237  -5.5494247  32.7118552  28.7922879  -5.0803474  32.0832373
  28.5561517   8.6616982  22.2579884  29.3211408   8.3926626  21.9362549
  28.4539607   8.1766993  22.9749947  28.6543012   8.5506547  22.3159712
  26.5914287  -3.1358608  28.7973120  25.8010361  -3.3167148  29.1190456
  26.9874909  -3.9131656  28.7803415  26.5331163  -3.2771147  28.8425669
  31.9757973   4.4983822  26.5232566  31.3002975   4.2669054  27.0245953
  31.9850349   3.8905005  25.8974671  31.8776477   4.3742747  26.5048718
  29.1052117  -0.6598349  33.2796619  29.0411258   0.2011607  33.1516756
  29.2449305  -0.9766356  32.4792170  29.1167587  -0.5798182  33.1424832
  33.9774707   7.3548954  18.7542744  34.0594545   8.1615941  18.4304195
  34.4624450   7.3744914  19.4783518  34.0611865   7.4769617  18.8129643
  27.7871211   2.0333790  27.4212822  27.3633460   2.2338289  26.6851840
  27.6116066   1.1862638  27.5337122  27.6982091   1.9382572  27.3286512
  23.0753656   2.5285842  22.8540795  23.2318275   2.4632645  23.7096787
  23.4154249   3.3034394  22.6419474  23.1486891   2.6335040  22.9495389
  29.6132800   1.9043725  21.7234158  30.1548346   1.4014106  22.1872778
  29.9279359   1.8508920  20.9123643  29.7397197   1.8223146  21.6717970
  33.4849908   6.1146373  38.8361070  34.2984773   5.8431522  38.9966202
  33.3244874   5.8153913  38.0321266  33.5819856   6.0301299  38.7406476
  27.7819250   7.2961077  19.0074186  27.8512070   6.4375615  19.1467186
  28.5607705   7.5132958  18.6793210  27.9072100   7.2013941  18.9791343
  30.7622070  -3.2019970  31.7756458  30.9764039  -3.8409056  31.2219812
  30.1455969  -2.7574146  31.3464320  30.7027399  -3.2309826  31.6306889
  32.1726738   9.7198778  23.2210679  31.7806529   9.4165493  22.5033545
  32.3279810  10.5567868  23.0315633  32.1380327   9.7982615  23.0867176
  32.9261158  -1.5930905  32.7139765  32.1137839  -1.9005015  32.7952938
  33.3851092  -2.0731905  33.2782478  32.8741543  -1.7094413  32.8094359
  32.3366412   6.2848767  23.1616710  31.9781067   6.4563410  23.9380742
  31.8505123   6.7461973  22.6044708  32.2125109   6.3787738  23.1941979
  30.0214665  -0.1870833  37.4968468  30.4914296   0.4371283  37.8836342
  30.0676545  -0.8553858  38.0561682  30.0982541  -0.1936153  37.6368539
  33.4971152   7.1752663  34.1083911  34.1350872   6.6812859  33.7746367
  32.8545243   7.1030063  33.5236137  33.4965378   7.0911672  33.9726266
  35.2228152  -0.9758191  28.6749826  34.7955760  -1.0631842  27.9197926
  34.5854205  -0.8680416  29.2604670  35.0657759  -0.9725531  28.6495268
  33.5525408   7.8672471  30.7489267  34.3417787   7.5161536  30.8691349
  33.7269006   8.6808860  30.4865901  33.6945690   7.9358328  30.7277135
  23.2918719   1.2781197  27.8017056  22.4506725   1.1785071  28.0095950
  23.5008727   2.0476677  28.1531377  23.1983411   1.3773240  27.8844371
  20.7694286  -1.0999266  25.6301807  20.3750983  -1.0256254  24.8551916
  20.2134403  -0.7141320  26.1810169  20.6297098  -1.0317491  25.5969467
  27.1035384  -0.7937404  27.0514654  26.7998521  -1.3481416  27.6525061
  26.4014804  -0.6145194  26.5642688  26.9551593  -0.8492621  27.0684359
  25.1653735   6.4212317  31.7586751  25.0574090   6.4314379  32.6248810
  25.3749516   7.2467097  31.5691705  25.1803846   6.5453392  31.8590843
  23.1827527   3.6724959  29.2208689  22.5915460   4.3134458  29.1911704
  23.9448550   4.0962577  29.1939989  23.2075787   3.8300798  29.2123836
  25.2271499  -4.5006348  34.4548734  24.8357064  -5.1473001  34.8904512
  25.3957362  -3.9094913  35.0742989  25.1942410  -4.5092080  34.6111440
  39.3017948   3.5030729  30.2185967  39.3601072   3.9517378  30.9645944
  38.6684416   3.9129542  29.7816047  39.2169243   3.6304464  30.2638516
  32.9417043   9.1234271  26.6540713  32.7436732   9.6125085  25.9596925
  32.3204754   9.3275512  27.2324847  32.8204607   9.2250809  26.6363937
  27.0025021   0.8919168  20.9950958  27.7467066   1.2793444  21.2333908
  27.1485717   0.0476593  21.1591446  27.1335606   0.8249641  21.0544927
  29.9902897  -3.5355359  26.8944877  29.5162851  -4.0613597  27.4050188
  30.3621033  -4.0825886  26.3259739  29.9752786  -3.6939362  26.8860024
  36.2539628   1.5247017  28.3051658  36.0137851   0.6853432  28.3094084
  36.7331635   1.6047183  29.0292431  36.2891811   1.4128416  28.4126460
  38.2544815  -1.6951526  26.2580917  38.0154585  -1.7355692  25.4201701
  38.4178716  -0.8480374  26.3846638  38.2435118  -1.5759441  26.1534399
  34.8590845   2.6898423  32.1885962  35.5825044   2.2370950  32.0096982
  34.5940807   2.9703089  31.4058290  34.9272118   2.6649392  32.0464677
  23.7277713  -2.7141403  28.9238841  23.1030783  -2.7023011  28.3164794
  23.3923308  -2.2381228  29.5730081  23.5863205  -2.6422886  28.9295410
  20.4403389   5.3459057  30.3642605  19.9103313   4.6551496  30.4137580
  20.7128482   5.3369242  29.5355314  20.4028111   5.2426189  30.2490021
  31.4723479   5.9284759  19.0880288  32.1957678   6.3942872  18.9444861
  31.0324070   5.9958369  18.3377885  31.5139171   6.0068596  18.9565069
  30.6409634   2.7882301  30.3380977  30.0266627   2.2440352  30.6329612
  31.1576919   2.2746538  29.8586793  30.6265297   2.6318710  30.3105205
  29.8805931   3.8586571  28.0725276  29.4533540   3.2336290  27.6390711
  29.8730876   3.5761493  28.8984283  29.8165073   3.7239352  28.1305103
  22.9968459  -1.1048255  31.1413710  23.1561945  -1.8604931  31.5465431
  22.8161352  -0.5557316  31.7954447  22.9933818  -1.1354442  31.2976416
  28.2091641  -5.2644674  28.2867810  28.2334128  -5.7984562  27.5980590
  28.4603115  -5.7727365  28.9493400  28.2501560  -5.4183770  28.2832454
  15.7199231   2.0186821  27.7210954  15.6142680   1.9733665  26.8563038
  14.9699451   2.3640602  28.0025239  15.5934834   2.0627729  27.6348283
  26.6722576   3.0286884  35.7693848  25.8218207   3.1658599  35.9051493
  26.8350704   2.2950662  36.2141550  26.5706440   2.9400985  35.8549448
  25.9107327  -0.0213346  29.9647453  25.0799256   0.1460472  29.7582701
  25.8558844  -0.3977395  30.7496338  25.7796742  -0.0523615  30.0495981
  37.2926159   1.6524834  30.6916512  37.8843999   2.2922085  30.7234710
  37.7285153   0.9547871  30.9808578  37.4444590   1.6443184  30.7397344
  29.1219549   6.0742206  31.3174406  28.6144640   6.6278053  31.7615036
  28.8246195   6.1350496  30.4993180  29.0024434   6.1648518  31.2622862
  31.7327329   9.9905464  19.2478349  31.0156639   9.8166326  18.7825586
  32.3834067   9.7558036  18.7153835  31.7229179   9.9301257  19.1007567
  34.3175300  -1.1329947  22.9919654  33.6466490  -0.5900245  22.8632720
  35.0115050  -0.6635092  22.7501349  34.3204168  -0.9831676  22.9375182
  28.3662034  11.0066765  28.2231412  28.1427688  10.2485594  28.5915439
  27.8771877  11.0364786  27.5011852  28.2605483  10.8988989  28.1708153
  23.1787113  -2.0466544  23.9592874  22.4599102  -1.6302411  24.2265737
  23.5499475  -1.4812305  23.4084512  23.1279044  -1.9017263  23.9175681
  32.4786693  -1.4138695  29.8494870  32.4584621  -1.5955400  30.7029648
  32.5265894  -0.5426677  29.8254453  32.4821334  -1.3122157  29.9718164
  30.4233023   5.1748497  35.7743346  30.3828878   4.5298174  35.1888502
  31.2356342   5.1185114  36.0868758  30.5376177   5.0707464  35.7340295
  27.0140491  11.2267223  25.6768497  26.6000889  10.5641353  25.2872339
  27.6987865  11.3745082  25.1564191  27.0538863  11.1507881  25.5424994
  30.3805785  10.3857308  26.4292114  29.9822068  10.4959578  25.6612934
  29.7657005  10.5939374  27.0118673  30.2304674  10.4330876  26.4023413
  31.8291504  -3.0489040  22.7268004  31.6005197  -3.0256338  21.8846362
  32.0889580  -3.8731573  22.8463014  31.8337692  -3.1672960  22.6193201
  26.1110732  -1.1954567  32.3293104  25.5989635  -1.8033384  32.6878135
  25.9390228  -0.4797974  32.7967080  26.0100369  -1.1791267  32.4509327
  24.8836266  -4.5112493  24.0222199  25.3593632  -4.1495413  23.3872380
  24.3824866  -3.8556026  24.3022342  24.8801625  -4.3618305  23.9698940
  38.1147628   4.9609275  19.8135204  38.4981233   5.7100631  20.0433301
  37.3191741   5.2075094  19.5547193  38.0541410   5.1078969  19.8092778
  29.9879802  -3.2730322  34.7695359  30.5451233  -3.5016512  34.1373825
  29.6640867  -2.5124656  34.4930572  30.0226213  -3.1946485  34.6351856
  27.7062920  -0.1862669  35.7347366  28.4574247   0.1289008  36.0486921
  27.8985496  -0.3883498  34.9081288  27.8454334  -0.1695287  35.6590762
  32.2789062   0.6208399  26.6307369  32.7742727  -0.0968605  26.5911389
  31.4688838   0.3179197  26.5161856  32.2332955   0.4706046  26.6081095
  27.7247673   4.4706213  18.7804373  26.9158996   4.1472886  18.7337683
  28.2322582   3.7639435  18.7132622  27.6797340   4.3187529  18.7634668
  18.3537951   1.8978406  24.5051737  17.4883470   1.8864096  24.3934509
  18.4536766   1.7108629  25.3522877  18.2412118   1.8684467  24.6140682
  34.3440881   3.3712087  29.3184497  34.7695952   2.8486509  28.7654923
  33.9797801   3.9692924  28.7973120  34.3527483   3.3822314  29.1593507
  23.9794960  11.6676304  28.0781843  24.2941519  12.4812693  28.0859625
  24.3888374  11.2826523  28.7464002  24.0863058  11.7305007  28.1785935
  30.9319480   7.0846351  25.6485655  31.4030658   7.7986614  25.8175640
  31.2679659   6.4845101  26.1845524  31.0514595   7.1017816  25.7518031
  33.0196465   8.6947665  37.8277727  33.1293430   7.9056225  38.1834474
  33.3487361   8.6053601  37.0252065  33.0848871   8.5653518  37.7620118
  31.5693426   6.8764285  32.4113348  31.0214372   6.2522169  32.1433413
  32.0306455   7.0658557  31.6957427  31.5560636   6.8123336  32.2663779
  21.3207981   5.6149413  27.7260451  21.9252838   5.5745247  27.0974272
  21.1135293   6.4620565  27.7564507  21.3796878   5.7337415  27.6376568
  31.1351753   7.8815358  28.9422689  31.9550127   7.7378324  29.2038984
  30.8545830   8.5061557  29.4839127  31.2148496   7.9525710  29.0610628
  16.5559263   4.5984030  27.5959375  16.4583541   3.7880302  27.9049431
  17.3388133   4.5775824  27.2105643  16.6575399   4.4751121  27.5846237
  47.6065403  15.5380210  21.9065565  47.5759407  16.3924846  22.0783835
  48.2046752  15.2375502  22.4651709  47.6902561  15.6196706  22.0140367
  40.8065088  14.6255861  26.6618496  39.9502983  14.7864359  26.7127612
  40.8532742  13.7547925  26.6823557  40.6864199  14.5206663  26.6724562
  40.6431188  24.5843948  17.8541274  40.3082556  25.2620870  17.4185496
  41.1558058  24.1949259  17.2658146  40.6696769  24.6268526  17.7028066
  43.6516909  16.6847905  29.3050147  44.1972869  17.3632991  29.3644117
  43.5933785  16.5435366  28.4451729  43.7232823  16.7639906  29.1862208
  45.4281978  18.1132512  20.1783875  45.3121504  18.8640198  20.6076013
  46.2237864  17.8556465  20.4279962  45.5286567  18.1867359  20.2787967
  29.9656028  20.1957257  24.3170833  29.7306213  19.3624910  24.2103102
  30.1041669  20.4761923  23.5032034  29.9511691  20.1140761  24.1813188
  32.2646116  12.3642988  27.2155141  31.6451147  11.7735635  27.0465156
  32.1629979  12.9554423  26.5819464  32.1583791  12.3647070  27.0960131
  37.3112303  22.1026535  21.4653217  37.6328144  22.6431742  20.8614525
  37.9584400  21.5323306  21.5975507  37.4538358  22.0985710  21.3960253
  39.3614011  14.1042530  21.5487604  40.0594176  14.2830657  22.0409067
  39.6766344  13.5812869  20.9257993  39.5109348  14.0536302  21.5289614
  31.9915249  15.9095270  29.4598710  31.8673945  16.4957715  30.0948529
  32.6433533  15.4155465  29.7610985  32.0688898  15.9234074  29.5984639
  39.5501947  20.4912975  21.5367396  39.9895582  19.8830075  21.9822168
  39.4006609  20.1120348  20.7652861  39.5923412  20.3451446  21.4886563
  37.0173590  19.0856987  28.7386221  37.6622592  18.5929430  28.4197170
  37.2575367  19.2281773  29.5652299  37.1484175  19.0334429  28.8135754
  39.5559681  21.9311892  28.3893114  39.8382924  21.1363298  28.1679869
  40.2845841  22.4092480  28.4098175  39.7049245  21.8846489  28.3596129
  37.5340875   9.4734926  25.6308879  37.2044205   9.9246070  24.9612577
  36.8585877   9.3951090  26.1781885  37.3851311   9.5286062  25.6132102
  43.1511283  18.8440156  18.4898165  43.0662578  19.7001123  18.6347734
  43.6395666  18.5684480  19.1580324  43.2100180  18.9297478  18.6100246
  44.7417283   5.4620449  23.8758489  44.4270724   6.1523928  24.3078912
  44.2244224   5.4065232  23.1743990  44.6181753   5.5555338  23.8355439
  44.0829716  15.4624950  19.9895900  43.5541188  15.6784584  20.6493206
  44.6054736  16.1561089  19.9096869  44.0818169  15.5968087  20.0751499
  49.5377769  21.0371255  25.3628944  48.7075472  21.2481898  25.5262361
  49.4887022  20.2108309  25.0871228  49.4084505  20.9460861  25.3466310
  35.9729324  19.3588167  18.7903368  35.3886539  19.8638198  19.1969232
  35.5699419  19.1330554  18.0499960  35.8268628  19.3996415  18.7408393
  31.5273353  25.0742928  25.5927039  31.0440931  25.7993418  25.5686623
  32.3396671  25.3719058  25.7037197  31.5764101  25.2245282  25.6054319
  40.4306539  15.6053819  17.2672289  40.6702542  15.8131803  16.4547632
  40.7522380  14.8011328  17.3761233  40.5143697  15.5167920  17.1632842
  35.7396829   7.5347215  21.1131826  36.4942797   7.9025532  20.8748877
  35.5624363   7.9086769  21.8811006  35.8251307   7.6445403  21.1916715
  49.0331728  13.6841655  29.1579366  48.1960149  13.7543842  29.3926960
  49.0019959  13.6866150  28.2853668  48.9050010  13.6951882  29.0638914
  35.4296457  15.8274691  34.8727734  35.6016960  15.7180586  35.7213016
  35.9665814  16.4729096  34.6358927  35.5341461  15.9066693  34.9632831
  34.0953894   9.9417534  17.8109939  33.9129467  10.1589415  16.9850932
  34.9579507  10.0556547  17.8668554  34.1958483   9.9907432  17.6964426
  33.7068326  21.7805456  25.2532927  34.5457225  22.0128389  25.3006689
  33.7380095  20.9109767  25.1839963  33.8350043  21.6862403  25.2497572
  39.7753613   6.9443945  20.8458963  40.5039773   6.7659899  20.3997120
  39.8648506   7.7862024  21.0566141  39.8960275   7.0427823  20.8112481
  43.7561913  17.8797332  24.7491257  44.5119428  18.3128846  24.7880166
  43.8624238  17.2302102  25.3225893  43.8832084  17.8474816  24.8389283
  46.7942085  21.7070609  25.4993660  46.3577316  21.7107352  26.2552632
  46.4605000  22.3876108  25.0673238  46.6804704  21.8083065  25.5474493
  29.7358174  18.4206622  29.7080654  29.4696589  17.6045739  29.8671645
  29.7496738  18.4659778  28.8376170  29.6982896  18.3063527  29.6034136
  46.7139567   8.7484437  27.7423088  47.3565476   8.8182542  28.3285003
  46.9662588   8.0813660  27.2402630  46.8461700   8.6610786  27.7550367
  33.6415921  13.2191706  16.3232413  32.9274098  12.9329886  16.7354845
  34.1259889  13.5588332  16.9638800  33.6075284  13.2273356  16.4788047
  34.4856780  11.9585000  32.3547662  33.7928577  11.4881980  32.6008394
  35.1017107  11.7323305  32.9289369  34.4741310  11.8552132  32.4756815
  49.9286431  18.4251529  24.3913297  50.5902865  17.8642198  24.2909206
  49.2877843  17.9303560  24.7165989  49.9315298  18.2687938  24.4245638
  40.8163238  21.7221660  16.6994221  41.2314387  21.3906684  16.0078716
  39.9855168  21.4890563  16.5714357  40.7551247  21.6392916  16.5785068
  30.1451587  19.2065401  26.9892399  29.9627160  19.1812287  26.1364691
  30.8801256  19.6764339  27.0281307  30.2265651  19.2726764  26.8690317
  46.2151261  19.4416911  24.1325286  46.4506851  19.5862110  23.3052137
  46.3640825  20.2059319  24.5256800  46.2717065  19.5755966  24.0688890
  48.0441718  18.2818577  21.9694890  48.3749935  18.8146218  21.3634985
  48.6174806  18.3357465  22.6256841  48.1775397  18.3688146  21.9772672
  43.2573607  16.1283480  22.6518470  43.3520462  16.8672774  23.1058096
  42.6332451  15.7000956  23.0853035  43.1782637  16.1744801  22.7826618
  41.5126081  19.3069693  33.3008751  42.0864943  18.6696937  33.4557315
  41.4340885  19.3073775  32.4318409  41.5859316  19.2134804  33.1955162
  30.1122498  16.0858902  27.1391465  30.6896000  15.9495353  27.7783711
  29.4136559  15.6294686  27.3937050  30.0943519  15.9981168  27.2713755
  43.5096629  17.9732220  15.8855422  43.4276791  18.0434407  16.7510409
  44.1476349  18.5361964  15.6939163  43.5916466  18.0671191  15.9845372
  36.8689800  17.7392958  25.3529948  36.6109044  16.9064693  25.3261248
  36.9238283  17.9650571  24.5122449  36.8389578  17.6490729  25.2250085
  41.9490850   9.8421409  25.4534041  41.2447177   9.3530594  25.6117960
  41.9975824   9.8543883  24.5822486  41.8520901   9.7711056  25.3473381
  35.8424512  15.2930720  25.8394843  35.2674103  15.4522889  26.4758804
  35.4660188  14.6566129  25.3763294  35.7027324  15.2228533  25.8649402
  39.5097801  13.7654070  30.6987222  39.1212233  13.3408287  30.0439413
  38.8452499  14.0136219  31.2064248  39.3544728  13.7392791  30.6775090
  49.1521070  13.5229074  23.4735052  48.8957635  12.7109016  23.2832934
  49.9950384  13.5306641  23.2465239  49.2387095  13.4041072  23.4119869
  25.5881331  14.9370795  23.8539284  25.6741583  14.5602663  24.6352814
  26.2157128  14.5631241  23.3759242  25.6937882  14.8256277  23.8984761
  43.3324162   7.4628698  28.2111206  43.7134674   6.7806869  28.5979080
  42.5287446   7.1738300  28.0286870  43.2700624   7.3195747  28.2415262
  40.6136739  17.9952674  18.8964029  41.4277378  18.2867567  18.7846800
  40.5495880  17.3412537  18.3222322  40.7239478  17.9417869  18.7952866
  46.8346229  20.6778670  33.3093604  46.5984866  19.8466735  33.1905665
  47.4789458  20.6264277  33.8948448  46.8940900  20.5476358  33.3779498
  36.4844647  21.4674192  24.0236341  37.1218594  21.2285939  24.5688134
  36.9099719  21.6711351  23.2889501  36.6420813  21.4625202  23.9953498
  31.1757289  23.7062528  27.9070644  31.2161435  23.9777379  27.0790424
  31.7351814  24.2304436  28.3228432  31.2640635  23.8238283  27.8462533
  37.1247462  16.6876481  18.3611230  37.5092615  16.4684188  19.1127775
  36.8759082  17.5139427  18.4912306  37.1449535  16.7774628  18.4912307
  37.2916003   9.9682897  38.0773814  36.9769444  10.7382459  37.8143377
  36.9705935   9.4053153  37.4926041  37.1974922   9.9993165  37.9515164
  47.8582650  20.4623119  29.3721899  47.5528467  21.1951176  29.7335214
  47.1388865  20.0561049  29.0914685  47.7069992  20.5104852  29.3835036
  38.8666119  21.9446614  25.7030127  38.9405127  21.7821786  26.5571977
  39.6835625  22.1336804  25.4590609  38.9982478  21.9483357  25.7928153
  53.5584442  17.1016120  28.6990243  53.4908942  17.1212079  27.8292830
  53.5440104  17.9446447  28.9245914  53.5463198  17.2289854  28.6042720
  32.6271876  22.2904477  22.7324570  31.8009993  22.5366214  22.6058849
  32.6883867  22.2116558  23.5986629  32.5146043  22.3149426  22.8413515
  34.8447899   8.3573418  23.6920011  33.9770325   8.4296018  23.7577620
  35.1323104   9.1595497  23.8807986  34.7587648   8.4867565  23.7294777
  43.9680788   8.5051277  32.0231332  44.7134380   8.3161088  31.6094758
  43.5518093   9.0309515  31.4645189  44.0165762   8.5553423  31.8795906
  37.4070705  24.9081357  20.4343600  37.6969003  24.5170339  19.7102827
  38.1374186  25.0898062  20.8748876  37.5577589  24.8775171  20.3926407
  51.3443059  15.8760506  26.9736837  51.8950981  15.2428575  27.2133929
  51.3287174  16.4075899  27.6652342  51.4228255  15.8609454  27.1115696
  37.9965450  19.7099103  31.5196731  37.4977144  20.4214871  31.5981619
  38.8065674  20.0299770  31.4814893  38.0421557  19.8625952  31.5253299
  34.2593568  18.9722056  25.7659452  33.9706816  18.3459527  26.3005179
  35.1276916  18.9142344  25.8324132  34.3453819  18.8709600  25.8550406
  45.0471465  14.1156840  26.0841434  44.7036231  13.3947175  26.4348683
  45.1464508  13.9070691  25.2419792  45.0113508  13.9781043  26.0113114
  34.4625841  20.6117307  21.6901817  35.2171809  20.9930346  21.9037279
  33.8696454  21.0628451  22.1448513  34.4862554  20.7346135  21.7884695
  45.5084494  20.5782544  21.6265422  46.0742527  21.2375754  21.5423965
  44.8612398  20.9232242  22.0981824  45.4963251  20.7264485  21.6838178
  36.9232508  12.5680148  36.8159029  36.1132284  12.8737927  36.7048871
  37.4007195  13.2885730  36.9311613  36.8735987  12.7194749  36.8166100
  35.7824068  21.7825869  27.0641932  35.2604821  21.9226160  27.7493797
  36.1698088  21.0236533  27.2544050  35.7627768  21.6911392  27.1943009
  32.7715252  11.8331677  21.1336887  32.4840047  11.4632948  20.3968834
  33.4585720  12.3026533  20.8720592  32.8304149  11.8478647  20.9851963
  41.9791072  23.5221328  21.0502501  41.7377748  22.7889189  20.6429566
  42.1592405  24.0708185  20.3968834  41.9698696  23.4943719  20.8932724
  37.2090393  18.8129888  22.4623423  37.0133176  19.4204622  21.8683726
  37.4324739  18.1197832  21.9815097  37.2125034  18.8007413  22.3039504
  35.6068923  15.6984626  22.5804292  36.3291575  15.8625784  22.1208098
  35.1276916  16.4194290  22.4743631  35.6432654  15.8282855  22.4969906
  43.5662431  12.0348424  27.9600977  42.7273531  12.0609703  27.7239240
  43.6366798  12.6819160  28.5406323  43.4530824  12.1344550  28.0110093
  42.0131709   8.9333801  22.6928592  42.7158062   8.7341550  22.2148551
  41.7475898   8.1609744  22.9997436  42.0778341   8.7896767  22.6674034
  47.4419955  17.2416411  25.2462218  47.3553929  17.3971837  26.0996997
  46.9870434  17.8854487  24.8721623  47.3623211  17.3592166  25.3169325
  30.3443446  12.6112890  21.9822168  30.4459583  13.4139051  22.3103143
  31.1399333  12.4100226  21.6845248  30.4771352  12.6998789  21.9857523
  36.7760265  10.1969087  31.7459473  36.5843462  10.2124221  32.5958897
  37.6258861  10.3932761  31.7226128  36.8735987  10.2283438  31.8682768
  31.1607178  12.7260068  29.7243289  31.0192670  11.8744009  29.8487797
  31.4447742  12.7688729  28.9005496  31.1815024  12.6059818  29.6210914
  41.3145771  14.5627158  23.8687778  41.0680485  14.4822909  24.7024567
  41.6430894  13.7780626  23.6750305  41.3267014  14.4353424  23.9635301
  45.2093819  21.2710518  27.6574559  45.0708179  21.9691563  28.1623301
  44.4293817  21.1159174  27.3010741  45.0737046  21.3510684  27.6800833
  43.5471905  17.5706893  33.9096941  43.5419943  16.6986709  33.9139367
  44.2532898  17.7695062  33.4366396  43.6516909  17.4710767  33.8403976
  37.2742798  17.2983877  33.2810761  37.4186174  17.8785085  32.6453871
  37.6218446  17.6760174  33.9860615  37.3470259  17.4404581  33.2909756
  39.4462715  16.4974045  31.0635892  38.6986029  16.6905060  30.6584171
  39.6004240  15.6719265  30.8260014  39.3585143  16.4039157  30.9681298
  46.7047192  20.6288771  18.4191058  46.3254001  19.8425909  18.4120348
  46.0413438  21.1775628  18.2762702  46.5505667  20.5933595  18.3971855
  39.6864492  10.3924596  31.9531296  40.1437106  11.1248570  32.0804088
  39.7620821   9.9691061  32.7118552  39.7655462  10.4381834  32.0832373
  31.9297483  10.6390416  33.0420740  31.3939673  10.0270774  33.3581507
  31.9915248  11.2138552  33.6954407  31.8593116  10.6337343  33.1856167
  44.1591818   3.5714471  25.8225139  44.2775386   4.0290934  25.0892442
  43.9853994   2.7659732  25.5361357  44.1510989   3.5208243  25.6726073
  39.5294100  24.1802290  22.2579884  40.2943992  23.9111934  21.9362549
  39.4272190  23.6952301  22.9749947  39.6275596  24.0691855  22.3159712
  37.5646870  12.3826700  28.7973120  36.7742945  12.2018160  29.1190456
  37.9607493  11.6053652  28.7803415  37.5063746  12.2414161  28.8425669
  42.0512761  21.2114474  14.2379834  42.8185746  21.2714599  13.8285686
  41.6044070  20.6394916  13.7536152  42.0986188  21.1351050  14.1057544
  42.9490556  20.0169130  26.5232566  42.2735558  19.7854362  27.0245953
  42.9582933  19.4090313  25.8974671  42.8509061  19.8928055  26.5048718
  40.0784700  14.8586959  33.2796619  40.0143842  15.7196915  33.1516756
  40.2181888  14.5418952  32.4792170  40.0900171  14.9387126  33.1424832
  44.9507291  22.8734262  18.7542744  45.0327128  23.6801249  18.4304195
  45.4357033  22.8930222  19.4783518  45.0344449  22.9954925  18.8129643
  38.7603794  17.5519098  27.4212822  38.3366043  17.7523597  26.6851840
  38.5848650  16.7047946  27.5337122  38.6714675  17.4567880  27.3286512
  34.0486239  18.0471150  22.8540795  34.2050858  17.9817953  23.7096787
  34.3886832  18.8219702  22.6419474  34.1219474  18.1520348  22.9495389
  40.5865384  17.4229033  21.7234158  41.1280929  16.9199414  22.1872778
  40.9011943  17.3694228  20.9123643  40.7129781  17.3408454  21.6717970
  38.7551834  22.8146385  19.0074186  38.8244654  21.9560923  19.1467186
  39.5340289  23.0318266  18.6793210  38.8804684  22.7199249  18.9791343
  41.7354653  12.3165338  31.7756458  41.9496623  11.6776252  31.2219812
  41.1188552  12.7611162  31.3464320  41.6759983  12.2875482  31.6306889
  43.1459321  25.2384086  23.2210679  42.7539113  24.9350801  22.5033545
  43.3012393  26.0753176  23.0315633  43.1112911  25.3167923  23.0867176
  30.6220501  15.2306100  23.1701562  31.0019466  15.6490645  22.5061829
  30.0475866  15.8119556  23.4770405  30.5931826  15.3783959  23.1178303
  43.8993741  13.9254403  32.7139765  43.0870423  13.6180293  32.7952938
  44.3583676  13.4453403  33.2782478  43.8474126  13.8090895  32.8094359
  43.3098996  21.8034075  23.1616710  42.9513651  21.9748718  23.9380742
  42.8237707  22.2647281  22.6044708  43.1857693  21.8973046  23.1941979
  41.1269382   5.4265273  26.7643801  40.2562940   5.4003995  26.7177111
  41.3809723   5.2542466  25.9469647  41.0362942   5.3975417  26.6363938
  38.0987361  17.4833240  15.7016944  38.3879886  18.2598123  15.9760518
  38.1859160  16.9721972  16.4031443  38.1541618  17.5225159  15.8459442
  40.9947249  15.3314474  37.4968468  41.4646880  15.9556591  37.8836342
  41.0409129  14.6631450  38.0561682  41.0715125  15.3249155  37.6368539
  38.1518522   7.4371502  28.2217271  37.6357011   6.7451693  28.3468850
  37.5912451   8.1042279  28.1679870  37.9925036   7.4334760  28.2323337
  40.2210756   7.9764462  30.0510124  39.8342509   8.0013493  30.8323654
  39.7343693   7.4106141  29.5984641  40.0923265   7.8960213  30.0998028
  46.1960735  14.5427117  28.6749826  45.7688344  14.4553465  27.9197926
  45.5586788  14.6504892  29.2604670  46.0390343  14.5459777  28.6495268
  39.8867898   4.8631447  32.3420384  40.5161016   5.3991747  32.0641454
  40.0553760   4.7708806  33.1933950  40.0045692   4.9292810  32.4268912
  39.6881813   9.6502642  34.6146795  40.5155242   9.3787791  34.6705410
  39.7089659  10.4463484  34.9710614  39.8134663   9.7282396  34.6761978
  44.5257992  23.3857779  30.7489267  45.3150370  23.0346844  30.8691349
  44.7001590  24.1994168  30.4865901  44.6678274  23.4543636  30.7277135
  34.2651302  16.7966505  27.8017056  33.4239309  16.6970379  28.0095950
  34.4741310  17.5661985  28.1531377  34.1715995  16.8958548  27.8844371
  31.7426869  14.4186042  25.6301807  31.3483567  14.4929054  24.8551916
  31.1866986  14.8043988  26.1810169  31.6029682  14.4867817  25.5969467
  43.3791816   7.3967336  25.3105686  43.5841409   7.3289644  26.1562683
  43.0518240   8.2026157  25.2426863  43.3607064   7.5053276  25.4265341
  38.0767967  14.7247904  27.0514654  37.7731105  14.1703892  27.6525061
  37.3747388  14.9040114  26.5642688  37.9284177  14.6692686  27.0684359
  37.1334064  12.0348424  21.6159356  37.4093799  11.3167336  21.2036923
  37.7332734  12.6333344  21.4080462  37.2627329  12.0168795  21.5240117
  46.6325504   7.9499100  24.7908451  46.0199817   8.4369502  25.1762183
  46.7289679   7.2742591  25.3346102  46.5563401   7.9217409  24.9287309
  40.6344585   9.7061941  19.8905951  41.0888331   9.8772502  20.6153795
  41.1084631   9.0930052  19.4903726  40.7712905   9.6412827  19.9379712
  34.1560110  19.1910267  29.2208689  33.5648043  19.8319765  29.1911704
  34.9181134  19.6147885  29.1939989  34.1808371  19.3486106  29.2123836
  34.5520733  10.3512265  29.8876707  35.0122215  10.4251194  30.6251830
  34.5976840  11.1493519  29.5376528  34.6271288  10.4806412  29.9449463
  36.2004083  11.0178960  34.4548734  35.8089648  10.3712307  34.8904512
  36.3689946  11.6090395  35.0742989  36.1674993  11.0093228  34.6111440
  50.2750532  19.0216037  30.2185967  50.3333655  19.4702686  30.9645944
  49.6416999  19.4314850  29.7816047  50.1901827  19.1489772  30.2638516
  43.9149626  24.6419579  26.6540713  43.7169315  25.1310393  25.9596925
  43.2937338  24.8460820  27.2324847  43.7937191  24.7436117  26.6363937
  37.9757605  16.4104476  20.9950958  38.7199650  16.7978752  21.2333908
  38.1218301  15.5661901  21.1591446  38.1068190  16.3434948  21.0544927
  39.8937180   8.2054735  26.0282819  39.0473225   8.3777542  25.9024169
  39.8908313   7.4004078  26.3648648  39.7684330   8.1115764  26.0593946
  40.9635481  11.9829949  26.8944877  40.4895435  11.4571711  27.4050188
  41.3353616  11.4359422  26.3259739  40.9485370  11.8245946  26.8860024
  47.2272211  17.0432325  28.3051658  46.9870434  16.2038740  28.3094084
  47.7064218  17.1232491  29.0292431  47.2624395  16.9313724  28.4126460
  42.8918980  12.8766504  19.9570631  42.3641999  12.9595248  19.2676340
  43.3514688  13.6184375  19.9535276  42.8820831  12.9987166  19.8545326
  49.2277398  13.8233782  26.2580917  48.9887168  13.7829616  25.4201701
  49.3911300  14.6704934  26.3846638  49.2167702  13.9425867  26.1534399
  45.8323428  18.2083731  32.1885962  46.5557627  17.7556258  32.0096982
  45.5673391  18.4888397  31.4058290  45.9004702  18.1834700  32.0464677
  34.7010297  12.8043905  28.9238841  34.0763367  12.8162297  28.3164794
  34.3655892  13.2804080  29.5730081  34.5595789  12.8762422  28.9295410
  34.8852045  11.1469023  14.9811526  34.5364850  11.7988748  15.4443075
  34.4048491  11.1326136  14.2535397  34.7622289  11.2412077  14.9422617
  42.4456063  21.4470067  19.0880288  43.1690262  21.9128180  18.9444861
  42.0056654  21.5143677  18.3377885  42.4871755  21.5253904  18.9565069
  41.6142218  18.3067609  30.3380977  40.9999211  17.7625660  30.6329612
  42.1309503  17.7931846  29.8586793  41.5997880  18.1504018  30.3105205
  40.8538515  19.3771879  28.0725276  40.4266123  18.7521598  27.6390711
  40.8463459  19.0946801  28.8984283  40.7897656  19.2424660  28.1305103
  33.9701042  14.4137052  31.1413710  34.1294529  13.6580377  31.5465431
  33.7893936  14.9627992  31.7954447  33.9666401  14.3830866  31.2976416
  41.9121345   6.5798288  31.6964499  41.4161906   6.7761962  31.0056066
  42.6690407   6.9790956  31.5253301  41.9508170   6.6676022  31.5684636
  39.1824225  10.2540634  28.2867810  39.2066712   9.7200746  27.5980590
  39.4335698   9.7457943  28.9493400  39.2234143  10.1001538  28.2832454
  26.6931815  17.5372129  27.7210954  26.5875264  17.4918973  26.8563038
  25.9432035  17.8825909  28.0025239  26.5667418  17.5813037  27.6348283
  35.4625547   8.9811452  27.6673554  35.5023919   9.4820659  28.3808261
  34.6375212   9.0721846  27.3979477  35.3465073   9.0693269  27.7324092
  37.6455160  18.5472192  35.7693848  36.7950790  18.6843906  35.9051493
  37.8083288  17.8135970  36.2141550  37.5439023  18.4586293  35.8549448
  36.8839910  15.4971962  29.9647453  36.0531840  15.6645780  29.7582701
  36.8291428  15.1207913  30.7496338  36.7529325  15.4661693  30.0495981
  34.6923694   8.9880855  35.6003864  35.3176397   8.4442988  35.8733296
  34.2374174   8.5075773  35.0311654  34.7171954   8.8370336  35.5565457
  35.2575954  13.7727554  20.4937571  35.3978915  14.2700018  21.1966212
  35.7558487  13.0713848  20.6351784  35.3517035  13.7429532  20.6189150
  35.2876177  14.6394665  17.8230147  35.9221256  15.2355090  17.7579609
  35.3701787  14.3398122  18.6376018  35.3932728  14.6835573  17.9333234
  48.2658742  17.1710142  30.6916512  48.8576583  17.8107393  30.7234710
  48.7017737  16.4733179  30.9808578  48.4177174  17.1628492  30.7397344
  36.8655159  10.5708640  17.7975589  37.1871001  10.0911723  17.1434852
  37.1282103  11.3808286  17.6066401  36.9521185  10.6198538  17.6731081
  42.2614314   9.9580834  30.1599069  42.6869386   9.5053360  29.5482595
  41.6471308   9.4040905  30.4363856  42.2342960   9.8094810  30.1104094
  31.7929164  16.8362505  21.0919693  32.3021394  17.4327013  21.4730999
  32.2663437  16.5688479  20.4096113  31.9372540  16.8848321  21.0474216
  42.7059913  25.5090772  19.2478349  41.9889222  25.3351634  18.7825586
  43.3566650  25.2743344  18.7153835  42.6961763  25.4486565  19.1007567
  40.7008537   6.4295934  23.5689646  40.0576855   6.2793580  24.1374784
  40.3607944   6.1838279  22.8038750  40.5553615   6.3708056  23.5392661
  45.2907884  14.3855361  22.9919654  44.6199074  14.9285063  22.8632720
  45.9847634  14.8550216  22.7501349  45.2936751  14.5353632  22.9375182
  39.3394617  26.5252073  28.2231412  39.1160272  25.7670902  28.5915439
  38.8504461  26.5550094  27.5011852  39.2338067  26.4174297  28.1708153
  45.4536011  10.8411244  25.9010027  45.8063621  10.4140967  26.5755826
  44.5950813  10.7562088  26.0311104  45.3785456  10.7655985  26.0205038
  34.1519696  13.4718764  23.9592874  33.4331685  13.8882896  24.2265737
  34.5232058  14.0373003  23.4084512  34.1011628  13.6168045  23.9175681
  43.4519277  14.1046613  29.8494870  43.4317204  13.9229908  30.7029648
  43.4998478  14.9758631  29.8254453  43.4553918  14.2063151  29.9718164
  41.3538369  25.9042616  26.4292114  40.9554652  26.0144886  25.6612934
  40.7389588  26.1124682  27.0118673  41.2037258  25.9516184  26.4023413
  39.9266271  12.5116764  19.2966253  39.3331110  12.8333760  18.7450820
  39.9641548  11.6657859  19.0887359  39.8440660  12.4341092  19.1849025
  46.8860071   5.9629656  26.8294340  46.3790936   5.2558796  26.7615517
  47.6827505   5.6322845  26.9595416  46.9287311   5.8102807  26.8393335
  42.8024087  12.4696268  22.7268004  42.5737780  12.4928970  21.8846362
  43.0622163  11.6453735  22.8463014  42.8070275  12.3512348  22.6193201
  37.0843316  14.3230741  32.3293104  36.5722219  13.7151924  32.6878135
  36.9122812  15.0387334  32.7967080  36.9832953  14.3394041  32.4509327
  31.9309030  12.7668317  34.9795466  31.7611621  13.4269691  34.4343672
  31.4874980  12.9774878  35.7007955  31.8408364  12.8954299  35.0057095
  35.8568850  11.0072815  24.0222199  36.3326216  11.3689894  23.3872380
  35.3557449  11.6629282  24.3022342  35.8534209  11.1567003  23.9698940
  49.0880211  20.4794583  19.8135204  49.4713817  21.2285939  20.0433301
  48.2924325  20.7260402  19.5547193  49.0273993  20.6264277  19.8092778
  40.9612386  12.2454986  34.7695359  41.5183816  12.0168796  34.1373825
  40.6373451  13.0060652  34.4930572  40.9958796  12.3238823  34.6351856
  38.6795503  15.3322639  35.7347366  39.4306830  15.6474316  36.0486921
  38.8718080  15.1301810  34.9081288  38.8186917  15.3490021  35.6590762
  37.8995503  13.1514014  17.3895583  38.2794468  13.1693644  16.6046698
  37.1588099  13.5968003  17.2686430  37.8464341  13.2195789  17.2559151
  45.5280793  11.4596206  22.9771162  45.5275020  11.3044862  23.8355438
  45.3236973  12.3059193  22.9212547  45.4980571  11.5616826  23.0959101
  27.5898064  14.8835990  27.3929978  27.4119825  14.4312599  28.1184894
  27.3017086  15.6862151  27.5768456  27.5211017  14.9358548  27.5273481
  43.2521645  16.1393707  26.6307369  43.7475311  15.4216702  26.5911389
  42.4421421  15.8364505  26.5161856  43.2065539  15.9891354  26.6081095
  38.6980257  19.9891521  18.7804373  37.8891580  19.6658194  18.7337683
  39.2055166  19.2824743  18.7132622  38.6529924  19.8372837  18.7634668
  29.3270534  17.4163714  24.5051737  28.4616054  17.4049404  24.3934509
  29.4269350  17.2293937  25.3522877  29.2144701  17.3869775  24.6140682
  45.3173464  18.8897395  29.3184497  45.7428536  18.3671817  28.7654923
  44.9530384  19.4878232  28.7973120  45.3260067  18.9007622  29.1593507
  41.9052064  22.6031659  25.6485655  42.3763242  23.3171922  25.8175640
  42.2412242  22.0030409  26.1845524  42.0247179  22.6203123  25.7518031
  38.8221559   7.3759130  32.6043750  38.9549464   6.5790123  32.9324725
  39.2066711   7.9025533  33.1842025  38.8977888   7.3359046  32.7387253
  41.8953914   4.2989456  29.2024843  41.0899878   4.1887186  29.5192681
  41.7660649   4.4001912  28.3454709  41.7574047   4.2973126  29.1232883
  45.3519874  10.4634948  29.7964540  44.7682863  10.9644154  29.3842107
  45.6724168   9.9564504  29.1628863  45.3133050  10.4626783  29.6423047
  37.8914674   9.3775543  20.0723215  38.7130368   9.5473855  19.8304910
  37.4284324   9.5322804  19.3489512  37.9445836   9.4257276  19.9294859
  36.4810005   7.3718305  30.8521644  37.0254418   7.0309432  31.4425985
  36.5346941   8.2303766  30.9942928  36.5699125   7.4473564  30.9603517
  32.2940564  21.1334721  27.7260451  32.8985422  21.0930555  27.0974272
  32.0867877  21.9805873  27.7564507  32.3529461  21.2522723  27.6376568
  42.1084336  23.4000666  28.9422689  42.9282710  23.2563632  29.2038984
  41.8278414  24.0246865  29.4839127  42.1881080  23.4711018  29.0610628
  27.5291846  20.1169338  27.5959375  27.4316125  19.3065610  27.9049431
  28.3120716  20.0961132  27.2105643  27.6307983  19.9936429  27.5846237
  58.5797987  31.0565518  21.9065565  58.5491991  31.9110154  22.0783835
  59.1779335  30.7560810  22.4651709  58.6635145  31.1382014  22.0140367
  51.7797672  30.1441169  26.6618496  50.9235567  30.3049667  26.7127612
  51.8265325  29.2733233  26.6823557  51.6596783  30.0391971  26.6724562
  51.6163771  40.1029256  17.8541274  51.2815140  40.7806178  17.4185496
  52.1290642  39.7134567  17.2658146  51.6429352  40.1453834  17.7028066
  54.6249493  32.2033213  29.3050147  55.1705453  32.8818299  29.3644117
  54.5666369  32.0620674  28.4451729  54.6965407  32.2825214  29.1862208
  56.4014561  33.6317820  20.1783875  56.2854087  34.3825506  20.6076013
  57.1970448  33.3741773  20.4279962  56.5019151  33.7052667  20.2787967
  43.2378699  27.8828296  27.2155141  42.6183731  27.2920943  27.0465156
  43.1362563  28.4739731  26.5819464  43.1316375  27.8832378  27.0960131
  48.2844887  37.6211843  21.4653217  48.6060728  38.1617050  20.8614525
  48.9316983  37.0508614  21.5975507  48.4270942  37.6171018  21.3960253
  50.3346595  29.6227838  21.5487604  51.0326760  29.8015965  22.0409067
  50.6498927  29.0998177  20.9257993  50.4841932  29.5721610  21.5289614
  50.5234530  36.0098283  21.5367396  50.9628166  35.4015383  21.9822168
  50.3739193  35.6305656  20.7652861  50.5655996  35.8636754  21.4886563
  48.5073458  24.9920234  25.6308879  48.1776788  25.4431378  24.9612577
  47.8318460  24.9136398  26.1781885  48.3583895  25.0471370  25.6132102
  54.1243867  34.3625464  18.4898165  54.0395162  35.2186431  18.6347734
  54.6128250  34.0869788  19.1580324  54.1832764  34.4482785  18.6100246
  55.7149866  20.9805757  23.8758489  55.4003307  21.6709236  24.3078912
  55.1976808  20.9250540  23.1743990  55.5914337  21.0740646  23.8355439
  55.0562300  30.9810258  19.9895900  54.5273771  31.1969892  20.6493206
  55.5787320  31.6746397  19.9096869  55.0550753  31.1153395  20.0751499
  60.5110353  36.5556563  25.3628944  59.6808056  36.7667206  25.5262361
  60.4619605  35.7293617  25.0871228  60.3817088  36.4646169  25.3466310
  46.9461908  34.8773475  18.7903368  46.3619123  35.3823506  19.1969232
  46.5432003  34.6515862  18.0499960  46.8001212  34.9181723  18.7408393
  51.4039122  31.1239127  17.2672289  51.6435126  31.3317111  16.4547632
  51.7254963  30.3196636  17.3761233  51.4876280  31.0353228  17.1632842
  46.7129412  23.0532523  21.1131826  47.4675381  23.4210840  20.8748877
  46.5356947  23.4272077  21.8811006  46.7983891  23.1630711  21.1916715
  60.0064311  29.2026963  29.1579366  59.1692732  29.2729150  29.3926960
  59.9752542  29.2051458  28.2853668  59.8782594  29.2137190  29.0638914
  45.0686477  25.4602842  17.8109939  44.8862050  25.6774723  16.9850932
  45.9312090  25.5741854  17.8668554  45.1691067  25.5092740  17.6964426
  50.7486196  22.4629252  20.8458963  51.4772357  22.2845207  20.3997120
  50.8381089  23.3047332  21.0566141  50.8692858  22.5613131  20.8112481
  54.7294497  33.3982640  24.7491257  55.4852012  33.8314154  24.7880166
  54.8356821  32.7487410  25.3225893  54.8564668  33.3660124  24.8389283
  57.7674668  37.2255917  25.4993660  57.3309900  37.2292659  26.2552632
  57.4337584  37.9061416  25.0673238  57.6537288  37.3268373  25.5474493
  57.6872151  24.2669745  27.7423088  58.3298059  24.3367850  28.3285003
  57.9395172  23.5998968  27.2402630  57.8194283  24.1796094  27.7550367
  44.6148504  28.7377014  16.3232413  43.9006681  28.4515194  16.7354845
  45.0992473  29.0773640  16.9638800  44.5807867  28.7458664  16.4788047
  60.9019014  33.9436837  24.3913297  61.5635448  33.3827505  24.2909206
  60.2610426  33.4488868  24.7165989  60.9047882  33.7873246  24.4245638
  51.7895822  37.2406968  16.6994221  52.2046971  36.9091992  16.0078716
  50.9587752  37.0075871  16.5714357  51.7283831  37.1578224  16.5785068
  57.1883845  34.9602219  24.1325286  57.4239434  35.1047418  23.3052137
  57.3373409  35.7244627  24.5256800  57.2449648  35.0941274  24.0688890
  59.0174302  33.8003885  21.9694890  59.3482519  34.3331525  21.3634985
  59.5907390  33.8542773  22.6256841  59.1507981  33.8873454  21.9772672
  54.2306191  31.6468788  22.6518470  54.3253045  32.3858082  23.1058096
  53.6065034  31.2186263  23.0853035  54.1515221  31.6930109  22.7826618
  54.4829212  33.4917528  15.8855422  54.4009375  33.5619715  16.7510409
  55.1208933  34.0547272  15.6939163  54.5649050  33.5856499  15.9845372
  52.9223434  25.3606716  25.4534041  52.2179760  24.8715902  25.6117960
  52.9708408  25.3729191  24.5822486  52.8253485  25.2896364  25.3473381
  46.8157095  30.8116028  25.8394843  46.2406687  30.9708197  26.4758804
  46.4392772  30.1751437  25.3763294  46.6759908  30.7413841  25.8649402
  60.1253653  29.0414382  23.4735052  59.8690218  28.2294324  23.2832934
  60.9682967  29.0491949  23.2465239  60.2119679  28.9226380  23.4119869
  54.3056746  22.9814006  28.2111206  54.6867257  22.2992177  28.5979080
  53.5020030  22.6923608  28.0286870  54.2433207  22.8381055  28.2415262
  51.5869322  33.5137982  18.8964029  52.4009961  33.8052875  18.7846800
  51.5228464  32.8597844  18.3222322  51.6972061  33.4603177  18.7952866
  47.4577231  36.9859500  24.0236341  48.0951178  36.7471247  24.5688134
  47.8832302  37.1896658  23.2889501  47.6153397  36.9810510  23.9953498
  48.0980046  32.2061789  18.3611230  48.4825198  31.9869496  19.1127775
  47.8491666  33.0324735  18.4912306  48.1182118  32.2959936  18.4912307
  58.8315233  35.9808427  29.3721899  58.5261050  36.7136484  29.7335214
  58.1121449  35.5746356  29.0914685  58.6802575  36.0290160  29.3835036
  64.5317025  32.6201428  28.6990243  64.4641526  32.6397387  27.8292830
  64.5172688  33.4631755  28.9245914  64.5195782  32.7475162  28.6042720
  45.8180483  23.8758726  23.6920011  44.9502908  23.9481325  23.7577620
  46.1055687  24.6780805  23.8807986  45.7320231  24.0052873  23.7294777
  54.9413372  24.0236585  32.0231332  55.6866964  23.8346396  31.6094758
  54.5250676  24.5494823  31.4645189  54.9898346  24.0738731  31.8795906
  48.3803288  40.4266665  20.4343600  48.6701587  40.0355647  19.7102827
  49.1106769  40.6083370  20.8748876  48.5310173  40.3960479  20.3926407
  62.3175643  31.3945814  26.9736837  62.8683564  30.7613883  27.2133929
  62.3019758  31.9261207  27.6652342  62.3960839  31.3794762  27.1115696
  56.0204049  29.6342148  26.0841434  55.6768815  28.9132483  26.4348683
  56.1197091  29.4255999  25.2419792  55.9846092  29.4966351  26.0113114
  48.4877160  43.7763438  22.2834442  49.1401218  43.2439880  22.5125469
  47.7902768  43.4232090  22.6702317  48.4807878  43.6452961  22.3746610
  45.4358424  36.1302615  21.6901817  46.1904392  36.5115654  21.9037279
  44.8429037  36.5813759  22.1448513  45.4595138  36.2531443  21.7884695
  56.4817078  36.0967852  21.6265422  57.0475111  36.7561061  21.5423965
  55.8344981  36.4417550  22.0981824  56.4695834  36.2449793  21.6838178
  43.7447835  27.3516985  21.1336887  43.4572631  26.9818256  20.3968834
  44.4318303  27.8211841  20.8720592  43.8036732  27.3663955  20.9851963
  52.9523656  39.0406636  21.0502501  52.7110332  38.3074496  20.6429566
  53.1324989  39.5893493  20.3968834  52.9431280  39.0129027  20.8932724
  48.1822977  34.3315196  22.4623423  47.9865759  34.9389930  21.8683726
  48.4057322  33.6383140  21.9815097  48.1857618  34.3192721  22.3039504
  46.5801507  31.2169934  22.5804292  47.3024159  31.3811092  22.1208098
  46.1009499  31.9379598  22.4743631  46.6165237  31.3468163  22.4969906
  54.5395014  27.5533732  27.9600977  53.7006115  27.5795011  27.7239240
  54.6099382  28.2004468  28.5406323  54.4263408  27.6529858  28.0110093
  52.9864293  24.4519109  22.6928592  53.6890645  24.2526858  22.2148551
  52.7208481  23.6795052  22.9997436  53.0510925  24.3082075  22.6674034
  58.4152538  32.7601719  25.2462218  58.3286513  32.9157145  26.0996997
  57.9603018  33.4039795  24.8721623  58.3355795  32.8777474  25.3169325
  41.3176030  28.1298198  21.9822168  41.4192166  28.9324359  22.3103143
  42.1131916  27.9285534  21.6845248  41.4503935  28.2184097  21.9857523
  52.2878354  30.0812466  23.8687778  52.0413068  30.0008217  24.7024567
  52.6163477  29.2965934  23.6750305  52.2999598  29.9538731  23.9635301
  56.1826403  36.7895825  27.6574559  56.0440762  37.4876871  28.1623301
  55.4026401  36.6344482  27.3010741  56.0469630  36.8695992  27.6800833
  50.4195299  32.0159353  31.0635892  49.6718613  32.2090368  30.6584171
  50.5736824  31.1904573  30.8260014  50.3317726  31.9224465  30.9681298
  57.6779776  36.1474079  18.4191058  57.2986585  35.3611217  18.4120348
  57.0146021  36.6960936  18.2762702  57.5238251  36.1118903  18.3971855
  55.1324402  19.0899779  25.8225139  55.2507970  19.5476242  25.0892442
  54.9586577  18.2845040  25.5361357  55.1243573  19.0393551  25.6726073
  50.5026684  39.6987598  22.2579884  51.2676575  39.4297242  21.9362549
  50.4004774  39.2137609  22.9749947  50.6008179  39.5877163  22.3159712
  48.5379454  27.9012008  28.7973120  47.7475529  27.7203468  29.1190456
  48.9340077  27.1238960  28.7803415  48.4796330  27.7599469  28.8425669
  53.0245345  36.7299782  14.2379834  53.7918330  36.7899907  13.8285686
  52.5776654  36.1580224  13.7536152  53.0718772  36.6536358  14.1057544
  53.9223140  35.5354438  26.5232566  53.2468142  35.3039670  27.0245953
  53.9315516  34.9275621  25.8974671  53.8241645  35.4113363  26.5048718
  55.9239875  38.3919570  18.7542744  56.0059712  39.1986556  18.4304195
  56.4089617  38.4115530  19.4783518  56.0077033  38.5140233  18.8129643
  45.0218823  33.5656458  22.8540795  45.1783442  33.5003260  23.7096787
  45.3619416  34.3405010  22.6419474  45.0952058  33.6705656  22.9495389
  51.5597968  32.9414341  21.7234158  52.1013513  32.4384722  22.1872778
  51.8744527  32.8879536  20.9123643  51.6862365  32.8593762  21.6717970
  49.7284417  38.3331693  19.0074186  49.7977238  37.4746231  19.1467186
  50.5072872  38.5503574  18.6793210  49.8537267  38.2384557  18.9791343
  54.1191905  40.7569394  23.2210679  53.7271697  40.4536109  22.5033545
  54.2744977  41.5938484  23.0315633  54.0845495  40.8353231  23.0867176
  54.8726325  29.4439711  32.7139765  54.0603007  29.1365601  32.7952938
  55.3316259  28.9638711  33.2782478  54.8206710  29.3276203  32.8094359
  54.2831580  37.3219383  23.1616710  53.9246234  37.4934026  23.9380742
  53.7970290  37.7832589  22.6044708  54.1590276  37.4158354  23.1941979
  52.1001966  20.9450581  26.7643801  51.2295523  20.9189303  26.7177111
  52.3542307  20.7727774  25.9469647  52.0095526  20.9160725  26.6363938
  49.0719945  33.0018548  15.7016944  49.3612470  33.7783431  15.9760518
  49.1591744  32.4907280  16.4031443  49.1274201  33.0410467  15.8459442
  49.1251106  22.9556810  28.2217271  48.6089595  22.2637001  28.3468850
  48.5645035  23.6227587  28.1679870  48.9657619  22.9520067  28.2323337
  51.1943340  23.4949770  30.0510124  50.8075093  23.5198801  30.8323654
  50.7076277  22.9291449  29.5984641  51.0655848  23.4145521  30.0998028
  57.1693319  30.0612425  28.6749826  56.7420927  29.9738773  27.9197926
  56.5319372  30.1690200  29.2604670  57.0122926  30.0645085  28.6495268
  50.8600481  20.3816755  32.3420384  51.4893599  20.9177055  32.0641454
  51.0286344  20.2894114  33.1933950  50.9778276  20.4478118  32.4268912
  42.7159453  29.9371350  25.6301807  42.3216151  30.0114362  24.8551916
  42.1599570  30.3229296  26.1810169  42.5762265  30.0053124  25.5969467
  54.3524400  22.9152644  25.3105686  54.5573993  22.8474952  26.1562683
  54.0250824  23.7211465  25.2426863  54.3339648  23.0238584  25.4265341
  49.0500551  30.2433212  27.0514654  48.7463688  29.6889200  27.6525061
  48.3479972  30.4225422  26.5642688  48.9016761  30.1877994  27.0684359
  48.1066648  27.5533732  21.6159356  48.3826382  26.8352644  21.2036923
  48.7065317  28.1518652  21.4080462  48.2359913  27.5354103  21.5240117
  57.6058087  23.4684408  24.7908451  56.9932401  23.9554810  25.1762183
  57.7022262  22.7927899  25.3346102  57.5295985  23.4402717  24.9287309
  51.6077168  25.2247249  19.8905951  52.0620915  25.3957810  20.6153795
  52.0817214  24.6115360  19.4903726  51.7445489  25.1598134  19.9379712
  45.5253317  25.8697573  29.8876707  45.9854798  25.9436502  30.6251830
  45.5709423  26.6678827  29.5376528  45.6003872  25.9991720  29.9449463
  61.2483115  34.5401345  30.2185967  61.3066239  34.9887994  30.9645944
  60.6149583  34.9500158  29.7816047  61.1634410  34.6675080  30.2638516
  54.8882210  40.1604887  26.6540713  54.6901899  40.6495701  25.9596925
  54.2669921  40.3646128  27.2324847  54.7669774  40.2621425  26.6363937
  48.9490188  31.9289784  20.9950958  49.6932233  32.3164060  21.2333908
  49.0950885  31.0847209  21.1591446  49.0800774  31.8620256  21.0544927
  50.8669764  23.7240043  26.0282819  50.0205809  23.8962850  25.9024169
  50.8640896  22.9189386  26.3648648  50.7416914  23.6301071  26.0593946
  51.9368064  27.5015257  26.8944877  51.4628019  26.9757019  27.4050188
  52.3086200  26.9544730  26.3259739  51.9217953  27.3431254  26.8860024
  58.2004795  32.5617633  28.3051658  57.9603018  31.7224048  28.3094084
  58.6796802  32.6417799  29.0292431  58.2356978  32.4499032  28.4126460
  53.8651564  28.3951811  19.9570631  53.3374583  28.4780555  19.2676340
  54.3247272  29.1369683  19.9535276  53.8553414  28.5172474  19.8545326
  60.2009982  29.3419090  26.2580917  59.9619752  29.3014924  25.4201701
  60.3643883  30.1890242  26.3846638  60.1900285  29.4611175  26.1534399
  56.8056012  33.7269039  32.1885962  57.5290211  33.2741565  32.0096982
  56.5405974  34.0073705  31.4058290  56.8737285  33.7020008  32.0464677
  45.6742880  28.3229213  28.9238841  45.0495951  28.3347605  28.3164794
  45.3388475  28.7989388  29.5730081  45.5328372  28.3947730  28.9295410
  45.8584629  26.6654331  14.9811526  45.5097433  27.3174056  15.4443075
  45.3781075  26.6511444  14.2535397  45.7354873  26.7597385  14.9422617
  53.4188646  36.9655375  19.0880288  54.1422845  37.4313488  18.9444861
  52.9789237  37.0328985  18.3377885  53.4604339  37.0439212  18.9565069
  52.8853929  22.0983596  31.6964499  52.3894490  22.2947270  31.0056066
  53.6422991  22.4976264  31.5253301  52.9240753  22.1861330  31.5684636
  50.1556808  25.7725942  28.2867810  50.1799296  25.2386054  27.5980590
  50.4068282  25.2643251  28.9493400  50.1966727  25.6186846  28.2832454
  46.4358131  24.4996760  27.6673554  46.4756502  25.0005967  28.3808261
  45.6107795  24.5907154  27.3979477  46.3197657  24.5878576  27.7324092
  46.2308538  29.2912862  20.4937571  46.3711499  29.7885326  21.1966212
  46.7291071  28.5899156  20.6351784  46.3249619  29.2614840  20.6189150
  46.2608760  30.1579973  17.8230147  46.8953840  30.7540398  17.7579609
  46.3434371  29.8583430  18.6376018  46.3665311  30.2020881  17.9333234
  59.2391326  32.6895450  30.6916512  59.8309166  33.3292701  30.7234710
  59.6750320  31.9918487  30.9808578  59.3909757  32.6813800  30.7397344
  47.8387743  26.0893948  17.7975589  48.1603584  25.6097030  17.1434852
  48.1014687  26.8993594  17.6066401  47.9253768  26.1383846  17.6731081
  53.2346898  25.4766142  30.1599069  53.6601970  25.0238668  29.5482595
  52.6203891  24.9226213  30.4363856  53.2075543  25.3280118  30.1104094
  42.7661748  32.3547813  21.0919693  43.2753977  32.9512321  21.4730999
  43.2396020  32.0873787  20.4096113  42.9105124  32.4033629  21.0474216
  53.6792496  41.0276080  19.2478349  52.9621806  40.8536942  18.7825586
  54.3299234  40.7928652  18.7153835  53.6694347  40.9671872  19.1007567
  51.6741121  21.9481242  23.5689646  51.0309439  21.7978888  24.1374784
  51.3340528  21.7023587  22.8038750  51.5286198  21.8893364  23.5392661
  56.2640467  29.9040669  22.9919654  55.5931657  30.4470371  22.8632720
  56.9580218  30.3735524  22.7501349  56.2669335  30.0538940  22.9375182
  56.4268595  26.3596552  25.9010027  56.7796205  25.9326275  26.5755826
  55.5683396  26.2747396  26.0311104  56.3518039  26.2841293  26.0205038
  45.1252280  28.9904072  23.9592874  44.4064269  29.4068204  24.2265737
  45.4964642  29.5558311  23.4084512  45.0744212  29.1353353  23.9175681
  54.4251861  29.6231921  29.8494870  54.4049788  29.4415216  30.7029648
  54.4731061  30.4943939  29.8254453  54.4286502  29.7248459  29.9718164
  50.8998854  28.0302072  19.2966253  50.3063693  28.3519068  18.7450820
  50.9374132  27.1843167  19.0887359  50.8173243  27.9526400  19.1849025
  57.8592655  21.4814964  26.8294340  57.3523520  20.7744104  26.7615517
  58.6560089  21.1508153  26.9595416  57.9019894  21.3288115  26.8393335
  53.7756671  27.9881576  22.7268004  53.5470364  28.0114278  21.8846362
  54.0354747  27.1639043  22.8463014  53.7802859  27.8697656  22.6193201
  46.8301433  26.5258123  24.0222199  47.3058800  26.8875202  23.3872380
  46.3290033  27.1814590  24.3022342  46.8266792  26.6752311  23.9698940
  60.0612795  35.9979891  19.8135204  60.4446401  36.7471247  20.0433301
  59.2656908  36.2445710  19.5547193  60.0006577  36.1449584  19.8092778
  48.8728086  28.6699322  17.3895583  49.2527051  28.6878952  16.6046698
  48.1320682  29.1153311  17.2686430  48.8196924  28.7381097  17.2559151
  56.5013377  26.9781514  22.9771162  56.5007603  26.8230170  23.8355438
  56.2969557  27.8244501  22.9212547  56.4713155  27.0802134  23.0959101
  54.2254229  31.6579015  26.6307369  54.7207894  30.9402010  26.5911389
  53.4154005  31.3549813  26.5161856  54.1798122  31.5076662  26.6081095
  49.6712840  35.5076829  18.7804373  48.8624163  35.1843502  18.7337683
  50.1787749  34.8010051  18.7132622  49.6262507  35.3558145  18.7634668
  56.2906048  34.4082703  29.3184497  56.7161119  33.8857125  28.7654923
  55.9262968  35.0063540  28.7973120  56.2992650  34.4192930  29.1593507
  52.8784647  38.1216967  25.6485655  53.3495825  38.8357230  25.8175640
  53.2144826  37.5215717  26.1845524  52.9979762  38.1388431  25.7518031
  49.7954142  22.8944438  32.6043750  49.9282048  22.0975431  32.9324725
  50.1799295  23.4210841  33.1842025  49.8710471  22.8544354  32.7387253
  52.8686497  19.8174764  29.2024843  52.0632461  19.7072493  29.5192681
  52.7393233  19.9187220  28.3454709  52.7306630  19.8158434  29.1232883
  56.3252458  25.9820256  29.7964540  55.7415447  26.4829462  29.3842107
  56.6456752  25.4749812  29.1628863  56.2865633  25.9812091  29.6423047
  48.8647257  24.8960851  20.0723215  49.6862951  25.0659163  19.8304910
  48.4016908  25.0508112  19.3489512  48.9178419  24.9442584  19.9294859
  47.4542589  22.8903613  30.8521644  47.9987002  22.5494740  31.4425985
  47.5079525  23.7489074  30.9942928  47.5431708  22.9658872  30.9603517
  69.5530570  46.5750826  21.9065565  69.5224575  47.4295462  22.0783835
  70.1511919  46.2746118  22.4651709  69.6367728  46.6567322  22.0140367
  62.7530255  45.6626477  26.6618496  61.8968151  45.8234975  26.7127612
  62.7997909  44.7918541  26.6823557  62.6329367  45.5577279  26.6724562
  57.1371395  55.1989195  22.4255727  56.3854294  54.8204733  22.1971772
  57.5857407  55.2307628  21.6774537  57.0921062  55.1474802  22.2813229
  66.0623972  51.9313002  36.2678952  66.7690739  51.4365033  36.3965886
  66.2511907  52.3722084  35.5381610  66.1951877  51.9231353  36.1787997
  62.5896355  55.6214564  17.8541274  62.2547723  56.2991486  17.4185496
  63.1023225  55.2319875  17.2658146  62.6161936  55.6639142  17.7028066
  62.1300646  57.5728833  23.7952386  62.5140025  58.1415731  23.2557161
  62.0659787  56.8478343  23.3158202  62.1774073  57.5504296  23.6446248
  65.5982076  47.7218521  29.3050147  66.1438036  48.4003607  29.3644117
  65.5398952  47.5805981  28.4451729  65.6697991  47.8010522  29.1862208
  58.7156151  55.2107587  24.6918500  58.8166514  54.4007941  25.0015627
  58.1197896  55.1164533  24.0618178  58.6428690  55.0772615  24.6444738
  67.3747145  49.1503128  20.1783875  67.2586671  49.9010814  20.6076013
  68.1703031  48.8927081  20.4279962  67.4751734  49.2237975  20.2787967
  58.5556891  60.1285176  26.0933356  59.1994346  60.5698340  26.4829514
  58.8813146  59.3238602  26.0063614  58.6988719  60.0750371  26.1378833
  51.9121195  51.2327873  24.3170833  51.6771380  50.3995526  24.2103102
  52.0506836  51.5132539  23.5032034  51.8976858  51.1511377  24.1813188
  54.2111283  43.4013604  27.2155141  53.5916314  42.8106251  27.0465156
  54.1095146  43.9925039  26.5819464  54.1048958  43.4017686  27.0960131
  59.2577470  53.1397151  21.4653217  59.5793311  53.6802358  20.8614525
  59.9049567  52.5693922  21.5975507  59.4003526  53.1356326  21.3960253
  61.3079178  45.1413146  21.5487604  62.0059343  45.3201273  22.0409067
  61.6231511  44.6183485  20.9257993  61.4574516  45.0906918  21.5289614
  61.4967114  51.5283591  21.5367396  61.9360749  50.9200691  21.9822168
  61.3471777  51.1490964  20.7652861  61.5388579  51.3822062  21.4886563
  61.5024848  52.9682508  28.3893114  61.7848091  52.1733914  28.1679869
  62.2311009  53.4463096  28.4098175  61.6514412  52.9217105  28.3596129
  59.4806042  40.5105542  25.6308879  59.1509372  40.9616686  24.9612577
  58.8051044  40.4321706  26.1781885  59.3316478  40.5656678  25.6132102
  65.0976450  49.8810772  18.4898165  65.0127745  50.7371739  18.6347734
  65.5860834  49.6055096  19.1580324  65.1565348  49.9668093  18.6100246
  66.6882450  36.4991065  23.8758489  66.3735891  37.1894544  24.3078912
  66.1709391  36.4435847  23.1743990  66.5646920  36.5925954  23.8355439
  66.0294884  46.4995566  19.9895900  65.5006355  46.7155200  20.6493206
  66.5519903  47.1931705  19.9096869  66.0283337  46.6338703  20.0751499
  71.4842936  52.0741871  25.3628944  70.6540640  52.2852514  25.5262361
  71.4352189  51.2478925  25.0871228  71.3549672  51.9831477  25.3466310
  57.9194491  50.3958783  18.7903368  57.3351707  50.9008814  19.1969232
  57.5164587  50.1701170  18.0499960  57.7733795  50.4367031  18.7408393
  59.5452674  54.9045725  28.1976854  59.0279616  54.5453140  27.5938162
  60.2427065  54.3807899  28.2082920  59.5718255  54.7743413  28.1107113
  63.2016266  55.3540539  34.1593027  63.2899612  55.1666679  35.0071237
  63.6305979  54.7077968  33.7597874  63.2778368  55.2303546  34.2264778
  60.7686726  54.6371699  33.1410689  60.2057561  54.2244309  33.6650350
  61.5307749  54.5624604  33.5603832  60.7981174  54.5649099  33.2803690
  62.3771706  46.6424435  17.2672289  62.6167709  46.8502419  16.4547632
  62.6987547  45.8381944  17.3761233  62.4608864  46.5538536  17.1632842
  57.6861996  38.5717831  21.1131826  58.4407964  38.9396148  20.8748877
  57.5089531  38.9457385  21.8811006  57.7716474  38.6816019  21.1916715
  56.3282717  56.6269720  25.7447319  57.0303297  56.1121709  25.8020076
  56.2480200  56.9543871  26.5494194  56.4206478  56.5983946  25.8720112
  70.9796895  44.7212271  29.1579366  70.1425316  44.7914458  29.3926960
  70.9485126  44.7236766  28.2853668  70.8515177  44.7322498  29.0638914
  56.0419061  40.9788150  17.8109939  55.8594634  41.1960031  16.9850932
  56.9044674  41.0927162  17.8668554  56.1423650  41.0278048  17.6964426
  55.6533493  52.8176072  25.2532927  56.4922392  53.0499005  25.3006689
  55.6845262  51.9480383  25.1839963  55.7815210  52.7233018  25.2497572
  61.7218780  37.9814560  20.8458963  62.4504940  37.8030515  20.3997120
  61.8113673  38.8232640  21.0566141  61.8425442  38.0798439  20.8112481
  65.7027081  48.9167948  24.7491257  66.4584596  49.3499462  24.7880166
  65.8089405  48.2672717  25.3225893  65.8297251  48.8845432  24.8389283
  68.7407252  52.7441225  25.4993660  68.3042484  52.7477967  26.2552632
  68.4070167  53.4246724  25.0673238  68.6269872  52.8453681  25.5474493
  68.6604735  39.7855053  27.7423088  69.3030643  39.8553157  28.3285003
  68.9127755  39.1184276  27.2402630  68.7926867  39.6981401  27.7550367
  55.5881088  44.2562322  16.3232413  54.8739265  43.9700502  16.7354845
  56.0725056  44.5958948  16.9638800  55.5540451  44.2643972  16.4788047
  63.4706719  56.6959660  30.4703266  62.6721964  56.4559160  30.7277135
  63.9192730  56.7474053  31.2170314  63.4181330  56.6682051  30.6188190
  71.8751598  49.4622145  24.3913297  72.5368032  48.9012813  24.2909206
  71.2343010  48.9674176  24.7165989  71.8780465  49.3058554  24.4245638
  62.7628406  52.7592276  16.6994221  63.1779554  52.4277300  16.0078716
  61.9320335  52.5261179  16.5714357  62.7016414  52.6763532  16.5785068
  68.1616429  50.4787527  24.1325286  68.3972018  50.6232726  23.3052137
  68.3105992  51.2429935  24.5256800  68.2182232  50.6126582  24.0688890
  69.9906885  49.3189193  21.9694890  70.3215102  49.8516833  21.3634985
  70.5639973  49.3728081  22.6256841  70.1240564  49.4058762  21.9772672
  65.2038774  47.1654096  22.6518470  65.2985629  47.9043390  23.1058096
  64.5797618  46.7371571  23.0853035  65.1247805  47.2115417  22.7826618
  65.4561796  49.0102836  15.8855422  65.3741958  49.0805023  16.7510409
  66.0941516  49.5732580  15.6939163  65.5381633  49.1041807  15.9845372
  58.8154967  48.7763574  25.3529948  58.5574211  47.9435309  25.3261248
  58.8703450  49.0021187  24.5122449  58.7854745  48.6861345  25.2250085
  63.8956017  40.8792024  25.4534041  63.1912344  40.3901210  25.6117960
  63.9440991  40.8914499  24.5822486  63.7986069  40.8081672  25.3473381
  57.7889679  46.3301336  25.8394843  57.2139270  46.4893505  26.4758804
  57.4125355  45.6936745  25.3763294  57.6492491  46.2599149  25.8649402
  71.0986237  44.5599690  23.4735052  70.8422802  43.7479632  23.2832934
  71.9415551  44.5677257  23.2465239  71.1852262  44.4411688  23.4119869
  65.2789329  38.4999314  28.2111206  65.6599841  37.8177485  28.5979080
  64.4752614  38.2108916  28.0286870  65.2165791  38.3566363  28.2415262
  62.5601906  49.0323290  18.8964029  63.3742545  49.3238183  18.7846800
  62.4961047  48.3783152  18.3222322  62.6704645  48.9788485  18.7952866
  68.7811396  51.7149286  33.3093604  68.5450034  50.8837351  33.1905665
  69.4254625  51.6634893  33.8948448  68.8406067  51.5846974  33.3779498
  58.4309814  52.5044807  24.0236341  59.0683761  52.2656555  24.5688134
  58.8564886  52.7081966  23.2889501  58.5885980  52.4995818  23.9953498
  59.0712629  47.7247097  18.3611230  59.4557782  47.5054804  19.1127775
  58.8224250  48.5510043  18.4912306  59.0914702  47.8145243  18.4912307
  69.8047817  51.4993735  29.3721899  69.4993634  52.2321792  29.7335214
  69.0854032  51.0931664  29.0914685  69.6535159  51.5475468  29.3835036
  60.8131286  52.9817230  25.7030127  60.8870294  52.8192402  26.5571977
  61.6300793  53.1707420  25.4590609  60.9447645  52.9853972  25.7928153
  75.5049609  48.1386736  28.6990243  75.4374109  48.1582695  27.8292830
  75.4905271  48.9817063  28.9245914  75.4928365  48.2660470  28.6042720
  54.5737043  53.3275093  22.7324570  53.7475161  53.5736830  22.6058849
  54.6349034  53.2487174  23.5986629  54.4611210  53.3520042  22.8413515
  56.7913067  39.3944034  23.6920011  55.9235492  39.4666633  23.7577620
  57.0788271  40.1966113  23.8807986  56.7052815  39.5238181  23.7294777
  65.9145955  39.5421893  32.0231332  66.6599547  39.3531704  31.6094758
  65.4983260  40.0680131  31.4645189  65.9630930  39.5924039  31.8795906
  59.3535872  55.9451973  20.4343600  59.6434170  55.5540954  19.7102827
  60.0839353  56.1268678  20.8748876  59.5042756  55.9145787  20.3926407
  73.2908226  46.9131122  26.9736837  73.8416148  46.2799191  27.2133929
  73.2752342  47.4446515  27.6652342  73.3693423  46.8980070  27.1115696
  57.2941787  57.9219356  23.5003750  57.0742083  57.6316710  24.2930417
  57.0736310  57.2634311  22.9721662  57.2289382  57.7819064  23.5392659
  56.2058735  50.0092672  25.7659452  55.9171983  49.3830143  26.3005179
  57.0742083  49.9512959  25.8324132  56.2918987  49.9080216  25.8550406
  66.9936632  45.1527455  26.0841434  66.6501398  44.4317791  26.4348683
  67.0929675  44.9441307  25.2419792  66.9578675  45.0151659  26.0113114
  59.4609743  59.2948745  22.2834442  60.1133801  58.7625188  22.5125469
  58.7635352  58.9417398  22.6702317  59.4540461  59.1638268  22.3746610
  56.4091008  51.6487923  21.6901817  57.1636976  52.0300962  21.9037279
  55.8161621  52.0999067  22.1448513  56.4327722  51.7716750  21.7884695
  67.4549662  51.6153160  21.6265422  68.0207694  52.2746369  21.5423965
  66.8077565  51.9602858  22.0981824  67.4428418  51.7635101  21.6838178
  54.7180419  42.8702293  21.1336887  54.4305214  42.5003564  20.3968834
  55.4050887  43.3397149  20.8720592  54.7769316  42.8849263  20.9851963
  63.9256240  54.5591944  21.0502501  63.6842916  53.8259804  20.6429566
  64.1057573  55.1078801  20.3968834  63.9163864  54.5314335  20.8932724
  59.1555560  49.8500504  22.4623423  58.9598343  50.4575238  21.8683726
  59.3789906  49.1568448  21.9815097  59.1590201  49.8378029  22.3039504
  57.5534090  46.7355241  22.5804292  58.2756742  46.8996400  22.1208098
  57.0742083  47.4564906  22.4743631  57.5897821  46.8653471  22.4969906
  65.5127598  43.0719040  27.9600977  64.6738698  43.0980319  27.7239240
  65.5831965  43.7189776  28.5406323  65.3995991  43.1715166  28.0110093
  63.9596876  39.9704417  22.6928592  64.6623229  39.7712166  22.2148551
  63.6941065  39.1980360  22.9997436  64.0243508  39.8267383  22.6674034
  69.3885122  48.2787027  25.2462218  69.3019096  48.4342453  26.0996997
  68.9335602  48.9225103  24.8721623  69.3088378  48.3962782  25.3169325
  52.2908613  43.6483506  21.9822168  52.3924750  44.4509667  22.3103143
  53.0864500  43.4470842  21.6845248  52.4236519  43.7369404  21.9857523
  63.2610938  45.5997774  23.8687778  63.0145652  45.5193525  24.7024567
  63.5896061  44.8151242  23.6750305  63.2732181  45.4724039  23.9635301
  67.1558987  52.3081133  27.6574559  67.0173346  53.0062179  28.1623301
  66.3758984  52.1529790  27.3010741  67.0202213  52.3881300  27.6800833
  65.4937072  48.6077509  33.9096941  65.4885110  47.7357325  33.9139367
  66.1998066  48.8065678  33.4366396  65.5982076  48.5081383  33.8403976
  58.2935720  56.5257264  30.1471788  58.4425284  55.9660180  29.4945192
  59.0735722  56.6049266  30.5304307  58.4309814  56.4542830  30.1068737
  68.6512359  51.6659387  18.4191058  68.2719168  50.8796525  18.4120348
  67.9878605  52.2146244  18.2762702  68.4970834  51.6304211  18.3971855
  60.8189021  56.6971907  31.4256279  60.7432692  56.0280718  31.9807067
  60.7478880  57.3989696  31.9396945  60.7969628  56.7016815  31.5833127
  66.1056985  34.6085087  25.8225139  66.2240553  35.0661550  25.0892442
  65.9319161  33.8030348  25.5361357  66.0976156  34.5578859  25.6726073
  61.4759268  55.2172906  22.2579884  62.2409159  54.9482550  21.9362549
  61.3737358  54.7322917  22.9749947  61.5740763  55.1062471  22.3159712
  63.9977928  52.2485090  14.2379834  64.7650913  52.3085215  13.8285686
  63.5509237  51.6765531  13.7536152  64.0451355  52.1721666  14.1057544
  64.8955724  51.0539746  26.5232566  64.2200725  50.8224978  27.0245953
  64.9048100  50.4460929  25.8974671  64.7974228  50.9298671  26.5048718
  66.8972458  53.9104878  18.7542744  66.9792296  54.7171864  18.4304195
  67.3822200  53.9300837  19.4783518  66.9809616  54.0325541  18.8129643
  60.2080655  60.1040227  29.8834279  60.6976585  59.4051016  29.7009944
  59.6364887  59.8064097  30.4710337  60.1965185  59.9566451  29.9435320
  55.9951406  49.0841766  22.8540795  56.1516026  49.0188568  23.7096787
  56.3352000  49.8590318  22.6419474  56.0684641  49.1890964  22.9495389
  62.5330551  48.4599649  21.7234158  63.0746097  47.9570030  22.1872778
  62.8477110  48.4064844  20.9123643  62.6594948  48.3779070  21.6717970
  66.4047659  52.6702297  38.8361070  67.2182524  52.3987445  38.9966202
  66.2442625  52.3709836  38.0321266  66.5017607  52.5857223  38.7406476
  60.7017001  53.8517001  19.0074186  60.7709821  52.9931539  19.1467186
  61.4805456  54.0688882  18.6793210  60.8269851  53.7569865  18.9791343
  65.0924488  56.2754702  23.2210679  64.7004280  55.9721417  22.5033545
  65.2477561  57.1123792  23.0315633  65.0578078  56.3538539  23.0867176
  52.5685668  46.2676716  23.1701562  52.9484633  46.6861261  22.5061829
  51.9941033  46.8490172  23.4770405  52.5396993  46.4154575  23.1178303
  65.2564163  52.8404691  23.1616710  64.8978818  53.0119334  23.9380742
  64.7702874  53.3017896  22.6044708  65.1322860  52.9343662  23.1941979
  63.0734549  36.4635889  26.7643801  62.2028107  36.4374610  26.7177111
  63.3274890  36.2913082  25.9469647  62.9828109  36.4346033  26.6363938
  60.0452529  48.5203856  15.7016944  60.3345053  49.2968739  15.9760518
  60.1324327  48.0092588  16.4031443  60.1006785  48.5595775  15.8459442
  60.0983690  38.4742118  28.2217271  59.5822178  37.7822309  28.3468850
  59.5377619  39.1412895  28.1679870  59.9390203  38.4705375  28.2323337
  62.1675923  39.0135078  30.0510124  61.7807676  39.0384109  30.8323654
  61.6808860  38.4476756  29.5984641  62.0388432  38.9330829  30.0998028
  66.4168903  53.7308587  34.1083911  67.0548623  53.2368782  33.7746367
  65.7742994  53.6585987  33.5236137  66.4163129  53.6467595  33.9726266
  61.8333065  35.9002063  32.3420384  62.4626183  36.4362363  32.0641454
  62.0018928  35.8079422  33.1933950  61.9510859  35.9663426  32.4268912
  66.4723159  54.4228395  30.7489267  67.2615537  54.0717460  30.8691349
  66.6466757  55.2364783  30.4865901  66.6143441  54.4914252  30.7277135
  53.6892036  45.4556658  25.6301807  53.2948734  45.5299670  24.8551916
  53.1332153  45.8414604  26.1810169  53.5494849  45.5238432  25.5969467
  65.3256983  38.4337952  25.3105686  65.5306577  38.3660260  26.1562683
  64.9983407  39.2396773  25.2426863  65.3072231  38.5423892  25.4265341
  59.0799231  43.0719040  21.6159356  59.3558966  42.3537952  21.2036923
  59.6797901  43.6703960  21.4080462  59.2092496  43.0539411  21.5240117
  68.5790671  38.9869716  24.7908451  67.9664985  39.4740118  25.1762183
  68.6754846  38.3113207  25.3346102  68.5028569  38.9588025  24.9287309
  62.5809752  40.7432557  19.8905951  63.0353499  40.9143118  20.6153795
  63.0549798  40.1300668  19.4903726  62.7178072  40.6783442  19.9379712
  72.2215699  50.0586653  30.2185967  72.2798823  50.5073302  30.9645944
  71.5882167  50.4685466  29.7816047  72.1366994  50.1860387  30.2638516
  65.8614794  55.6790195  26.6540713  65.6634482  56.1681009  25.9596925
  65.2402505  55.8831436  27.2324847  65.7402358  55.7806733  26.6363937
  59.9222772  47.4475092  20.9950958  60.6664817  47.8349368  21.2333908
  60.0683468  46.6032517  21.1591446  60.0533357  47.3805564  21.0544927
  61.8402347  39.2425350  26.0282819  60.9938393  39.4148158  25.9024169
  61.8373480  38.4374694  26.3648648  61.7149497  39.1486379  26.0593946
  62.9100648  43.0200565  26.8944877  62.4360602  42.4942327  27.4050188
  63.2818784  42.4730038  26.3259739  62.8950537  42.8616561  26.8860024
  69.1737378  48.0802941  28.3051658  68.9335601  47.2409356  28.3094084
  69.6529386  48.1603107  29.0292431  69.2089562  47.9684340  28.4126460
  64.8384147  43.9137119  19.9570631  64.3107166  43.9965863  19.2676340
  65.2979856  44.6554991  19.9535276  64.8285998  44.0357782  19.8545326
  71.1742565  44.8604398  26.2580917  70.9352335  44.8200232  25.4201701
  71.3376467  45.7075550  26.3846638  71.1632869  44.9796483  26.1534399
  67.7788596  49.2454347  32.1885962  68.5022794  48.7926873  32.0096982
  67.5138558  49.5259013  31.4058290  67.8469869  49.2205316  32.0464677
  56.8317213  42.1839639  14.9811526  56.4830017  42.8359364  15.4443075
  56.3513658  42.1696752  14.2535397  56.7087457  42.2782693  14.9422617
  64.3921230  52.4840683  19.0880288  65.1155429  52.9498796  18.9444861
  63.9521821  52.5514293  18.3377885  64.4336922  52.5624520  18.9565069
  63.5607385  49.3438225  30.3380977  62.9464378  48.7996276  30.6329612
  64.0774670  48.8302462  29.8586793  63.5463047  49.1874634  30.3105205
  62.8003682  50.4142495  28.0725276  62.3731290  49.7892214  27.6390711
  62.7928627  50.1317417  28.8984283  62.7362823  50.2795276  28.1305103
  63.8586512  37.6168904  31.6964499  63.3627074  37.8132578  31.0056066
  64.6155574  38.0161572  31.5253301  63.8973337  37.7046638  31.5684636
  61.1289392  41.2911250  28.2867810  61.1531879  40.7571362  27.5980590
  61.3800866  40.7828559  28.9493400  61.1699311  41.1372154  28.2832454
  57.4090714  40.0182068  27.6673554  57.4489086  40.5191275  28.3808261
  56.5840379  40.1092462  27.3979477  57.2930240  40.1063884  27.7324092
  57.2041121  44.8098169  20.4937571  57.3444082  45.3070634  21.1966212
  57.7023654  44.1084464  20.6351784  57.2982202  44.7800148  20.6189150
  57.2341344  45.6765280  17.8230147  57.8686423  46.2725706  17.7579609
  57.3166955  45.3768738  18.6376018  57.3397895  45.7206189  17.9333234
  70.2123910  48.2080758  30.6916512  70.8041750  48.8478009  30.7234710
  70.6482904  47.5103795  30.9808578  70.3642341  48.1999108  30.7397344
  58.8120327  41.6079256  17.7975589  59.1336168  41.1282338  17.1434852
  59.0747270  42.4178902  17.6066401  58.8986352  41.6569154  17.6731081
  62.0417299  52.6298130  31.3174406  61.5342390  53.1833977  31.7615036
  61.7443946  52.6906420  30.4993180  61.9222184  52.7204441  31.2622862
  53.7394332  47.8733121  21.0919693  54.2486561  48.4697629  21.4730999
  54.2128604  47.6059095  20.4096113  53.8837707  47.9218937  21.0474216
  64.6525080  56.5461388  19.2478349  63.9354389  56.3722250  18.7825586
  65.3031817  56.3113960  18.7153835  64.6426930  56.4857180  19.1007567
  62.6473704  37.4666550  23.5689646  62.0042022  37.3164196  24.1374784
  62.3073111  37.2208895  22.8038750  62.5018782  37.4078672  23.5392661
  67.2373051  45.4225976  22.9919654  66.5664241  45.9655679  22.8632720
  67.9312801  45.8920832  22.7501349  67.2401918  45.5724248  22.9375182
  61.2859785  57.5622688  28.2231412  61.0625439  56.8041518  28.5915439
  60.7969628  57.5920710  27.5011852  61.1803234  57.4544913  28.1708153
  67.4001178  41.8781860  25.9010027  67.7528788  41.4511583  26.5755826
  66.5415980  41.7932704  26.0311104  67.3250623  41.8026601  26.0205038
  56.0984863  44.5089380  23.9592874  55.3796852  44.9253512  24.2265737
  56.4697226  45.0743619  23.4084512  56.0476795  44.6538661  23.9175681
  65.3984444  45.1417229  29.8494870  65.3782371  44.9600524  30.7029648
  65.4463645  46.0129247  29.8254453  65.4019085  45.2433767  29.9718164
  59.9338242  57.7823147  25.6768497  59.5198640  57.1197277  25.2872339
  60.6185616  57.9301005  25.1564191  59.9736613  57.7063805  25.5424994
  63.3003536  56.9413232  26.4292114  62.9019819  57.0515502  25.6612934
  62.6854755  57.1495298  27.0118673  63.1502425  56.9886800  26.4023413
  61.8731438  43.5487380  19.2966253  61.2796277  43.8704376  18.7450820
  61.9106715  42.7028475  19.0887359  61.7905827  43.4711708  19.1849025
  68.8325238  37.0000272  26.8294340  68.3256103  36.2929411  26.7615517
  69.6292672  36.6693461  26.9595416  68.8752478  36.8473423  26.8393335
  64.7489254  43.5066884  22.7268004  64.5202947  43.5299586  21.8846362
  65.0087331  42.6824351  22.8463014  64.7535442  43.3882964  22.6193201
  57.8034017  42.0443430  24.0222199  58.2791383  42.4060510  23.3872380
  57.3022616  42.6999898  24.3022342  57.7999376  42.1937619  23.9698940
  71.0345378  51.5165199  19.8135204  71.4178984  52.2656555  20.0433301
  70.2389492  51.7631018  19.5547193  70.9739161  51.6634892  19.8092778
  59.8460670  44.1884630  17.3895583  60.2259635  44.2064259  16.6046698
  59.1053266  44.6338619  17.2686430  59.7929508  44.2566405  17.2559151
  67.4745961  42.4966821  22.9771162  67.4740187  42.3415478  23.8355438
  67.2702141  43.3429809  22.9212547  67.4445738  42.5987442  23.0959101
  65.1986813  47.1764323  26.6307369  65.6940478  46.4587318  26.5911389
  64.3886588  46.8735121  26.5161856  65.1530706  47.0261970  26.6081095
  60.6445424  51.0262137  18.7804373  59.8356747  50.7028810  18.7337683
  61.1520333  50.3195359  18.7132622  60.5995091  50.8743453  18.7634668
  67.2638631  49.9268011  29.3184497  67.6893703  49.4042433  28.7654923
  66.8995551  50.5248848  28.7973120  67.2725234  49.9378238  29.1593507
  56.8992711  58.2232228  28.0781843  57.2139270  59.0368617  28.0859625
  57.3086125  57.8382447  28.7464002  57.0060809  58.2860931  28.1785935
  63.8517231  53.6402275  25.6485655  64.3228409  54.3542538  25.8175640
  64.1877409  53.0401025  26.1845524  63.9712346  53.6573739  25.7518031
  65.9394215  55.2503588  37.8277727  66.0491181  54.4612149  38.1834474
  66.2685112  55.1609525  37.0252065  66.0046621  55.1209441  37.7620118
  64.4891177  53.4320209  32.4113348  63.9412123  52.8078093  32.1433413
  64.9504206  53.6214481  31.6957427  64.4758387  53.3679259  32.2663779
  63.8419081  35.3360072  29.2024843  63.0365045  35.2257801  29.5192681
  63.7125816  35.4372527  28.3454709  63.7039214  35.3343742  29.1232883
  67.2985042  41.5005564  29.7964540  66.7148030  42.0014770  29.3842107
  67.6189336  40.9935120  29.1628863  67.2598217  41.4997399  29.6423047
  59.8379841  40.4146158  20.0723215  60.6595535  40.5844471  19.8304910
  59.3749492  40.5693419  19.3489512  59.8911003  40.4627891  19.9294859
  64.0549503  54.4371282  28.9422689  64.8747877  54.2934248  29.2038984
  63.7743581  55.0617481  29.4839127  64.1346247  54.5081634  29.0610628
  73.7262839  61.1811785  26.6618496  72.8700734  61.3420283  26.7127612
  73.7730492  60.3103849  26.6823557  73.6061950  61.0762586  26.6724562
  68.1103978  70.7174502  22.4255727  67.3586878  70.3390041  22.1971772
  68.5589990  70.7492936  21.6774537  68.0653645  70.6660110  22.2813229
  77.0356555  67.4498310  36.2678952  77.7423323  66.9550341  36.3965886
  77.2244491  67.8907392  35.5381610  77.1684461  67.4416661  36.1787997
  76.5714660  63.2403829  29.3050147  77.1170620  63.9188915  29.3644117
  76.5131536  63.0991289  28.4451729  76.6430574  63.3195830  29.1862208
  69.6888735  70.7292895  24.6918500  69.7899098  69.9193249  25.0015627
  69.0930480  70.6349841  24.0618178  69.6161273  70.5957923  24.6444738
  62.8853779  66.7513181  24.3170833  62.6503963  65.9180834  24.2103102
  63.0239420  67.0317847  23.5032034  62.8709441  66.6696685  24.1813188
  65.1843866  58.9198912  27.2155141  64.5648898  58.3291559  27.0465156
  65.0827730  59.5110347  26.5819464  65.0781542  58.9202994  27.0960131
  72.2811762  60.6598454  21.5487604  72.9791927  60.8386581  22.0409067
  72.5964094  60.1368793  20.9257993  72.4307099  60.6092226  21.5289614
  64.9112999  62.4651193  29.4598710  64.7871696  63.0513639  30.0948529
  65.5631284  61.9711389  29.7610985  64.9886649  62.4789998  29.5984639
  72.4699697  67.0468899  21.5367396  72.9093333  66.4385999  21.9822168
  72.3204360  66.6676272  20.7652861  72.5121163  66.9007370  21.4886563
  69.9371340  65.6412910  28.7386221  70.5820343  65.1485354  28.4197170
  70.1773117  65.7837697  29.5652299  70.0681925  65.5890353  28.8135754
  72.4757432  68.4867816  28.3893114  72.7580675  67.6919222  28.1679869
  73.2043592  68.9648404  28.4098175  72.6246995  68.4402413  28.3596129
  70.4538626  56.0290850  25.6308879  70.1241956  56.4801994  24.9612577
  69.7783627  55.9507014  26.1781885  70.3049062  56.0841985  25.6132102
  77.6615033  52.0176373  23.8758489  77.3468474  52.7079852  24.3078912
  77.1441975  51.9621155  23.1743990  77.5379504  52.1111262  23.8355439
  64.4471104  71.6298852  25.5927039  63.9638682  72.3549342  25.5686623
  65.2594422  71.9274982  25.7037197  64.4961851  71.7801206  25.6054319
  70.5185258  70.4231033  28.1976854  70.0012199  70.0638448  27.5938162
  71.2159649  69.8993207  28.2082920  70.5450839  70.2928721  28.1107113
  71.7419309  70.1557007  33.1410689  71.1790144  69.7429617  33.6650350
  72.5040333  70.0809912  33.5603832  71.7713758  70.0834407  33.2803690
  68.6594580  54.0903139  21.1131826  69.4140548  54.4581456  20.8748877
  68.4822114  54.4642693  21.8811006  68.7449058  54.2001327  21.1916715
  67.3015301  72.1455028  25.7447319  68.0035880  71.6307017  25.8020076
  67.2212784  72.4729179  26.5494194  67.3939061  72.1169254  25.8720112
  68.3494207  62.3830615  34.8727734  68.5214711  62.2736509  35.7213016
  68.8863565  63.0285020  34.6358927  68.4539211  62.4622616  34.9632831
  67.0151644  56.4973458  17.8109939  66.8327217  56.7145338  16.9850932
  67.8777257  56.6112470  17.8668554  67.1156234  56.5463356  17.6964426
  66.6266076  68.3361380  25.2532927  67.4654976  68.5684313  25.3006689
  66.6577845  67.4665691  25.1839963  66.7547794  68.2418326  25.2497572
  67.2518779  68.7562255  29.5546233  67.7917004  68.6133386  30.2249605
  66.5688726  69.1559006  29.9230259  67.2310933  68.7941926  29.7080655
  72.6951363  53.4999868  20.8458963  73.4237524  53.3215823  20.3997120
  72.7846256  54.3417948  21.0566141  72.8158026  53.5983747  20.8112481
  76.6759664  64.4353256  24.7491257  77.4317179  64.8684770  24.7880166
  76.7821989  63.7858025  25.3225893  76.8029835  64.4030740  24.8389283
  62.6555924  64.9762546  29.7080654  62.3894340  64.1601663  29.8671645
  62.6694488  65.0215701  28.8376170  62.6180647  64.8619451  29.6034136
  66.5613671  59.7747630  16.3232413  65.8471848  59.4885810  16.7354845
  67.0457640  60.1144256  16.9638800  66.5273035  59.7829280  16.4788047
  67.4054531  58.5140924  32.3547662  66.7126327  58.0437904  32.6008394
  68.0214858  58.2879229  32.9289369  67.3939061  58.4108056  32.4756815
  63.0649338  65.7621325  26.9892399  62.8824911  65.7368211  26.1364691
  63.7999007  66.2320263  27.0281307  63.1463402  65.8282687  26.8690317
  66.1295090  62.4806328  33.4974507  66.8535062  62.4659359  33.9839402
  66.2311226  63.1901683  32.9996476  66.2513299  62.5831031  33.4953294
  73.5040039  65.9605413  38.3623454  72.7113020  66.2748925  38.5476074
  73.6188966  66.1756881  37.5244239  73.4035450  66.0389249  38.2661789
  76.1771358  62.6839404  22.6518470  76.2718212  63.4228698  23.1058096
  75.5530202  62.2556879  23.0853035  76.0980388  62.7300724  22.7826618
  74.4323832  65.8625616  33.3008751  75.0062694  65.2252861  33.4557315
  74.3538636  65.8629699  32.4318409  74.5057067  65.7690728  33.1955162
  63.0320248  62.6414826  27.1391465  63.6093751  62.5051277  27.7783711
  62.3334310  62.1850610  27.3937050  63.0141270  62.5537092  27.2713755
  69.7887550  64.2948882  25.3529948  69.5306795  63.4620616  25.3261248
  69.8436033  64.5206495  24.5122449  69.7587328  64.2046653  25.2250085
  74.8688601  56.3977332  25.4534041  74.1644927  55.9086518  25.6117960
  74.9173575  56.4099807  24.5822486  74.7718652  56.3266980  25.3473381
  68.7622263  61.8486644  25.8394843  68.1871854  62.0078812  26.4758804
  68.3857939  61.2122053  25.3763294  68.6225075  61.7784457  25.8649402
  72.4295551  60.3209993  30.6987222  72.0409984  59.8964211  30.0439413
  71.7650250  60.5692143  31.2064248  72.2742479  60.2948714  30.6775090
  58.5079082  61.4926719  23.8539284  58.5939333  61.1158587  24.6352814
  59.1354879  61.1187164  23.3759242  58.6135633  61.3812201  23.8984761
  76.2521913  54.0184622  28.2111206  76.6332425  53.3362793  28.5979080
  75.4485197  53.7294224  28.0286870  76.1898375  53.8751671  28.2415262
  69.4042398  68.0230115  24.0236341  70.0416345  67.7841863  24.5688134
  69.8297469  68.2267274  23.2889501  69.5618564  68.0181126  23.9953498
  64.0955040  70.2618452  27.9070644  64.1359185  70.5333303  27.0790424
  64.6549564  70.7860360  28.3228432  64.1838386  70.3794207  27.8462533
  70.0445213  63.2432405  18.3611230  70.4290366  63.0240112  19.1127775
  69.7956833  64.0695351  18.4912306  70.0647285  63.3330551  18.4912307
  70.2113753  56.5238820  38.0773814  69.8967194  57.2938383  37.8143377
  69.8903686  55.9609076  37.4926041  70.1172672  56.5549089  37.9515164
  71.7863870  68.5002538  25.7030127  71.8602878  68.3377710  26.5571977
  72.6033376  68.6892728  25.4590609  71.9180228  68.5039280  25.7928153
  65.5469626  68.8460401  22.7324570  64.7207744  69.0922138  22.6058849
  65.6081618  68.7672482  23.5986629  65.4343793  68.8705350  22.8413515
  67.7645650  54.9129342  23.6920011  66.8968076  54.9851941  23.7577620
  68.0520855  55.7151421  23.8807986  67.6785398  55.0423489  23.7294777
  76.8878539  55.0607201  32.0231332  77.6332131  54.8717012  31.6094758
  76.4715844  55.5865439  31.4645189  76.9363513  55.1109347  31.8795906
  70.9163201  66.2655027  31.5196731  70.4174894  66.9770795  31.5981619
  71.7263425  66.5855694  31.4814893  70.9619307  66.4181876  31.5253299
  68.2674371  73.4404663  23.5003750  68.0474666  73.1502018  24.2930417
  68.0468893  72.7819619  22.9721662  68.2021965  73.3004372  23.5392659
  67.1791318  65.5277980  25.7659452  66.8904567  64.9015451  26.3005179
  68.0474666  65.4698267  25.8324132  67.2651570  65.4265524  25.8550406
  77.9669216  60.6712763  26.0841434  77.6233982  59.9503099  26.4348683
  78.0662259  60.4626615  25.2419792  77.9311259  60.5336967  26.0113114
  67.3823592  67.1673231  21.6901817  68.1369560  67.5486270  21.9037279
  66.7894204  67.6184375  22.1448513  67.4060305  67.2902058  21.7884695
  69.8430259  59.1236071  36.8159029  69.0330034  59.4293851  36.7048871
  70.3204945  59.8441654  36.9311613  69.7933737  59.2750673  36.8166100
  68.7021818  68.3381792  27.0641932  68.1802572  68.4782084  27.7493797
  69.0895839  67.5792457  27.2544050  68.6825519  68.2467316  27.1943009
  65.6913002  58.3887601  21.1336887  65.4037798  58.0188872  20.3968834
  66.3783471  58.8582456  20.8720592  65.7501900  58.4034571  20.9851963
  70.1288144  65.3685811  22.4623423  69.9330926  65.9760546  21.8683726
  70.3522489  64.6753755  21.9815097  70.1322785  65.3563337  22.3039504
  68.5266674  62.2540549  22.5804292  69.2489326  62.4181707  22.1208098
  68.0474667  62.9750214  22.4743631  68.5630405  62.3838779  22.4969906
  76.4860181  58.5904348  27.9600977  75.6471282  58.6165627  27.7239240
  76.5564549  59.2375084  28.5406323  76.3728575  58.6900474  28.0110093
  66.1774291  64.6598622  31.6858431  66.6895387  64.9382875  31.0367191
  65.8910633  65.3987916  32.0521244  66.2109154  64.8100975  31.6448310
  74.9329460  55.4889725  22.6928592  75.6355813  55.2897473  22.2148551
  74.6673648  54.7165668  22.9997436  74.9976092  55.3452691  22.6674034
  63.2641197  59.1668814  21.9822168  63.3657333  59.9694975  22.3103143
  64.0597084  58.9656150  21.6845248  63.3969102  59.2554712  21.9857523
  69.6958016  56.7525010  31.7459473  69.5041213  56.7680145  32.5958897
  70.5456612  56.9488685  31.7226128  69.7933738  56.7839362  31.8682768
  64.0804929  59.2815992  29.7243289  63.9390421  58.4299932  29.8487797
  64.3645492  59.3244652  28.9005496  64.1012775  59.1615742  29.6210914
  74.2343521  61.1183082  23.8687778  73.9878236  61.0378833  24.7024567
  74.5628644  60.3336550  23.6750305  74.2464765  60.9909347  23.9635301
  76.4669655  64.1262817  33.9096941  76.4617694  63.2542633  33.9139367
  77.1730649  64.3250986  33.4366396  76.5714659  64.0266691  33.8403976
  70.1940549  63.8539801  33.2810761  70.3383924  64.4341009  32.6453871
  70.5416197  64.2316097  33.9860615  70.2668010  63.9960505  33.2909756
  72.3660466  63.0529969  31.0635892  71.6183780  63.2460983  30.6584171
  72.5201991  62.2275189  30.8260014  72.2782894  62.9595080  30.9681298
  69.2668304  72.0442572  30.1471788  69.4157867  71.4845488  29.4945192
  70.0468306  72.1234574  30.5304307  69.4042397  71.9728138  30.1068737
  72.6062243  56.9480520  31.9531296  73.0634857  57.6804494  32.0804088
  72.6818572  56.5246985  32.7118552  72.6853213  56.9937758  32.0832373
  64.8495234  57.1946339  33.0420740  64.3137424  56.5826698  33.3581507
  64.9112999  57.7694475  33.6954407  64.7790867  57.1893267  33.1856167
  77.0789569  50.1270395  25.8225139  77.1973137  50.5846858  25.0892442
  76.9051745  49.3215656  25.5361357  77.0708740  50.0764167  25.6726073
  70.4844621  58.9382624  28.7973120  69.6940696  58.7574084  29.1190456
  70.8805244  58.1609576  28.7803415  70.4261497  58.7970085  28.8425669
  75.8688307  66.5725054  26.5232566  75.1933309  66.3410286  27.0245953
  75.8780683  65.9646237  25.8974671  75.7706812  66.4483979  26.5048718
  72.9982451  61.4142883  33.2796619  72.9341592  62.2752839  33.1516756
  73.1379639  61.0974876  32.4792170  73.0097921  61.4943049  33.1424832
  71.6801545  64.1075022  27.4212822  71.2563794  64.3079521  26.6851840
  71.5046400  63.2603870  27.5337122  71.5912426  64.0123804  27.3286512
  66.9683990  64.6027074  22.8540795  67.1248609  64.5373876  23.7096787
  67.3084583  65.3775626  22.6419474  67.0417225  64.7076272  22.9495389
  73.5063135  63.9784957  21.7234158  74.0478680  63.4755338  22.1872778
  73.8209694  63.9250152  20.9123643  73.6327532  63.8964378  21.6717970
  74.6552404  58.8721262  31.7756458  74.8694374  58.2332176  31.2219812
  74.0386303  59.3167085  31.3464320  74.5957733  58.8431405  31.6306889
  63.5418252  61.7862024  23.1701562  63.9217216  62.2046569  22.5061829
  62.9673616  62.3675480  23.4770405  63.5129576  61.9339883  23.1178303
  76.8191492  60.4810327  32.7139765  76.0068174  60.1736217  32.7952938
  77.2781427  60.0009327  33.2782478  76.7671877  60.3646819  32.8094359
  74.0467133  51.9821197  26.7643801  73.1760691  51.9559918  26.7177111
  74.3007474  51.8098389  25.9469647  73.9560693  51.9531341  26.6363938
  73.9145000  61.8870398  37.4968468  74.3844631  62.5112515  37.8836342
  73.9606880  61.2187374  38.0561682  73.9912875  61.8805079  37.6368539
  71.0716273  53.9927426  28.2217271  70.5554762  53.3007617  28.3468850
  70.5110202  54.6598203  28.1679870  70.9122786  53.9890683  28.2323337
  73.1408507  54.5320386  30.0510124  72.7540260  54.5569417  30.8323654
  72.6541444  53.9662064  29.5984641  73.0121016  54.4516137  30.0998028
  72.8065648  51.4187371  32.3420384  73.4358766  51.9547671  32.0641454
  72.9751511  51.3264730  33.1933950  72.9243443  51.4848733  32.4268912
  72.6079563  56.2058566  34.6146795  73.4352993  55.9343715  34.6705410
  72.6287409  57.0019408  34.9710614  72.7332413  56.2838320  34.6761978
  67.1849053  63.3522429  27.8017056  66.3437060  63.2526303  28.0095950
  67.3939061  64.1217909  28.1531377  67.0913746  63.4514472  27.8844371
  64.6624620  60.9741966  25.6301807  64.2681318  61.0484977  24.8551916
  64.1064737  61.3599912  26.1810169  64.5227432  61.0423740  25.5969467
  76.2989567  53.9523260  25.3105686  76.5039160  53.8845568  26.1562683
  75.9715991  54.7582081  25.2426863  76.2804815  54.0609200  25.4265341
  70.9965718  61.2803828  27.0514654  70.6928855  60.7259816  27.6525061
  70.2945139  61.4596038  26.5642688  70.8481928  61.2248610  27.0684359
  70.0531815  58.5904348  21.6159356  70.3291549  57.8723260  21.2036923
  70.6530484  59.1889268  21.4080462  70.1825080  58.5724718  21.5240117
  69.0584069  68.4953549  31.7586751  68.9504424  68.5055611  32.6248810
  69.2679850  69.3208329  31.5691705  69.0734180  68.6194623  31.8590843
  73.5542336  56.2617865  19.8905951  74.0086082  56.4328425  20.6153795
  74.0282381  55.6485976  19.4903726  73.6910656  56.1968750  19.9379712
  67.0757861  65.7466191  29.2208689  66.4845794  66.3875689  29.1911704
  67.8378885  66.1703808  29.1939989  67.1006122  65.9042029  29.2123836
  67.4718484  56.9068189  29.8876707  67.9319965  56.9807118  30.6251830
  67.5174590  57.7049443  29.5376528  67.5469039  57.0362336  29.9449463
  69.1201834  57.5734884  34.4548734  68.7287399  56.9268231  34.8904512
  69.2887696  58.1646319  35.0742989  69.0872744  57.5649152  34.6111440
  70.8955356  62.9660399  20.9950958  71.6397401  63.3534676  21.2333908
  71.0416052  62.1217825  21.1591446  71.0265941  62.8990872  21.0544927
  72.8134931  54.7610658  26.0282819  71.9670976  54.9333466  25.9024169
  72.8106063  53.9560002  26.3648648  72.6882081  54.6671687  26.0593946
  73.8833231  58.5385873  26.8944877  73.4093186  58.0127635  27.4050188
  74.2551367  57.9915346  26.3259739  73.8683120  58.3801869  26.8860024
  64.2606262  60.5357379  32.2628423  65.1231875  60.4353089  32.1765753
  63.9298045  59.9552089  31.7013995  64.3391458  60.4349006  32.1673829
  75.8116731  59.4322427  19.9570631  75.2839750  59.5151171  19.2676340
  76.2712439  60.1740299  19.9535276  75.8018582  59.5543090  19.8545326
  67.6208048  59.3599828  28.9238841  66.9961118  59.3718220  28.3164794
  67.2853642  59.8360004  29.5730081  67.4793539  59.4318345  28.9295410
  67.8049796  57.7024947  14.9811526  67.4562601  58.3544672  15.4443075
  67.3246242  57.6882060  14.2535397  67.6820040  57.7968001  14.9422617
  64.3333723  67.4200289  30.3642605  63.8033648  66.7292727  30.4137580
  64.6058816  67.4110474  29.5355314  64.2958445  67.3167420  30.2490021
  74.5339969  64.8623533  30.3380977  73.9196962  64.3181583  30.6329612
  75.0507254  64.3487770  29.8586793  74.5195631  64.7059942  30.3105205
  73.7736266  65.9327803  28.0725276  73.3463874  65.3077522  27.6390711
  73.7661210  65.6502725  28.8984283  73.7095407  65.7980584  28.1305103
  66.8898793  60.9692976  31.1413710  67.0492280  60.2136300  31.5465431
  66.7091687  61.5183916  31.7954447  66.8864152  60.9386790  31.2976416
  74.8319096  53.1354212  31.6964499  74.3359657  53.3317886  31.0056066
  75.5888158  53.5346880  31.5253301  74.8705921  53.2231946  31.5684636
  72.1021975  56.8096558  28.2867810  72.1264463  56.2756670  27.5980590
  72.3533449  56.3013867  28.9493400  72.1431894  56.6557462  28.2832454
  59.6129565  64.0928053  27.7210954  59.5073014  64.0474897  26.8563038
  58.8629785  64.4381833  28.0025239  59.4865168  64.1368961  27.6348283
  68.3823298  55.5367376  27.6673554  68.4221669  56.0376583  28.3808261
  67.5572962  55.6277770  27.3979477  68.2662824  55.6249192  27.7324092
  70.5652911  65.1028116  35.7693848  69.7148541  65.2399830  35.9051493
  70.7281038  64.3691894  36.2141550  70.4636774  65.0142217  35.8549448
  69.8037661  62.0527886  29.9647453  68.9729591  62.2201704  29.7582701
  69.7489178  61.6763837  30.7496338  69.6727076  62.0217617  30.0495981
  67.6121444  55.5436779  35.6003864  68.2374148  54.9998912  35.8733296
  67.1571924  55.0631696  35.0311654  67.6369705  55.3926260  35.5565457
  68.1773705  60.3283477  20.4937571  68.3176666  60.8255942  21.1966212
  68.6756238  59.6269772  20.6351784  68.2714786  60.2985456  20.6189150
  68.2073927  61.1950588  17.8230147  68.8419007  61.7911013  17.7579609
  68.2899538  60.8954046  18.6376018  68.3130478  61.2391497  17.9333234
  69.7852910  57.1264564  17.7975589  70.1068751  56.6467646  17.1434852
  70.0479854  57.9364210  17.6066401  69.8718936  57.1754462  17.6731081
  73.0149883  68.1483438  31.3174406  72.5074974  68.7019285  31.7615036
  72.7176529  68.2091728  30.4993180  72.8954768  68.2389749  31.2622862
  75.1812065  56.5136758  30.1599069  75.6067137  56.0609284  29.5482595
  74.5669058  55.9596828  30.4363856  75.1540711  56.3650734  30.1104094
  64.7126915  63.3918429  21.0919693  65.2219145  63.9882937  21.4730999
  65.1861187  63.1244403  20.4096113  64.8570291  63.4404245  21.0474216
  73.6206288  52.9851858  23.5689646  72.9774606  52.8349504  24.1374784
  73.2805695  52.7394203  22.8038750  73.4751365  52.9263980  23.5392661
  78.3733762  57.3967168  25.9010027  78.7261372  56.9696891  26.5755826
  77.5148563  57.3118012  26.0311104  78.2983207  57.3211909  26.0205038
  67.0717447  60.0274688  23.9592874  66.3529436  60.4438820  24.2265737
  67.4429809  60.5928926  23.4084512  67.0209379  60.1723969  23.9175681
  76.3717028  60.6602537  29.8494870  76.3514955  60.4785832  30.7029648
  76.4196228  61.5314555  29.8254453  76.3751669  60.7619075  29.9718164
  74.3163358  67.2489729  35.7743346  74.2759212  66.6039406  35.1888502
  75.1286676  67.1926346  36.0868758  74.4306511  67.1448695  35.7340295
  72.8464021  59.0672688  19.2966253  72.2528861  59.3889684  18.7450820
  72.8839299  58.2213783  19.0887359  72.7638410  58.9897016  19.1849025
  75.7221838  59.0252192  22.7268004  75.4935531  59.0484894  21.8846362
  75.9819914  58.2009659  22.8463014  75.7268026  58.9068272  22.6193201
  70.0041066  60.8786665  32.3293104  69.4919969  60.2707848  32.6878135
  69.8320562  61.5943258  32.7967080  69.9030703  60.8949964  32.4509327
  64.8506781  59.3224240  34.9795466  64.6809371  59.9825615  34.4343672
  64.4072731  59.5330802  35.7007955  64.7606115  59.4510223  35.0057095
  68.7766600  57.5628738  24.0222199  69.2523967  57.9245818  23.3872380
  68.2755200  58.2185206  24.3022342  68.7731959  57.7122927  23.9698940
  73.8810137  58.8010910  34.7695359  74.4381567  58.5724719  34.1373825
  73.5571202  59.5616575  34.4930572  73.9156547  58.8794746  34.6351856
  61.7508846  62.2271106  30.2383955  61.2035565  61.5571752  30.3564824
  62.5401224  61.8600954  30.3027423  61.7861029  62.0736092  30.2652656
  71.5993254  61.8878563  35.7347366  72.3504581  62.2030240  36.0486921
  71.7915830  61.6857734  34.9081288  71.7384668  61.9045945  35.6590762
  70.8193254  59.7069938  17.3895583  71.1992218  59.7249567  16.6046698
  70.0785850  60.1523927  17.2686430  70.7662091  59.7751713  17.2559151
  78.4478544  58.0152129  22.9771162  78.4472770  57.8600786  23.8355438
  78.2434724  58.8615116  22.9212547  78.4178322  58.1172750  23.0959101
  60.5095815  61.4391914  27.3929978  60.3317576  60.9868523  28.1184894
  60.2214837  62.2418075  27.5768456  60.4408768  61.4914472  27.5273481
  76.1719396  62.6949631  26.6307369  76.6673061  61.9772626  26.5911389
  75.3619172  62.3920429  26.5161856  76.1263289  62.5447277  26.6081095
  62.2468285  63.9719638  24.5051737  61.3813804  63.9605328  24.3934509
  62.3467101  63.7849860  25.3522877  62.1342452  63.9425699  24.6140682
  78.2371215  65.4453319  29.3184497  78.6626287  64.9227741  28.7654923
  77.8728135  66.0434156  28.7973120  78.2457818  65.4563546  29.1593507
  67.8725295  73.7417536  28.0781843  68.1871854  74.5553925  28.0859625
  68.2818708  73.3567755  28.7464002  67.9793393  73.8046239  28.1785935
  74.8249814  69.1587583  25.6485655  75.2960993  69.8727846  25.8175640
  75.1609993  68.5586333  26.1845524  74.9444929  69.1759047  25.7518031
  71.7419309  53.9315054  32.6043750  71.8747215  53.1346047  32.9324725
  72.1264462  54.4581457  33.1842025  71.8175638  53.8914970  32.7387253
  75.4623761  68.9505517  32.4113348  74.9144707  68.3263401  32.1433413
  75.9236789  69.1399789  31.6957427  75.4490970  68.8864567  32.2663779
  74.8151665  50.8545380  29.2024843  74.0097628  50.7443109  29.5192681
  74.6858400  50.9557835  28.3454709  74.6771797  50.8529050  29.1232883
  78.2717625  57.0190872  29.7964540  77.6880614  57.5200078  29.3842107
  78.5921919  56.5120428  29.1628863  78.2330800  57.0182707  29.6423047
  70.8112424  55.9331466  20.0723215  71.6328119  56.1029779  19.8304910
  70.3482075  56.0878727  19.3489512  70.8643587  55.9813199  19.9294859
  69.4007756  53.9274229  30.8521644  69.9452169  53.5865355  31.4425985
  69.4544692  54.7859690  30.9942928  69.4896876  54.0029488  30.9603517
  65.2138315  67.6890645  27.7260451  65.8183172  67.6486479  27.0974272
  65.0065627  68.5361797  27.7564507  65.2727212  67.8078647  27.6376568
  60.4489597  66.6725262  27.5959375  60.3513875  65.8621534  27.9049431
  61.2318467  66.6517056  27.2105643  60.5505734  66.5492352  27.5846237
  36.3042547   6.0292691  13.0273403  36.9480003   6.4705855  13.4169561
  36.6298803   5.2246117  12.9403661  36.4474376   5.9757886  13.0718880
  40.9501923   1.2548054  21.0933074  41.0385269   1.0674195  21.9411284
  41.3791635   0.6085484  20.6937921  41.0264025   1.1311062  21.1604825
  38.5172383   0.5379214  20.0750736  37.9543217   0.1251824  20.5990397
  39.2793406   0.4632120  20.4943879  38.5466831   0.4656615  20.2143736
  41.0621982   0.6857073  23.7576857  41.8462399   0.7987921  24.1232599
  40.8618577  -0.1401790  23.9535543  41.1488007   0.5803793  23.8411243
  41.2192375   2.5967175  17.4043313  40.4207621   2.3566675  17.6617182
  41.6678387   2.6481568  18.1510361  41.1666987   2.5689566  17.5528237
  36.0421377   2.4264780  17.0811834  36.1910941   1.8667696  16.4285239
  36.8221379   2.5056782  17.4644353  36.1795470   2.3550345  17.0408784
  38.5674677   2.5979423  18.3596325  38.4918349   1.9288233  18.9147114
  38.4964537   3.2997211  18.8736992  38.5455284   2.6024330  18.5173173
  37.9566312   6.0047742  16.8174326  38.4462242   5.3058532  16.6349991
  37.3850544   5.7071612  17.4050383  37.9450842   5.8573966  16.8775367
  35.8337142  -1.1224244  18.6926798  35.7257497  -1.1122182  19.5588856
  36.0432924  -0.2969464  18.5031752  35.8487253  -0.9983169  18.7930890
  43.6100450   1.5797710  13.5880760  43.4120139   2.0688524  12.8936972
  42.9888161   1.7838952  14.1664894  43.4888015   1.6814248  13.5703984
  39.7902956  -1.4694354  18.2514452  39.2828047  -0.9158508  18.6955083
  39.4929602  -1.4086065  17.4333227  39.6707841  -1.3788043  18.1962909
  39.0345441   3.4630204  15.1571459  38.8111096   2.7049033  15.5255486
  38.5455285   3.4928225  14.4351899  38.9288890   3.3552428  15.1048200
  41.0489193   2.8420747  13.3632160  40.6505476   2.9523017  12.5952981
  40.4340412   3.0502813  13.9458720  40.8988082   2.8894315  13.3363460
  34.6478368   4.1239744  15.0121890  34.9624927   4.9376132  15.0199672
  35.0571781   3.7389962  15.6804049  34.7546466   4.1868446  15.1125981
  43.6879872   1.1511104  24.7617774  43.7976838   0.3619664  25.1174521
  44.0170769   1.0617040  23.9592112  43.7532278   1.0216957  24.6960165
  41.8035160   0.3378797  15.8762736  42.6233534   0.1941763  16.1379031
  41.5229238   0.9624996  16.4179174  41.8831904   0.4089149  15.9950675
  51.4748496   7.0819300  13.5958542  50.6186391   7.2427798  13.6467659
  51.5216149   6.2111364  13.6163603  51.3547607   6.9770102  13.6064608
  45.8589635  16.6182018   9.3595774  45.1072535  16.2397556   9.1311819
  46.3075647  16.6500451   8.6114584  45.8139302  16.5667625   9.2153276
  54.7842212  13.3505826  23.2018999  55.4908979  12.8557856  23.3305933
  54.9730147  13.7914907  22.4721657  54.9170118  13.3424176  23.1128044
  51.3114595  17.0407387   4.7881321  50.9765964  17.7184309   4.3525543
  51.8241466  16.6512699   4.1998193  51.3380176  17.0831965   4.6368113
  50.8518886  18.9921656  10.7292433  51.2358266  19.5608555  10.1897208
  50.7878028  18.2671166  10.2498249  50.8992314  18.9697119  10.5786295
  54.3200317   9.1411344  16.2390194  54.8656277   9.8196430  16.2984164
  54.2617193   8.9998805  15.3791776  54.3916231   9.2203346  16.1202255
  47.4374391  16.6300410  11.6258546  47.5384754  15.8200764  11.9355674
  46.8416137  16.5357356  10.9958225  47.3646930  16.4965438  11.5784785
  56.0965385  10.5695951   7.1123922  55.9804911  11.3203637   7.5416060
  56.8921272  10.3119904   7.3620009  56.1969975  10.6430798   7.2128013
  47.2775131  21.5477999  13.0273403  47.9212586  21.9891163  13.4169561
  47.6031387  20.7431425  12.9403661  47.4206960  21.4943194  13.0718880
  40.6339436  12.6520696  11.2510880  40.3989620  11.8188349  11.1443149
  40.7725076  12.9325362  10.4372081  40.6195098  12.5704200  11.1153235
  42.9329523   4.8206427  14.1495188  42.3134555   4.2299074  13.9805203
  42.8313387   5.4117862  13.5159511  42.8267199   4.8210510  14.0300177
  47.9795711  14.5589974   8.3993264  48.3011552  15.0995181   7.7954572
  48.6267807  13.9886745   8.5315554  48.1221766  14.5549149   8.3300300
  50.0297419   6.5605969   8.4827651  50.7277583   6.7394096   8.9749114
  50.3449751   6.0376308   7.8598040  50.1792756   6.5099741   8.4629661
  42.6598656   8.3658709  16.3938757  42.5357353   8.9521154  17.0288576
  43.3116941   7.8718905  16.6951032  42.7372305   8.3797513  16.5324686
  50.2185354  12.9476414   8.4707442  50.6578990  12.3393514   8.9162215
  50.0690017  12.5683787   7.6992907  50.2606820  12.8014885   8.4226610
  47.6856997  11.5420426  15.6726268  48.3306000  11.0492869  15.3537216
  47.9258774  11.6845212  16.4992346  47.8167582  11.4897868  15.7475801
  50.2243089  14.3875332  15.3233160  50.5066331  13.5926737  15.1019916
  50.9529249  14.8655919  15.3438221  50.3732652  14.3409929  15.2936176
  48.2024282   1.9298366  12.5648926  47.8727612   2.3809509  11.8952624
  47.5269284   1.8514529  13.1121932  48.0534719   1.9849501  12.5472149
  53.8194691  11.3003595   5.4238212  53.7345986  12.1564562   5.5687780
  54.3079074  11.0247919   6.0920371  53.8783588  11.3860917   5.5440293
  54.7513124   7.9188389   6.9235947  54.2224595   8.1348023   7.5833253
  55.2738144   8.6124528   6.8436916  54.7501577   8.0531526   7.0091546
  60.2061177  13.4934694  12.2968991  59.3758880  13.7045337  12.4602408
  60.1570429  12.6671748  12.0211275  60.0767912  13.4024300  12.2806357
  42.1956760  17.5306367  12.5267086  41.7124339  18.2556857  12.5026670
  43.0080079  17.8282497  12.6377244  42.2447508  17.6808721  12.5394366
  48.2670914  16.3238548  15.1316901  47.7497856  15.9645963  14.5278209
  48.9645306  15.8000722  15.1422967  48.2936496  16.1936236  15.0447159
  51.9234506  16.7733362  21.0933074  52.0117852  16.5859502  21.9411284
  52.3524219  16.1270792  20.6937921  51.9996609  16.6496370  21.1604825
  49.4904966  16.0564522  20.0750736  48.9275801  15.6437132  20.5990397
  50.2525990  15.9817428  20.4943879  49.5199415  15.9841923  20.2143736
  45.0500958  18.0462543  12.6787366  45.7521537  17.5314532  12.7360123
  44.9698441  18.3736695  13.4834241  45.1424718  18.0176769  12.8060158
  59.7015135   6.1405094  16.0919413  58.8643556   6.2107282  16.3267007
  59.6703366   6.1429589  15.2193715  59.5733418   6.1515322  15.9978961
  46.0979864   8.2838130  21.8067781  46.2700368   8.1744025  22.6553063
  46.6349222   8.9292536  21.5698974  46.2024868   8.3630132  21.8972878
  44.3751733  14.2368895  12.1872974  45.2140632  14.4691828  12.2346736
  44.4063502  13.3673207  12.1180010  44.5033451  14.1425842  12.1837619
  45.0004436  14.6569770  16.4886280  45.5402661  14.5140901  17.1589652
  44.3174382  15.0566521  16.8570306  44.9796590  14.6949441  16.6420701
  54.4245321  10.3360771  11.6831304  55.1802836  10.7692285  11.7220213
  54.5307645   9.6865541  12.2565940  54.5515492  10.3038255  11.7729330
  57.4625492  14.1634048  12.4333707  57.0260724  14.1670791  13.1892678
  57.1288408  14.8439547  12.0013284  57.3488112  14.2646504  12.4814540
  52.0354566  16.2042381  23.7576857  52.8194982  16.3173229  24.1232599
  51.8351160  15.3783518  23.9535543  52.1220591  16.0989100  23.8411243
  40.4041581  10.8770061  16.6420701  40.1379996  10.0609178  16.8011692
  40.4180145  10.9223217  15.7716217  40.3666303  10.7626966  16.5374183
  45.1540187   4.4148439  19.2887709  44.4611984   3.9445419  19.5348440
  45.7700515   4.1886744  19.8629416  45.1424717   4.3115571  19.4096862
  52.1924959  18.1152483  17.4043313  51.3940205  17.8751983  17.6617182
  52.6410971  18.1666876  18.1510361  52.1399570  18.0874874  17.5528237
  60.5969838  10.8814968  11.3253344  61.2586272  10.3205637  11.2249253
  59.9561250  10.3866999  11.6506035  60.5998706  10.7251377  11.3585684
  51.4846646  14.1785100   3.6334268  51.8997794  13.8470123   2.9418763
  50.6538576  13.9454002   3.5054404  51.4234655  14.0956356   3.5125115
  40.8134995  11.6628841  13.9232445  40.6310568  11.6375727  13.0704738
  41.5484664  12.1327778  13.9621354  40.8949059  11.7290203  13.8030364
  56.8834669  11.8980351  11.0665333  57.1190258  12.0425549  10.2392184
  57.0324233  12.6622759  11.4596847  56.9400472  12.0319405  11.0028937
  43.8780746   8.3813843  20.4314554  44.6020719   8.3666874  20.9179449
  43.9796883   9.0909199  19.9336522  43.9998956   8.4838547  20.4293341
  58.7125126  10.7382016   8.9034937  59.0433343  11.2709657   8.2975032
  59.2858214  10.7920904   9.5596888  58.8458805  10.8251585   8.9112719
  51.2525696  11.8612928  25.2963501  50.4598677  12.1756440  25.4816121
  51.3674623  12.0764396  24.4584286  51.1521106  11.9396765  25.2001836
  53.9257015   8.5846919   9.5858517  54.0203869   9.3236213  10.0398142
  53.3015858   8.1564395  10.0193082  53.8466045   8.6308240   9.7166665
  52.1809489  11.7633132  20.2348798  52.7548350  11.1260376  20.3897362
  52.1024292  11.7637214  19.3658455  52.2542724  11.6698243  20.1295209
  40.7805905   8.5422341  14.0731512  41.3579408   8.4058792  14.7123757
  40.0819967   8.0858125  14.3277096  40.7626927   8.4544607  14.2053802
  47.5373207  10.1956397  12.2869995  47.2792452   9.3628132  12.2601295
  47.5921690  10.4214010  11.4462496  47.5072985  10.1054168  12.1590132
  46.5107919   7.7494159  12.7734890  45.9357511   7.9086328  13.4098851
  46.1343596   7.1129569  12.3103341  46.3710732   7.6791972  12.7989448
  50.1781208   6.2217509  17.6327268  49.7895641   5.7971726  16.9779460
  49.5135906   6.4699658  18.1404295  50.0228136   6.1956230  17.6115136
  57.5029636  13.1342109  20.2433651  57.2668274  12.3030174  20.1245712
  58.1472865  13.0827717  20.8288495  57.5624307  13.0039797  20.3119545
  47.1528055  13.9237631  10.9576388  47.7902002  13.6849378  11.5028181
  47.5783126  14.1274790  10.2229548  47.3104221  13.9188641  10.9293545
  41.8440697  16.1625967  14.8410691  41.8844842  16.4340818  14.0130471
  42.4035221  16.6867875  15.2568479  41.9324043  16.2801722  14.7802579
  47.9599410   2.4246336  25.0113861  47.6452851   3.1945898  24.7483424
  47.6389343   1.8616592  24.4266088  47.8658329   2.4556604  24.8855211
  58.5266057  12.9186558  16.3061946  58.2211874  13.6514615  16.6675261
  57.8072273  12.5124488  16.0254732  58.3753399  12.9668291  16.3175083
  49.5349527  14.4010053  12.6370174  49.6088535  14.2385225  13.4912024
  50.3519033  14.5900243  12.3930655  49.6665885  14.4046796  12.7268199
  64.2267849   9.5579559  15.6330290  64.1592350   9.5775518  14.7632876
  64.2123512  10.4009886  15.8585960  64.2146606   9.6853293  15.5382767
  43.2955283  14.7467916   9.6664617  42.4693401  14.9929653   9.5398896
  43.3567274  14.6679997  10.5326675  43.1829450  14.7712865   9.7753562
  48.0754112  17.3644796   7.3683647  48.3652411  16.9733778   6.6442874
  48.8057593  17.5461501   7.8088922  48.2260996  17.3338610   7.3266454
  62.0126467   8.3323945  13.9076884  62.5634388   7.6992014  14.1473976
  61.9970582   8.8639338  14.5992389  62.0911663   8.3172893  14.0455742
  48.6648857  12.1662542  18.4536778  48.1660551  12.8778310  18.5321666
  49.4749082  12.4863209  18.4154940  48.7104964  12.3189391  18.4593346
  46.0160028  19.3412179  10.4343797  45.7960323  19.0509534  11.2270464
  45.7954550  18.6827134   9.9061709  45.9507622  19.2011887  10.4732706
  44.9276975  11.4285495  12.6999499  44.6390224  10.8022967  13.2345226
  45.7960323  11.3705783  12.7664179  45.0137227  11.3273040  12.7890453
  55.7154873   6.5720279  13.0181480  55.3719639   5.8510614  13.3688730
  55.8147915   6.3634130  12.1759839  55.6796916   6.4344482  12.9453160
  48.1827984  20.7141569   9.2174489  48.8352042  20.1818011   9.4465515
  47.4853592  20.3610221   9.6042363  48.1758702  20.5831092   9.3086657
  45.1309248  13.0680746   8.6241864  45.8855216  13.4493785   8.8377326
  44.5379861  13.5191890   9.0788560  45.1545962  13.1909574   8.7224742
  56.1767902  13.0345983   8.5605469  56.7425935  13.6939193   8.4764011
  55.5295805  13.3795681   9.0321871  56.1646658  13.1827924   8.6178225
  47.5915915   5.0243587  23.7499076  46.7815691   5.3301366  23.6388918
  48.0690602   5.7449169  23.8651660  47.5419394   5.1758188  23.7506147
  46.4507475  14.2389308  13.9981979  45.9288229  14.3789599  14.6833844
  46.8381495  13.4799972  14.1884096  46.4311176  14.1474832  14.1283056
  52.6474480  15.9784767   7.9842548  52.4061156  15.2452628   7.5769613
  52.8275813  16.5271624   7.3308881  52.6382104  15.9507158   7.8272771
  47.8773801  11.2693327   9.3963470  47.6816583  11.8768061   8.8023773
  48.1008146  10.5761271   8.9155144  47.8808442  11.2570852   9.2379551
  46.2752331   8.1548065   9.5144338  46.9974983   8.3189223   9.0548144
  45.7960323   8.8757729   9.4083678  46.3116061   8.2846294   9.4309952
  54.2345838   4.4911863  14.8941023  53.3956939   4.5173142  14.6579287
  54.3050206   5.1382599  15.4746370  54.1214232   4.5907989  14.9450140
  43.9259947  10.5606137  18.6198478  44.4381044  10.8390390  17.9707238
  43.6396290  11.2995431  18.9861291  43.9594810  10.7108491  18.5788356
  58.1103362   9.6979850  12.1802265  58.0237337   9.8535276  13.0337044
  57.6553842  10.3417926  11.8061670  58.0306619   9.8155605  12.2509372
  47.4443673   2.6532526  18.6799520  47.2526870   2.6687660  19.5298943
  48.2942269   2.8496200  18.6566175  47.5419395   2.6846877  18.8022815
  41.8290586   5.1823507  16.6583336  41.6876078   4.3307448  16.7827844
  42.1131149   5.2252168  15.8345542  41.8498432   5.0623257  16.5550960
  51.9829178   7.0190597  10.8027825  51.7363892   6.9386348  11.6364614
  52.3114301   6.2344065  10.6090352  51.9950422   6.8916863  10.8975348
  55.8777227  13.7273957  14.5914606  55.7391586  14.4255002  15.0963348
  55.0977225  13.5722613  14.2350788  55.7420454  13.8074123  14.6140880
  54.2155312  10.0270332  20.8436988  54.2103351   9.1550149  20.8479414
  54.9216306  10.2258501  20.3706443  54.3200316   9.9274206  20.7744023
  47.9426205   9.7547316  20.2150808  48.0869581  10.3348524  19.5793918
  48.2901854  10.1323613  20.9200662  48.0153667   9.8968020  20.2249803
  50.1146123   8.9537484  17.9975939  49.3669437   9.1468499  17.5924217
  50.2687648   8.1282704  17.7600061  50.0268550   8.8602596  17.9021345
  47.0153960  17.9450088  17.0811834  47.1643524  17.3853004  16.4285239
  47.7953962  18.0242089  17.4644353  47.1528054  17.8735653  17.0408784
  49.5407261  18.1164731  18.3596325  49.4650932  17.4473541  18.9147114
  49.4697120  18.8182519  18.8736992  49.5187868  18.1209638  18.5173173
  50.3547900   2.8488035  18.8871343  50.8120514   3.5812009  19.0144135
  50.4304229   2.4254500  19.6458599  50.4338870   2.8945273  19.0172419
  42.5980891   3.0953855  19.9760787  42.0623080   2.4834213  20.2921554
  42.6598656   3.6701991  20.6294453  42.5276524   3.0900782  20.1196213
  50.1977508  16.6365729   9.1919931  50.9627399  16.3675373   8.8702596
  50.0955598  16.1515740   9.9089994  50.2959003  16.5255294   9.2499759
  48.2330278   4.8390139  15.7313167  47.4426352   4.6581599  16.0530503
  48.6290901   4.0617091  15.7143461  48.1747154   4.6977600  15.7765715
  53.6173964  12.4732569  13.4572613  52.9418966  12.2417801  13.9586000
  53.6266340  11.8653752  12.8314718  53.5192469  12.3491494  13.4388765
  50.7468108   7.3150398  20.2136666  50.6827249   8.1760355  20.0856803
  50.8865296   6.9982391  19.4132217  50.7583578   7.3950565  20.0764879
  55.6190699  15.3297701   5.6882791  55.7010536  16.1364688   5.3644242
  56.1040441  15.3493661   6.4123564  55.7027856  15.4518364   5.7469690
  49.4287202  10.0082537  14.3552869  49.0049451  10.2087036  13.6191887
  49.2532057   9.1611385  14.4677169  49.3398082   9.9131319  14.2626559
  48.9298895  21.5233050  16.8174326  49.4194826  20.8243840  16.6349991
  48.3583128  21.2256920  17.4050383  48.9183425  21.3759274  16.8775367
  44.7169647  10.5034589   9.7880841  44.8734266  10.4381392  10.6436833
  45.0570240  11.2783141   9.5759521  44.7902882  10.6083787   9.8835436
  51.2548791   9.8792472   8.6574205  51.7964337   9.3762854   9.1212825
  51.5695350   9.8257667   7.8463690  51.3813189   9.7971893   8.6058017
  55.1265899  14.0895120  25.7701117  55.9400764  13.8180269  25.9306249
  54.9660865  13.7902660  24.9661313  55.2235847  14.0050046  25.6746523
  49.4235241  15.2709824   5.9414233  49.4928061  14.4124362   6.0807233
  50.2023696  15.4881705   5.6133257  49.5488091  15.1762688   5.9131390
  52.4038061   4.7728777  18.7096505  52.6180030   4.1339691  18.1559859
  51.7871960   5.2174601  18.2804367  52.3443390   4.7438921  18.5646936
  53.8142729  17.6947525  10.1550726  53.4222520  17.3914240   9.4373592
  53.9695801  18.5316615   9.9655680  53.7796319  17.7731362  10.0207223
  41.2903908   7.6869539  10.1041609  41.6702873   8.1054084   9.4401876
  40.7159273   8.2682995  10.4110452  41.2615233   7.8347398  10.0518350
  54.5677149   6.3817842  19.6479812  53.7553831   6.0743732  19.7292985
  55.0267083   5.9016842  20.2122524  54.5157534   6.2654334  19.7434406
  53.9782404  14.2597514  10.0956756  53.6197058  14.4312157  10.8720789
  53.4921114  14.7210720   9.5384755  53.8541100  14.3536485  10.1282026
  51.6630656   7.7877914  24.4308514  52.1330288   8.4120030  24.8176389
  51.7092537   7.1194889  24.9901729  51.7398532   7.7812594  24.5708586
  55.1387143  15.1501410  21.0423957  55.7766863  14.6561606  20.7086413
  54.4961234  15.0778811  20.4576184  55.1381369  15.0660419  20.9066312
  56.8644143   6.9990556  15.6089873  56.4371751   6.9116905  14.8537973
  56.2270196   7.1068332  16.1944717  56.7073750   7.0023216  15.5835315
  55.1941399  15.8421218  17.6829314  55.9833778  15.4910283  17.8031396
  55.3684997  16.6557607  17.4205948  55.3361681  15.9107075  17.6617182
  44.9334710   9.2529944  14.7357103  44.0922716   9.1533818  14.9435997
  45.1424718  10.0225424  15.0871424  44.8399402   9.3521987  14.8184418
  42.4110277   6.8749481  12.5641854  42.0166975   6.9492493  11.7891963
  41.8550394   7.2607427  13.1150215  42.2713089   6.9431256  12.5309513
  48.7451375   7.1811343  13.9854700  48.4414512   6.6267332  14.5865108
  48.0430796   7.3603553  13.4982735  48.5967585   7.1256126  14.0024406
  46.8069726  14.3961064  18.6926798  46.6990081  14.4063126  19.5588856
  47.0165507  15.2215844  18.5031752  46.8219837  14.5202139  18.7930890
  44.8243518  11.6473706  16.1548736  44.2331451  12.2883205  16.1251751
  45.5864541  12.0711324  16.1280035  44.8491778  11.8049545  16.1463883
  45.2204141   2.8075704  16.8216753  45.6805622   2.8814634  17.5591877
  45.2660247   3.6056958  16.4716575  45.2954696   2.9369851  16.8789510
  46.8687490   3.4742399  21.3888781  46.4773055   2.8275746  21.8244558
  47.0373353   4.0653834  22.0083036  46.8358401   3.4656667  21.5451487
  60.9433939  11.4779476  17.1526014  61.0017063  11.9266125  17.8985991
  60.3100407  11.8878289  16.7156094  60.8585234  11.6053211  17.1978562
  54.5833034  17.0983018  13.5880760  54.3852723  17.5873832  12.8936972
  53.9620745  17.3024259  14.1664894  54.4620598  17.1999556  13.5703984
  48.6441012   8.8667915   7.9291005  49.3883057   9.2542191   8.1673954
  48.7901709   8.0225340   8.0931492  48.7751597   8.7998388   7.9884974
  51.6318888   4.4393388  13.8284924  51.1578842   3.9135150  14.3390235
  52.0037024   3.8922861  13.2599785  51.6168777   4.2809385  13.8200071
  42.0091918   6.4364895  19.1968470  42.8717531   6.3360604  19.1105799
  41.6783701   5.8559604  18.6354042  42.0877115   6.3356522  19.1013876
  57.8955619   9.4995764  15.2391704  57.6553842   8.6602179  15.2434131
  58.3747626   9.5795930  15.9632478  57.9307802   9.3877163  15.3466507
  59.8960806   6.2797221  13.1920964  59.6570576   6.2393055  12.3541748
  60.0594707   7.1268373  13.3186685  59.8851109   6.3989306  13.0874445
  56.5006836  10.6647170  19.1226009  57.2241035  10.2119697  18.9437029
  56.2356798  10.9451836  18.3398337  56.5688109  10.6398139  18.9804724
  45.3693704   5.2607344  15.8578888  44.7446774   5.2725736  15.2504841
  45.0339299   5.7367519  16.5070128  45.2279196   5.3325861  15.8635456
  42.0819380  13.3207804  17.2982652  41.5519304  12.6300243  17.3477627
  42.3544473  13.3117989  16.4695361  42.0444102  13.2174936  17.1830068
  53.1139470  13.9033506   6.0220335  53.8373669  14.3691619   5.8784908
  52.6740061  13.9707116   5.2717932  53.1555163  13.9817343   5.8905116
  52.2825625  10.7631048  17.2721024  51.6682619  10.2189099  17.5669659
  52.7992910  10.2495285  16.7926840  52.2681288  10.6067458  17.2445252
  51.5221923  11.8335319  15.0065322  51.0949531  11.2085037  14.5730758
  51.5146867  11.5510240  15.8324330  51.4581064  11.6988099  15.0645150
  44.6384450   6.8700492  18.0753756  44.7977936   6.1143816  18.4805478
  44.4577343   7.4191431  18.7294494  44.6349809   6.8394305  18.2316462
  49.8507632   2.7104073  15.2207856  49.8750119   2.1764185  14.5320636
  50.1019106   2.2021382  15.8833447  49.8917551   2.5564977  15.2172501
  37.3615222   9.9935568  14.6551000  37.2558671   9.9482412  13.7903085
  36.6115442  10.3389349  14.9365285  37.2350825  10.0376476  14.5688330
  46.1308954   1.4374891  14.6013601  46.1707326   1.9384098  15.3148308
  45.3058619   1.5285285  14.3319524  46.0148480   1.5256708  14.6664139
  48.3138567  11.0035631  22.7033895  47.4634198  11.1407346  22.8391540
  48.4766695  10.2699410  23.1481597  48.2122431  10.9149732  22.7889494
  47.5523318   7.9535401  16.8987500  46.7215248   8.1209219  16.6922748
  47.4974835   7.5771352  17.6836385  47.4212733   7.9225132  16.9836028
  45.3607101   1.4444294  22.5343910  45.9859805   0.9006427  22.8073343
  44.9057581   0.9639212  21.9651701  45.3855362   1.2933775  22.4905504
  58.9342150   9.6273581  17.6256558  59.5259990  10.2670832  17.6574756
  59.3701144   8.9296618  17.9148625  59.0860581   9.6191931  17.6737391
  50.7635540  14.0490953  18.2514452  50.2560631  14.6026800  18.6955083
  50.4662186  14.1099243  17.4333227  50.6440425  14.1397265  18.1962909
  53.3743320  17.9654211   6.1818396  52.6572630  17.7915073   5.7165633
  54.0250058  17.7306783   5.6493882  53.3645171  17.9050004   6.0347614
  55.9591291   6.8418800   9.9259701  55.2882481   7.3848502   9.7972766
  56.6531042   7.3113655   9.6841396  55.9620159   6.9917071   9.8715229
  50.0078025  18.9815512  15.1571459  49.7843679  18.2234341  15.5255486
  49.5187868  19.0113533  14.4351899  49.9021474  18.8737736  15.1048200
  44.8203104   5.9282203  10.8932921  44.1015093   6.3446336  11.1605784
  45.1915466   6.4936442  10.3424559  44.7695036   6.0731484  10.8515728
  54.1202685   6.5610052  16.7834916  54.1000612   6.3793347  17.6369695
  54.1681885   7.4322070  16.7594500  54.1237326   6.6626590  16.9058211
  52.0649014  13.1497244  22.7083393  52.0244869  12.5046921  22.1228549
  52.8772333  13.0933861  23.0208805  52.1792168  13.0456211  22.6680342
  48.6556482  19.2015970  12.6108544  48.2416881  18.5390100  12.2212385
  49.3403856  19.3493829  12.0904238  48.6954854  19.1256628  12.4765041
  52.0221776  18.3606055  13.3632160  51.6238059  18.4708325  12.5952981
  51.4072996  18.5688121  13.9458720  51.8720665  18.4079623  13.3363460
  53.4707495   4.9259707   9.6608050  53.2421188   4.9492409   8.8186409
  53.7305571   4.1017174   9.7803061  53.4753683   4.8075787   9.5533248
  47.7526723   6.7794180  19.2633151  47.2405626   6.1715363  19.6218182
  47.5806219   7.4950773  19.7307126  47.6516360   6.7957480  19.3849374
  42.5992438   5.2231756  21.9135512  42.4295028   5.8833131  21.3683719
  42.1558388   5.4338317  22.6348001  42.5091771   5.3517738  21.9397142
  46.5252257   3.4636254  10.9562246  47.0009623   3.8253334  10.3212427
  46.0240857   4.1192721  11.2362389  46.5217616   3.6130442  10.9038987
  51.6295793   4.7018425  21.7035406  52.1867224   4.4732235  21.0713872
  51.3056858   5.4624091  21.4270619  51.6642204   4.7802262  21.5691903
  39.4994502   8.1278621  17.1724002  38.9521222   7.4579267  17.2904871
  40.2886881   7.7608469  17.2367469  39.5346686   7.9743608  17.1992703
  49.3478911   7.7886078  22.6687413  50.0990238   8.1037755  22.9826967
  49.5401487   7.5865249  21.8421335  49.4870325   7.8053460  22.5930809
  38.2581472   7.3399429  14.3270025  38.0803233   6.8876038  15.0524941
  37.9700494   8.1425591  14.5108503  38.1894425   7.3921987  14.4613528
  53.9205053   8.5957146  13.5647416  54.4158718   7.8780142  13.5251436
  53.1104829   8.2927944  13.4501903  53.8748946   8.4454793  13.5421141
  49.3663664  12.4454960   5.7144420  48.5574987  12.1221633   5.6677729
  49.8738573  11.7388182   5.6472669  49.3213331  12.2936276   5.6974714
  39.9953942   9.8727153  11.4391784  39.1299461   9.8612843  11.3274556
  40.0952758   9.6857376  12.2862924  39.8828109   9.8433214  11.5480729
  55.9856872  11.3460834  16.2524544  56.4111943  10.8235256  15.6994969
  55.6213792  11.9441671  15.7313167  55.9943474  11.3571061  16.0933554
  45.6210952  19.6425052  15.0121890  45.9357511  20.4561440  15.0199672
  46.0304365  19.2575270  15.6804049  45.7279050  19.7053754  15.1125981
  52.5735471  15.0595098  12.5825702  53.0446649  15.7735361  12.7515687
  52.9095650  14.4593848  13.1185571  52.6930586  15.0766563  12.6858078
  54.6612456  16.6696412  24.7617774  54.7709421  15.8804972  25.1174521
  54.9903352  16.5802348  23.9592112  54.7264862  16.5402265  24.6960165
  53.2109418  14.8513032  19.3453394  52.6630364  14.2270916  19.0773460
  53.6722446  15.0407304  18.6297474  53.1976627  14.7872083  19.2003826
  42.9623972  13.5898160  14.6600498  43.5668829  13.5493994  14.0314319
  42.7551284  14.4369312  14.6904554  43.0212869  13.7086162  14.5716615
  52.7767744  15.8564105  15.8762736  53.5966118  15.7127071  16.1379031
  52.4961821  16.4810304  16.4179174  52.8564487  15.9274457  15.9950675
  38.1975254  12.5732777  14.5299421  38.0999532  11.7629049  14.8389478
  38.9804124  12.5524571  14.1445689  38.2991390  12.4499868  14.5186284
  62.4481079  22.6004608  13.5958542  61.5918975  22.7613106  13.6467659
  62.4948733  21.7296672  13.6163603  62.3280191  22.4955410  13.6064608
  56.8322219  32.1367326   9.3595774  56.0805118  31.7582864   9.1311819
  57.2808230  32.1685759   8.6114584  56.7871886  32.0852933   9.2153276
  65.7574796  28.8691133  23.2018999  66.4641563  28.3743164  23.3305933
  65.9462731  29.3100215  22.4721657  65.8902701  28.8609484  23.1128044
  62.2847179  32.5592695   4.7881321  61.9498547  33.2369617   4.3525543
  62.7974049  32.1698006   4.1998193  62.3112760  32.6017273   4.6368113
  61.8251470  34.5106964  10.7292433  62.2090849  35.0793863  10.1897208
  61.7610611  33.7856474  10.2498249  61.8724897  34.4882427  10.5786295
  65.2932900  24.6596652  16.2390194  65.8388860  25.3381738  16.2984164
  65.2349776  24.5184113  15.3791776  65.3648814  24.7388653  16.1202255
  58.4106975  32.1485718  11.6258546  58.5117338  31.3386072  11.9355674
  57.8148720  32.0542664  10.9958225  58.3379514  32.0150746  11.5784785
  67.0697969  26.0881259   7.1123922  66.9537495  26.8388945   7.5416060
  67.8653855  25.8305212   7.3620009  67.1702558  26.1616106   7.2128013
  58.2507715  37.0663307  13.0273403  58.8945170  37.5076471  13.4169561
  58.5763970  36.2616733  12.9403661  58.3939543  37.0128502  13.0718880
  51.6072019  28.1706004  11.2510880  51.3722204  27.3373657  11.1443149
  51.7457660  28.4510670  10.4372081  51.5927682  28.0889508  11.1153235
  53.9062107  20.3391735  14.1495188  53.2867138  19.7484382  13.9805203
  53.8045970  20.9303170  13.5159511  53.7999782  20.3395818  14.0300177
  58.9528294  30.0775282   8.3993264  59.2744135  30.6180489   7.7954572
  59.6000391  29.5072053   8.5315554  59.0954349  30.0734457   8.3300300
  61.0030002  22.0791277   8.4827651  61.7010167  22.2579404   8.9749114
  61.3182335  21.5561616   7.8598040  61.1525340  22.0285049   8.4629661
  53.6331240  23.8844017  16.3938757  53.5089937  24.4706462  17.0288576
  54.2849524  23.3904212  16.6951032  53.7104889  23.8982821  16.5324686
  61.1917938  28.4661722   8.4707442  61.6311573  27.8578822   8.9162215
  61.0422601  28.0869095   7.6992907  61.2339403  28.3200193   8.4226610
  58.6589581  27.0605734  15.6726268  59.3038583  26.5678177  15.3537216
  58.8991358  27.2030520  16.4992346  58.7900166  27.0083176  15.7475801
  61.1975672  29.9060640  15.3233160  61.4798915  29.1112045  15.1019916
  61.9261832  30.3841227  15.3438221  61.3465236  29.8595236  15.2936176
  59.1756866  17.4483673  12.5648926  58.8460196  17.8994817  11.8952624
  58.5001868  17.3699837  13.1121932  59.0267302  17.5034809  12.5472149
  64.7927274  26.8188903   5.4238212  64.7078569  27.6749870   5.5687780
  65.2811658  26.5433227   6.0920371  64.8516172  26.9046225   5.5440293
  65.7245707  23.4373697   6.9235947  65.1957179  23.6533331   7.5833253
  66.2470727  24.1309836   6.8436916  65.7234160  23.5716834   7.0091546
  71.1793760  29.0120002  12.2968991  70.3491464  29.2230645  12.4602408
  71.1303013  28.1857056  12.0211275  71.0500496  28.9209608  12.2806357
  57.6145315  27.3336914   5.7243415  57.0302531  27.8386945   6.1309279
  57.2115410  27.1079301   4.9840007  57.4684619  27.3745162   5.6748440
  53.1689344  33.0491675  12.5267086  52.6856922  33.7742165  12.5026670
  53.9812662  33.3467805  12.6377244  53.2180092  33.1994029  12.5394366
  59.2403498  31.8423856  15.1316901  58.7230440  31.4831271  14.5278209
  59.9377889  31.3186030  15.1422967  59.2669079  31.7121544  15.0447159
  62.8967090  32.2918670  21.0933074  62.9850436  32.1044810  21.9411284
  63.3256802  31.6456100  20.6937921  62.9729192  32.1681678  21.1604825
  60.4637550  31.5749830  20.0750736  59.9008385  31.1622440  20.5990397
  61.2258573  31.5002736  20.4943879  60.4931998  31.5027230  20.2143736
  57.3812820  15.5095962   8.0471873  58.1358788  15.8774279   7.8088923
  57.2040355  15.8835516   8.8151053  57.4667298  15.6194150   8.1256762
  56.0233541  33.5647851  12.6787366  56.7254120  33.0499840  12.7360123
  55.9431024  33.8922002  13.4834241  56.1157302  33.5362077  12.8060158
  70.6747719  21.6590402  16.0919413  69.8376140  21.7292589  16.3267007
  70.6435950  21.6614897  15.2193715  70.5466001  21.6700629  15.9978961
  57.0712448  23.8023438  21.8067781  57.2432951  23.6929333  22.6553063
  57.6081805  24.4477843  21.5698974  57.1757452  23.8815440  21.8972878
  55.7369885  17.9166281   4.7449986  55.5545458  18.1338162   3.9190979
  56.5995498  18.0305294   4.8008601  55.8374474  17.9656179   4.6304473
  55.3484317  29.7554203  12.1872974  56.1873216  29.9877136  12.2346736
  55.3796086  28.8858515  12.1180010  55.4766034  29.6611150  12.1837619
  55.9737020  30.1755078  16.4886280  56.5135245  30.0326209  17.1589652
  55.2906966  30.5751829  16.8570306  55.9529174  30.2134749  16.6420701
  65.3977905  25.8546079  11.6831304  66.1535420  26.2877593  11.7220213
  65.5040229  25.2050849  12.2565940  65.5248075  25.8223563  11.7729330
  68.4358076  29.6819356  12.4333707  67.9993308  29.6856099  13.1892678
  68.1020991  30.3624855  12.0013284  68.3220696  29.7831812  12.4814540
  63.0087149  31.7227689  23.7576857  63.7927566  31.8358537  24.1232599
  62.8083744  30.8968826  23.9535543  63.0953175  31.6174408  23.8411243
  51.3774165  26.3955369  16.6420701  51.1112580  25.5794486  16.8011692
  51.3912729  26.4408525  15.7716217  51.3398887  26.2812274  16.5374183
  68.3555559  16.7233184  14.6763135  68.9981467  16.7931289  15.2625050
  68.6078579  16.0562407  14.1742677  68.4877691  16.6359533  14.6890414
  55.2831912  21.1940454   3.2572459  54.5690089  20.9078633   3.6694892
  55.7675880  21.5337079   3.8978847  55.2491275  21.2022103   3.4128094
  56.1272771  19.9333747  19.2887709  55.4344568  19.4630727  19.5348440
  56.7433098  19.7072052  19.8629416  56.1157301  19.8300879  19.4096862
  63.1657543  33.6337791  17.4043313  62.3672788  33.3937291  17.6617182
  63.6143554  33.6852184  18.1510361  63.1132154  33.6060182  17.5528237
  71.5702422  26.4000276  11.3253344  72.2318856  25.8390945  11.2249253
  70.9293834  25.9052307  11.6506035  71.5731289  26.2436685  11.3585684
  62.4579230  29.6970407   3.6334268  62.8730378  29.3655431   2.9418763
  61.6271159  29.4639310   3.5054404  62.3967238  29.6141663   3.5125115
  51.7867578  27.1814149  13.9232445  51.6043152  27.1561035  13.0704738
  52.5217247  27.6513086  13.9621354  51.8681642  27.2475511  13.8030364
  67.8567253  27.4165658  11.0665333  68.0922842  27.5610857  10.2392184
  68.0056816  28.1808066  11.4596847  67.9133056  27.5504713  11.0028937
  54.8513330  23.8999151  20.4314554  55.5753302  23.8852182  20.9179449
  54.9529467  24.6094507  19.9336522  54.9731539  24.0023855  20.4293341
  69.6857709  26.2567324   8.9034937  70.0165926  26.7894965   8.2975032
  70.2590797  26.3106212   9.5596888  69.8191388  26.3436893   8.9112719
  62.2258279  27.3798236  25.2963501  61.4331260  27.6941748  25.4816121
  62.3407207  27.5949704  24.4584286  62.1253690  27.4582073  25.2001836
  64.8989598  24.1032227   9.5858517  64.9936453  24.8421521  10.0398142
  64.2748442  23.6749703  10.0193082  64.8198629  24.1493548   9.7166665
  63.1542072  27.2818440  20.2348798  63.7280934  26.6445684  20.3897362
  63.0756876  27.2822522  19.3658455  63.2275307  27.1883551  20.1295209
  51.7538489  24.0607649  14.0731512  52.3311991  23.9244100  14.7123757
  51.0552550  23.6043433  14.3277096  51.7359510  23.9729915  14.2053802
  58.5105791  25.7141705  12.2869995  58.2525035  24.8813440  12.2601295
  58.5654274  25.9399318  11.4462496  58.4805569  25.6239476  12.1590132
  63.5906841  17.8170156  12.3874088  62.8863168  17.3279341  12.5458007
  63.6391815  17.8292630  11.5162532  63.4936893  17.7459804  12.2813428
  57.4840503  23.2679467  12.7734890  56.9090094  23.4271636  13.4098851
  57.1076179  22.6314876  12.3103341  57.3443315  23.1977280  12.7989448
  61.1513792  21.7402817  17.6327268  60.7628224  21.3157034  16.9779460
  60.4868490  21.9884966  18.1404295  60.9960719  21.7141538  17.6115136
  47.2297322  22.9119542  10.7879331  47.3157574  22.5351410  11.5692861
  47.8573119  22.5379988  10.3099289  47.3353873  22.8005024  10.8324808
  64.9740153  15.4377445  15.1451253  65.3550665  14.7555616  15.5319127
  64.1703437  15.1487047  14.9626917  64.9116615  15.2944494  15.1755309
  62.2552730  25.9701421   5.8304075  63.0693369  26.2616314   5.7186847
  62.1911871  25.3161284   5.2562368  62.3655469  25.9166616   5.7292913
  68.4762220  28.6527417  20.2433651  68.2400857  27.8215482  20.1245712
  69.1205449  28.6013025  20.8288495  68.5356891  28.5225105  20.3119545
  58.1260638  29.4422939  10.9576388  58.7634585  29.2034686  11.5028181
  58.5515710  29.6460098  10.2229548  58.2836804  29.4373949  10.9293545
  52.8173281  31.6811275  14.8410691  52.8577426  31.9526126  14.0130471
  53.3767805  32.2053183  15.2568479  52.9056626  31.7987030  14.7802579
  58.7663453  24.6625228   5.2951277  59.1508606  24.4432935   6.0467822
  58.5175074  25.4888174   5.4252353  58.7865526  24.7523375   5.4252353
  58.9331994  17.9431644  25.0113861  58.6185435  18.7131206  24.7483424
  58.6121926  17.3801900  24.4266088  58.8390913  17.9741912  24.8855211
  69.4998641  28.4371866  16.3061946  69.1944458  29.1699923  16.6675261
  68.7804856  28.0309796  16.0254732  69.3485983  28.4853599  16.3175083
  60.5082110  29.9195361  12.6370174  60.5821118  29.7570533  13.4912024
  61.3251616  30.1085551  12.3930655  60.6398469  29.9232104  12.7268199
  75.2000433  25.0764867  15.6330290  75.1324933  25.0960826  14.7632876
  75.1856095  25.9195194  15.8585960  75.1879189  25.2038601  15.5382767
  54.2687867  30.2653224   9.6664617  53.4425984  30.5114961   9.5398896
  54.3299858  30.1865305  10.5326675  54.1562034  30.2898173   9.7753562
  56.4863891  16.3322165  10.6260057  55.6186316  16.4044765  10.6917667
  56.7739095  17.1344244  10.8148033  56.4003639  16.4616312  10.6634824
  65.6096779  16.4800024  18.9571379  66.3550371  16.2909835  18.5434805
  65.1934084  17.0058262  18.3985236  65.6581754  16.5302170  18.8135952
  59.0486696  32.8830104   7.3683647  59.3384994  32.4919086   6.6442874
  59.7790177  33.0646809   7.8088922  59.1993580  32.8523918   7.3266454
  72.9859050  23.8509253  13.9076884  73.5366972  23.2177322  14.1473976
  72.9703166  24.3824646  14.5992389  73.0644247  23.8358201  14.0455742
  59.6381441  27.6847850  18.4536778  59.1393135  28.3963618  18.5321666
  60.4481665  28.0048517  18.4154940  59.6837548  27.8374699  18.4593346
  56.9892611  34.8597487  10.4343797  56.7692907  34.5694841  11.2270464
  56.7687133  34.2012442   9.9061709  56.9240206  34.7197195  10.4732706
  55.9009559  26.9470803  12.6999499  55.6122807  26.3208274  13.2345226
  56.7692907  26.8891091  12.7664179  55.9869811  26.8458347  12.7890453
  66.6887456  22.0905587  13.0181480  66.3452222  21.3695922  13.3688730
  66.7880499  21.8819438  12.1759839  66.6529499  21.9529790  12.9453160
  59.1560567  36.2326877   9.2174489  59.8084625  35.7003319   9.4465515
  58.4586176  35.8795529   9.6042363  59.1491285  36.1016400   9.3086657
  56.1041832  28.5866054   8.6241864  56.8587800  28.9679093   8.8377326
  55.5112445  29.0377198   9.0788560  56.1278546  28.7094882   8.7224742
  67.1500485  28.5531291   8.5605469  67.7158518  29.2124501   8.4764011
  66.5028389  28.8980989   9.0321871  67.1379242  28.7013232   8.6178225
  58.5648499  20.5428895  23.7499076  57.7548275  20.8486674  23.6388918
  59.0423186  21.2634477  23.8651660  58.5151978  20.6943496  23.7506147
  57.4240059  29.7574616  13.9981979  56.9020812  29.8974907  14.6833844
  57.8114079  28.9985280  14.1884096  57.4043760  29.6660139  14.1283056
  54.4131243  19.8080424   8.0676934  54.1256038  19.4381695   7.3308881
  55.1001711  20.2775280   7.8060639  54.4720140  19.8227394   7.9192009
  63.6207064  31.4970075   7.9842548  63.3793739  30.7637936   7.5769613
  63.8008396  32.0456932   7.3308881  63.6114688  31.4692466   7.8272771
  58.8506384  26.7878635   9.3963470  58.6549167  27.3953369   8.8023773
  59.0740730  26.0946579   8.9155144  58.8541025  26.7756160   9.2379551
  57.2484914  23.6733373   9.5144338  57.9707566  23.8374531   9.0548144
  56.7692907  24.3943037   9.4083678  57.2848645  23.8031602   9.4309952
  54.8992531  26.0791445  18.6198478  55.4113628  26.3575698  17.9707238
  54.6128874  26.8180739  18.9861291  54.9327394  26.2293799  18.5788356
  69.0835946  25.2165158  12.1802265  68.9969920  25.3720584  13.0337044
  68.6286426  25.8603234  11.8061670  69.0039202  25.3340913  12.2509372
  51.9859437  20.5861637   8.9162215  52.0875574  21.3887798   9.2443190
  52.7815324  20.3848973   8.6185295  52.1187343  20.6747536   8.9197570
  58.4176256  18.1717834  18.6799520  58.2259453  18.1872968  19.5298943
  59.2674852  18.3681508  18.6566175  58.5151978  18.2032185  18.8022815
  52.8023169  20.7008815  16.6583336  52.6608661  19.8492756  16.7827844
  53.0863733  20.7437476  15.8345542  52.8231015  20.5808565  16.5550960
  62.9561762  22.5375905  10.8027825  62.7096476  22.4571656  11.6364614
  63.2846885  21.7529373  10.6090352  62.9683005  22.4102171  10.8975348
  66.8509811  29.2459265  14.5914606  66.7124170  29.9440310  15.0963348
  66.0709808  29.0907921  14.2350788  66.7153037  29.3259431  14.6140880
  65.1887896  25.5455640  20.8436988  65.1835934  24.6735456  20.8479414
  65.8948890  25.7443809  20.3706443  65.2932900  25.4459514  20.7744023
  58.9158789  25.2732624  20.2150808  59.0602165  25.8533832  19.5793918
  59.2634438  25.6508921  20.9200662  58.9886250  25.4153328  20.2249803
  61.0878706  24.4722792  17.9975939  60.3402020  24.6653807  17.5924217
  61.2420232  23.6468012  17.7600061  61.0001134  24.3787904  17.9021345
  57.9886544  33.4635396  17.0811834  58.1376108  32.9038312  16.4285239
  58.7686546  33.5427397  17.4644353  58.1260638  33.3920961  17.0408784
  60.5139845  33.6350039  18.3596325  60.4383516  32.9658849  18.9147114
  60.4429704  34.3367827  18.8736992  60.4920451  33.6394946  18.5173173
  61.3280483  18.3673343  18.8871343  61.7853097  19.0997317  19.0144135
  61.4036812  17.9439808  19.6458599  61.4071453  18.4130581  19.0172419
  53.5713475  18.6139163  19.9760787  53.0355664  18.0019521  20.2921554
  53.6331239  19.1887299  20.6294453  53.5009107  18.6086090  20.1196213
  61.1710092  32.1551037   9.1919931  61.9359983  31.8860681   8.8702596
  61.0688181  31.6701048   9.9089994  61.2691587  32.0440602   9.2499759
  59.2062861  20.3575447  15.7313167  58.4158936  20.1766907  16.0530503
  59.6023484  19.5802399  15.7143461  59.1479737  20.2162908  15.7765715
  64.5906548  27.9917877  13.4572613  63.9151549  27.7603109  13.9586000
  64.5998924  27.3839060  12.8314718  64.4925052  27.8676802  13.4388765
  61.7200692  22.8335706  20.2136666  61.6559833  23.6945662  20.0856803
  61.8597879  22.5167699  19.4132217  61.7316162  22.9135873  20.0764879
  66.5923282  30.8483009   5.6882791  66.6743120  31.6549996   5.3644242
  67.0773024  30.8678969   6.4123564  66.6760440  30.9703672   5.7469690
  60.4019785  25.5267845  14.3552869  59.9782035  25.7272344  13.6191887
  60.2264641  24.6796693  14.4677169  60.3130666  25.4316627  14.2626559
  59.9031479  37.0418358  16.8174326  60.3927409  36.3429148  16.6349991
  59.3315711  36.7442228  17.4050383  59.8916009  36.8944582  16.8775367
  55.6902230  26.0219897   9.7880841  55.8466850  25.9566700  10.6436833
  56.0302824  26.7968449   9.5759521  55.7635465  26.1269095   9.8835436
  62.2281375  25.3977780   8.6574205  62.7696921  24.8948161   9.1212825
  62.5427934  25.3442975   7.8463690  62.3545772  25.3157201   8.6058017
  66.0998482  29.6080428  25.7701117  66.9133348  29.3365577  25.9306249
  65.9393449  29.3087968  24.9661313  66.1968431  29.5235354  25.6746523
  60.3967825  30.7895132   5.9414233  60.4660645  29.9309670   6.0807233
  61.1756280  31.0067013   5.6133257  60.5220675  30.6947996   5.9131390
  63.3770644  20.2914085  18.7096505  63.5912614  19.6524999  18.1559859
  62.7604544  20.7359909  18.2804367  63.3175974  20.2624229  18.5646936
  64.7875312  33.2132833  10.1550726  64.3955104  32.9099548   9.4373592
  64.9428385  34.0501923   9.9655680  64.7528902  33.2916670  10.0207223
  52.2636492  23.2054847  10.1041609  52.6435457  23.6239392   9.4401876
  51.6891857  23.7868303  10.4110452  52.2347817  23.3532706  10.0518350
  65.5409732  21.9003150  19.6479812  64.7286414  21.5929040  19.7292985
  65.9999667  21.4202150  20.2122524  65.4890117  21.7839642  19.7434406
  64.9514987  29.7782822  10.0956756  64.5929642  29.9497465  10.8720789
  64.4653698  30.2396028   9.5384755  64.8273684  29.8721793  10.1282026
  62.7685373  13.4014021  13.6983848  61.8978931  13.3752742  13.6517157
  63.0225714  13.2291213  12.8809694  62.6778933  13.3724164  13.5703985
  59.7403352  25.4581987   2.6356991  60.0295877  26.2346870   2.9100565
  59.8275151  24.9470719   3.3371490  59.7957609  25.4973906   2.7799489
  62.6363240  23.3063221  24.4308514  63.1062871  23.9305338  24.8176389
  62.6825120  22.6380197  24.9901729  62.7131116  23.2997902  24.5708586
  59.7934514  15.4120249  15.1557318  59.2773002  14.7200440  15.2808897
  59.2328442  16.0791026  15.1019917  59.6341027  15.4083507  15.1663384
  61.8626747  15.9513209  16.9850171  61.4758500  15.9762240  17.7663701
  61.3759684  15.3854888  16.5324687  61.7339256  15.8708960  17.0338074
  66.1119726  30.6686718  21.0423957  66.7499447  30.1746914  20.7086413
  65.4693818  30.5964118  20.4576184  66.1113953  30.5845726  20.9066312
  67.8376727  22.5175864  15.6089873  67.4104335  22.4302213  14.8537973
  67.2002779  22.6253639  16.1944717  67.6806334  22.5208524  15.5835315
  61.5283889  12.8380194  19.2760431  62.1577007  13.3740495  18.9981501
  61.6969751  12.7457553  20.1273996  61.6461683  12.9041557  19.3608959
  61.3297804  17.6251389  21.5486842  62.1571233  17.3536538  21.6045457
  61.3505650  18.4212231  21.9050660  61.4550654  17.7031143  21.6102025
  66.1673983  31.3606526  17.6829314  66.9566361  31.0095591  17.8031396
  66.3417581  32.1742915  17.4205948  66.3094265  31.4292383  17.6617182
  55.9067293  24.7715252  14.7357103  55.0655300  24.6719126  14.9435997
  56.1157301  25.5410732  15.0871424  55.8131986  24.8707295  14.8184418
  53.3842860  22.3934789  12.5641854  52.9899558  22.4677801  11.7891963
  52.8282977  22.7792735  13.1150215  53.2445673  22.4616564  12.5309513
  65.0207807  15.3716083  12.2445733  65.2257401  15.3038391  13.0902730
  64.6934231  16.1774904  12.1766910  65.0023055  15.4802023  12.3605388
  59.7183958  22.6996651  13.9854700  59.4147096  22.1452639  14.5865108
  59.0163379  22.8788861  13.4982735  59.5700168  22.6441434  14.0024406
  58.7750055  20.0097171   8.5499402  59.0509790  19.2916084   8.1376970
  59.3748725  20.6082091   8.3420508  58.9043320  19.9917542   8.4580164
  57.7802309  29.9146372  18.6926798  57.6722664  29.9248434  19.5588856
  57.9898091  30.7401152  18.5031752  57.7952420  30.0387447  18.7930890
  55.7976101  27.1659014  16.1548736  55.2064035  27.8068512  16.1251751
  56.5597125  27.5896632  16.1280035  55.8224362  27.3234853  16.1463883
  56.1936724  18.3261012  16.8216753  56.6538206  18.3999941  17.5591877
  56.2392831  19.1242266  16.4716575  56.2687279  18.4555159  16.8789510
  57.8420074  18.9927707  21.3888781  57.4505639  18.3461054  21.8244558
  58.0105937  19.5839142  22.0083036  57.8090984  18.9841975  21.5451487
  71.9166523  26.9964784  17.1526014  71.9749647  27.4451433  17.8985991
  71.2832990  27.4063597  16.7156094  71.8317818  27.1238519  17.1978562
  65.5565618  32.6168326  13.5880760  65.3585306  33.1059140  12.8936972
  64.9353329  32.8209567  14.1664894  65.4353182  32.7184864  13.5703984
  59.6173596  24.3853223   7.9291005  60.3615641  24.7727499   8.1673954
  59.7634292  23.5410648   8.0931492  59.7484181  24.3183696   7.9884974
  61.5353171  16.1803482  12.9622866  60.6889216  16.3526289  12.8364216
  61.5324304  15.3752825  13.2988694  61.4100321  16.0864511  12.9933993
  62.6051472  19.9578696  13.8284924  62.1311426  19.4320458  14.3390235
  62.9769608  19.4108169  13.2599785  62.5901361  19.7994693  13.8200071
  52.9824502  21.9550203  19.1968470  53.8450115  21.8545912  19.1105799
  52.6516285  21.3744912  18.6354042  53.0609698  21.8541829  19.1013876
  68.8688202  25.0181072  15.2391704  68.6286425  24.1787487  15.2434131
  69.3480210  25.0981238  15.9632478  68.9040386  24.9062471  15.3466507
  70.8693389  21.7982529  13.1920964  70.6303159  21.7578363  12.3541748
  71.0327291  22.6453681  13.3186685  70.8583693  21.9174614  13.0874445
  67.4739419  26.1832478  19.1226009  68.1973618  25.7305005  18.9437029
  67.2089382  26.4637144  18.3398337  67.5420693  26.1583447  18.9804724
  56.3426288  20.7792652  15.8578888  55.7179358  20.7911044  15.2504841
  56.0071883  21.2552827  16.5070128  56.2011780  20.8511169  15.8635456
  56.5268037  19.1217770   1.9151573  56.1780841  19.7737495   2.3783122
  56.0464482  19.1074883   1.1875444  56.4038281  19.2160824   1.8762664
  53.0551963  28.8393112  17.2982652  52.5251888  28.1485551  17.3477627
  53.3277057  28.8303297  16.4695361  53.0176686  28.7360244  17.1830068
  64.0872054  29.4218814   6.0220335  64.8106253  29.8876927   5.8784908
  63.6472645  29.4892424   5.2717932  64.1287746  29.5002651   5.8905116
  63.2558209  26.2816356  17.2721024  62.6415202  25.7374407  17.5669659
  63.7725494  25.7680593  16.7926840  63.2413871  26.1252765  17.2445252
  62.4954506  27.3520626  15.0065322  62.0682114  26.7270345  14.5730758
  62.4879451  27.0695548  15.8324330  62.4313647  27.2173407  15.0645150
  55.6117033  22.3885799  18.0753756  55.7710520  21.6329124  18.4805478
  55.4309927  22.9376739  18.7294494  55.6082392  22.3579613  18.2316462
  63.5537336  14.5547035  18.6304546  63.0577898  14.7510709  17.9396113
  64.3106398  14.9539703  18.4593347  63.5924161  14.6424769  18.5024683
  60.8240216  18.2289381  15.2207856  60.8482703  17.6949493  14.5320636
  61.0751689  17.7206690  15.8833447  60.8650135  18.0750285  15.2172501
  48.3347806  25.5120876  14.6551000  48.2291255  25.4667720  13.7903085
  47.5848026  25.8574657  14.9365285  48.2083409  25.5561784  14.5688330
  57.1041538  16.9560199  14.6013601  57.1439910  17.4569406  15.3148308
  56.2791203  17.0470593  14.3319524  56.9881064  17.0442016  14.6664139
  59.2871151  26.5220939  22.7033895  58.4366782  26.6592653  22.8391540
  59.4499279  25.7884717  23.1481597  59.1855014  26.4335040  22.7889494
  58.5255901  23.4720709  16.8987500  57.6947831  23.6394527  16.6922748
  58.4707419  23.0956660  17.6836385  58.3945316  23.4410440  16.9836028
  56.3339685  16.9629602  22.5343910  56.9592388  16.4191735  22.8073343
  55.8790165  16.4824520  21.9651701  56.3587945  16.8119083  22.4905504
  56.8991945  21.7476301   7.4277617  57.0394906  22.2448765   8.1306259
  57.3974478  21.0462595   7.5691831  56.9933026  21.7178279   7.5529196
  56.9292168  22.6143412   4.7570194  57.5637247  23.2103837   4.6919656
  57.0117778  22.3146869   5.5716064  57.0348719  22.6584320   4.8673281
  69.9074733  25.1458889  17.6256558  70.4992574  25.7856140  17.6574756
  70.3433728  24.4481926  17.9148625  70.0593165  25.1377239  17.6737391
  58.5071151  18.5457387   4.7315636  58.8286992  18.0660470   4.0774899
  58.7698094  19.3557033   4.5406448  58.5937176  18.5947285   4.6071128
  61.7368123  29.5676261  18.2514452  61.2293214  30.1212108  18.6955083
  61.4394770  29.6284551  17.4333227  61.6173008  29.6582573  18.1962909
  63.9030306  17.9329581  17.0939115  64.3285377  17.4802107  16.4822642
  63.2887299  17.3789652  17.3703903  63.8758951  17.7843557  17.0444141
  53.4345156  24.8111252   8.0259740  53.9437385  25.4075760   8.4071046
  53.9079428  24.5437226   7.3436160  53.5788531  24.8597068   7.9814263
  64.3475904  33.4839519   6.1818396  63.6305213  33.3100381   5.7165633
  64.9982641  33.2492091   5.6493882  64.3377754  33.4235312   6.0347614
  62.3424528  14.4044681  10.5029692  61.6992846  14.2542327  11.0714831
  62.0023935  14.1587026   9.7378797  62.1969606  14.3456803  10.4732707
  66.9323875  22.3604108   9.9259701  66.2615065  22.9033810   9.7972766
  67.6263625  22.8298963   9.6841396  66.9352742  22.5102379   9.8715229
  60.9810609  34.5000820  15.1571459  60.7576263  33.7419649  15.5255486
  60.4920452  34.5298841  14.4351899  60.8754058  34.3923044  15.1048200
  67.0952002  18.8159991  12.8350074  67.4479612  18.3889714  13.5095873
  66.2366804  18.7310835  12.9651151  67.0201447  18.7404732  12.9545085
  55.7935687  21.4467511  10.8932921  55.0747676  21.8631644  11.1605784
  56.1648050  22.0121750  10.3424559  55.7427619  21.5916792  10.8515728
  65.0935268  22.0795360  16.7834916  65.0733195  21.8978655  17.6369695
  65.1414469  22.9507378  16.7594500  65.0969909  22.1811898  16.9058211
  63.0381598  28.6682552  22.7083393  62.9977453  28.0232229  22.1228549
  63.8504916  28.6119169  23.0208805  63.1524752  28.5641519  22.6680342
  59.6289066  34.7201278  12.6108544  59.2149464  34.0575408  12.2212385
  60.3136440  34.8679137  12.0904238  59.6687437  34.6441936  12.4765041
  62.9954360  33.8791363  13.3632160  62.5970643  33.9893633  12.5952981
  62.3805579  34.0873429  13.9458720  62.8453249  33.9264931  13.3363460
  61.5682262  20.4865511   6.2306300  60.9747101  20.8082507   5.6790867
  61.6057539  19.6406606   6.0227406  61.4856651  20.4089839   6.1189071
  64.4440078  20.4445015   9.6608050  64.2153771  20.4677717   8.8186409
  64.7038154  19.6202482   9.7803061  64.4486266  20.3261095   9.5533248
  58.7259307  22.2979488  19.2633151  58.2138210  21.6900671  19.6218182
  58.5538803  23.0136081  19.7307126  58.6248944  22.3142788  19.3849374
  53.5725021  20.7417064  21.9135512  53.4027612  21.4018439  21.3683719
  53.1290971  20.9523625  22.6348001  53.4824355  20.8703046  21.9397142
  57.4984841  18.9821562  10.9562246  57.9742207  19.3438641  10.3212427
  56.9973440  19.6378029  11.2362389  57.4950200  19.1315750  10.9038987
  62.6028377  20.2203733  21.7035406  63.1599807  19.9917543  21.0713872
  62.2789442  20.9809399  21.4270619  62.6374787  20.2987570  21.5691903
  50.4727086  23.6463929  17.1724002  49.9253805  22.9764575  17.2904871
  51.2619464  23.2793777  17.2367469  50.5079270  23.4928916  17.1992703
  60.3211494  23.3071386  22.6687413  61.0722821  23.6223063  22.9826967
  60.5134071  23.1050557  21.8421335  60.4602908  23.3238768  22.5930809
  59.5411494  21.1262761   4.3235630  59.9210459  21.1442391   3.5386745
  58.8004090  21.5716750   4.2026477  59.4880332  21.1944536   4.1899198
  67.1696784  19.4344953   9.9111209  67.1691011  19.2793609  10.7695485
  66.9652964  20.2807940   9.8552594  67.1396562  19.5365573  10.0299148
  49.2314055  22.8584737  14.3270025  49.0535816  22.4061346  15.0524941
  48.9433078  23.6610898  14.5108503  49.1627009  22.9107295  14.4613528
  64.8937636  24.1142454  13.5647416  65.3891302  23.3965449  13.5251436
  64.0837412  23.8113252  13.4501903  64.8481530  23.9640101  13.5421141
  60.3396248  27.9640268   5.7144420  59.5307571  27.6406941   5.6677729
  60.8471157  27.2573490   5.6472669  60.2945915  27.8121584   5.6974714
  50.9686525  25.3912461  11.4391784  50.1032045  25.3798151  11.3274556
  51.0685341  25.2042684  12.2862924  50.8560692  25.3618522  11.5480729
  66.9589455  26.8646142  16.2524544  67.3844527  26.3420564  15.6994969
  66.5946375  27.4626979  15.7313167  66.9676058  26.8756369  16.0933554
  56.5943535  35.1610359  15.0121890  56.9090094  35.9746748  15.0199672
  57.0036948  34.7760578  15.6804049  56.7011633  35.2239062  15.1125981
  63.5468055  30.5780406  12.5825702  64.0179233  31.2920669  12.7515687
  63.8828233  29.9779156  13.1185571  63.6663170  30.5951870  12.6858078
  65.6345039  32.1881720  24.7617774  65.7442005  31.3990280  25.1174521
  65.9635936  32.0987656  23.9592112  65.6997445  32.0587572  24.6960165
  60.4637550  15.3507877  19.5383797  60.5965455  14.5538870  19.8664772
  60.8482703  15.8774280  20.1182072  60.5393879  15.3107793  19.6727299
  64.1842001  30.3698340  19.3453394  63.6362947  29.7456224  19.0773460
  64.6455030  30.5592612  18.6297474  64.1709211  30.3057391  19.2003826
  63.5369905  12.2738203  16.1364890  62.7315869  12.1635933  16.4532728
  63.4076640  12.3750659  15.2794756  63.3990038  12.2721873  16.0572930
  66.9935865  18.4383695  16.7304587  66.4098854  18.9392901  16.3182154
  67.3140160  17.9313251  16.0968910  66.9549041  18.4375530  16.5763094
  59.5330665  17.3524290   7.0063262  60.3546359  17.5222603   6.7644956
  59.0700316  17.5071551   6.2829559  59.5861827  17.4006023   6.8634906
  58.1225997  15.3467052  17.7861690  58.6670409  15.0058179  18.3766032
  58.1762932  16.2052513  17.9282975  58.2115116  15.4222311  17.8943564
  53.9356555  29.1083468  14.6600498  54.5401413  29.0679302  14.0314319
  53.7283868  29.9554620  14.6904554  53.9945453  29.2271470  14.5716615
  63.7500327  31.3749413  15.8762736  64.5698701  31.2312379  16.1379031
  63.4694405  31.9995612  16.4179174  63.8297071  31.4459765  15.9950675
  49.1707838  28.0918085  14.5299421  49.0732116  27.2814357  14.8389478
  49.9536707  28.0709879  14.1445689  49.2723974  27.9685176  14.5186284
  73.4213663  38.1189916  13.5958542  72.5651558  38.2798414  13.6467659
  73.4681316  37.2481980  13.6163603  73.3012774  38.0140718  13.6064608
  67.8054802  47.6552634   9.3595774  67.0537702  47.2768172   9.1311819
  68.2540814  47.6871067   8.6114584  67.7604469  47.6038241   9.2153276
  76.7307379  44.3876441  23.2018999  77.4374146  43.8928472  23.3305933
  76.9195315  44.8285523  22.4721657  76.8635285  44.3794792  23.1128044
  76.2665484  40.1781960  16.2390194  76.8121444  40.8567046  16.2984164
  76.2082360  40.0369421  15.3791776  76.3381398  40.2573961  16.1202255
  69.3839559  47.6671026  11.6258546  69.4849921  46.8571380  11.9355674
  68.7881304  47.5727972  10.9958225  69.3112097  47.5336054  11.5784785
  69.2240298  52.5848615  13.0273403  69.8677754  53.0261779  13.4169561
  69.5496554  51.7802041  12.9403661  69.3672127  52.5313810  13.0718880
  62.5804603  43.6891312  11.2510880  62.3454787  42.8558965  11.1443149
  62.7190244  43.9695978  10.4372081  62.5660265  43.6074816  11.1153235
  64.8794690  35.8577043  14.1495188  64.2599722  35.2669690  13.9805203
  64.7778554  36.4488478  13.5159511  64.7732366  35.8581125  14.0300177
  71.9762586  37.5976585   8.4827651  72.6742751  37.7764712   8.9749114
  72.2914918  37.0746924   7.8598040  72.1257923  37.5470357   8.4629661
  64.6063823  39.4029325  16.3938757  64.4822520  39.9891770  17.0288576
  65.2582108  38.9089520  16.6951032  64.6837473  39.4168129  16.5324686
  72.1650521  43.9847030   8.4707442  72.6044157  43.3764130   8.9162215
  72.0155184  43.6054403   7.6992907  72.2071987  43.8385501   8.4226610
  69.6322164  42.5791042  15.6726268  70.2771167  42.0863485  15.3537216
  69.8723941  42.7215828  16.4992346  69.7632749  42.5268484  15.7475801
  72.1708256  45.4245947  15.3233160  72.4531498  44.6297353  15.1019916
  72.8994416  45.9026535  15.3438221  72.3197819  45.3780544  15.2936176
  70.1489449  32.9668981  12.5648926  69.8192780  33.4180125  11.8952624
  69.4734451  32.8885145  13.1121932  69.9999886  33.0220117  12.5472149
  64.1421927  48.5676983  12.5267086  63.6589506  49.2927473  12.5026670
  64.9545246  48.8653113  12.6377244  64.1912675  48.7179337  12.5394366
  70.2136082  47.3609164  15.1316901  69.6963023  47.0016579  14.5278209
  70.9110473  46.8371338  15.1422967  70.2401663  47.2306852  15.0447159
  73.8699674  47.8103978  21.0933074  73.9583019  47.6230118  21.9411284
  74.2989386  47.1641407  20.6937921  73.9461776  47.6866986  21.1604825
  71.4370133  47.0935138  20.0750736  70.8740968  46.6807748  20.5990397
  72.1991157  47.0188044  20.4943879  71.4664582  47.0212538  20.2143736
  68.3545404  31.0281270   8.0471873  69.1091372  31.3959587   7.8088923
  68.1772938  31.4020824   8.8151053  68.4399882  31.1379458   8.1256762
  66.9966125  49.0833159  12.6787366  67.6986704  48.5685148  12.7360123
  66.9163608  49.4107310  13.4834241  67.0889885  49.0547385  12.8060158
  68.0445031  39.3208746  21.8067781  68.2165535  39.2114641  22.6553063
  68.5814389  39.9663151  21.5698974  68.1490035  39.4000748  21.8972878
  66.7102468  33.4351589   4.7449986  66.5278041  33.6523470   3.9190979
  67.5728081  33.5490602   4.8008601  66.8107058  33.4841487   4.6304473
  66.3216900  45.2739511  12.1872974  67.1605800  45.5062444  12.2346736
  66.3528669  44.4043822  12.1180010  66.4498618  45.1796457  12.1837619
  66.9469603  45.6940386  16.4886280  67.4867828  45.5511517  17.1589652
  66.2639549  46.0937137  16.8570306  66.9261757  45.7320057  16.6420701
  76.3710488  41.3731387  11.6831304  77.1268003  41.8062901  11.7220213
  76.4772813  40.7236157  12.2565940  76.4980659  41.3408871  11.7729330
  73.9819733  47.2412997  23.7576857  74.7660149  47.3543845  24.1232599
  73.7816327  46.4154134  23.9535543  74.0685758  47.1359716  23.8411243
  62.3506748  41.9140677  16.6420701  62.0845163  41.0979794  16.8011692
  62.3645312  41.9593833  15.7716217  62.3131471  41.7997582  16.5374183
  66.2564495  36.7125761   3.2572459  65.5422672  36.4263941   3.6694892
  66.7408464  37.0522387   3.8978847  66.2223859  36.7207411   3.4128094
  67.1005355  35.4519055  19.2887709  66.4077151  34.9816035  19.5348440
  67.7165682  35.2257360  19.8629416  67.0889885  35.3486187  19.4096862
  74.1390126  49.1523099  17.4043313  73.3405372  48.9122599  17.6617182
  74.5876138  49.2037492  18.1510361  74.0864737  49.1245490  17.5528237
  62.7600162  42.6999456  13.9232445  62.5775735  42.6746342  13.0704738
  63.4949831  43.1698394  13.9621354  62.8414226  42.7660819  13.8030364
  65.8245914  39.4184459  20.4314554  66.5485886  39.4037490  20.9179449
  65.9262050  40.1279815  19.9336522  65.9464123  39.5209162  20.4293341
  73.1990863  42.8983544  25.2963501  72.4063844  43.2127056  25.4816121
  73.3139790  43.1135012  24.4584286  73.0986274  42.9767381  25.2001836
  75.8722182  39.6217535   9.5858517  75.9669036  40.3606829  10.0398142
  75.2481026  39.1935011  10.0193082  75.7931212  39.6678856   9.7166665
  74.1274656  42.8003748  20.2348798  74.7013517  42.1630992  20.3897362
  74.0489460  42.8007830  19.3658455  74.2007891  42.7068859  20.1295209
  62.7271072  39.5792957  14.0731512  63.3044575  39.4429408  14.7123757
  62.0285134  39.1228741  14.3277096  62.7092094  39.4915223  14.2053802
  69.4838374  41.2327013  12.2869995  69.2257619  40.3998748  12.2601295
  69.5386857  41.4584626  11.4462496  69.4538152  41.1424784  12.1590132
  74.5639425  33.3355463  12.3874088  73.8595751  32.8464649  12.5458007
  74.6124399  33.3477938  11.5162532  74.4669476  33.2645111  12.2813428
  68.4573087  38.7864775  12.7734890  67.8822678  38.9456944  13.4098851
  68.0808763  38.1500184  12.3103341  68.3175899  38.7162588  12.7989448
  72.1246375  37.2588125  17.6327268  71.7360808  36.8342342  16.9779460
  71.4601074  37.5070274  18.1404295  71.9693303  37.2326846  17.6115136
  58.2029905  38.4304850  10.7879331  58.2890157  38.0536718  11.5692861
  58.8305703  38.0565296  10.3099289  58.3086456  38.3190332  10.8324808
  75.9472737  30.9562753  15.1451253  76.3283249  30.2740924  15.5319127
  75.1436021  30.6672355  14.9626917  75.8849198  30.8129802  15.1755309
  69.0993222  44.9608247  10.9576388  69.7367169  44.7219994  11.5028181
  69.5248293  45.1645405  10.2229548  69.2569388  44.9559257  10.9293545
  63.7905864  47.1996583  14.8410691  63.8310009  47.4711434  14.0130471
  64.3500388  47.7238491  15.2568479  63.8789210  47.3172338  14.7802579
  69.7396037  40.1810536   5.2951277  70.1241189  39.9618243   6.0467822
  69.4907657  41.0073482   5.4252353  69.7598109  40.2708683   5.4252353
  69.9064577  33.4616952  25.0113861  69.5918018  34.2316514  24.7483424
  69.5854510  32.8987208  24.4266088  69.8123496  33.4927220  24.8855211
  71.4814694  45.4380669  12.6370174  71.5553702  45.2755841  13.4912024
  72.2984200  45.6270859  12.3930655  71.6131052  45.4417412  12.7268199
  65.2420450  45.7838532   9.6664617  64.4158568  46.0300269   9.5398896
  65.3032442  45.7050613  10.5326675  65.1294617  45.8083481   9.7753562
  67.4596474  31.8507473  10.6260057  66.5918900  31.9230073  10.6917667
  67.7471678  32.6529552  10.8148033  67.3736222  31.9801620  10.6634824
  76.5829363  31.9985332  18.9571379  77.3282955  31.8095143  18.5434805
  76.1666668  32.5243570  18.3985236  76.6314337  32.0487478  18.8135952
  70.6114025  43.2033158  18.4536778  70.1125718  43.9148926  18.5321666
  71.4214249  43.5233825  18.4154940  70.6570131  43.3560007  18.4593346
  67.9625195  50.3782795  10.4343797  67.7425490  50.0880149  11.2270464
  67.7419717  49.7197750   9.9061709  67.8972789  50.2382503  10.4732706
  66.8742142  42.4656111  12.6999499  66.5855391  41.8393582  13.2345226
  67.7425490  42.4076399  12.7664179  66.9602394  42.3643655  12.7890453
  77.6620040  37.6090895  13.0181480  77.3184806  36.8881230  13.3688730
  77.7613083  37.4004746  12.1759839  77.6262083  37.4715098  12.9453160
  67.0774416  44.1051362   8.6241864  67.8320384  44.4864401   8.8377326
  66.4845028  44.5562506   9.0788560  67.1011129  44.2280190   8.7224742
  69.5381083  36.0614203  23.7499076  68.7280858  36.3671982  23.6388918
  70.0155769  36.7819785  23.8651660  69.4884561  36.2128804  23.7506147
  68.3972642  45.2759924  13.9981979  67.8753396  45.4160215  14.6833844
  68.7846662  44.5170588  14.1884096  68.3776343  45.1845447  14.1283056
  65.3863826  35.3265732   8.0676934  65.0988622  34.9567003   7.3308881
  66.0734294  35.7960588   7.8060639  65.4452724  35.3412702   7.9192009
  69.8238968  42.3063943   9.3963470  69.6281750  42.9138677   8.8023773
  70.0473313  41.6131887   8.9155144  69.8273609  42.2941468   9.2379551
  68.2217498  39.1918681   9.5144338  68.9440150  39.3559839   9.0548144
  67.7425491  39.9128345   9.4083678  68.2581228  39.3216910   9.4309952
  76.1811005  35.5282479  14.8941023  75.3422106  35.5543758  14.6579287
  76.2515373  36.1753215  15.4746370  76.0679399  35.6278605  14.9450140
  65.8725114  41.5976753  18.6198478  66.3846211  41.8761006  17.9707238
  65.5861457  42.3366047  18.9861291  65.9059978  41.7479107  18.5788356
  62.9592021  36.1046945   8.9162215  63.0608157  36.9073106   9.2443190
  63.7547908  35.9034281   8.6185295  63.0919926  36.1932844   8.9197570
  69.3908840  33.6903142  18.6799520  69.1992037  33.7058276  19.5298943
  70.2407436  33.8866816  18.6566175  69.4884562  33.7217493  18.8022815
  63.7755753  36.2194123  16.6583336  63.6341245  35.3678064  16.7827844
  64.0596316  36.2622784  15.8345542  63.7963599  36.0993873  16.5550960
  73.9294345  38.0561213  10.8027825  73.6829060  37.9756964  11.6364614
  74.2579468  37.2714681  10.6090352  73.9415589  37.9287479  10.8975348
  77.8242394  44.7644573  14.5914606  77.6856753  45.4625618  15.0963348
  77.0442392  44.6093229  14.2350788  77.6885621  44.8444739  14.6140880
  76.1620479  41.0640948  20.8436988  76.1568518  40.1920764  20.8479414
  76.8681473  41.2629117  20.3706443  76.2665483  40.9644822  20.7744023
  69.8891373  40.7917932  20.2150808  70.0334748  41.3719140  19.5793918
  70.2367021  41.1694228  20.9200662  69.9618834  40.9338636  20.2249803
  72.0611290  39.9908100  17.9975939  71.3134604  40.1839115  17.5924217
  72.2152815  39.1653320  17.7600061  71.9733717  39.8973212  17.9021345
  68.9619128  48.9820704  17.0811834  69.1108691  48.4223619  16.4285239
  69.7419130  49.0612705  17.4644353  69.0993221  48.9106269  17.0408784
  71.4872428  49.1535346  18.3596325  71.4116099  48.4844157  18.9147114
  71.4162287  49.8553135  18.8736992  71.4653035  49.1580254  18.5173173
  72.3013067  33.8858651  18.8871343  72.7585681  34.6182625  19.0144135
  72.3769396  33.4625116  19.6458599  72.3804037  33.9315889  19.0172419
  64.5446058  34.1324471  19.9760787  64.0088248  33.5204829  20.2921554
  64.6063823  34.7072607  20.6294453  64.4741691  34.1271398  20.1196213
  70.1795445  35.8760755  15.7313167  69.3891520  35.6952215  16.0530503
  70.5756068  35.0987707  15.7143461  70.1212321  35.7348216  15.7765715
  75.5639131  43.5103185  13.4572613  74.8884133  43.2788417  13.9586000
  75.5731507  42.9024368  12.8314718  75.4657636  43.3862110  13.4388765
  72.6933275  38.3521014  20.2136666  72.6292416  39.2130970  20.0856803
  72.8330463  38.0353007  19.4132217  72.7048745  38.4321181  20.0764879
  71.3752369  41.0453153  14.3552869  70.9514618  41.2457652  13.6191887
  71.1997224  40.1982001  14.4677169  71.2863250  40.9501935  14.2626559
  70.8764062  52.5603666  16.8174326  71.3659993  51.8614455  16.6349991
  70.3048295  52.2627536  17.4050383  70.8648592  52.4129890  16.8775367
  66.6634814  41.5405205   9.7880841  66.8199433  41.4752008  10.6436833
  67.0035407  42.3153757   9.5759521  66.7368049  41.6454403   9.8835436
  73.2013959  40.9163088   8.6574205  73.7429504  40.4133469   9.1212825
  73.5160518  40.8628283   7.8463690  73.3278356  40.8342509   8.6058017
  77.0731066  45.1265736  25.7701117  77.8865931  44.8550884  25.9306249
  76.9126032  44.8273276  24.9661313  77.1701014  45.0420662  25.6746523
  74.3503228  35.8099393  18.7096505  74.5645198  35.1710307  18.1559859
  73.7337127  36.2545217  18.2804367  74.2908557  35.7809536  18.5646936
  63.2369076  38.7240155  10.1041609  63.6168040  39.1424700   9.4401876
  62.6624440  39.3053611  10.4110452  63.2080400  38.8718014  10.0518350
  76.5142316  37.4188458  19.6479812  75.7018998  37.1114348  19.7292985
  76.9732251  36.9387458  20.2122524  76.4622701  37.3024950  19.7434406
  73.7417957  28.9199328  13.6983848  72.8711515  28.8938050  13.6517157
  73.9958298  28.7476521  12.8809694  73.6511517  28.8909472  13.5703985
  73.6095824  38.8248529  24.4308514  74.0795455  39.4490646  24.8176389
  73.6557704  38.1565505  24.9901729  73.6863699  38.8183210  24.5708586
  70.7667097  30.9305557  15.1557318  70.2505586  30.2385748  15.2808897
  70.2061026  31.5976334  15.1019917  70.6073610  30.9268815  15.1663384
  72.8359331  31.4698517  16.9850171  72.4491084  31.4947548  17.7663701
  72.3492268  30.9040196  16.5324687  72.7071840  31.3894268  17.0338074
  77.0852310  46.1872026  21.0423957  77.7232031  45.6932222  20.7086413
  76.4426402  46.1149426  20.4576184  77.0846537  46.1031034  20.9066312
  78.8109310  38.0361172  15.6089873  78.3836918  37.9487520  14.8537973
  78.1735363  38.1438947  16.1944717  78.6538917  38.0393832  15.5835315
  72.5016472  28.3565502  19.2760431  73.1309590  28.8925802  18.9981501
  72.6702335  28.2642861  20.1273996  72.6194267  28.4226865  19.3608959
  72.3030387  33.1436697  21.5486842  73.1303817  32.8721846  21.6045457
  72.3238233  33.9397539  21.9050660  72.4283237  33.2216451  21.6102025
  77.1406567  46.8791834  17.6829314  77.9298945  46.5280899  17.8031396
  77.3150164  47.6928223  17.4205948  77.2826848  46.9477691  17.6617182
  66.8799877  40.2900560  14.7357103  66.0387884  40.1904434  14.9435997
  67.0889885  41.0596040  15.0871424  66.7864570  40.3892603  14.8184418
  64.3575444  37.9120097  12.5641854  63.9632142  37.9863109  11.7891963
  63.8015561  38.2978043  13.1150215  64.2178256  37.9801871  12.5309513
  75.9940391  30.8901391  12.2445733  76.1989984  30.8223699  13.0902730
  75.6666815  31.6960212  12.1766910  75.9755639  30.9987331  12.3605388
  70.6916542  38.2181959  13.9854700  70.3879679  37.6637947  14.5865108
  69.9895963  38.3974169  13.4982735  70.5432752  38.1626741  14.0024406
  69.7482639  35.5282479   8.5499402  70.0242373  34.8101391   8.1376970
  70.3481308  36.1267399   8.3420508  69.8775904  35.5102850   8.4580164
  68.7534893  45.4331680  18.6926798  68.6455248  45.4433742  19.5588856
  68.9630674  46.2586460  18.5031752  68.7685004  45.5572755  18.7930890
  66.7708685  42.6844322  16.1548736  66.1796618  43.3253820  16.1251751
  67.5329708  43.1081939  16.1280035  66.7956946  42.8420161  16.1463883
  67.1669308  33.8446320  16.8216753  67.6270789  33.9185249  17.5591877
  67.2125414  34.6427574  16.4716575  67.2419863  33.9740467  16.8789510
  68.8152657  34.5113015  21.3888781  68.4238223  33.8646362  21.8244558
  68.9838520  35.1024450  22.0083036  68.7823568  34.5027283  21.5451487
  76.5298201  48.1353634  13.5880760  76.3317890  48.6244448  12.8936972
  75.9085912  48.3394875  14.1664894  76.4085766  48.2370172  13.5703984
  70.5906179  39.9038531   7.9291005  71.3348224  40.2912807   8.1673954
  70.7366876  39.0595956   8.0931492  70.7216765  39.8369003   7.9884974
  72.5085755  31.6988790  12.9622866  71.6621800  31.8711597  12.8364216
  72.5056887  30.8938133  13.2988694  72.3832905  31.6049818  12.9933993
  73.5784055  35.4764004  13.8284924  73.1044010  34.9505766  14.3390235
  73.9502191  34.9293477  13.2599785  73.5633944  35.3180001  13.8200071
  63.9557085  37.4735511  19.1968470  64.8182699  37.3731220  19.1105799
  63.6248869  36.8930220  18.6354042  64.0342282  37.3727137  19.1013876
  67.3158871  36.2977960  15.8578888  66.6911942  36.3096352  15.2504841
  66.9804466  36.7738135  16.5070128  67.1744363  36.3696477  15.8635456
  67.5000620  34.6403078   1.9151573  67.1513424  35.2922803   2.3783122
  67.0197066  34.6260191   1.1875444  67.3770864  34.7346132   1.8762664
  64.0284547  44.3578420  17.2982652  63.4984472  43.6670859  17.3477627
  64.3009640  44.3488605  16.4695361  63.9909269  44.2545552  17.1830068
  74.2290793  41.8001664  17.2721024  73.6147786  41.2559715  17.5669659
  74.7458078  41.2865901  16.7926840  74.2146455  41.6438073  17.2445252
  73.4687090  42.8705934  15.0065322  73.0414698  42.2455653  14.5730758
  73.4612034  42.5880856  15.8324330  73.4046231  42.7358715  15.0645150
  66.5849617  37.9071107  18.0753756  66.7443104  37.1514432  18.4805478
  66.4042510  38.4562047  18.7294494  66.5814976  37.8764921  18.2316462
  74.5269920  30.0732343  18.6304546  74.0310481  30.2696017  17.9396113
  75.2838982  30.4725011  18.4593347  74.5656745  30.1610077  18.5024683
  71.7972799  33.7474689  15.2207856  71.8215287  33.2134801  14.5320636
  72.0484273  33.2391998  15.8833447  71.8382718  33.5935593  15.2172501
  59.3080389  41.0306184  14.6551000  59.2023838  40.9853028  13.7903085
  58.5580609  41.3759964  14.9365285  59.1815992  41.0747092  14.5688330
  68.0774122  32.4745507  14.6013601  68.1172493  32.9754714  15.3148308
  67.2523786  32.5655901  14.3319524  67.9613648  32.5627323  14.6664139
  70.2603735  42.0406247  22.7033895  69.4099365  42.1777961  22.8391540
  70.4231862  41.3070025  23.1481597  70.1587598  41.9520348  22.7889494
  69.4988485  38.9906017  16.8987500  68.6680415  39.1579835  16.6922748
  69.4440002  38.6141968  17.6836385  69.3677900  38.9595748  16.9836028
  67.3072268  32.4814910  22.5343910  67.9324972  31.9377043  22.8073343
  66.8522748  32.0009827  21.9651701  67.3320529  32.3304391  22.4905504
  67.8724529  37.2661609   7.4277617  68.0127490  37.7634073   8.1306259
  68.3707062  36.5647903   7.5691831  67.9665610  37.2363587   7.5529196
  67.9024751  38.1328720   4.7570194  68.5369831  38.7289145   4.6919656
  67.9850362  37.8332177   5.5716064  68.0081302  38.1769628   4.8673281
  69.4803734  34.0642695   4.7315636  69.8019575  33.5845777   4.0774899
  69.7430678  34.8742341   4.5406448  69.5669760  34.1132593   4.6071128
  72.7100707  45.0861569  18.2514452  72.2025798  45.6397416  18.6955083
  72.4127353  45.1469859  17.4333227  72.5905592  45.1767881  18.1962909
  74.8762889  33.4514889  17.0939115  75.3017961  32.9987415  16.4822642
  74.2619882  32.8974960  17.3703903  74.8491534  33.3028865  17.0444141
  64.4077739  40.3296560   8.0259740  64.9169968  40.9261068   8.4071046
  64.8812011  40.0622534   7.3436160  64.5521115  40.3782376   7.9814263
  73.3157112  29.9229989  10.5029692  72.6725430  29.7727635  11.0714831
  72.9756519  29.6772334   9.7378797  73.1702189  29.8642111  10.4732707
  77.9056458  37.8789416   9.9259701  77.2347648  38.4219118   9.7972766
  78.5996209  38.3484271   9.6841396  77.9085326  38.0287687   9.8715229
  71.9543192  50.0186128  15.1571459  71.7308847  49.2604957  15.5255486
  71.4653035  50.0484149  14.4351899  71.8486641  49.9108352  15.1048200
  78.0684586  34.3345299  12.8350074  78.4212196  33.9075022  13.5095873
  77.2099387  34.2496143  12.9651151  77.9934031  34.2590040  12.9545085
  66.7668271  36.9652819  10.8932921  66.0480260  37.3816951  11.1605784
  67.1380633  37.5307058  10.3424559  66.7160203  37.1102100  10.8515728
  76.0667852  37.5980668  16.7834916  76.0465779  37.4163963  17.6369695
  76.1147052  38.4692686  16.7594500  76.0702493  37.6997206  16.9058211
  74.0114182  44.1867860  22.7083393  73.9710036  43.5417537  22.1228549
  74.8237500  44.1304477  23.0208805  74.1257335  44.0826827  22.6680342
  73.9686943  49.3976671  13.3632160  73.5703226  49.5078941  12.5952981
  73.3538163  49.6058737  13.9458720  73.8185833  49.4450239  13.3363460
  72.5414845  36.0050819   6.2306300  71.9479685  36.3267815   5.6790867
  72.5790123  35.1591914   6.0227406  72.4589234  35.9275147   6.1189071
  75.4172662  35.9630323   9.6608050  75.1886355  35.9863025   8.8186409
  75.6770738  35.1387790   9.7803061  75.4218850  35.8446403   9.5533248
  69.6991890  37.8164796  19.2633151  69.1870793  37.2085979  19.6218182
  69.5271386  38.5321389  19.7307126  69.5981527  37.8328096  19.3849374
  64.5457605  36.2602372  21.9135512  64.3760195  36.9203746  21.3683719
  64.1023555  36.4708933  22.6348001  64.4556939  36.3888354  21.9397142
  68.4717424  34.5006870  10.9562246  68.9474791  34.8623949  10.3212427
  67.9706024  35.1563337  11.2362389  68.4682783  34.6501058  10.9038987
  73.5760961  35.7389041  21.7035406  74.1332391  35.5102850  21.0713872
  73.2522026  36.4994707  21.4270619  73.6107371  35.8172878  21.5691903
  61.4459669  39.1649237  17.1724002  60.8986389  38.4949883  17.2904871
  62.2352048  38.7979085  17.2367469  61.4811853  39.0114224  17.1992703
  71.2944078  38.8256694  22.6687413  72.0455405  39.1408371  22.9826967
  71.4866654  38.6235865  21.8421335  71.4335492  38.8424076  22.5930809
  70.5144077  36.6448069   4.3235630  70.8943042  36.6627699   3.5386745
  69.7736674  37.0902058   4.2026477  70.4612915  36.7129844   4.1899198
  78.1429368  34.9530261   9.9111209  78.1423594  34.7978917  10.7695485
  77.9385548  35.7993248   9.8552594  78.1129146  35.0550881  10.0299148
  60.2046639  38.3770045  14.3270025  60.0268400  37.9246654  15.0524941
  59.9165661  39.1796206  14.5108503  60.1359592  38.4292603  14.4613528
  75.8670220  39.6327762  13.5647416  76.3623885  38.9150757  13.5251436
  75.0569996  39.3298560  13.4501903  75.8214113  39.4825409  13.5421141
  61.9419109  40.9097769  11.4391784  61.0764628  40.8983459  11.3274556
  62.0417925  40.7227992  12.2862924  61.8293276  40.8803830  11.5480729
  77.9322039  42.3831450  16.2524544  78.3577110  41.8605872  15.6994969
  77.5678959  42.9812287  15.7313167  77.9408641  42.3941677  16.0933554
  67.5676119  50.6795667  15.0121890  67.8822678  51.4932056  15.0199672
  67.9769532  50.2945886  15.6804049  67.6744217  50.7424370  15.1125981
  74.5200638  46.0965714  12.5825702  74.9911817  46.8105977  12.7515687
  74.8560817  45.4964464  13.1185571  74.6395753  46.1137178  12.6858078
  76.6077623  47.7067028  24.7617774  76.7174588  46.9175588  25.1174521
  76.9368520  47.6172964  23.9592112  76.6730029  47.5772880  24.6960165
  71.4370133  30.8693185  19.5383797  71.5698039  30.0724178  19.8664772
  71.8215286  31.3959588  20.1182072  71.5126462  30.8293101  19.6727299
  75.1574585  45.8883648  19.3453394  74.6095531  45.2641532  19.0773460
  75.6187613  46.0777920  18.6297474  75.1441794  45.8242698  19.2003826
  74.5102488  27.7923511  16.1364890  73.7048452  27.6821240  16.4532728
  74.3809224  27.8935967  15.2794756  74.3722621  27.7907181  16.0572930
  77.9668449  33.9569003  16.7304587  77.3831438  34.4578209  16.3182154
  78.2872743  33.4498559  16.0968910  77.9281624  33.9560838  16.5763094
  70.5063248  32.8709598   7.0063262  71.3278943  33.0407910   6.7644956
  70.0432899  33.0256859   6.2829559  70.5594410  32.9191331   6.8634906
  69.0958580  30.8652360  17.7861690  69.6402993  30.5243487  18.3766032
  69.1495516  31.7237821  17.9282975  69.1847699  30.9407619  17.8943564
  64.9089139  44.6268776  14.6600498  65.5133996  44.5864610  14.0314319
  64.7016451  45.4739928  14.6904554  64.9678036  44.7456778  14.5716615
  74.7232911  46.8934721  15.8762736  75.5431285  46.7497687  16.1379031
  74.4426989  47.5180920  16.4179174  74.8029654  46.9645073  15.9950675
  60.1440421  43.6103393  14.5299421  60.0464699  42.7999665  14.8389478
  60.9269291  43.5895187  14.1445689  60.2456558  43.4870484  14.5186284
  75.5796407  54.9214633  16.3938757  75.4555104  55.5077078  17.0288576
  76.2314691  54.4274828  16.6951032  75.6570056  54.9353437  16.5324686
  73.3239332  57.4325985  16.6420701  73.0577747  56.6165102  16.8011692
  73.3377896  57.4779140  15.7716217  73.2864054  57.3182890  16.5374183
  78.0737938  50.9704363  19.2887709  77.3809735  50.5001343  19.5348440
  78.6898266  50.7442668  19.8629416  78.0622468  50.8671495  19.4096862
  76.7978497  54.9369767  20.4314554  77.5218469  54.9222798  20.9179449
  76.8994634  55.6465122  19.9336522  76.9196706  55.0394470  20.4293341
  76.8457698  57.1162061  18.6198478  77.3578795  57.3946314  17.9707238
  76.5594041  57.8551355  18.9861291  76.8792561  57.2664415  18.5788356
  74.7488336  51.7379431  16.6583336  74.6073828  50.8863372  16.7827844
  75.0328900  51.7808092  15.8345542  74.7696183  51.6179181  16.5550960
  75.5178642  49.6509779  19.9760787  74.9820831  49.0390137  20.2921554
  75.5796406  50.2257915  20.6294453  75.4474274  49.6456706  20.1196213
  78.1401891  49.3631628  16.8216753  78.6003373  49.4370557  17.5591877
  78.1857998  50.1612882  16.4716575  78.2152447  49.4925775  16.8789510
  74.9289669  52.9920819  19.1968470  75.7915282  52.8916528  19.1105799
  74.5981452  52.4115528  18.6354042  75.0074865  52.8912445  19.1013876
  78.2891455  51.8163268  15.8578888  77.6644525  51.8281660  15.2504841
  77.9537050  52.2923443  16.5070128  78.1476947  51.8881785  15.8635456
  77.5582200  53.4256415  18.0753756  77.7175687  52.6699740  18.4805478
  77.3775094  53.9747355  18.7294494  77.5547559  53.3950229  18.2316462
  75.5190189  51.7787680  21.9135512  75.3492779  52.4389054  21.3683719
  75.0756138  51.9894241  22.6348001  75.4289522  51.9073662  21.9397142
  72.4192253  54.6834545  17.1724002  71.8718972  54.0135191  17.2904871
  73.2084631  54.3164393  17.2367469  72.4544437  54.5299532  17.1992703
  71.1779223  53.8955353  14.3270025  71.0000984  53.4431962  15.0524941
  70.8898245  54.6981514  14.5108503  71.1092176  53.9477911  14.4613528
   4.7098954  45.8705295  47.7650832   4.6792959  46.7249931  47.9369101
   5.3080303  45.5700587  48.3236976   4.7936112  45.9521791  47.8725634
   1.2192356  51.2267471  62.1264219   1.9259123  50.7319502  62.2551153
   1.4080291  51.6676553  61.3966877   1.3520261  51.2185822  62.0373264
   0.7550460  47.0172990  55.1635414   1.3006420  47.6958076  55.2229384
   0.6967336  46.8760451  54.3036996   0.8266374  47.0964991  55.0447475
   2.5315529  48.4457597  46.0369142   2.4155055  49.1965283  46.4661280
   3.3271415  48.1881550  46.2865229   2.6320118  48.5192444  46.1373233
   1.8450834  35.7945534  49.7343756   1.5304275  36.4849013  50.1664179
   1.3277775  35.7390317  49.0329257   1.7215304  35.8880423  49.6940705
   1.1863267  45.7950035  45.8481167   0.6574739  46.0109669  46.5078473
   1.7088287  46.4886174  45.7682136   1.1851720  45.9293172  45.9336766
   6.6411320  51.3696340  51.2214211   5.8109024  51.5806983  51.3847628
   6.5920573  50.5433394  50.9456495   6.5118056  51.2785946  51.2051577
   6.1365279  44.0166740  55.0164633   5.2993700  44.0868927  55.2512227
   6.1053510  44.0191235  54.1438935   6.0083561  44.0276967  54.9224181
   0.8595465  48.2122417  50.6076524   1.6152980  48.6453931  50.6465433
   0.9657789  47.5627187  51.1811160   0.9865635  48.1799901  50.6974550
   3.8975636  52.0395694  51.3578927   3.4610868  52.0432436  52.1137898
   3.5638551  52.7201193  50.9258505   3.7838256  52.1408150  51.4059760
   3.8173119  39.0809522  53.6008355   4.4599027  39.1507626  54.1870270
   4.0696139  38.4138745  53.0987897   3.9495251  38.9935871  53.6135634
   7.0319982  48.7576614  50.2498564   7.6936416  48.1967282  50.1494473
   6.3911394  48.2628645  50.5751255   7.0348849  48.6013023  50.2830904
   3.3184813  49.7741996  49.9910553   3.5540402  49.9187195  49.1637404
   3.4674376  50.5384404  50.3842067   3.3750616  49.9081051  49.9274157
   5.1475269  48.6143662  47.8280157   5.4783486  49.1471302  47.2220252
   5.7208357  48.6682550  48.4842108   5.2808948  48.7013231  47.8357939
   0.6130180  48.3057305  41.7440689   0.5310342  48.3759492  42.6095676
   1.2509900  48.8687049  41.5524430   0.6950017  48.3996276  41.8430638
   6.2554621  43.8554159  49.3320319   5.9991186  43.0434101  49.1418201
   7.0983935  43.8631726  49.1050506   6.3420646  43.7366157  49.2705136
   3.9379780  51.0103755  59.1678871   3.7018417  50.1791820  59.0490932
   4.5823009  50.9589362  59.7533715   3.9974451  50.8801443  59.2364765
   4.9616201  50.7948204  55.2307166   4.6562018  51.5276261  55.5920481
   4.2422416  50.3886133  54.9499952   4.8103543  50.8429937  55.2420303
  10.6617993  47.4341205  54.5575510  10.5942493  47.4537164  53.6878096
  10.6473655  48.2771532  54.7831180  10.6496749  47.5614939  54.4627987
   1.0714339  38.8376362  57.8816599   1.8167931  38.6486173  57.4680025
   0.6551644  39.3634600  57.3230456   1.1199314  38.8878508  57.7381173
   8.4476610  46.2085591  52.8322104   8.9984532  45.5753660  53.0719196
   8.4320726  46.7400984  53.5237609   8.5261807  46.1934539  52.9700962
   2.1505016  44.4481925  51.9426700   1.8069782  43.7272260  52.2933950
   2.2498059  44.2395776  51.1005059   2.1147059  44.3106128  51.8698380
   2.6118045  50.9107629  47.4850689   3.1776078  51.5700838  47.4009232
   1.9645949  51.2557327  47.9567091   2.5996802  51.0589570  47.5423445
   4.5453506  47.5741496  51.1047485   4.4587480  47.7296922  51.9582264
   4.0903986  48.2179572  50.7306890   4.4656762  47.6917251  51.1754592
   2.3127371  51.6035602  53.5159826   2.1741730  52.3016648  54.0208568
   1.5327368  51.4484259  53.1596008   2.1770597  51.6835769  53.5386100
   0.6505456  47.9031978  59.7682208   0.6453494  47.0311794  59.7724634
   1.3566450  48.1020147  59.2951663   0.7550460  47.8035852  59.6989243
   3.8080743  50.9613856  44.2776325   3.4287552  50.1750994  44.2705614
   3.1446989  51.5100713  44.1347969   3.6539218  50.9258680  44.2557122
   1.2625369  33.9039556  51.6810406   1.3808937  34.3616019  50.9477709
   1.0887545  33.0984817  51.3946624   1.2544540  33.8533328  51.5311340
   2.0540842  53.2059347  44.6128011   2.1360680  54.0126333  44.2889462
   2.5390584  53.2255307  45.3368784   2.1378000  53.3280010  44.6714910
   1.5616042  51.9656766  64.6946337   2.3750908  51.6941914  64.8551469
   1.4011009  51.6664306  63.8906533   1.6585991  51.8811692  64.5991743
   1.5737286  53.0263056  59.9669177   2.2117007  52.5323252  59.6331633
   0.9311378  52.9540456  59.3821404   1.5731513  52.9422064  59.8311532
   3.2994287  44.8752202  54.5335093   2.8721895  44.7878550  53.7783193
   2.6620339  44.9829977  55.1189937   3.1423894  44.8784862  54.5080535
   1.6291543  53.7182864  56.6074534   2.4183921  53.3671929  56.7276616
   1.8035141  54.5319253  56.3451168   1.7711825  53.7868721  56.5862402
   3.7359055  38.2824185  50.6493718   3.1233369  38.7694587  51.0347450
   3.8323230  37.6067676  51.1931369   3.6596953  38.2542494  50.7872576
   7.3784083  49.3541122  56.0771234   7.4367207  49.8027771  56.8231211
   6.7450550  49.7639935  55.6401314   7.2935378  49.4814857  56.1223782
   4.3305762  47.3757410  54.1636924   4.0903985  46.5363825  54.1679351
   4.8097770  47.4557576  54.8877698   4.3657946  47.2638809  54.2711727
   6.3310949  44.1558867  52.1166184   6.0920719  44.1154701  51.2786968
   6.4944851  45.0030019  52.2431905   6.3201253  44.2750952  52.0119666
   2.9356979  48.5408816  58.0471229   3.6591178  48.0881342  57.8682249
   2.6706942  48.8213482  57.2643557   3.0038253  48.5159785  57.9049944
   5.3692293  47.5035227  56.5501778   5.9610134  48.1432478  56.5819976
   5.8051288  46.8058264  56.8393845   5.5210725  47.4953577  56.5982611
   2.3941435  44.7180446  48.8504921   1.7232625  45.2610148  48.7217986
   3.0881185  45.1875301  48.6086616   2.3970302  44.8678717  48.7960449
   2.5569562  41.1736329  51.7595294   2.9097172  40.7466052  52.4341093
   1.6984364  41.0887173  51.8896371   2.4819007  41.0981070  51.8790305
   0.5552828  44.4371698  55.7080136   0.5350755  44.2554993  56.5614915
   0.6032029  45.3083716  55.6839720   0.5587469  44.5388236  55.8303431
   3.9893622  36.2954741  52.6879607   3.4824487  35.5883881  52.6200784
   4.7861056  35.9647930  52.8180683   4.0320862  36.1427892  52.6978602
   6.1913762  50.8119668  45.6720471   6.5747368  51.5611024  45.9018568
   5.3957876  51.0585487  45.4132460   6.1307545  50.9589361  45.6678045
   2.6314344  41.7921291  48.8356429   2.6308571  41.6369947  49.6940705
   2.4270524  42.6384278  48.7797814   2.6014122  41.8941911  48.9544368
   2.4207015  49.2222480  55.1769764   2.8462087  48.6996902  54.6240189
   2.0563935  49.8203317  54.6558387   2.4293618  49.2332707  55.0178774
   2.4553425  40.7960033  55.6549807   1.8716414  41.2969239  55.2427374
   2.7757720  40.2889589  55.0214130   2.4166601  40.7951868  55.5008314
  15.6831538  61.3890603  47.7650832  15.6525542  62.2435239  47.9369101
  16.2812887  61.0885895  48.3236976  15.7668696  61.4707099  47.8725634
   8.8831223  60.4766254  52.5203762   8.0269118  60.6374752  52.5712879
   8.9298876  59.6058318  52.5408823   8.7630334  60.3717056  52.5309828
  12.1924939  66.7452779  62.1264219  12.8991706  66.2504810  62.2551153
  12.3812875  67.1861861  61.3966877  12.3252845  66.7371130  62.0373264
  11.7283044  62.5358298  55.1635414  12.2739004  63.2143384  55.2229384
  11.6699920  62.3945758  54.3036996  11.7998958  62.6150299  55.0447475
  13.5048112  63.9642905  46.0369142  13.3887638  64.7150591  46.4661280
  14.3003999  63.7066858  46.2865229  13.6052702  64.0377752  46.1373233
   5.3878438  67.9536928  47.3238484   5.7094279  68.4942135  46.7199792
   6.0350534  67.3833699  47.4560774   5.5304493  67.9496103  47.2545520
   7.4380146  59.9552923  47.4072871   8.1360311  60.1341050  47.8994334
   7.7532478  59.4323262  46.7843260   7.5875483  59.9046695  47.3874881
   7.6268081  66.3423368  47.3952662   8.0661717  65.7340468  47.8407435
   7.4772744  65.9630741  46.6238127   7.6689547  66.1961839  47.3471830
   5.0939724  64.9367380  54.5971488   5.7388727  64.4439823  54.2782436
   5.3341501  65.0792166  55.4237566   5.2250309  64.8844822  54.6721021
   7.6325816  67.7822285  54.2478380   7.9149059  66.9873691  54.0265136
   8.3611976  68.2602873  54.2683441   7.7815379  67.7356882  54.2181396
   5.6107010  55.3245319  51.4894146   5.2810340  55.7756463  50.8197844
   4.9352011  55.2461483  52.0367152   5.4617446  55.3796454  51.4717369
  11.2277418  64.6950549  44.3483432  11.1428713  65.5511516  44.4933000
  11.7161801  64.4194873  45.0165591  11.2866315  64.7807870  44.4685513
  12.8183417  51.3130842  49.7343756  12.5036858  52.0034321  50.1664179
  12.3010359  51.2575624  49.0329257  12.6947888  51.4065731  49.6940705
  12.1595851  61.3135343  45.8481167  11.6307323  61.5294977  46.5078473
  12.6820871  62.0071482  45.7682136  12.1584304  61.4478480  45.9336766
  17.6143904  66.8881648  51.2214211  16.7841607  67.0992291  51.3847628
  17.5653156  66.0618702  50.9456495  17.4850639  66.7971254  51.2051577
   4.0495459  65.2098560  44.6488635   3.4652674  65.7148591  45.0554499
   3.6465554  64.9840947  43.9085227   3.9034763  65.2506808  44.5993660
   9.3317234  70.1680316  60.0178294   9.4200579  69.9806456  60.8656504
   9.7606946  69.5217745  59.6183141   9.4079336  70.0443323  60.0850045
   8.5072673  61.4564212  43.1257555   8.7468677  61.6642196  42.3132898
   8.8288514  60.6521721  43.2346500   8.5909831  61.3678313  43.0218108
   3.8162964  53.3857608  46.9717093   4.5708932  53.7535925  46.7334143
   3.6390498  53.7597162  47.7396273   3.9017442  53.4955796  47.0501982
  17.1097862  59.5352048  55.0164633  16.2726283  59.6054235  55.2512227
  17.0786093  59.5376543  54.1438935  16.9816145  59.5462275  54.9224181
   3.5062591  61.6785084  60.7313001   3.6783095  61.5690978  61.5798283
   4.0431949  62.3239489  60.4944194   3.6107595  61.7577086  60.8218098
   2.1720028  55.7927927  43.6695206   1.9895601  56.0099808  42.8436199
   3.0345641  55.9066939  43.7253821   2.2724618  55.8417825  43.5549693
   1.7834460  67.6315849  51.1118194   2.6223360  67.8638782  51.1591956
   1.8146229  66.7620160  51.0425230   1.9116178  67.5372795  51.1082839
   7.8519747  52.7954337  46.7044230   8.5805908  52.6170292  46.2582386
   7.9414640  53.6372417  46.9151408   7.9726409  52.8938216  46.6697748
  11.8328048  63.7307725  50.6076524  12.5885563  64.1639239  50.6465433
  11.9390373  63.0812494  51.1811160  11.9598219  63.6985209  50.6974550
  14.8708219  67.5581002  51.3578927  14.4343451  67.5617744  52.1137898
  14.5371135  68.2386501  50.9258505  14.7570839  67.6593458  51.4059760
  14.7905702  54.5994830  53.6008355  15.4331611  54.6692934  54.1870270
  15.0428723  53.9324053  53.0987897  14.9227834  54.5121178  53.6135634
   1.7182055  59.0702099  42.1817679   1.0040232  58.7840279  42.5940112
   2.2026024  59.4098725  42.8224067   1.6841419  59.0783749  42.3373314
   2.5622915  57.8095393  58.2132929   1.8694711  57.3392373  58.4593661
   3.1783242  57.5833698  58.7874636   2.5507445  57.7062525  58.3342082
  18.0052565  64.2761922  50.2498564  18.6669000  63.7152590  50.1494473
  17.3643977  63.7813953  50.5751255  18.0081433  64.1198331  50.2830904
   8.8929373  67.5732053  42.5579488   9.3080522  67.2417077  41.8663983
   8.0621303  67.3400956  42.4299624   8.8317382  67.4903309  42.4370335
  14.2917396  65.2927304  49.9910553  14.5272985  65.4372503  49.1637404
  14.4406960  66.0569712  50.3842067  14.3483199  65.4266359  49.9274157
   1.2863474  61.7760797  59.3559774   2.0103446  61.7613828  59.8424669
   1.3879610  62.4856152  58.8581742   1.4081683  61.8785500  59.3538561
  16.1207853  64.1328970  47.8280157  16.4516070  64.6656610  47.2220252
  16.6940941  64.1867858  48.4842108  16.2541532  64.2198539  47.8357939
  11.3339742  61.9793873  48.5103737  11.4286596  62.7183167  48.9643362
  10.7098586  61.5511348  48.9438302  11.2548772  62.0255194  48.6411885
   9.5892216  65.1580086  59.1594018  10.1631077  64.5207330  59.3142582
   9.5107020  65.1584168  58.2903676   9.6625451  65.0645197  59.0540429
  11.5862763  63.8242613  41.7440689  11.5042926  63.8944800  42.6095676
  12.2242484  64.3872357  41.5524430  11.6682601  63.9181584  41.8430638
   4.9455934  63.5903351  51.2115215   4.6875179  62.7575086  51.1846515
   5.0004417  63.8160964  50.3707716   4.9155712  63.5001122  51.0835352
  10.0256985  55.6931801  51.3119308   9.3213311  55.2040987  51.4703227
  10.0741959  55.7054276  50.4407752   9.9287036  55.6221449  51.2058648
   3.9190647  61.1441113  51.6980110   3.3440238  61.3033281  52.3344071
   3.5426323  60.5076522  51.2348561   3.7793459  61.0738926  51.7234668
   7.5863935  59.6164462  56.5572488   7.1978368  59.1918680  55.9024680
   6.9218634  59.8646612  57.0649515   7.4310863  59.5903184  56.5360356
  17.2287204  59.3739467  49.3320319  16.9723769  58.5619409  49.1418201
  18.0716518  59.3817034  49.1050506  17.3153230  59.2551465  49.2705136
  11.4090297  53.3139091  54.0696473  11.7900809  52.6317262  54.4564347
  10.6053581  53.0248693  53.8872137  11.3466758  53.1706140  54.1000529
   8.6902873  63.8463067  44.7549295   9.5043512  64.1377960  44.6432067
   8.6262015  63.1922929  44.1807588   8.8005613  63.7928262  44.6538133
  14.9112364  66.5289063  59.1678871  14.6751001  65.6977128  59.0490932
  15.5555593  66.4774670  59.7533715  14.9707034  66.3986751  59.2364765
   4.5610782  67.3184584  49.8821608   5.1984729  67.0796332  50.4273401
   4.9865853  67.5221743  49.1474768   4.7186948  67.3135595  49.8538765
   5.2013597  62.5386874  44.2196497   5.5858750  62.3194581  44.9713042
   4.9525217  63.3649820  44.3497573   5.2215669  62.6285020  44.3497573
   5.3682137  55.8193289  63.9359081   5.0535578  56.5892852  63.6728644
   5.0472070  55.2563545  63.3511308   5.2741056  55.8503558  63.8100431
  15.9348784  66.3133512  55.2307166  15.6294601  67.0461569  55.5920481
  15.2155000  65.9071441  54.9499952  15.7836127  66.3615245  55.2420303
   6.9432254  67.7957007  51.5615394   7.0171262  67.6332179  52.4157244
   7.7601760  67.9847197  51.3175875   7.0748612  67.7993749  51.6513419
  21.6350576  62.9526513  54.5575510  21.5675077  62.9722472  53.6878096
  21.6206239  63.7956840  54.7831180  21.6229333  63.0800247  54.4627987
   2.9214034  54.2083811  49.5505277   2.0536460  54.2806410  49.6162887
   3.2089238  55.0105890  49.7393253   2.8353782  54.3377958  49.5880044
  12.0446923  54.3561670  57.8816599  12.7900515  54.1671481  57.4680025
  11.6284228  54.8819908  57.3230456  12.0931897  54.4063816  57.7381173
  19.4209194  61.7270899  52.8322104  19.9717115  61.0938968  53.0719196
  19.4053309  62.2586292  53.5237609  19.4994390  61.7119847  52.9700962
   6.0731585  65.5609496  57.3781998   5.5743278  66.2725264  57.4566886
   6.8831809  65.8810163  57.3400160   6.1187691  65.7136345  57.3838566
   2.3359702  64.8232449  51.6244719   2.0472951  64.1969920  52.1590446
   3.2043050  64.7652736  51.6909399   2.4219954  64.7219993  51.7135673
  13.1237600  59.9667232  51.9426700  12.7802366  59.2457568  52.2933950
  13.2230643  59.7581084  51.1005059  13.0879643  59.8291436  51.8698380
   2.5391976  66.4627700  47.5487084   3.2937944  66.8440739  47.7622546
   1.9462588  66.9138844  48.0033780   2.5628689  66.5856527  47.6469962
  13.5850629  66.4292937  47.4850689  14.1508662  67.0886146  47.4009232
  12.9378532  66.7742635  47.9567091  13.5729385  66.5774878  47.5423445
   4.9998643  58.4190540  62.6744296   4.1898418  58.7248320  62.5634138
   5.4773329  59.1396123  62.7896880   4.9502121  58.5705142  62.6751367
   3.8590202  67.6336261  52.9227199   3.3370956  67.7736553  53.6079064
   4.2464222  66.8746926  53.1129316   3.8393903  67.5421785  53.0528276
   0.8481386  57.6842070  46.9922154   0.5606182  57.3143341  46.2554101
   1.5351854  58.1536926  46.7305859   0.9070284  57.6989040  46.8437229
  10.0557207  69.3731721  46.9087768   9.8143883  68.6399581  46.5014833
  10.2358540  69.9218578  46.2554101  10.0464831  69.3454112  46.7517991
   5.2856528  64.6640281  48.3208690   5.0899310  65.2715015  47.7268993
   5.5090873  63.9708224  47.8400364   5.2891169  64.6517806  48.1624771
   3.6835058  61.5495018  48.4389558   4.4057710  61.7136177  47.9793364
   3.2043051  62.2704683  48.3328898   3.7198788  61.6793248  48.3555172
  11.6428565  57.8858817  53.8186243  10.8039666  57.9120096  53.5824507
  11.7132933  58.5329553  54.3991590  11.5296959  57.9854943  53.8695360
  10.0897844  54.7844194  48.5513859  10.7924196  54.5851943  48.0733818
   9.8242032  54.0120137  48.8582703  10.1544476  54.6407160  48.5259301
  15.5186089  63.0926804  51.1047485  15.4320064  63.2482230  51.9582264
  15.0636569  63.7364880  50.7306890  15.4389346  63.2102559  51.1754592
   4.8526400  56.0479479  57.6044740   4.6609597  56.0634614  58.4544163
   5.7024996  56.2443154  57.5811395   4.9502122  56.0793831  57.7268035
   9.3911905  60.4137551  49.7273045   9.1446620  60.3333302  50.5609834
   9.7197028  59.6291019  49.5335572   9.4033149  60.2863816  49.8220568
  13.2859954  67.1220910  53.5159826  13.1474313  67.8201956  54.0208568
  12.5059952  66.9669567  53.1596008  13.1503181  67.2021077  53.5386100
  11.6238039  63.4217286  59.7682208  11.6186078  62.5497102  59.7724634
  12.3299033  63.6205455  59.2951663  11.7283043  63.3221160  59.6989243
   5.3508933  63.1494270  59.1396028   5.4952308  63.7295478  58.5039138
   5.6984581  63.5270566  59.8445882   5.4236394  63.2914974  59.1495023
   7.5228850  62.3484438  56.9221159   6.7752164  62.5415452  56.5169437
   7.6770375  61.5229658  56.6845281   7.4351278  62.2549549  56.8266565
  14.7813327  66.4799164  44.2776325  14.4020136  65.6936302  44.2705614
  14.1179572  67.0286021  44.1347969  14.6271802  66.4443988  44.2557122
   7.7630627  56.2434989  57.8116563   8.2203241  56.9758963  57.9389355
   7.8386956  55.8201454  58.5703819   7.8421597  56.2892227  57.9417640
  12.2357953  49.4224864  51.6810406  12.3541521  49.8801327  50.9477709
  12.0620129  48.6170125  51.3946624  12.2277124  49.3718636  51.5311340
   5.6413005  58.2337093  54.6558387   4.8509080  58.0528553  54.9775723
   6.0373628  57.4564045  54.6388682   5.5829881  58.0924554  54.7010935
  10.1278896  67.0624867  40.0965101  10.8951881  67.1224992  39.6870952
   9.6810205  66.4905308  39.6121419  10.1752323  66.9861443  39.9642811
  11.0256691  65.8679523  52.3817833  10.3501693  65.6364755  52.8831220
  11.0349067  65.2600706  51.7559938  10.9275196  65.7438448  52.3633985
   8.1550835  60.7097352  59.1381886   8.0909976  61.5707308  59.0102023
   8.2948023  60.3929345  58.3377437   8.1666305  60.7897518  59.0010099
  13.0273426  68.7244655  44.6128011  13.1093263  69.5311641  44.2889462
  13.5123168  68.7440614  45.3368784  13.1110584  68.8465318  44.6714910
   6.8369929  63.4029491  53.2798089   6.4132178  63.6033990  52.5437107
   6.6614784  62.5558339  53.3922389   6.7480810  63.3078273  53.1871779
   2.1252374  63.8981543  48.7126061   2.2816993  63.8328345  49.5682053
   2.4652967  64.6730095  48.5004741   2.1985609  64.0030741  48.8080656
   8.6631519  63.2739426  47.5819425   9.2047064  62.7709807  48.0458045
   8.9778078  63.2204621  46.7708910   8.7895916  63.1918847  47.5303237
  12.5348626  67.4842074  64.6946337  13.3483491  67.2127222  64.8551469
  12.3743592  67.1849613  63.8906533  12.6318574  67.3997000  64.5991743
   6.8317968  68.6656778  44.8659453   6.9010789  67.8071316  45.0052453
   7.6106423  68.8828659  44.5378477   6.9570818  68.5709642  44.8376610
   9.8120788  58.1675731  57.6341725  10.0262758  57.5286645  57.0805079
   9.1954687  58.6121555  57.2049587   9.7526117  58.1385874  57.4892156
  11.9759876  59.7764796  58.5725032  11.1636558  59.4690686  58.6538205
  12.4349811  59.2963796  59.1367744  11.9240261  59.6601288  58.6679626
  11.3865131  67.6544468  49.0201977  11.0279785  67.8259111  49.7966009
  10.9003841  68.1157673  48.4629975  11.2623828  67.7483439  49.0527246
   9.2035517  51.2775666  52.6229068   8.3329075  51.2514387  52.5762377
   9.4575858  51.1052859  51.8054914   9.1129077  51.2485810  52.4949205
   6.1753496  63.3343633  41.5602211   6.4646021  64.1108516  41.8345785
   6.2625295  62.8232365  42.2616710   6.2307752  63.3735552  41.7044709
   9.0713384  61.1824867  63.3553734   9.5413015  61.8066984  63.7421609
   9.1175264  60.5141843  63.9146949   9.1481259  61.1759548  63.4953806
   6.2284657  53.2881895  54.0802538   5.7123146  52.5962086  54.2054117
   5.6678586  53.9552672  54.0265137   6.0691170  53.2845152  54.0908604
   8.2976891  53.8274855  55.9095391   7.9108644  53.8523886  56.6908921
   7.8109828  53.2616533  55.4569907   8.1689400  53.7470606  55.9583295
  12.5469870  68.5448364  59.9669177  13.1849591  68.0508559  59.6331633
  11.9043962  68.4725764  59.3821404  12.5464097  68.4607372  59.8311532
  14.2726870  60.3937510  54.5335093  13.8454478  60.3063858  53.7783193
  13.6352923  60.5015285  55.1189937  14.1156477  60.3970170  54.5080535
   7.9634032  50.7141840  58.2005651   8.5927150  51.2502140  57.9226721
   8.1319895  50.6219199  59.0519216   8.0811827  50.7803203  58.2854179
   7.7647947  55.5013035  60.4732062   8.5921377  55.2298184  60.5290677
   7.7855793  56.2973877  60.8295880   7.8900797  55.5792789  60.5347245
  12.6024127  69.2368172  56.6074534  13.3916505  68.8857237  56.7276616
  12.7767724  70.0504560  56.3451168  12.7444408  69.3054029  56.5862402
   2.3417437  62.6476898  53.6602323   1.5005444  62.5480772  53.8681217
   2.5507445  63.4172378  54.0116644   2.2482130  62.7468941  53.7429638
  11.4557951  53.2477729  51.1690953  11.6607544  53.1800037  52.0147950
  11.1284375  54.0536550  51.1012130  11.4373199  53.3563669  51.2850608
   6.1534102  60.5758297  52.9099921   5.8497239  60.0214285  53.5110328
   5.4513523  60.7550507  52.4227955   6.0050312  60.5203079  52.9269626
   5.2100199  57.8858817  47.4744622   5.4859933  57.1677729  47.0622190
   5.8098868  58.4843737  47.2665728   5.3393464  57.8679188  47.3825384
  14.7091639  53.8009493  50.6493718  14.0965952  54.2879895  51.0347450
  14.8055813  53.1252984  51.1931369  14.6329536  53.7727802  50.7872576
   8.7110719  55.5572334  45.7491217   9.1654466  55.7282895  46.4739062
   9.1850765  54.9440445  45.3488993   8.8479040  55.4923219  45.7964979
   2.2326245  65.0420660  55.0793956   1.6414178  65.6830158  55.0496971
   2.9947268  65.4658277  55.0525255   2.2574506  65.1996499  55.0709103
   2.6286868  56.2022658  55.7461973   3.0888349  56.2761587  56.4837097
   2.6742974  57.0003912  55.3961795   2.7037423  56.3316805  55.8034730
   4.2770217  56.8689353  60.3134001   3.8855783  56.2222700  60.7489778
   4.4456080  57.4600788  60.9328256   4.2441128  56.8603621  60.4696707
  18.3516666  64.8726430  56.0771234  18.4099790  65.3213079  56.8231211
  17.7183134  65.2825243  55.6401314  18.2667962  65.0000164  56.1223782
  11.9915761  70.4929972  52.5125980  11.7935450  70.9820786  51.8182192
  11.3703472  70.6971213  53.0910114  11.8703326  70.5946510  52.4949204
   6.0523739  62.2614869  46.8536225   6.7965784  62.6489145  47.0919174
   6.1984436  61.4172294  47.0176712   6.1834325  62.1945341  46.9130194
   7.9703315  54.0565127  51.8868086   7.1239360  54.2287935  51.7609436
   7.9674447  53.2514471  52.2233914   7.8450465  53.9626156  51.9179213
   9.0401615  57.8340342  52.7530144   8.5661570  57.3082104  53.2635455
   9.4119751  57.2869815  52.1845005   9.0251504  57.6756338  52.7445291
  15.3038346  62.8942718  54.1636924  15.0636569  62.0549133  54.1679351
  15.7830353  62.9742884  54.8877698  15.3390530  62.7824117  54.2711727
  10.9685115  58.7276896  45.8155898  10.4408134  58.8105640  45.1261607
  11.4280823  59.4694768  45.8120542  10.9586965  58.8497559  45.7130593
  17.3043533  59.6744175  52.1166184  17.0653303  59.6340009  51.2786968
  17.4677434  60.5215327  52.2431905  17.2933836  59.7936260  52.0119666
  13.9089563  64.0594124  58.0471229  14.6323762  63.6066650  57.8682249
  13.6439525  64.3398790  57.2643557  13.9770836  64.0345093  57.9049944
   2.7776431  58.6554298  54.7824108   2.1529502  58.6672690  54.1750061
   2.4422026  59.1314473  55.4315348   2.6361923  58.7272815  54.7880676
   2.9618180  56.9979416  40.8396793   2.6130984  57.6499141  41.3028342
   2.4814626  56.9836529  40.1120664   2.8388424  57.0922470  40.8007884
  10.5222198  67.2980460  44.9465555  11.2456396  67.7638573  44.8030128
  10.0822789  67.3654070  44.1963152  10.5637890  67.3764297  44.8150336
   9.6908353  64.1578002  56.1966244   9.0765346  63.6136053  56.4914879
  10.2075638  63.6442239  55.7172060   9.6764015  64.0014411  56.1690472
   8.9304650  65.2282272  53.9310542   8.5032258  64.6031991  53.4975978
   8.9229594  64.9457194  54.7569550   8.8663791  65.0935053  53.9890370
   2.0467177  60.2647445  56.9998976   2.2060664  59.5090769  57.4050698
   1.8660070  60.8138385  57.6539714   2.0432536  60.2341259  57.1561682
   9.9887480  52.4308681  57.5549766   9.4928041  52.6272355  56.8641333
  10.7456542  52.8301349  57.3838568  10.0274305  52.5186415  57.4269903
   7.2590359  56.1051027  54.1453076   7.2832847  55.5711139  53.4565856
   7.5101833  55.5968336  54.8078667   7.3000278  55.9511931  54.1417721
   3.5391682  54.8321845  53.5258821   3.5790053  55.3331052  54.2393528
   2.7141346  54.9232239  53.2564744   3.4231208  54.9203661  53.5909359
   4.9606045  61.3482355  55.8232720   4.1297975  61.5156173  55.6167968
   4.9057562  60.9718306  56.6081605   4.8295460  61.3172086  55.9081248
   2.7689828  54.8391248  61.4589130   3.3942532  54.2953381  61.7318563
   2.3140308  54.3586165  60.8896921   2.7938089  54.6880729  61.4150724
   3.3342089  59.6237946  46.3522837   3.4745050  60.1210411  47.0551479
   3.8324622  58.9224241  46.4937051   3.4283170  59.5939925  46.4774416
   3.3642311  60.4905057  43.6815414   3.9987391  61.0865482  43.6164876
   3.4467922  60.1908515  44.4961284   3.4698862  60.5345966  43.7918501
  16.3424877  63.0220535  56.5501778  16.9342717  63.6617786  56.5819976
  16.7783872  62.3243572  56.8393845  16.4943308  63.0138885  56.5982611
   4.9421294  56.4219033  43.6560856   5.2637135  55.9422115  43.0020119
   5.2048238  57.2318679  43.4651668   5.0287320  56.4708931  43.5316348
   8.1718267  67.4437907  57.1759672   7.6643358  67.9973754  57.6200303
   7.8744913  67.5046197  56.3578447   8.0523152  67.5344218  57.1208129
  10.3380449  55.8091227  56.0184335  10.7635521  55.3563753  55.4067862
   9.7237442  55.2551298  56.2949123  10.3109094  55.6605203  55.9689361
   8.7774672  52.2806327  49.4274912   8.1342990  52.1303973  49.9960051
   8.4374079  52.0348672  48.6624017   8.6319749  52.2218449  49.3977927
  13.3674018  60.2365753  48.8504921  12.6965208  60.7795456  48.7217986
  14.0613769  60.7060609  48.6086616  13.3702886  60.3864025  48.7960449
  13.5302146  56.6921637  51.7595294  13.8829756  56.2651360  52.4341093
  12.6716947  56.6072481  51.8896371  13.4551591  56.6166378  51.8790305
   2.2285831  59.3229157  49.8178141   1.5097820  59.7393289  50.0851004
   2.5998193  59.8883396  49.2669779   2.1777763  59.4678438  49.7760948
  11.5285412  59.9557006  55.7080136  11.5083339  59.7740301  56.5614915
  11.5764612  60.8269024  55.6839720  11.5320053  60.0573544  55.8303431
   9.4731742  66.5444198  61.6328613   9.4327596  65.8993875  61.0473769
  10.2855060  66.4880815  61.9454025   9.5874895  66.4403165  61.5925562
   8.0032405  58.3627157  45.1551520   7.4097245  58.6844153  44.6036087
   8.0407683  57.5168252  44.9472626   7.9206794  58.2851485  45.0434291
  14.9626206  51.8140049  52.6879607  14.4557071  51.1069188  52.6200784
  15.7593640  51.4833238  52.8180683  15.0053445  51.6613200  52.6978602
  10.8790222  58.3206661  48.5853270  10.6503915  58.3439363  47.7431629
  11.1388298  57.4964128  48.7048281  10.8836410  58.2022741  48.4778468
   5.1609450  60.1741134  58.1878371   4.6488353  59.5662317  58.5463402
   4.9888946  60.8897727  58.6552346   5.0599087  60.1904434  58.3094594
   3.9334984  56.8583207  49.8807466   4.4092351  57.2200287  49.2457647
   3.4323584  57.5139675  50.1607609   3.9300343  57.0077396  49.8284207
  17.1646346  66.3304976  45.6720471  17.5479952  67.0796332  45.9018568
  16.3690459  66.5770795  45.4132460  17.1040128  66.4774669  45.6678045
   9.0378521  58.0965379  60.6280626   9.5949951  57.8679188  59.9959092
   8.7139586  58.8571044  60.3515839   9.0724931  58.1749216  60.4937123
   6.7561638  61.1833032  61.5932633   7.5072965  61.4984709  61.9072187
   6.9484214  60.9812203  60.7666555   6.8953052  61.2000414  61.5176029
   5.9761637  59.0024407  43.2480850   6.3560602  59.0204036  42.4631965
   5.2354234  59.4478396  43.1271697   5.9230475  59.0706182  43.1144418
  13.6046928  57.3106598  48.8356429  13.6041154  57.1555255  49.6940705
  13.4003108  58.1569586  48.7797814  13.5746706  57.4127219  48.9544368
  11.3287780  61.9904100  52.4892636  11.8241445  61.2727095  52.4496656
  10.5187556  61.6874898  52.3747123  11.2831673  61.8401747  52.4666361
   6.7746392  65.8401914  44.6389640   5.9657714  65.5168587  44.5922949
   7.2821300  65.1335136  44.5717889   6.7296058  65.6883230  44.6219934
  13.3939599  64.7407788  55.1769764  13.8194670  64.2182210  54.6240189
  13.0296519  65.3388625  54.6558387  13.4026201  64.7518015  55.0178774
   9.9818198  68.4542052  51.5070922  10.4529377  69.1682315  51.6760907
  10.3178377  67.8540802  52.0430791  10.1013313  68.4713516  51.6103298
   6.8987693  53.2269523  58.4629017   7.0315599  52.4300516  58.7909992
   7.2832846  53.7535926  59.0427292   6.9744022  53.1869439  58.5972519
  10.6192145  68.2459986  58.2698614  10.0713091  67.6217870  58.0018680
  11.0805173  68.4354258  57.5542694  10.6059354  68.1819036  58.1249046
   9.9720048  50.1499849  55.0610110   9.1666012  50.0397578  55.3777948
   9.8426784  50.2512304  54.2039976   9.8340181  50.1483519  54.9818150
  13.4286009  56.3145341  55.6549807  12.8448998  56.8154547  55.2427374
  13.7490303  55.8074897  55.0214130  13.3899184  56.3137176  55.5008314
   5.9680808  55.2285935  45.9308482   6.7896503  55.3984248  45.6890176
   5.5050459  55.3833196  45.2074779   6.0211970  55.2767668  45.7880126
   4.5576140  53.2228698  56.7106910   5.1020553  52.8819824  57.3011252
   4.6113076  54.0814159  56.8528195   4.6465259  53.2983957  56.8188784
  10.1850471  69.2511059  54.8007956  11.0048845  69.1074025  55.0624251
   9.9044549  69.8757258  55.3424394  10.2647214  69.3221411  54.9195895
  16.5839593  70.8430627  51.4894146  16.2542923  71.2941771  50.8197844
  15.9084595  70.7646791  52.0367152  16.4350029  70.8981762  51.4717369
  23.7916001  66.8316150  49.7343756  23.4769442  67.5219629  50.1664179
  23.2742943  66.7760932  49.0329257  23.6680471  66.9251039  49.6940705
  14.7895547  68.9042916  46.9717093  15.5441515  69.2721233  46.7334143
  14.6123082  69.2782470  47.7396273  14.8750026  69.0141104  47.0501982
  28.0830446  75.0537356  55.0164633  27.2458867  75.1239543  55.2512227
  28.0518677  75.0561851  54.1438935  27.9548728  75.0647583  54.9224181
  13.1452612  71.3113235  43.6695206  12.9628185  71.5285115  42.8436199
  14.0078225  71.4252247  43.7253821  13.2457201  71.3603133  43.5549693
  18.8252331  68.3139645  46.7044230  19.5538491  68.1355600  46.2582386
  18.9147224  69.1557725  46.9151408  18.9458993  68.4123524  46.6697748
  25.7638286  70.1180138  53.6008355  26.4064194  70.1878242  54.1870270
  26.0161306  69.4509361  53.0987897  25.8960418  70.0306486  53.6135634
  20.9989568  71.2117109  51.3119308  20.2945895  70.7226295  51.4703227
  21.0474542  71.2239584  50.4407752  20.9019620  71.1406757  51.2058648
  28.2019788  74.8924775  49.3320319  27.9456353  74.0804717  49.1418201
  29.0449102  74.9002342  49.1050506  28.2885813  74.7736772  49.2705136
  22.3822880  68.8324399  54.0696473  22.7633392  68.1502570  54.4564347
  21.5786165  68.5434001  53.8872137  22.3199342  68.6891448  54.1000529
  16.3414721  71.3378597  63.9359081  16.0268162  72.1078160  63.6728644
  16.0204653  70.7748853  63.3511308  16.2473640  71.3688866  63.8100431
  13.8946618  69.7269119  49.5505277  13.0269043  69.7991718  49.6162887
  14.1821822  70.5291198  49.7393253  13.8086366  69.8563266  49.5880044
  23.0179506  69.8746978  57.8816599  23.7633098  69.6856789  57.4680025
  22.6016811  70.4005216  57.3230456  23.0664481  69.9249124  57.7381173
  30.3941777  77.2456207  52.8322104  30.9449699  76.6124276  53.0719196
  30.3785893  77.7771600  53.5237609  30.4726974  77.2305155  52.9700962
  24.0970184  75.4852540  51.9426700  23.7534949  74.7642876  52.2933950
  24.1963226  75.2766392  51.1005059  24.0612226  75.3476744  51.8698380
  22.6161149  73.4044125  53.8186243  21.7772250  73.4305404  53.5824507
  22.6865516  74.0514861  54.3991590  22.5029542  73.5040251  53.8695360
  21.0630427  70.3029502  48.5513859  21.7656780  70.1037250  48.0733818
  20.7974616  69.5305445  48.8582703  21.1277060  70.1592468  48.5259301
  15.8258983  71.5664787  57.6044740  15.6342180  71.5819922  58.4544163
  16.6757579  71.7628462  57.5811395  15.9234705  71.5979139  57.7268035
  18.7363211  71.7620297  57.8116563  19.1935825  72.4944271  57.9389355
  18.8119539  71.3386762  58.5703819  18.8154180  71.8077535  57.9417640
  23.2090536  64.9410172  51.6810406  23.3274105  65.3986635  50.9477709
  23.0352712  64.1355433  51.3946624  23.2009707  64.8903944  51.5311340
  20.7853372  73.6861039  57.6341725  20.9995341  73.0471953  57.0805079
  20.1687271  74.1306862  57.2049587  20.7258701  73.6571182  57.4892156
  22.9492460  75.2950104  58.5725032  22.1369141  74.9875994  58.6538205
  23.4082394  74.8149104  59.1367744  22.8972844  75.1786596  58.6679626
  20.1768100  66.7960974  52.6229068  19.3061658  66.7699695  52.5762377
  20.4308441  66.6238166  51.8054914  20.0861660  66.7671118  52.4949205
  17.2017241  68.8067203  54.0802538  16.6855729  68.1147394  54.2054117
  16.6411170  69.4737980  54.0265137  17.0423754  68.8030460  54.0908604
  19.2709474  69.3460163  55.9095391  18.8841227  69.3709194  56.6908921
  18.7842411  68.7801841  55.4569907  19.1421983  69.2655914  55.9583295
  18.9366616  66.2327148  58.2005651  19.5659734  66.7687448  57.9226721
  19.1052479  66.1404507  59.0519216  19.0544410  66.2988510  58.2854179
  18.7380531  71.0198343  60.4732062  19.5653960  70.7483492  60.5290677
  18.7588377  71.8159185  60.8295880  18.8633381  71.0978097  60.5347245
  22.4290534  68.7663037  51.1690953  22.6340128  68.6985345  52.0147950
  22.1016958  69.5721858  51.1012130  22.4105782  68.8748977  51.2850608
  25.6824222  69.3194801  50.6493718  25.0698536  69.8065203  51.0347450
  25.7788397  68.6438292  51.1931369  25.6062120  69.2913110  50.7872576
  19.6843303  71.0757642  45.7491217  20.1387050  71.2468202  46.4739062
  20.1583349  70.4625753  45.3488993  19.8211623  71.0108527  45.7964979
  18.9435899  69.5750435  51.8868086  18.0971944  69.7473243  51.7609436
  18.9407031  68.7699779  52.2233914  18.8183048  69.4811464  51.9179213
  20.0134199  73.3525650  52.7530144  19.5394153  72.8267412  53.2635455
  20.3852335  72.8055123  52.1845005  19.9984088  73.1941646  52.7445291
  21.9417699  74.2462204  45.8155898  21.4140717  74.3290948  45.1261607
  22.4013407  74.9880076  45.8120542  21.9319549  74.3682867  45.7130593
  28.2776117  75.1929483  52.1166184  28.0385887  75.1525317  51.2786968
  28.4410018  76.0400635  52.2431905  28.2666420  75.3121568  52.0119666
  20.9620063  67.9493989  57.5549766  20.4660625  68.1457663  56.8641333
  21.7189125  68.3486657  57.3838568  21.0006888  68.0371723  57.4269903
  18.2322943  71.6236335  54.1453076  18.2565430  71.0896447  53.4565856
  18.4834417  71.1153644  54.8078667  18.2732862  71.4697239  54.1417721
  14.5124265  70.3507153  53.5258821  14.5522637  70.8516360  54.2393528
  13.6873930  70.4417547  53.2564744  14.3963791  70.4388969  53.5909359
  13.7422412  70.3576556  61.4589130  14.3675115  69.8138689  61.7318563
  13.2872892  69.8771473  60.8896921  13.7670673  70.2066037  61.4150724
  15.9153878  71.9404341  43.6560856  16.2369719  71.4607423  43.0020119
  16.1780821  72.7503987  43.4651668  16.0019903  71.9894239  43.5316348
  21.3113033  71.3276535  56.0184335  21.7368104  70.8749061  55.4067862
  20.6970026  70.7736605  56.2949123  21.2841678  71.1790511  55.9689361
  19.7507256  67.7991635  49.4274912  19.1075573  67.6489281  49.9960051
  19.4106663  67.5533980  48.6624017  19.6052333  67.7403757  49.3977927
  24.5034729  72.2106945  51.7595294  24.8562340  71.7836668  52.4341093
  23.6449531  72.1257789  51.8896371  24.4284174  72.1351686  51.8790305
  25.9358790  67.3325357  52.6879607  25.4289654  66.6254496  52.6200784
  26.7326223  67.0018546  52.8180683  25.9786029  67.1798508  52.6978602
  21.8522805  73.8391969  48.5853270  21.6236498  73.8624671  47.7431629
  22.1120882  73.0149436  48.7048281  21.8568993  73.7208049  48.4778468
  24.5779512  72.8291906  48.8356429  24.5773738  72.6740563  49.6940705
  24.3735692  73.6754893  48.7797814  24.5479289  72.9312527  48.9544368
  17.8720277  68.7454831  58.4629017  18.0048183  67.9485824  58.7909992
  18.2565430  69.2721234  59.0427292  17.9476606  68.7054747  58.5972519
  20.9452632  65.6685157  55.0610110  20.1398596  65.5582886  55.3777948
  20.8159368  65.7697612  54.2039976  20.8072765  65.6668827  54.9818150
  24.4018593  71.8330649  55.6549807  23.8181581  72.3339855  55.2427374
  24.7222887  71.3260205  55.0214130  24.3631768  71.8322484  55.5008314
  16.9413392  70.7471243  45.9308482  17.7629086  70.9169556  45.6890176
  16.4783043  70.9018504  45.2074779  16.9944554  70.7952976  45.7880126
  15.5308724  68.7414006  56.7106910  16.0753137  68.4005132  57.3011252
  15.5845659  69.5999467  56.8528195  15.6197843  68.8169265  56.8188784
   4.4049778  22.8083426  34.6990879   4.3743783  23.6628063  34.8709148
   5.0031127  22.5078718  35.2577022   4.4886936  22.8899922  34.8065681
   0.9143180  28.1645603  49.0604265   1.6209947  27.6697633  49.1891200
   1.1031115  28.6054684  48.3306923   1.0471085  28.1563953  48.9713311
   2.2266353  25.3835728  32.9709189   2.1105879  26.1343414  33.4001327
   3.0222239  25.1259681  33.2205276   2.3270942  25.4570575  33.0713280
   1.5401658  12.7323665  36.6683803   1.2255099  13.4227144  37.1004225
   1.0228599  12.6768448  35.9669304   1.4166128  12.8258554  36.6280752
   6.3362144  28.3074471  38.1554258   5.5059847  28.5185114  38.3187675
   6.2871397  27.4811525  37.8796542   6.2068880  28.2164077  38.1391623
   5.8316103  20.9544871  41.9504679   4.9944524  21.0247059  42.1852274
   5.8004334  20.9569366  41.0778982   5.7034385  20.9655099  41.8564227
   0.5546288  25.1500548  37.5416571   1.3103803  25.5832062  37.5805480
   0.6608613  24.5005318  38.1151207   0.6816459  25.1178032  37.6314596
   3.5926460  28.9773825  38.2918974   3.1561691  28.9810568  39.0477945
   3.2589375  29.6579324  37.8598551   3.4789080  29.0786281  38.3399806
   3.5123942  16.0187653  40.5348402   4.1549851  16.0885758  41.1210317
   3.7646963  15.3516876  40.0327944   3.6446075  15.9314002  40.5475681
   6.7270806  25.6954745  37.1838611   7.3887240  25.1345414  37.0834520
   6.0862218  25.2006776  37.5091302   6.7299673  25.5391154  37.2170951
   3.0135636  26.7120128  36.9250600   3.2491226  26.8565326  36.0977451
   3.1625200  27.4762536  37.3182114   3.0701440  26.8459182  36.8614204
   4.8426093  25.5521793  34.7620204   5.1734310  26.0849434  34.1560299
   5.4159181  25.6060681  35.4182155   4.9759772  25.6391362  34.7697985
   5.9505445  20.7932290  36.2660365   5.6942010  19.9812232  36.0758248
   6.7934759  20.8009857  36.0390553   6.0371470  20.6744288  36.2045182
   3.6330604  27.9481886  46.1018918   3.3969241  27.1169951  45.9830979
   4.2773833  27.8967494  46.6873762   3.6925275  27.8179574  46.1704811
   4.6567025  27.7326335  42.1647212   4.3512842  28.4654392  42.5260528
   3.9373240  27.3264265  41.8839998   4.5054367  27.7808068  42.1760349
  10.3568817  24.3719336  41.4915557  10.2893317  24.3915295  40.6218143
  10.3424479  25.2149663  41.7171227  10.3447573  24.4993070  41.3968034
   8.1427434  23.1463722  39.7662151   8.6935356  22.5131791  40.0059243
   8.1271549  23.6779115  40.4577655   8.2212630  23.1312670  39.9041009
   1.8455840  21.3860056  38.8766747   1.5020606  20.6650391  39.2273997
   1.9448883  21.1773907  38.0345106   1.8097883  21.2484259  38.8038427
   2.3068869  27.8485760  34.4190735   2.8726902  28.5078970  34.3349278
   1.6596773  28.1935458  34.8907138   2.2947626  27.9967701  34.4763492
   4.2404330  24.5119627  38.0387532   4.1538304  24.6675053  38.8922311
   3.7854810  25.1557703  37.6646937   4.1607586  24.6295382  38.1094639
   2.0078194  28.5413734  40.4499873   1.8692554  29.2394779  40.9548615
   1.2278192  28.3862390  40.0936054   1.8721421  28.6213900  40.4726147
   3.5031567  27.8991987  31.2116372   3.1238376  27.1129125  31.2045661
   2.8397813  28.4478844  31.0688016   3.3490042  27.8636811  31.1897169
   1.7491666  30.1437478  31.5468058   1.8311504  30.9504465  31.2229509
   2.2341408  30.1633438  32.2708831   1.8328824  30.2658141  31.6054956
   1.2566866  28.9034897  51.6286384   2.0701732  28.6320046  51.7891516
   1.0961833  28.6042437  50.8246580   1.3536815  28.8189823  51.5331789
   1.2688110  29.9641187  46.9009224   1.9067831  29.4701383  46.5671680
   0.6262202  29.8918588  46.3161451   1.2682337  29.8800196  46.7651579
   2.9945110  21.8130333  41.4675140   2.5672719  21.7256682  40.7123239
   2.3571163  21.9208109  42.0529984   2.8374718  21.8162993  41.4420581
   1.3242367  30.6560995  43.5414581   2.1134745  30.3050060  43.6616663
   1.4985965  31.4697384  43.2791215   1.4662649  30.7246852  43.5202449
   3.4309879  15.2202316  37.5833765   2.8184192  15.7072718  37.9687497
   3.5274054  14.5445807  38.1271416   3.3547776  15.1920625  37.7212623
   7.0734907  26.2919253  43.0111281   7.1318031  26.7405902  43.7571257
   6.4401374  26.7018066  42.5741361   6.9886202  26.4192988  43.0563829
   4.0256586  24.3135541  41.0976971   3.7854809  23.4741956  41.1019398
   4.5048593  24.3935707  41.8217745   4.0608770  24.2016940  41.2051774
   6.0261773  21.0936998  39.0506230   5.7871543  21.0532832  38.2127015
   6.1895675  21.9408150  39.1771951   6.0152077  21.2129083  38.9459712
   2.6307803  25.4786947  44.9811275   3.3542002  25.0259474  44.8022295
   2.3657766  25.7591613  44.1983603   2.6989077  25.4537916  44.8389991
   5.0643117  24.4413358  43.4841825   5.6560958  25.0810609  43.5160023
   5.5002112  23.7436395  43.7733892   5.2161549  24.4331708  43.5322658
   2.0892259  21.6558577  35.7844968   1.4183449  22.1988279  35.6558033
   2.7832009  22.1253432  35.5426663   2.0921126  21.8056848  35.7300495
   2.2520386  18.1114460  38.6935341   2.6047996  17.6844183  39.3681140
   1.3935188  18.0265304  38.8236417   2.1769831  18.0359201  38.8130351
   3.6844446  13.2332872  39.6219653   3.1775311  12.5262012  39.5540831
   4.4811880  12.9026061  39.7520730   3.7271686  13.0806024  39.6318648
   5.8864586  27.7497799  32.6060518   6.2698192  28.4989155  32.8358615
   5.0908700  27.9963618  32.3472507   5.8258369  27.8967493  32.6018091
   2.3265168  18.7299422  35.7696476   2.3259395  18.5748078  36.6280752
   2.1221348  19.5762409  35.7137861   2.2964946  18.8320042  35.8884415
   2.1157839  26.1600611  42.1109811   2.5412911  25.6375033  41.5580236
   1.7514759  26.7581448  41.5898434   2.1244442  26.1710838  41.9518821
   0.7913423  31.4836189  50.6203041   0.9010389  30.6944749  50.9759788
   1.1204320  31.3942125  49.8177379   0.8565829  31.3542042  50.5545431
   2.1504249  17.7338164  42.5889854   1.5667238  18.2347370  42.1767421
   2.4708543  17.2267720  41.9554177   2.1117425  17.7329999  42.4348361
  15.3782362  38.3268734  34.6990879  15.3476366  39.1813371  34.8709148
  15.9763710  38.0264026  35.2577022  15.4619520  38.4085230  34.8065681
   2.9623186  46.9507103  35.2181041   2.2106086  46.5722641  34.9897086
   3.4109198  46.9825536  34.4699851   2.9172853  46.8992710  35.0738543
  11.8875763  43.6830910  49.0604265  12.5942530  43.1882941  49.1891200
  12.0763699  44.1239992  48.3306923  12.0203669  43.6749261  48.9713311
   8.4148146  47.3732472  30.6466588   8.0799515  48.0509394  30.2110810
   8.9275017  46.9837783  30.0583460   8.4413727  47.4157050  30.4953379
   7.9552437  49.3246741  36.5877699   8.3391817  49.8933640  36.0482475
   7.8911579  48.5996251  36.1083516   8.0025865  49.3022204  36.4371562
  11.4233868  39.4736429  42.0975461  11.9689828  40.1521515  42.1569431
  11.3650744  39.3323890  41.2377042  11.4949782  39.5528430  41.9787521
   4.5407942  46.9625495  37.4843813   4.6418305  46.1525849  37.7940941
   3.9449688  46.8682441  36.8543492   4.4680481  46.8290523  37.4370052
  13.1998936  40.9021036  32.9709189  13.0838462  41.6528722  33.4001327
  13.9954823  40.6444989  33.2205276  13.3003526  40.9755883  33.0713280
   4.3808682  51.8803084  38.8858669   5.0246138  52.3216248  39.2754828
   4.7064938  51.0756510  38.7988928   4.5240511  51.8268279  38.9304147
   5.0829262  44.8915059  34.2578531   5.4045103  45.4320266  33.6539839
   5.7301358  44.3211830  34.3900821   5.2255317  44.8874234  34.1885566
   7.1330970  36.8931054  34.3412918   7.8311135  37.0719181  34.8334381
   7.4483302  36.3701393  33.7183307   7.2826307  36.8424826  34.3214928
   7.3218905  43.2801499  34.3292709   7.7612541  42.6718599  34.7747482
   7.1723568  42.9008872  33.5578174   7.3640371  43.1339970  34.2811877
   4.7890548  41.8745511  41.5311535   5.4339551  41.3817954  41.2122483
   5.0292325  42.0170297  42.3577613   4.9201133  41.8222953  41.6061068
   7.3276640  44.7200417  41.1818427   7.6099882  43.9251822  40.9605183
   8.0562800  45.1981004  41.2023488   7.4766203  44.6735013  41.1521442
   5.3057833  32.2623450  38.4234192   4.9761163  32.7134594  37.7537891
   4.6302835  32.1839614  38.9707199   5.1568270  32.3174586  38.4057416
  10.9228242  41.6328680  31.2823478  10.8379537  42.4889647  31.4273047
  11.4112625  41.3573004  31.9505638  10.9817139  41.7186002  31.4025560
  12.5134241  28.2508973  36.6683803  12.1987682  28.9412452  37.1004225
  11.9961183  28.1953756  35.9669304  12.3898712  28.3443862  36.6280752
  11.8546675  38.2513474  32.7821214  11.3258146  38.4673108  33.4418520
  12.3771695  38.9449613  32.7022183  11.8535128  38.3856611  32.8676813
  17.3094728  43.8259779  38.1554258  16.4792431  44.0370422  38.3187675
  17.2603980  42.9996833  37.8796542  17.1801463  43.7349385  38.1391623
   3.7446283  42.1476691  31.5828682   3.1603498  42.6526722  31.9894545
   3.3416378  41.9219078  30.8425274   3.5985587  42.1884939  31.5333707
   5.3704465  46.6563633  40.9902168   4.8531407  46.2971048  40.3863476
   6.0678857  46.1325807  41.0008234   5.3970047  46.5261321  40.9032426
   9.0268057  47.1058447  46.9518341   9.1151403  46.9184587  47.7996551
   9.4557770  46.4595877  46.5523187   9.1030160  46.9821455  47.0190092
   6.5938517  46.3889607  45.9336003   6.0309352  45.9762217  46.4575664
   7.3559541  46.3142513  46.3529146   6.6232966  46.3167007  46.0729003
   8.2023497  38.3942343  30.0597602   8.4419501  38.6020327  29.2472945
   8.5239338  37.5899852  30.1686547   8.2860655  38.3056444  29.9558155
   3.5113788  30.3235739  33.9057140   4.2659756  30.6914056  33.6674190
   3.3341322  30.6975293  34.6736320   3.5968266  30.4333927  33.9842029
   2.1534509  48.3787628  38.5372633   2.8555088  47.8639617  38.5945390
   2.0731992  48.7061779  39.3419508   2.2458269  48.3501854  38.6645425
  16.8048686  36.4730179  41.9504679  15.9677107  36.5432366  42.1852274
  16.7736917  36.4754674  41.0778982  16.6766969  36.4840406  41.8564227
   3.2013415  38.6163215  47.6653048   3.3733919  38.5069110  48.5138329
   3.7382773  39.2617620  47.4284240   3.3058419  38.6955217  47.7558145
   1.8670852  32.7306058  30.6035253   1.6846425  32.9477939  29.7776246
   2.7296465  32.8445071  30.6593868   1.9675442  32.7795956  30.4889740
   1.4785284  44.5693980  38.0458241   2.3174184  44.8016913  38.0932003
   1.5097053  43.6998292  37.9765276   1.6067002  44.4750927  38.0422886
   2.1037987  44.9894855  42.3471547   2.6436212  44.8465986  43.0174919
   1.4207933  45.3891606  42.7155573   2.0830141  45.0274526  42.5005968
   7.5470571  29.7332469  33.6384277   8.2756732  29.5548424  33.1922433
   7.6365464  30.5750548  33.8491455   7.6677233  29.8316347  33.6037795
  11.5278872  40.6685856  37.5416571  12.2836387  41.1017370  37.5805480
  11.6341196  40.0190626  38.1151207  11.6549043  40.6363340  37.6314596
  14.5659043  44.4959133  38.2918974  14.1294275  44.4995876  39.0477945
  14.2321959  45.1764632  37.8598551  14.4521663  44.5971589  38.3399806
   9.1388117  46.5367466  49.6162124   9.9228533  46.6498314  49.9817866
   8.9384711  45.7108603  49.8120810   9.2254142  46.4314185  49.6996510
  14.4856526  31.5372961  40.5348402  15.1282434  31.6071066  41.1210317
  14.7379547  30.8702184  40.0327944  14.6178658  31.4499310  40.5475681
   1.4132879  36.0080231  29.1157726   0.6991056  35.7218410  29.5280159
   1.8976848  36.3476856  29.7564114   1.3792243  36.0161880  29.2713361
   2.2573739  34.7473524  45.1472976   1.5645535  34.2770504  45.3933707
   2.8734066  34.5211829  45.7214683   2.2458269  34.6440656  45.2682128
   9.2958510  48.4477568  43.2628580   8.4973756  48.2077068  43.5202448
   9.7444522  48.4991961  44.0095627   9.2433121  48.4199959  43.4113504
   8.5880197  44.5110184  29.4919534   9.0031346  44.1795208  28.8004030
   7.7572127  44.2779087  29.3639671   8.5268206  44.4281440  29.3710382
  13.9868220  42.2305435  36.9250600  14.2223809  42.3750634  36.0977451
  14.1357784  42.9947843  37.3182114  14.0434023  42.3644490  36.8614204
   0.9814298  38.7138928  46.2899821   1.7054270  38.6991959  46.7764716
   1.0830434  39.4234284  45.7921789   1.1032507  38.8163632  46.2878608
  15.8158677  41.0707101  34.7620204  16.1466894  41.6034742  34.1560299
  16.3891765  41.1245989  35.4182155  15.9492356  41.1576670  34.7697985
   8.3559247  42.1938013  51.1548768   7.5632228  42.5081525  51.3401388
   8.4708174  42.4089481  50.3169553   8.2554657  42.2721850  51.0587103
  11.0290566  38.9172004  35.4443784  11.1237420  39.6561298  35.8983409
  10.4049409  38.4889480  35.8778348  10.9499596  38.9633325  35.5751931
   9.2843040  42.0958217  46.0934065   9.8581901  41.4585461  46.2482629
   9.2057843  42.0962299  45.2243722   9.3576275  42.0023328  45.9880476
  11.2813587  40.7620744  28.6780736  11.1993750  40.8322931  29.5435723
  11.9193308  41.3250488  28.4864476  11.3633425  40.8559715  28.7770685
   4.6406758  40.5281482  38.1455262   4.3826003  39.6953217  38.1186562
   4.6955241  40.7539095  37.3047762   4.6106536  40.4379253  38.0175399
   9.7207809  32.6309933  38.2459355   9.0164135  32.1419118  38.4043274
   9.7692783  32.6432407  37.3747799   9.6237860  32.5599580  38.1398695
   3.6141471  38.0819244  38.6320157   3.0391062  38.2411413  39.2684118
   3.2377147  37.4454653  38.1688607   3.4744283  38.0117057  38.6574715
   7.2814759  36.5542594  43.4912535   6.8929192  36.1296811  42.8364726
   6.6169458  36.8024743  43.9989562   7.1261687  36.5281315  43.4700403
  16.9238028  36.3117598  36.2660365  16.6674593  35.4997540  36.0758248
  17.7667342  36.3195165  36.0390553  17.0104054  36.1929596  36.2045182
  11.1041121  30.2517222  41.0036520  11.4851632  29.5695393  41.3904394
  10.3004405  29.9626824  40.8212184  11.0417582  30.1084271  41.0340575
   8.3853697  40.7841198  31.6889342   9.1994336  41.0756091  31.5772114
   8.3212839  40.1301061  31.1147635   8.4956436  40.7306393  31.5878180
  14.6063188  43.4667194  46.1018918  14.3701825  42.6355259  45.9830979
  15.2506417  43.4152802  46.6873762  14.6657858  43.3364882  46.1704811
   4.2561606  44.2562716  36.8161654   4.8935553  44.0174463  37.3613448
   4.6816677  44.4599875  36.0814815   4.4137772  44.2513726  36.7878812
   4.8964421  39.4765005  31.1536544   5.2809573  39.2572712  31.9053089
   4.6476041  40.3027951  31.2837620   4.9166493  39.5663152  31.2837620
   5.0632961  32.7571421  50.8699128   4.7486402  33.5270983  50.6068691
   4.7422894  32.1941677  50.2851355   4.9691880  32.7881689  50.7440478
  15.6299608  43.2511643  42.1647212  15.3245425  43.9839700  42.5260528
  14.9105824  42.8449573  41.8839998  15.4786951  43.2993376  42.1760349
   6.6383078  44.7335138  38.4955441   6.7122086  44.5710310  39.3497291
   7.4552584  44.9225328  38.2515922   6.7699436  44.7371881  38.5853466
   2.6164858  31.1461942  36.4845324   1.7487284  31.2184542  36.5502933
   2.9040062  31.9484021  36.6733299   2.5304606  31.2756089  36.5220091
  11.7397747  31.2939801  44.8156646  12.4851339  31.1049612  44.4020072
  11.3235051  31.8198039  44.2570502  11.7882721  31.3441947  44.6721219
   5.1787663  47.6969881  33.2268914   5.4685962  47.3058863  32.5028141
   5.9091144  47.8786586  33.6674189   5.3294548  47.6663695  33.1851721
   5.7682409  42.4987627  44.3122044   5.2694102  43.2103395  44.3906933
   6.5782633  42.8188294  44.2740207   5.8138515  42.6514476  44.3178613
   3.1193579  49.6737264  36.2929064   2.8993874  49.3834618  37.0855731
   2.8988101  49.0152219  35.7646976   3.0541173  49.5336972  36.3317972
   2.0310526  41.7610580  38.5584765   1.7423775  41.1348051  39.0930493
   2.8993874  41.7030868  38.6249446   2.1170778  41.6598124  38.6475720
  12.8188424  36.9045364  38.8766747  12.4753190  36.1835699  39.2273997
  12.9181466  36.6959215  38.0345106  12.7830467  36.7669567  38.8038427
   5.2861535  51.0466654  35.0759756   5.9385593  50.5143096  35.3050782
   4.5887143  50.6935306  35.4627630   5.2792253  50.9156177  35.1671924
   2.2342799  43.4005831  34.4827130   2.9888767  43.7818870  34.6962593
   1.6413412  43.8516975  34.9373827   2.2579513  43.5234659  34.5810009
  13.2801453  43.3671068  34.4190735  13.8459486  44.0264278  34.3349278
  12.6329356  43.7120766  34.8907138  13.2680209  43.5153009  34.4763492
   4.6949467  35.3568672  49.6084343   3.8849242  35.6626451  49.4974185
   5.1724153  36.0774254  49.7236927   4.6452945  35.5083273  49.6091414
   3.5541026  44.5714393  39.8567246   3.0321780  44.7114684  40.5419111
   3.9415046  43.8125057  40.0469363   3.5344727  44.4799916  39.9868322
   9.7508031  46.3109852  33.8427815   9.5094707  45.5777713  33.4354880
   9.9309364  46.8596709  33.1894148   9.7415655  46.2832243  33.6858038
   4.9807352  41.6018412  35.2548737   4.7850134  42.2093146  34.6609040
   5.2041697  40.9086356  34.7740411   4.9841993  41.5895937  35.0964818
  11.3379389  34.8236948  40.7526290  10.4990490  34.8498227  40.5164553
  11.4083757  35.4707684  41.3331637  11.2247783  34.9233074  40.8035407
   1.0293498  40.8931222  44.4783745   1.5414595  41.1715475  43.8292505
   0.7429841  41.6320516  44.8446558   1.0628362  41.0433576  44.4373623
   9.7848668  31.7222325  35.4853906  10.4875020  31.5230074  35.0073864
   9.5192856  30.9498268  35.7922750   9.8495300  31.5785291  35.4599348
  15.2136913  40.0304935  38.0387532  15.1270888  40.1860361  38.8922311
  14.7587393  40.6743011  37.6646937  15.1340170  40.1480690  38.1094639
   4.5477224  32.9857611  44.5384787   4.3560421  33.0012745  45.3884210
   5.3975820  33.1821285  44.5151442   4.6452946  33.0171962  44.6608081
   9.0862729  37.3515682  36.6613091   8.8397444  37.2711433  37.4949880
   9.4147852  36.5669150  36.4675619   9.0983973  37.2241948  36.7560615
  12.9810778  44.0599042  40.4499873  12.8425137  44.7580087  40.9548615
  12.2010776  43.9047698  40.0936054  12.8454005  44.1399208  40.4726147
  11.3188863  40.3595417  46.7022254  11.3136902  39.4875233  46.7064681
  12.0249857  40.5583586  46.2291710  11.4233867  40.2599291  46.6329290
   5.0459757  40.0872401  46.0736075   5.1903132  40.6673609  45.4379185
   5.3935405  40.4648698  46.7785929   5.1187218  40.2293105  46.0835069
   7.2179674  39.2862569  43.8561206   6.4702988  39.4793584  43.4509484
   7.3721199  38.4607789  43.6185327   7.1302101  39.1927681  43.7606612
   4.1187511  48.2775173  42.9397101   4.2677075  47.7178089  42.2870506
   4.8987514  48.3567174  43.3229620   4.2561605  48.2060738  42.8994050
  14.4764151  43.4177295  31.2116372  14.0970960  42.6314433  31.2045661
  13.8130396  43.9664152  31.0688016  14.3222626  43.3822119  31.1897169
   6.6440812  48.4489816  44.2181592   6.5684483  47.7798626  44.7732380
   6.5730671  49.1507604  44.7322258   6.6221419  48.4534723  44.3758440
   7.4581451  33.1813120  44.7456610   7.9154065  33.9137094  44.8729402
   7.5337780  32.7579585  45.5043866   7.5372421  33.2270358  44.8757686
  11.9308777  26.3602995  38.6150453  12.0492345  26.8179458  37.8817755
  11.7570953  25.5548256  38.3286670  11.9227948  26.3096767  38.4651386
   7.3011059  46.9690814  35.0505198   8.0660950  46.7000458  34.7287862
   7.1989149  46.4840825  35.7675261   7.3992555  46.8580379  35.1085026
   5.3363829  35.1715224  41.5898434   4.5459904  34.9906684  41.9115770
   5.7324452  34.3942176  41.5728728   5.2780705  35.0302685  41.6350982
   9.8229720  44.0002998  27.0305147  10.5902705  44.0603123  26.6210999
   9.3761029  43.4283440  26.5461466   9.8703147  43.9239574  26.8982858
  10.7207515  42.8057654  39.3157880  10.0452517  42.5742886  39.8171267
  10.7299891  42.1978837  38.6899985  10.6226020  42.6816579  39.2974032
   7.8501659  37.6475483  46.0721933   7.7860800  38.5085439  45.9442069
   7.9898847  37.3307476  45.2717484   7.8617129  37.7275650  45.9350146
  12.7224250  45.6622786  31.5468058  12.8044087  46.4689773  31.2229509
  13.2073992  45.6818746  32.2708831  12.8061408  45.7843449  31.6054956
   6.5320753  40.3407622  40.2138136   6.1083002  40.5412121  39.4777154
   6.3565608  39.4936470  40.3262435   6.4431634  40.2456404  40.1211826
   6.0332446  51.8558135  42.6759593   6.5228377  51.1568925  42.4935258
   5.4616679  51.5582005  43.2635650   6.0216976  51.7084359  42.7360634
   1.8203198  40.8359674  35.6466108   1.9767817  40.7706477  36.5022100
   2.1603791  41.6108226  35.4344788   1.8936433  40.9408872  35.7420702
   8.3582343  40.2117557  34.5159471   8.8997888  39.7087938  34.9798092
   8.6728902  40.1582752  33.7048957   8.4846740  40.1296978  34.4643283
  12.2299450  44.4220205  51.6286384  13.0434315  44.1505354  51.7891516
  12.0694416  44.1227745  50.8246580  12.3269398  44.3375131  51.5331789
   6.5268792  45.6034909  31.7999499   6.5961613  44.7449447  31.9392500
   7.3057247  45.8206790  31.4718524   6.6521642  45.5087773  31.7716657
   9.5071612  35.1053862  44.5681772   9.7213581  34.4664776  44.0145126
   8.8905511  35.5499686  44.1389634   9.4476941  35.0764006  44.4232203
  10.9176280  48.0272610  36.0135993  10.5256072  47.7239325  35.2958859
  11.0729352  48.8641700  35.8240947  10.8829870  48.1056447  35.8792490
  11.6710700  36.7142927  45.5065079  10.8587382  36.4068817  45.5878252
  12.1300635  36.2341927  46.0707791  11.6191085  36.5979419  45.6019673
  11.0815955  44.5922599  35.9542023  10.7230609  44.7637242  36.7306056
  10.5954665  45.0535805  35.3970022  10.9574652  44.6861570  35.9867292
   8.8986341  28.2153798  39.5569115   8.0279899  28.1892519  39.5102424
   9.1526682  28.0430990  38.7394960   8.8079901  28.1863941  39.4289251
   5.8704320  40.2721764  28.4942258   6.1596845  41.0486647  28.7685832
   5.9576119  39.7610496  29.1956757   5.9258576  40.3113683  28.6384756
   8.7664207  38.1202998  50.2893781   9.2363839  38.7445115  50.6761655
   8.8126088  37.4519974  50.8486996   8.8432083  38.1137679  50.4293853
   5.9235481  30.2260026  41.0142585   5.4073970  29.5340217  41.1394164
   5.3629410  30.8930803  40.9605184   5.7641994  30.2223284  41.0248651
   7.9927715  30.7652986  42.8435438   7.6059468  30.7902017  43.6248968
   7.5060652  30.1994665  42.3909954   7.8640223  30.6848737  42.8923341
  12.2420694  45.4826495  46.9009224  12.8800414  44.9886691  46.5671680
  11.5994786  45.4103895  46.3161451  12.2414920  45.3985503  46.7651579
  13.9677694  37.3315641  41.4675140  13.5405302  37.2441990  40.7123239
  13.3303747  37.4393416  42.0529984  13.8107301  37.3348301  41.4420581
   7.6584856  27.6519971  45.1345698   8.2877974  28.1880272  44.8566768
   7.8270719  27.5597330  45.9859263   7.7762651  27.7181334  45.2194226
   7.4598771  32.4391166  47.4072109   8.2872200  32.1676315  47.4630724
   7.4806617  33.2352008  47.7635927   7.5851621  32.5170920  47.4687292
  12.2974951  46.1746303  43.5414581  13.0867329  45.8235368  43.6616663
  12.4718548  46.9882692  43.2791215  12.4395232  46.2432160  43.5202449
   2.0368261  39.5855029  40.5942370   1.1956268  39.4858903  40.8021264
   2.2458269  40.3550509  40.9456690   1.9432954  39.6847072  40.6769685
  11.1508775  30.1855860  38.1030999  11.3558368  30.1178168  38.9487996
  10.8235199  30.9914681  38.0352177  11.1324023  30.2941800  38.2190654
   5.8484926  37.5136428  39.8439967   5.5448063  36.9592416  40.4450375
   5.1464347  37.6928638  39.3568002   5.7001136  37.4581211  39.8609673
   4.9051023  34.8236948  34.4084669   5.1810757  34.1055860  33.9962237
   5.5049692  35.4221868  34.2005775   5.0344288  34.8057319  34.3165430
   3.9103277  44.7286149  44.5512065   3.8023632  44.7388211  45.4174123
   4.1199058  45.5540929  44.3617019   3.9253388  44.8527224  44.6516157
  14.4042462  30.7387624  37.5833765  13.7916776  31.2258026  37.9687497
  14.5006637  30.0631115  38.1271416  14.3280360  30.7105933  37.7212623
   8.4061543  32.4950465  32.6831264   8.8605290  32.6661026  33.4079109
   8.8801589  31.8818576  32.2829040   8.5429864  32.4301351  32.7305026
   1.9277069  41.9798791  42.0134003   1.3365002  42.6208289  41.9837018
   2.6898092  42.4036409  41.9865302   1.9525329  42.1374630  42.0049150
   2.3237692  33.1400789  42.6802020   2.7839173  33.2139718  43.4177144
   2.3693798  33.9382043  42.3301842   2.3988247  33.2694936  42.7374777
   3.9721041  33.8067484  47.2474047   3.5806607  33.1600831  47.6829825
   4.1406904  34.3978919  47.8668303   3.9391952  33.7981752  47.4036753
  18.0467490  41.8104561  43.0111281  18.1050614  42.2591210  43.7571257
  17.4133958  42.2203374  42.5741361  17.9618786  41.9378296  43.0563829
  11.6866585  47.4308103  39.4466027  11.4886274  47.9198917  38.7522238
  11.0654296  47.6349344  40.0250161  11.5654150  47.5324641  39.4289250
   5.7474563  39.1993000  33.7876271   6.4916608  39.5867276  34.0259221
   5.8935260  38.3550425  33.9516759   5.8785149  39.1323472  33.8470241
   7.6654139  30.9943259  38.8208133   6.8190184  31.1666066  38.6949483
   7.6625271  30.1892602  39.1573961   7.5401289  30.9004288  38.8519260
   8.7352439  34.7718473  39.6870191   8.2612394  34.2460235  40.1975502
   9.1070575  34.2247946  39.1185052   8.7202328  34.6134470  39.6785338
  14.9989170  39.8320849  41.0976971  14.7587393  38.9927264  41.1019398
  15.4781177  39.9121015  41.8217745  15.0341354  39.7202248  41.2051774
  10.6635939  35.6655028  32.7495945  10.1358958  35.7483772  32.0601653
  11.1231647  36.4072899  32.7460589  10.6537789  35.7875690  32.6470640
  16.9994357  36.6122306  39.0506230  16.7604127  36.5718140  38.2127015
  17.1628258  37.4593458  39.1771951  16.9884660  36.7314391  38.9459712
  13.6040387  40.9972255  44.9811275  14.3274586  40.5444782  44.8022295
  13.3390349  41.2776921  44.1983603  13.6721660  40.9723224  44.8389991
   2.4727255  35.5932429  41.7164155   1.8480326  35.6050821  41.1090107
   2.1372850  36.0692604  42.3655395   2.3312747  35.6650946  41.7220723
   2.6569004  33.9357547  27.7736840   2.3081808  34.5877272  28.2368389
   2.1765450  33.9214660  27.0460711   2.5339248  34.0300601  27.7347931
  10.2173021  44.2358591  31.8805602  10.9407220  44.7016704  31.7370175
   9.7773612  44.3032201  31.1303199  10.2588714  44.3142428  31.7490383
   9.3859177  41.0956133  43.1306291   8.7716170  40.5514184  43.4254926
   9.9026461  40.5820370  42.6512107   9.3714839  40.9392542  43.1030519
   8.6255474  42.1660403  40.8650589   8.1983082  41.5410122  40.4316025
   8.6180418  41.8835325  41.6909596   8.5614615  42.0313184  40.9230417
   1.7418001  37.2025576  43.9339023   1.9011488  36.4468901  44.3390745
   1.5610894  37.7516516  44.5879761   1.7383360  37.1719390  44.0901729
   9.6838304  29.3686812  44.4889813   9.1878865  29.5650486  43.7981379
  10.4407366  29.7679480  44.3178614   9.7225128  29.4564546  44.3609949
   6.9541183  33.0429158  41.0793123   6.9783671  32.5089270  40.3905903
   7.2052657  32.5346467  41.7418714   6.9951102  32.8890062  41.0757768
   3.2342506  31.7699976  40.4598868   3.2740877  32.2709183  41.1733575
   2.4092170  31.8610370  40.1904791   3.1182032  31.8581793  40.5249406
   5.4172118  41.3360716  48.5619162   4.5667749  41.4732430  48.6976807
   5.5800246  40.6024494  49.0066864   5.3155982  41.2474817  48.6474761
   4.6556869  38.2860486  42.7572767   3.8248799  38.4534304  42.5508015
   4.6008386  37.9096437  43.5421652   4.5246284  38.2550217  42.8421295
   2.4640652  31.7769379  48.3929177   3.0893356  31.2331512  48.6658610
   2.0091132  31.2964297  47.8236968   2.4888913  31.6258860  48.3490771
   3.0292913  36.5616078  33.2862884   3.1695874  37.0588542  33.9891526
   3.5275446  35.8602372  33.4277098   3.1233994  36.5318056  33.4114463
   3.0593135  37.4283189  30.6155461   3.6938215  38.0243614  30.5504923
   3.1418746  37.1286646  31.4301331   3.1649686  37.4724097  30.7258548
  16.0375701  39.9598666  43.4841825  16.6293541  40.5995917  43.5160023
  16.4734696  39.2621703  43.7733892  16.1894132  39.9517016  43.5322658
   4.6372118  33.3597164  30.5900903   4.9587959  32.8800247  29.9360165
   4.8999062  34.1696810  30.3991715   4.7238143  33.4087062  30.4656395
   7.8669091  44.3816038  44.1099719   7.3594182  44.9351885  44.5540350
   7.5695737  44.4424328  43.2918494   7.7473976  44.4722350  44.0548176
  10.0331273  32.7469358  42.9524382  10.4586345  32.2941884  42.3407909
   9.4188266  32.1929429  43.2289170  10.0059918  32.5983334  42.9029407
  10.4776871  48.2979296  32.0403663   9.7606181  48.1240158  31.5750900
  11.1283609  48.0631868  31.5079149  10.4678722  48.2375089  31.8932881
   8.4725496  29.2184458  36.3614959   7.8293814  29.0682104  36.9300098
   8.1324903  28.9726803  35.5964064   8.3270573  29.1596580  36.3317974
  13.0624842  37.1743885  35.7844968  12.3916032  37.7173587  35.6558033
  13.7564593  37.6438740  35.5426663  13.0653710  37.3242156  35.7300495
   7.1111576  49.3140597  41.0156726   6.8877231  48.5559426  41.3840752
   6.6221419  49.3438618  40.2937166   7.0055025  49.2062821  40.9633467
  13.2252970  33.6299768  38.6935341  13.5780580  33.2029491  39.3681140
  12.3667771  33.5450612  38.8236417  13.1502414  33.5544509  38.8130351
   1.9236655  36.2607288  36.7518187   1.2048644  36.6771421  37.0191051
   2.2949017  36.8261527  36.2009826   1.8728587  36.4056569  36.7100994
  11.2236236  36.8935137  42.6420183  11.2034163  36.7118432  43.4954962
  11.2715436  37.7647155  42.6179767  11.2270877  36.9951675  42.7643478
   9.1682565  43.4822329  48.5668660   9.1278420  42.8372006  47.9813816
   9.9805884  43.4258946  48.8794072   9.2825719  43.3781296  48.5265609
   5.7590033  49.5341055  38.4693811   5.3450432  48.8715185  38.0797652
   6.4437407  49.6818914  37.9489505   5.7988405  49.4581713  38.3350308
   9.1255327  48.6931140  39.2217427   8.7271610  48.8033410  38.4538248
   8.5106547  48.9013206  39.8043987   8.9754216  48.7404708  39.1948727
   7.6983229  35.3005288  32.0891567   7.1048068  35.6222284  31.5376134
   7.7358507  34.4546383  31.8812673   7.6157618  35.2229616  31.9774338
  14.6577030  28.7518180  39.6219653  14.1507895  28.0447320  39.5540831
  15.4544464  28.4211369  39.7520730  14.7004269  28.5991331  39.6318648
  10.5741046  35.2584792  35.5193317  10.3454739  35.2817494  34.6771675
  10.8339122  34.4342259  35.6388328  10.5787234  35.1400872  35.4118515
   4.8560274  37.1119265  45.1218417   4.3439177  36.5040448  45.4803449
   4.6839770  37.8275858  45.5892393   4.7549911  37.1282565  45.2434641
   3.6285808  33.7961339  36.8147513   4.1043175  34.1578418  36.1797694
   3.1274408  34.4517806  37.0947656   3.6251167  33.9455527  36.7624254
  16.8597170  43.2683107  32.6060518  17.2430776  44.0174463  32.8358615
  16.0641283  43.5148926  32.3472507  16.7990952  43.4152801  32.6018091
   8.7329345  35.0343510  47.5620673   9.2900775  34.8057320  46.9299138
   8.4090410  35.7949176  47.2855885   8.7675755  35.1127347  47.4277170
   6.4512462  38.1211163  48.5272680   7.2023789  38.4362840  48.8412234
   6.6435038  37.9190334  47.7006602   6.5903876  38.1378545  48.4516076
   5.6712461  35.9402538  30.1820897   6.0511426  35.9582168  29.3972012
   4.9305057  36.3856527  30.0611744   5.6181299  36.0084313  30.0484465
  13.2997752  34.2484730  35.7696476  13.2991978  34.0933386  36.6280752
  13.0953932  35.0947717  35.7137861  13.2697530  34.3505350  35.8884415
  11.0238604  38.9282231  39.4232682  11.5192269  38.2105226  39.3836703
  10.2138380  38.6253029  39.3087169  10.9782497  38.7779878  39.4006408
   6.4697216  42.7780045  31.5729687   5.6608538  42.4546718  31.5262996
   6.9772124  42.0713267  31.5057935   6.4246882  42.6261361  31.5559981
  13.0890423  41.6785919  42.1109811  13.5145494  41.1560341  41.5580236
  12.7247343  42.2766756  41.5898434  13.0977025  41.6896146  41.9518821
   2.7244503  49.9750136  40.8707157   3.0391062  50.7886525  40.8784938
   3.1337916  49.5900355  41.5389316   2.8312601  50.0378839  40.9711248
   9.6769022  45.3920183  38.4410969  10.1480201  46.1060446  38.6100954
  10.0129201  44.7918933  38.9770838   9.7964137  45.4091647  38.5443345
  11.7646007  47.0021497  50.6203041  11.8742972  46.2130057  50.9759788
  12.0936904  46.9127433  49.8177379  11.8298413  46.8727349  50.5545431
   6.5938517  30.1647654  45.3969063   6.7266423  29.3678647  45.7250039
   6.9783670  30.6914057  45.9767339   6.6694846  30.1247570  45.5312566
  10.3142969  45.1838117  45.2038661   9.7663915  44.5596001  44.9358727
  10.7755997  45.3732389  44.4882741  10.3010178  45.1197168  45.0589092
   9.6670872  27.0877980  41.9950157   8.8616836  26.9775710  42.3117995
   9.5377608  27.1890436  41.1380022   9.5291005  27.0861650  41.9158197
  13.1236833  33.2523472  42.5889854  12.5399822  33.7532678  42.1767421
  13.4441127  32.7453028  41.9554177  13.0850008  33.2515307  42.4348361
   5.6631632  32.1664067  32.8648528   6.4847326  32.3362379  32.6230223
   5.2001283  32.3211328  32.1414826   5.7162794  32.2145800  32.7220173
   4.2526964  30.1606829  43.6446957   4.7971377  29.8197956  44.2351299
   4.3063900  31.0192290  43.7868242   4.3416083  30.2362088  43.7528831
   9.8801295  46.1889190  41.7348002  10.6999669  46.0452156  41.9964298
   9.5995373  46.8135389  42.2764440   9.9598038  46.2599542  41.8535942
  19.5514630  52.9329693  39.4543809  18.6952526  53.0938191  39.5052926
  19.5982284  52.0621757  39.4748870  19.4313742  52.8280495  39.4649875
  13.9355770  62.4692411  35.2181041  13.1838669  62.0907949  34.9897086
  14.3841782  62.5010844  34.4699851  13.8905437  62.4178018  35.0738543
  22.8608347  59.2016218  49.0604265  23.5675114  58.7068249  49.1891200
  23.0496282  59.6425300  48.3306923  22.9936252  59.1934569  48.9713311
  19.3880730  62.8917780  30.6466588  19.0532098  63.5694702  30.2110810
  19.9007600  62.5023091  30.0583460  19.4146311  62.9342358  30.4953379
  18.9285021  64.8432049  36.5877699  19.3124400  65.4118947  36.0482475
  18.8644162  64.1181559  36.1083516  18.9758448  64.8207512  36.4371562
  22.3966451  54.9921737  42.0975461  22.9422411  55.6706823  42.1569431
  22.3383328  54.8509198  41.2377042  22.4682366  55.0713738  41.9787521
  15.5140526  62.4810803  37.4843813  15.6150889  61.6711157  37.7940941
  14.9182271  62.3867749  36.8543492  15.4413065  62.3475831  37.4370052
  24.1731520  56.4206344  32.9709189  24.0571046  57.1714030  33.4001327
  24.9687407  56.1630297  33.2205276  24.2736109  56.4941191  33.0713280
  15.3541266  67.3988392  38.8858669  15.9978721  67.8401556  39.2754828
  15.6797521  66.5941818  38.7988928  15.4973094  67.3453587  38.9304147
   8.7105570  58.5031089  37.1096147   8.4755755  57.6698742  37.0028416
   8.8491211  58.7835755  36.2957348   8.6961233  58.4214593  36.9738502
  11.0095658  50.6716820  40.0080455  10.3900689  50.0809467  39.8390469
  10.9079521  51.2628255  39.3744778  10.9033333  50.6720902  39.8885444
  16.0561845  60.4100367  34.2578531  16.3777686  60.9505574  33.6539839
  16.7033942  59.8397138  34.3900821  16.1987901  60.4059542  34.1885566
  18.1063553  52.4116362  34.3412918  18.8043718  52.5904489  34.8334381
  18.4215886  51.8886701  33.7183307  18.2558891  52.3610134  34.3214928
  10.7364791  54.2169102  42.2524024  10.6123488  54.8031547  42.8873842
  11.3883075  53.7229297  42.5536299  10.8138440  54.2307906  42.3909953
  18.2951489  58.7986807  34.3292709  18.7345124  58.1903907  34.7747482
  18.1456152  58.4194180  33.5578174  18.3372955  58.6525278  34.2811877
  15.7623132  57.3930819  41.5311535  16.4072134  56.9003262  41.2122483
  16.0024909  57.5355605  42.3577613  15.8933717  57.3408261  41.6061068
  18.3009223  60.2385724  41.1818427  18.5832466  59.4437130  40.9605183
  19.0295384  60.7166312  41.2023488  18.4498787  60.1920321  41.1521442
  16.2790417  47.7808758  38.4234192  15.9493747  48.2319902  37.7537891
  15.6035419  47.7024922  38.9707199  16.1300853  47.8359894  38.4057416
  21.8960825  57.1513988  31.2823478  21.8112120  58.0074955  31.4273047
  22.3845209  56.8758312  31.9505638  21.9549723  57.2371309  31.4025560
  22.8279259  53.7698782  32.7821214  22.2990730  53.9858416  33.4418520
  23.3504279  54.4634921  32.7022183  22.8267712  53.9041919  32.8676813
  14.7178866  57.6661999  31.5828682  14.1336082  58.1712030  31.9894545
  14.3148962  57.4404386  30.8425274  14.5718170  57.7070247  31.5333707
  10.2722895  63.3816760  38.3852353   9.7890473  64.1067250  38.3611937
  11.0846213  63.6792890  38.4962511  10.3213643  63.5319114  38.3979632
  16.3437049  62.1748941  40.9902168  15.8263991  61.8156356  40.3863476
  17.0411440  61.6511115  41.0008234  16.3702630  62.0446629  40.9032426
  20.0000641  62.6243755  46.9518341  20.0883987  62.4369895  47.7996551
  20.4290354  61.9781184  46.5523187  20.0762743  62.5006763  47.0190092
  17.5671101  61.9074915  45.9336003  17.0041936  61.4947525  46.4575664
  18.3292124  61.8327821  46.3529146  17.5965549  61.8352315  46.0729003
  19.1756081  53.9127651  30.0597602  19.4152085  54.1205635  29.2472945
  19.4971922  53.1085160  30.1686547  19.2593239  53.8241752  29.9558155
  14.4846371  45.8421047  33.9057140  15.2392339  46.2099364  33.6674190
  14.3073906  46.2160601  34.6736320  14.5700849  45.9519235  33.9842029
  13.1267092  63.8972936  38.5372633  13.8287672  63.3824925  38.5945390
  13.0464575  64.2247087  39.3419508  13.2190853  63.8687162  38.6645425
  27.7781270  51.9915487  41.9504679  26.9409691  52.0617674  42.1852274
  27.7469501  51.9939982  41.0778982  27.6499552  52.0025714  41.8564227
  14.1745999  54.1348523  47.6653048  14.3466503  54.0254418  48.5138329
  14.7115356  54.7802928  47.4284240  14.2791003  54.2140525  47.7558145
  12.8403436  48.2491366  30.6035253  12.6579009  48.4663247  29.7776246
  13.7029049  48.3630379  30.6593868  12.9408025  48.2981264  30.4889740
  12.4517868  60.0879288  38.0458241  13.2906767  60.3202221  38.0932003
  12.4829637  59.2183599  37.9765276  12.5799585  59.9936234  38.0422886
  13.0770571  60.5080163  42.3471547  13.6168796  60.3651294  43.0174919
  12.3940517  60.9076914  42.7155573  13.0562725  60.5459834  42.5005968
  18.5203155  45.2517776  33.6384277  19.2489315  45.0733731  33.1922433
  18.6098048  46.0935856  33.8491455  18.6409817  45.3501655  33.6037795
  22.5011456  56.1871164  37.5416571  23.2568971  56.6202678  37.5805480
  22.6073780  55.5375934  38.1151207  22.6281626  56.1548648  37.6314596
  25.5391627  60.0144441  38.2918974  25.1026859  60.0181184  39.0477945
  25.2054542  60.6949940  37.8598551  25.4254247  60.1156897  38.3399806
  20.1120700  62.0552774  49.6162124  20.8961117  62.1683622  49.9817866
  19.9117295  61.2293911  49.8120810  20.1986726  61.9499493  49.6996510
   8.4807716  56.7280454  42.5005968   8.2146131  55.9119571  42.6596958
   8.4946280  56.7733610  41.6301484   8.4432438  56.6137359  42.3959450
  12.3865463  51.5265538  29.1157726  11.6723640  51.2403718  29.5280159
  12.8709431  51.8662164  29.7564114  12.3524826  51.5347188  29.2713361
  13.2306322  50.2658832  45.1472976  12.5378119  49.7955812  45.3933707
  13.8466649  50.0397137  45.7214683  13.2190852  50.1625964  45.2682128
  20.2691094  63.9662876  43.2628580  19.4706339  63.7262376  43.5202448
  20.7177105  64.0177269  44.0095627  20.2165705  63.9385267  43.4113504
  19.5612781  60.0295492  29.4919534  19.9763929  59.6980516  28.8004030
  18.7304710  59.7964395  29.3639671  19.5000789  59.9466748  29.3710382
   8.8901129  57.5139233  39.7817712   8.7076703  57.4886119  38.9290005
   9.6250798  57.9838171  39.8206621   8.9715193  57.5800596  39.6615631
  11.9546881  54.2324236  46.2899821  12.6786853  54.2177267  46.7764716
  12.0563018  54.9419592  45.7921789  12.0765090  54.3348939  46.2878608
  19.3291831  57.7123321  51.1548768  18.5364811  58.0266833  51.3401388
  19.4440758  57.9274789  50.3169553  19.2287241  57.7907158  51.0587103
  22.0023149  54.4357312  35.4443784  22.0970004  55.1746606  35.8983409
  21.3781993  54.0074788  35.8778348  21.9232180  54.4818633  35.5751931
  20.2575623  57.6143525  46.0934065  20.8314485  56.9770769  46.2482629
  20.1790427  57.6147607  45.2243722  20.3308858  57.5208636  45.9880476
   8.8572040  54.3932734  39.9316779   9.4345542  54.2569185  40.5709024
   8.1586101  53.9368518  40.1862363   8.8393061  54.3055000  40.0639069
  22.2546171  56.2806052  28.6780736  22.1726333  56.3508239  29.5435723
  22.8925891  56.8435796  28.4864476  22.3366008  56.3745023  28.7770685
  15.6139342  56.0466790  38.1455262  15.3558586  55.2138525  38.1186562
  15.6687825  56.2724403  37.3047762  15.5839120  55.9564561  38.0175399
  20.6940392  48.1495240  38.2459355  19.9896719  47.6604426  38.4043274
  20.7425366  48.1617715  37.3747799  20.5970444  48.0784888  38.1398695
  14.5874054  53.6004552  38.6320157  14.0123645  53.7596721  39.2684118
  14.2109730  52.9639961  38.1688607  14.4476866  53.5302365  38.6574715
  18.2547343  52.0727902  43.4912535  17.8661775  51.6482119  42.8364726
  17.5902041  52.3210051  43.9989562  18.0994271  52.0466623  43.4700403
   4.3330873  53.2444627  36.6464597   4.4191125  52.8676495  37.4278127
   4.9606670  52.8705073  36.1684556   4.4387424  53.1330109  36.6910075
  22.0773704  45.7702530  41.0036520  22.4584216  45.0880701  41.3904394
  21.2736989  45.4812132  40.8212184  22.0150166  45.6269579  41.0340575
  19.3586281  56.3026506  31.6889342  20.1726920  56.5941399  31.5772114
  19.2945422  55.6486368  31.1147635  19.4689020  56.2491701  31.5878180
  25.5795771  58.9852502  46.1018918  25.3434409  58.1540567  45.9830979
  26.2239000  58.9338109  46.6873762  25.6390442  58.8550190  46.1704811
  15.2294189  59.7748024  36.8161654  15.8668136  59.5359771  37.3613448
  15.6549261  59.9785182  36.0814815  15.3870356  59.7699034  36.7878812
  15.8697004  54.9950313  31.1536544  16.2542157  54.7758020  31.9053089
  15.6208625  55.8213259  31.2837620  15.8899077  55.0848460  31.2837620
  16.0365545  48.2756729  50.8699128  15.7218986  49.0456291  50.6068691
  15.7155477  47.7126985  50.2851355  15.9424464  48.3066997  50.7440478
  26.6032192  58.7696951  42.1647212  26.2978009  59.5025008  42.5260528
  25.8838407  58.3634880  41.8839998  26.4519534  58.8178684  42.1760349
  17.6115661  60.2520446  38.4955441  17.6854669  60.0895618  39.3497291
  18.4285168  60.4410636  38.2515922  17.7432020  60.2557189  38.5853466
  32.3033984  55.4089952  41.4915557  32.2358484  55.4285911  40.6218143
  32.2889646  56.2520279  41.7171227  32.2912740  55.5363686  41.3968034
  11.3721418  60.5978309  35.5249884  10.5459536  60.8440046  35.3984163
  11.4333409  60.5190390  36.3911942  11.2595585  60.6223258  35.6338829
  13.5897442  46.6647250  36.4845324  12.7219867  46.7369849  36.5502933
  13.8772646  47.4669329  36.6733299  13.5037190  46.7941397  36.5220091
  22.7130330  46.8125109  44.8156646  23.4583922  46.6234920  44.4020072
  22.2967635  47.3383347  44.2570502  22.7615305  46.8627255  44.6721219
  16.1520247  63.2155189  33.2268914  16.4418545  62.8244171  32.5028141
  16.8823728  63.3971894  33.6674189  16.3027131  63.1849003  33.1851721
  16.7414992  58.0172935  44.3122044  16.2426686  58.7288703  44.3906933
  17.5515216  58.3373602  44.2740207  16.7871099  58.1699784  44.3178613
  14.0926163  65.1922572  36.2929064  13.8726458  64.9019926  37.0855731
  13.8720685  64.5337527  35.7646976  14.0273757  65.0522280  36.3317972
  13.0043110  57.2795888  38.5584765  12.7156358  56.6533359  39.0930493
  13.8726458  57.2216176  38.6249446  13.0903362  57.1783432  38.6475720
  23.7921008  52.4230672  38.8766747  23.4485773  51.7021007  39.2273997
  23.8914050  52.2144523  38.0345106  23.7563050  52.2854875  38.8038427
  16.2594118  66.5651962  35.0759756  16.9118176  66.0328404  35.3050782
  15.5619727  66.2120614  35.4627630  16.2524836  66.4341485  35.1671924
  13.2075383  58.9191139  34.4827130  13.9621351  59.3004178  34.6962593
  12.6145996  59.3702283  34.9373827  13.2312097  59.0419967  34.5810009
  24.2534037  58.8856376  34.4190735  24.8192069  59.5449586  34.3349278
  23.6061940  59.2306074  34.8907138  24.2412793  59.0338317  34.4763492
  15.6682050  50.8753980  49.6084343  14.8581826  51.1811759  49.4974185
  16.1456737  51.5959562  49.7236927  15.6185529  51.0268581  49.6091414
  14.5273610  60.0899701  39.8567246  14.0054363  60.2299992  40.5419111
  14.9147630  59.3310365  40.0469363  14.5077311  59.9985224  39.9868322
  11.5164794  50.1405509  33.9262201  11.2289589  49.7706780  33.1894148
  12.2035262  50.6100365  33.6645905  11.5753691  50.1552479  33.7777276
  20.7240615  61.8295160  33.8427815  20.4827291  61.0963020  33.4354880
  20.9041948  62.3782017  33.1894148  20.7148239  61.8017551  33.6858038
  15.9539935  57.1203720  35.2548737  15.7582718  57.7278454  34.6609040
  16.1774281  56.4271664  34.7740411  15.9574576  57.1081245  35.0964818
  14.3518465  54.0058458  35.3729605  15.0741117  54.1699616  34.9133411
  13.8726458  54.7268122  35.2668945  14.3882196  54.1356687  35.2895219
  22.3111973  50.3422256  40.7526290  21.4723074  50.3683535  40.5164553
  22.3816340  50.9892992  41.3331637  22.1980366  50.4418382  40.8035407
  12.0026082  56.4116530  44.4783745  12.5147179  56.6900783  43.8292505
  11.7162425  57.1505824  44.8446558  12.0360945  56.5618884  44.4373623
  20.7581251  47.2407633  35.4853906  21.4607604  47.0415382  35.0073864
  20.4925440  46.4683576  35.7922750  20.8227883  47.0970599  35.4599348
   9.0892988  50.9186722  34.7747482   9.1909125  51.7212883  35.1028457
   9.8848875  50.7174058  34.4770562   9.2220894  51.0072621  34.7782837
  15.5209807  48.5042919  44.5384787  15.3293004  48.5198053  45.3884210
  16.3708403  48.7006593  44.5151442  15.6185529  48.5357270  44.6608081
   9.9056720  51.0333900  42.5168603   9.7642212  50.1817841  42.6413111
  10.1897284  51.0762561  41.6930809   9.9264567  50.9133650  42.4136227
  20.0595313  52.8700990  36.6613091  19.8130027  52.7896741  37.4949880
  20.3880436  52.0854458  36.4675619  20.0716556  52.7427256  36.7560615
  23.9543362  59.5784350  40.4499873  23.8157721  60.2765395  40.9548615
  23.1743360  59.4233006  40.0936054  23.8186588  59.6584516  40.4726147
  22.2921447  55.8780725  46.7022254  22.2869485  55.0060541  46.7064681
  22.9982441  56.0768894  46.2291710  22.3966451  55.7784599  46.6329290
  16.0192340  55.6057709  46.0736075  16.1635716  56.1858917  45.4379185
  16.3667989  55.9834005  46.7785929  16.0919801  55.7478413  46.0835069
  18.1912257  54.8047877  43.8561206  17.4435571  54.9978892  43.4509484
  18.3453783  53.9793097  43.6185327  18.1034685  54.7112989  43.7606612
  15.0920095  63.7960481  42.9397101  15.2409659  63.2363396  42.2870506
  15.8720097  63.8752482  43.3229620  15.2294189  63.7246046  42.8994050
  25.4496734  58.9362603  31.2116372  25.0703543  58.1499741  31.2045661
  24.7862980  59.4849460  31.0688016  25.2955209  58.9007427  31.1897169
  17.6173396  63.9675123  44.2181592  17.5417067  63.2983934  44.7732380
  17.5463255  64.6692912  44.7322258  17.5954003  63.9720031  44.3758440
  18.4314034  48.6998428  44.7456610  18.8886649  49.4322402  44.8729402
  18.5070363  48.2764893  45.5043866  18.5105004  48.7455666  44.8757686
  10.6747026  48.9464248  45.8346054  10.1389215  48.3344606  46.1506821
  10.7364790  49.5212384  46.4879720  10.6042658  48.9411175  45.9781480
  18.2743643  62.4876122  35.0505198  19.0393534  62.2185766  34.7287862
  18.1721733  62.0026133  35.7675261  18.3725138  62.3765687  35.1085026
  16.3096412  50.6900532  41.5898434  15.5192487  50.5091992  41.9115770
  16.7057035  49.9127484  41.5728728  16.2513289  50.5487993  41.6350982
  20.7962303  59.5188306  27.0305147  21.5635288  59.5788431  26.6210999
  20.3493612  58.9468748  26.5461466  20.8435730  59.4424882  26.8982858
  21.6940099  58.3242962  39.3157880  21.0185100  58.0928194  39.8171267
  21.7032475  57.7164145  38.6899985  21.5958603  58.2001887  39.2974032
  18.8234243  53.1660791  46.0721933  18.7593384  54.0270747  45.9442069
  18.9631430  52.8492784  45.2717484  18.8349713  53.2460958  45.9350146
  23.6956833  61.1808094  31.5468058  23.7776671  61.9875081  31.2229509
  24.1806575  61.2004054  32.2708831  23.7793991  61.3028757  31.6054956
  17.5053337  55.8592930  40.2138136  17.0815586  56.0597429  39.4777154
  17.3298192  55.0121778  40.3262435  17.4164217  55.7641712  40.1211826
  17.0065030  67.3743443  42.6759593  17.4960960  66.6754232  42.4935258
  16.4349262  67.0767313  43.2635650  16.9949560  67.2269667  42.7360634
  12.7935782  56.3544982  35.6466108  12.9500401  56.2891784  36.5022100
  13.1336375  57.1293534  35.4344788  12.8669016  56.4594180  35.7420702
  19.3314926  55.7302865  34.5159471  19.8730472  55.2273246  34.9798092
  19.6461485  55.6768060  33.7048957  19.4579323  55.6482286  34.4643283
  23.2032034  59.9405513  51.6286384  24.0166899  59.6690661  51.7891516
  23.0427000  59.6413053  50.8246580  23.3001982  59.8560439  51.5331789
  17.5001376  61.1220217  31.7999499  17.5694196  60.2634755  31.9392500
  18.2789831  61.3392098  31.4718524  17.6254226  61.0273081  31.7716657
  20.4804196  50.6239170  44.5681772  20.6946165  49.9850084  44.0145126
  19.8638095  51.0684994  44.1389634  20.4209525  50.5949313  44.4232203
  21.8908863  63.5457918  36.0135993  21.4988655  63.2424633  35.2958859
  22.0461936  64.3827008  35.8240947  21.8562453  63.6241755  35.8792490
   9.3670043  53.5379932  35.9626875   9.7469008  53.9564477  35.2987143
   8.7925408  54.1193388  36.2695719   9.3381368  53.6857791  35.9103616
  22.6443284  52.2328235  45.5065079  21.8319965  51.9254125  45.5878252
  23.1033218  51.7527235  46.0707791  22.5923668  52.1164727  45.6019673
  22.0548538  60.1107907  35.9542023  21.6963193  60.2822550  36.7306056
  21.5687249  60.5721113  35.3970022  21.9307235  60.2046878  35.9867292
  19.8718924  43.7339105  39.5569115  19.0012482  43.7077827  39.5102424
  20.1259265  43.5616298  38.7394960  19.7812484  43.7049249  39.4289251
  16.8436904  55.7907072  28.4942258  17.1329428  56.5671955  28.7685832
  16.9308702  55.2795804  29.1956757  16.8991160  55.8298991  28.6384756
  19.7396791  53.6388306  50.2893781  20.2096422  54.2630423  50.6761655
  19.7858671  52.9705282  50.8486996  19.8164667  53.6322987  50.4293853
  16.8968065  45.7445334  41.0142585  16.3806553  45.0525525  41.1394164
  16.3361994  46.4116111  40.9605184  16.7374578  45.7408592  41.0248651
  18.9660298  46.2838294  42.8435438  18.5792051  46.3087325  43.6248968
  18.4793235  45.7179973  42.3909954  18.8372807  46.2034045  42.8923341
  23.2153278  61.0011803  46.9009224  23.8532998  60.5071999  46.5671680
  22.5727369  60.9289203  46.3161451  23.2147504  60.9170811  46.7651579
  24.9410278  52.8500949  41.4675140  24.5137886  52.7627297  40.7123239
  24.3036331  52.9578724  42.0529984  24.7839885  52.8533609  41.4420581
  18.6317440  43.1705279  45.1345698  19.2610558  43.7065579  44.8566768
  18.8003303  43.0782638  45.9859263  18.7495234  43.2366642  45.2194226
  18.4331355  47.9576474  47.4072109  19.2604784  47.6861623  47.4630724
  18.4539201  48.7537316  47.7635927  18.5584205  48.0356228  47.4687292
  23.2707534  61.6931611  43.5414581  24.0599912  61.3420676  43.6616663
  23.4451132  62.5068000  43.2791215  23.4127816  61.7617468  43.5202449
  13.0100845  55.1040337  40.5942370  12.1688851  55.0044211  40.8021264
  13.2190853  55.8735817  40.9456690  12.9165537  55.2032380  40.6769685
  10.4876412  52.7259874  38.4227120  10.0933109  52.8002886  37.6477230
   9.9316528  53.1117820  38.9735482  10.3479224  52.7941648  38.3894780
  16.8217509  53.0321736  39.8439967  16.5180647  52.4777724  40.4450375
  16.1196930  53.2113946  39.3568002  16.6733719  52.9766518  39.8609673
  15.8783607  50.3422256  34.4084669  16.1543341  49.6241168  33.9962237
  16.4782276  50.9407176  34.2005775  16.0076871  50.3242627  34.3165430
  14.8835860  60.2471457  44.5512065  14.7756215  60.2573519  45.4174123
  15.0931642  61.0726237  44.3617019  14.8985971  60.3712532  44.6516157
  19.3794127  48.0135773  32.6831264  19.8337874  48.1846334  33.4079109
  19.8534173  47.4003884  32.2829040  19.5162447  47.9486659  32.7305026
  12.9009652  57.4984099  42.0134003  12.3097586  58.1393597  41.9837018
  13.6630676  57.9221716  41.9865302  12.9257913  57.6559938  42.0049150
  13.2970275  48.6586097  42.6802020  13.7571757  48.7325026  43.4177144
  13.3426382  49.4567351  42.3301842  13.3720831  48.7880244  42.7374777
  14.9453625  49.3252792  47.2474047  14.5539190  48.6786139  47.6829825
  15.1139488  49.9164227  47.8668303  14.9124535  49.3167060  47.4036753
  29.0200074  57.3289869  43.0111281  29.0783198  57.7776518  43.7571257
  28.3866542  57.7388682  42.5741361  28.9351369  57.4563604  43.0563829
  22.6599169  62.9493411  39.4466027  22.4618857  63.4384225  38.7522238
  22.0386880  63.1534652  40.0250161  22.5386733  63.0509949  39.4289250
  16.7207147  54.7178308  33.7876271  17.4649192  55.1052584  34.0259221
  16.8667843  53.8735733  33.9516759  16.8517732  54.6508780  33.8470241
  18.6386722  46.5128567  38.8208133  17.7922768  46.6851374  38.6949483
  18.6357855  45.7077910  39.1573961  18.5133872  46.4189595  38.8519260
  19.7085023  50.2903781  39.6870191  19.2344977  49.7645543  40.1975502
  20.0803159  49.7433254  39.1185052  19.6934912  50.1319778  39.6785338
  10.0858053  52.2875288  45.0553737  10.9483666  52.1870997  44.9691066
   9.7549836  51.7069997  44.4939309  10.1643249  52.1866914  44.9599142
  25.9721753  55.3506157  41.0976971  25.7319976  54.5112572  41.1019398
  26.4513761  55.4306323  41.8217745  26.0073937  55.2387556  41.2051774
  21.6368523  51.1840336  32.7495945  21.1091541  51.2669080  32.0601653
  22.0964231  51.9258207  32.7460589  21.6270373  51.3060998  32.6470640
  27.9726940  52.1307614  39.0506230  27.7336710  52.0903448  38.2127015
  28.1360842  52.9778766  39.1771951  27.9617244  52.2499699  38.9459712
  24.5772971  56.5157563  44.9811275  25.3007169  56.0630090  44.8022295
  24.3122933  56.7962229  44.1983603  24.6454244  56.4908532  44.8389991
  13.4459839  51.1117737  41.7164155  12.8212909  51.1236129  41.1090107
  13.1105434  51.5877912  42.3655395  13.3045331  51.1836254  41.7220723
  13.6301588  49.4542855  27.7736840  13.2814392  50.1062580  28.2368389
  13.1498034  49.4399968  27.0460711  13.5071832  49.5485909  27.7347931
  10.1585515  59.1718197  43.1567919   9.6285439  58.4810636  43.2062894
  10.4310608  59.1628382  42.3280628  10.1210237  59.0685329  43.0415335
  21.1905605  59.7543899  31.8805602  21.9139804  60.2202012  31.7370175
  20.7506196  59.8217509  31.1303199  21.2321297  59.8327736  31.7490383
  20.3591760  56.6141441  43.1306291  19.7448753  56.0699492  43.4254926
  20.8759045  56.1005678  42.6512107  20.3447423  56.4577850  43.1030519
  19.5988057  57.6845711  40.8650589  19.1715665  57.0595430  40.4316025
  19.5913002  57.4020633  41.6909596  19.5347198  57.5498492  40.9230417
  12.7150584  52.7210884  43.9339023  12.8744071  51.9654209  44.3390745
  12.5343478  53.2701824  44.5879761  12.7115943  52.6904698  44.0901729
  20.6570887  44.8872120  44.4889813  20.1611449  45.0835794  43.7981379
  21.4139949  45.2864788  44.3178614  20.6957712  44.9749854  44.3609949
  17.9273767  48.5614466  41.0793123  17.9516254  48.0274578  40.3905903
  18.1785241  48.0531775  41.7418714  17.9683686  48.4075370  41.0757768
   5.4381357  55.8445961  40.5136267   5.3324806  55.7992805  39.6488351
   4.6881577  56.1899741  40.7950552   5.3116960  55.8886869  40.4273597
  14.2075089  47.2885284  40.4598868  14.2473461  47.7894491  41.1733575
  13.3824754  47.3795678  40.1904791  14.0914615  47.3767100  40.5249406
  16.3904702  56.8546024  48.5619162  15.5400333  56.9917738  48.6976807
  16.5532830  56.1209802  49.0066864  16.2888566  56.7660125  48.6474761
  15.6289453  53.8045794  42.7572767  14.7981382  53.9719612  42.5508015
  15.5740970  53.4281745  43.5421652  15.4978867  53.7735525  42.8421295
  13.4373236  47.2954687  48.3929177  14.0625939  46.7516820  48.6658610
  12.9823716  46.8149604  47.8236968  13.4621496  47.1444168  48.3490771
  14.0025496  52.0801386  33.2862884  14.1428457  52.5773850  33.9891526
  14.5008029  51.3787680  33.4277098  14.0966577  52.0503364  33.4114463
  14.0325719  52.9468497  30.6155461  14.6670798  53.5428922  30.5504923
  14.1151330  52.6471954  31.4301331  14.1382270  52.9909405  30.7258548
  27.0108285  55.4783974  43.4841825  27.6026125  56.1181225  43.5160023
  27.4467279  54.7807011  43.7733892  27.1626716  55.4702324  43.5322658
  15.6104702  48.8782472  30.5900903  15.9320543  48.3985554  29.9360165
  15.8731645  49.6882118  30.3991715  15.6970727  48.9272370  30.4656395
  18.8401674  59.9001346  44.1099719  18.3326766  60.4537193  44.5540350
  18.5428321  59.9609636  43.2918494  18.7206559  59.9907657  44.0548176
  21.0063857  48.2654666  42.9524382  21.4318928  47.8127192  42.3407909
  20.3920850  47.7114737  43.2289170  20.9792502  48.1168642  42.9029407
  10.5378707  55.1436337  33.8845007  11.0470936  55.7400845  34.2656313
  11.0112979  54.8762311  33.2021427  10.6822082  55.1922153  33.8399530
  21.4509455  63.8164604  32.0403663  20.7338764  63.6425466  31.5750900
  22.1016192  63.5817176  31.5079149  21.4411305  63.7560397  31.8932881
  19.4458079  44.7369766  36.3614959  18.8026397  44.5867412  36.9300098
  19.1057486  44.4912111  35.5964064  19.3003157  44.6781888  36.3317974
  24.0357426  52.6929193  35.7844968  23.3648616  53.2358895  35.6558033
  24.7297176  53.1624048  35.5426663  24.0386293  52.8427464  35.7300495
  18.0844160  64.8325905  41.0156726  17.8609814  64.0744734  41.3840752
  17.5954003  64.8623926  40.2937166  17.9787609  64.7248129  40.9633467
  24.1985553  49.1485076  38.6935341  24.5513163  48.7214799  39.3681140
  23.3400355  49.0635920  38.8236417  24.1234998  49.0729817  38.8130351
  12.8969238  51.7792596  36.7518187  12.1781228  52.1956728  37.0191051
  13.2681601  52.3446835  36.2009826  12.8461170  51.9241877  36.7100994
  22.1968819  52.4120445  42.6420183  22.1766747  52.2303740  43.4954962
  22.2448020  53.2832463  42.6179767  22.2003460  52.5136983  42.7643478
  20.1415149  59.0007637  48.5668660  20.1011004  58.3557314  47.9813816
  20.9538467  58.9444254  48.8794072  20.2558303  58.8966604  48.5265609
  16.7322617  65.0526363  38.4693811  16.3183015  64.3900493  38.0797652
  17.4169991  65.2004221  37.9489505  16.7720988  64.9767021  38.3350308
  20.0987911  64.2116448  39.2217427  19.7004194  64.3218718  38.4538248
  19.4839130  64.4198514  39.8043987  19.9486800  64.2590016  39.1948727
  18.6715813  50.8190596  32.0891567  18.0780652  51.1407592  31.5376134
  18.7091090  49.9731691  31.8812673  18.5890202  50.7414924  31.9774338
  21.5473629  50.7770100  35.5193317  21.3187322  50.8002802  34.6771675
  21.8071706  49.9527567  35.6388328  21.5519817  50.6586180  35.4118515
  15.8292858  52.6304573  45.1218417  15.3171761  52.0225756  45.4803449
  15.6572354  53.3461166  45.5892393  15.7282495  52.6467873  45.2434641
  10.6758573  51.0742149  47.7720779  10.5061163  51.7343523  47.2268986
  10.2324522  51.2848710  48.4933268  10.5857906  51.2028131  47.7982409
  14.6018392  49.3146647  36.8147513  15.0775758  49.6763726  36.1797694
  14.1006991  49.9703114  37.0947656  14.5983751  49.4640835  36.7624254
  19.7061928  50.5528818  47.5620673  20.2633358  50.3242627  46.9299138
  19.3822993  51.3134484  47.2855885  19.7408338  50.6312655  47.4277170
   7.5760637  53.9789014  43.0309269   7.0287356  53.3089660  43.1490137
   8.3653015  53.6118862  43.0952736   7.6112821  53.8254001  43.0577970
  17.4245045  53.6396471  48.5272680  18.1756372  53.9548148  48.8412234
  17.6167622  53.4375642  47.7006602  17.5636460  53.6563853  48.4516076
  16.6445045  51.4587846  30.1820897  17.0244010  51.4767476  29.3972012
  15.9037641  51.9041835  30.0611744  16.5913883  51.5269621  30.0484465
   6.3347606  53.1909822  40.1855292   6.1569368  52.7386431  40.9110208
   6.0466629  53.9935983  40.3693770   6.2660560  53.2432380  40.3198795
  21.9971188  54.4467539  39.4232682  22.4924853  53.7290534  39.3836703
  21.1870963  54.1438337  39.3087169  21.9515081  54.2965186  39.4006408
  17.4429799  58.2965353  31.5729687  16.6341122  57.9732026  31.5262996
  17.9504708  57.5898575  31.5057935  17.3979466  58.1446669  31.5559981
   8.0720076  55.7237546  37.2977051   7.2065596  55.7123236  37.1859822
   8.1718892  55.5367769  38.1448190   7.9594243  55.6943607  37.4065996
  24.0623006  57.1971227  42.1109811  24.4878078  56.6745649  41.5580236
  23.6979926  57.7952064  41.5898434  24.0709609  57.2081454  41.9518821
  13.6977086  65.4935444  40.8707157  14.0123645  66.3071833  40.8784938
  14.1070500  65.1085663  41.5389316  13.8045184  65.5564147  40.9711248
  20.6501606  60.9105491  38.4410969  21.1212784  61.6245754  38.6100954
  20.9861784  60.3104241  38.9770838  20.7696721  60.9276955  38.5443345
  22.7378590  62.5206804  50.6203041  22.8475556  61.7315365  50.9759788
  23.0669487  62.4312741  49.8177379  22.8030996  62.3912657  50.5545431
  17.5671101  45.6832962  45.3969063  17.6999006  44.8863955  45.7250039
  17.9516254  46.2099365  45.9767339  17.6427430  45.6432878  45.5312566
  21.2875552  60.7023425  45.2038661  20.7396498  60.0781309  44.9358727
  21.7488581  60.8917697  44.4882741  21.2742762  60.6382475  45.0589092
  20.6403456  42.6063288  41.9950157  19.8349420  42.4961017  42.3117995
  20.5110191  42.7075744  41.1380022  20.5023589  42.6046958  41.9158197
  24.0969417  48.7708780  42.5889854  23.5132405  49.2717986  42.1767421
  24.4173711  48.2638336  41.9554177  24.0582592  48.7700615  42.4348361
  16.6364216  47.6849375  32.8648528  17.4579910  47.8547687  32.6230223
  16.1733867  47.8396636  32.1414826  16.6895378  47.7331108  32.7220173
  15.2259548  45.6792137  43.6446957  15.7703961  45.3383264  44.2351299
  15.2796483  46.5377598  43.7868242  15.3148667  45.7547396  43.7528831
  11.0390106  59.4408553  40.5185765  11.6434964  59.4004387  39.8899586
  10.8317419  60.2879705  40.5489821  11.0979004  59.5596555  40.4301882
  20.8533879  61.7074498  41.7348002  21.6732252  61.5637464  41.9964298
  20.5727956  62.3320697  42.2764440  20.9330622  61.7784850  41.8535942
   6.2741389  58.4243170  40.3884688   6.1765667  57.6139442  40.6974745
   7.0570258  58.4034964  40.0030956   6.3757525  58.3010261  40.3771551
  37.3247529  69.3639350  34.6990879  37.2941533  70.2183986  34.8709148
  37.9228878  69.0634642  35.2577022  37.4084687  69.4455846  34.8065681
  30.5247214  68.4515001  39.4543809  29.6685109  68.6123499  39.5052926
  30.5714867  67.5807065  39.4748870  30.4046325  68.3465803  39.4649875
  33.8340930  74.7201526  49.0604265  34.5407698  74.2253557  49.1891200
  34.0228866  75.1610608  48.3306923  33.9668836  74.7119877  48.9713311
  33.3699035  70.5107045  42.0975461  33.9154995  71.1892131  42.1569431
  33.3115911  70.3694505  41.2377042  33.4414949  70.5899046  41.9787521
  35.1464103  71.9391652  32.9709189  35.0303629  72.6899338  33.4001327
  35.9419990  71.6815605  33.2205276  35.2468693  72.0126499  33.0713280
  21.9828241  66.1902128  40.0080455  21.3633273  65.5994775  39.8390469
  21.8812105  66.7813563  39.3744778  21.8765917  66.1906210  39.8885444
  27.0294429  75.9285675  34.2578531  27.3510270  76.4690882  33.6539839
  27.6766525  75.3582446  34.3900821  27.1720484  75.9244850  34.1885566
  29.0796137  67.9301670  34.3412918  29.7776302  68.1089797  34.8334381
  29.3948470  67.4072009  33.7183307  29.2291474  67.8795442  34.3214928
  21.7097374  69.7354410  42.2524024  21.5856071  70.3216855  42.8873842
  22.3615659  69.2414605  42.5536299  21.7871024  69.7493214  42.3909953
  29.2684072  74.3172115  34.3292709  29.7077708  73.7089215  34.7747482
  29.1188735  73.9379488  33.5578174  29.3105538  74.1710586  34.2811877
  26.7355715  72.9116127  41.5311535  27.3804718  72.4188570  41.2122483
  26.9757492  73.0540913  42.3577613  26.8666300  72.8593569  41.6061068
  29.2741807  75.7571032  41.1818427  29.5565050  74.9622438  40.9605183
  30.0027967  76.2351620  41.2023488  29.4231370  75.7105629  41.1521442
  27.2523001  63.2994066  38.4234192  26.9226331  63.7505210  37.7537891
  26.5768002  63.2210230  38.9707199  27.1033437  63.3545202  38.4057416
  32.8693409  72.6699296  31.2823478  32.7844704  73.5260263  31.4273047
  33.3577792  72.3943620  31.9505638  32.9282306  72.7556617  31.4025560
  33.8011842  69.2884090  32.7821214  33.2723314  69.5043724  33.4418520
  34.3236862  69.9820229  32.7022183  33.8000295  69.4227227  32.8676813
  39.2559895  74.8630395  38.1554258  38.4257598  75.0741038  38.3187675
  39.2069147  74.0367449  37.8796542  39.1266630  74.7720001  38.1391623
  25.6911450  73.1847307  31.5828682  25.1068665  73.6897338  31.9894545
  25.2881545  72.9589694  30.8425274  25.5450754  73.2255555  31.5333707
  30.9733225  78.1429063  46.9518341  31.0616570  77.9555203  47.7996551
  31.4022937  77.4966492  46.5523187  31.0495327  78.0192071  47.0190092
  30.1488664  69.4312959  30.0597602  30.3884668  69.6390943  29.2472945
  30.4704505  68.6270468  30.1686547  30.2325822  69.3427060  29.9558155
  25.4578955  61.3606355  33.9057140  26.2124923  61.7284672  33.6674190
  25.2806489  61.7345909  34.6736320  25.5433433  61.4704543  33.9842029
  38.7513853  67.5100795  41.9504679  37.9142274  67.5802982  42.1852274
  38.7202084  67.5125290  41.0778982  38.6232136  67.5211022  41.8564227
  25.1478582  69.6533831  47.6653048  25.3199086  69.5439726  48.5138329
  25.6847940  70.2988236  47.4284240  25.2523586  69.7325833  47.7558145
  23.8136019  63.7676674  30.6035253  23.6311593  63.9848555  29.7776246
  24.6761632  63.8815686  30.6593868  23.9140609  63.8166572  30.4889740
  33.4744039  71.7056472  37.5416571  34.2301554  72.1387986  37.5805480
  33.5806364  71.0561242  38.1151207  33.6014210  71.6733956  37.6314596
  36.5124210  75.5329749  38.2918974  36.0759442  75.5366491  39.0477945
  36.1787126  76.2135248  37.8598551  36.3986830  75.6342205  38.3399806
  31.0853284  77.5738082  49.6162124  31.8693701  77.6868930  49.9817866
  30.8849878  76.7479219  49.8120810  31.1719309  77.4684801  49.6996510
  19.4540299  72.2465762  42.5005968  19.1878715  71.4304879  42.6596958
  19.4678863  72.2918917  41.6301484  19.4165022  72.1322667  42.3959450
  36.4321693  62.5743577  40.5348402  37.0747602  62.6441681  41.1210317
  36.6844714  61.9072800  40.0327944  36.5643825  62.4869925  40.5475681
  23.3598046  67.0450846  29.1157726  22.6456223  66.7589026  29.5280159
  23.8442015  67.3847472  29.7564114  23.3257410  67.0532496  29.2713361
  24.2038906  65.7844140  45.1472976  23.5110702  65.3141120  45.3933707
  24.8199233  65.5582445  45.7214683  24.1923436  65.6811272  45.2682128
  39.6468557  72.2510669  37.1838611  40.3084991  71.6901337  37.0834520
  39.0059968  71.7562700  37.5091302  39.6497424  72.0947078  37.2170951
  19.8633713  73.0324541  39.7817712  19.6809286  73.0071427  38.9290005
  20.5983382  73.5023479  39.8206621  19.9447777  73.0985904  39.6615631
  35.9333387  73.2676051  36.9250600  36.1688976  73.4121250  36.0977451
  36.0822951  74.0318459  37.3182114  35.9899190  73.4015106  36.8614204
  22.9279465  69.7509544  46.2899821  23.6519437  69.7362575  46.7764716
  23.0295601  70.4604899  45.7921789  23.0497674  69.8534247  46.2878608
  37.7623844  72.1077717  34.7620204  38.0932061  72.6405357  34.1560299
  38.3356932  72.1616605  35.4182155  37.8957523  72.1947286  34.7697985
  30.3024414  73.2308629  51.1548768  29.5097395  73.5452141  51.3401388
  30.4173341  73.4460097  50.3169553  30.2019825  73.3092466  51.0587103
  32.9755733  69.9542620  35.4443784  33.0702587  70.6931914  35.8983409
  32.3514577  69.5260095  35.8778348  32.8964763  70.0003941  35.5751931
  31.2308207  73.1328833  46.0934065  31.8047069  72.4956077  46.2482629
  31.1523011  73.1332915  45.2243722  31.3041442  73.0393944  45.9880476
  19.8304623  69.9118042  39.9316779  20.4078126  69.7754493  40.5709024
  19.1318685  69.4553826  40.1862363  19.8125645  69.8240308  40.0639069
  33.2278754  71.7991360  28.6780736  33.1458917  71.8693547  29.5435723
  33.8658475  72.3621104  28.4864476  33.3098592  71.8930331  28.7770685
  26.5871926  71.5652098  38.1455262  26.3291170  70.7323833  38.1186562
  26.6420408  71.7909711  37.3047762  26.5571703  71.4749869  38.0175399
  31.6672976  63.6680548  38.2459355  30.9629302  63.1789734  38.4043274
  31.7157950  63.6803023  37.3747799  31.5703027  63.5970196  38.1398695
  25.5606638  69.1189860  38.6320157  24.9856229  69.2782029  39.2684118
  25.1842314  68.4825269  38.1688607  25.4209450  69.0487673  38.6574715
  29.2279926  67.5913209  43.4912535  28.8394359  67.1667427  42.8364726
  28.5634625  67.8395359  43.9989562  29.0726854  67.5651931  43.4700403
  38.8703195  67.3488214  36.2660365  38.6139760  66.5368156  36.0758248
  39.7132509  67.3565781  36.0390553  38.9569221  67.2300212  36.2045182
  15.3063457  68.7629935  36.6464597  15.3923708  68.3861803  37.4278127
  15.9339254  68.3890381  36.1684556  15.4120008  68.6515417  36.6910075
  33.0506288  61.2887838  41.0036520  33.4316800  60.6066009  41.3904394
  32.2469572  60.9997440  40.8212184  32.9882750  61.1454887  41.0340575
  30.3318865  71.8211814  31.6889342  31.1459503  72.1126707  31.5772114
  30.2678006  71.1671676  31.1147635  30.4421604  71.7677009  31.5878180
  36.5528355  74.5037810  46.1018918  36.3166992  73.6725875  45.9830979
  37.1971584  74.4523417  46.6873762  36.6123026  74.3735498  46.1704811
  26.2026773  75.2933331  36.8161654  26.8400720  75.0545079  37.3613448
  26.6281844  75.4970490  36.0814815  26.3602939  75.2884342  36.7878812
  26.8429588  70.5135621  31.1536544  27.2274741  70.2943328  31.9053089
  26.5941208  71.3398567  31.2837620  26.8631660  70.6033768  31.2837620
  27.0098128  63.7942036  50.8699128  26.6951569  64.5641599  50.6068691
  26.6888061  63.2312292  50.2851355  26.9157047  63.8252305  50.7440478
  37.5764775  74.2882259  42.1647212  37.2710592  75.0210316  42.5260528
  36.8570991  73.8820188  41.8839998  37.4252118  74.3363992  42.1760349
  28.5848245  75.7705754  38.4955441  28.6587253  75.6080926  39.3497291
  29.4017751  75.9595944  38.2515922  28.7164603  75.7742496  38.5853466
  43.2766568  70.9275260  41.4915557  43.2091068  70.9471219  40.6218143
  43.2622230  71.7705587  41.7171227  43.2645324  71.0548994  41.3968034
  24.5630025  62.1832558  36.4845324  23.6952451  62.2555157  36.5502933
  24.8505230  62.9854637  36.6733299  24.4769773  62.3126705  36.5220091
  33.6862914  62.3310417  44.8156646  34.4316506  62.1420228  44.4020072
  33.2700219  62.8568655  44.2570502  33.7347888  62.3812563  44.6721219
  41.0625185  69.7019646  39.7662151  41.6133106  69.0687715  40.0059243
  41.0469300  70.2335039  40.4577655  41.1410381  69.6868594  39.9041009
  27.7147576  73.5358243  44.3122044  27.2159269  74.2474011  44.3906933
  28.5247800  73.8558910  44.2740207  27.7603682  73.6885092  44.3178613
  23.9775693  72.7981196  38.5584765  23.6888942  72.1718667  39.0930493
  24.8459041  72.7401484  38.6249446  24.0635945  72.6968740  38.6475720
  34.7653591  67.9415979  38.8766747  34.4218357  67.2206315  39.2273997
  34.8646634  67.7329831  38.0345106  34.7295634  67.8040183  38.8038427
  24.1807967  74.4376447  34.4827130  24.9353935  74.8189486  34.6962593
  23.5878579  74.8887591  34.9373827  24.2044680  74.5605275  34.5810009
  35.2266620  74.4041684  34.4190735  35.7924653  75.0634893  34.3349278
  34.5794524  74.7491382  34.8907138  35.2145377  74.5523625  34.4763492
  26.6414634  66.3939288  49.6084343  25.8314409  66.6997067  49.4974185
  27.1189320  67.1144870  49.7236927  26.5918112  66.5453889  49.6091414
  25.5006193  75.6085008  39.8567246  24.9786947  75.7485300  40.5419111
  25.8880214  74.8495673  40.0469363  25.4809894  75.5170532  39.9868322
  22.4897377  65.6590817  33.9262201  22.2022173  65.2892088  33.1894148
  23.1767846  66.1285673  33.6645905  22.5486275  65.6737787  33.7777276
  31.6973198  77.3480468  33.8427815  31.4559874  76.6148328  33.4354880
  31.8774531  77.8967325  33.1894148  31.6880822  77.3202859  33.6858038
  26.9272519  72.6389028  35.2548737  26.7315302  73.2463762  34.6609040
  27.1506864  71.9456972  34.7740411  26.9307160  72.6266553  35.0964818
  25.3251049  69.5243765  35.3729605  26.0473701  69.6884924  34.9133411
  24.8459042  70.2453430  35.2668945  25.3614780  69.6541995  35.2895219
  33.2844556  65.8607564  40.7526290  32.4455657  65.8868843  40.5164553
  33.3548924  66.5078300  41.3331637  33.1712950  65.9603690  40.8035407
  22.9758666  71.9301838  44.4783745  23.4879763  72.2086091  43.8292505
  22.6895008  72.6691132  44.8446558  23.0093529  72.0804192  44.4373623
  37.1602080  71.0675551  38.0387532  37.0736055  71.2230977  38.8922311
  36.7052560  71.7113627  37.6646937  37.0805337  71.1851306  38.1094639
  20.0625572  66.4372030  34.7747482  20.1641708  67.2398191  35.1028457
  20.8581459  66.2359366  34.4770562  20.1953478  66.5257928  34.7782837
  26.4942391  64.0228226  44.5384787  26.3025588  64.0383361  45.3884210
  27.3440987  64.2191901  44.5151442  26.5918113  64.0542578  44.6608081
  20.8789304  66.5519208  42.5168603  20.7374796  65.7003149  42.6413111
  21.1629867  66.5947869  41.6930809  20.8997150  66.4318958  42.4136227
  31.0327896  68.3886298  36.6613091  30.7862611  68.3082049  37.4949880
  31.3613019  67.6039766  36.4675619  31.0449140  68.2612563  36.7560615
  34.9275945  75.0969657  40.4499873  34.7890304  75.7950703  40.9548615
  34.1475943  74.9418314  40.0936054  34.7919172  75.1769824  40.4726147
  33.2654030  71.3966033  46.7022254  33.2602069  70.5245849  46.7064681
  33.9715024  71.5954202  46.2291710  33.3699034  71.2969907  46.6329290
  26.9924924  71.1243017  46.0736075  27.1368299  71.7044225  45.4379185
  27.3400572  71.5019313  46.7785929  27.0652385  71.2663721  46.0835069
  29.1644841  70.3233185  43.8561206  28.4168155  70.5164199  43.4509484
  29.3186366  69.4978405  43.6185327  29.0767269  70.2298296  43.7606612
  36.4229318  74.4547911  31.2116372  36.0436127  73.6685049  31.2045661
  35.7595563  75.0034768  31.0688016  36.2687793  74.4192735  31.1897169
  29.4046618  64.2183736  44.7456610  29.8619232  64.9507710  44.8729402
  29.4802947  63.7950201  45.5043866  29.4837588  64.2640974  44.8757686
  21.6479609  64.4649556  45.8346054  21.1121799  63.8529914  46.1506821
  21.7097374  65.0397691  46.4879720  21.5775242  64.4596483  45.9781480
  33.8773944  57.3973611  38.6150453  33.9957512  57.8550074  37.8817755
  33.7036120  56.5918872  38.3286670  33.8693115  57.3467383  38.4651386
  27.2828996  66.2085840  41.5898434  26.4925071  66.0277300  41.9115770
  27.6789619  65.4312792  41.5728728  27.2245872  66.0673301  41.6350982
  31.7694887  75.0373614  27.0305147  32.5367872  75.0973739  26.6210999
  31.3226196  74.4654055  26.5461466  31.8168314  74.9610190  26.8982858
  32.6672682  73.8428270  39.3157880  31.9917684  73.6113502  39.8171267
  32.6765058  73.2349453  38.6899985  32.5691187  73.7187195  39.2974032
  29.7966826  68.6846099  46.0721933  29.7325967  69.5456055  45.9442069
  29.9364014  68.3678092  45.2717484  29.8082296  68.7646265  45.9350146
  34.6689417  76.6993402  31.5468058  34.7509254  77.5060388  31.2229509
  35.1539159  76.7189361  32.2708831  34.7526575  76.8214065  31.6054956
  28.4785920  71.3778238  40.2138136  28.0548169  71.5782737  39.4777154
  28.3030775  70.5307086  40.3262435  28.3896801  71.2827020  40.1211826
  23.7668365  71.8730290  35.6466108  23.9232984  71.8077092  36.5022100
  24.1068958  72.6478842  35.4344788  23.8401600  71.9779488  35.7420702
  30.3047510  71.2488173  34.5159471  30.8463055  70.7458554  34.9798092
  30.6194069  71.1953368  33.7048957  30.4311907  71.1667594  34.4643283
  34.1764617  75.4590821  51.6286384  34.9899482  75.1875969  51.7891516
  34.0159583  75.1598361  50.8246580  34.2734566  75.3745747  51.5331789
  28.4733959  76.6405525  31.7999499  28.5426780  75.7820063  31.9392500
  29.2522415  76.8577406  31.4718524  28.5986810  76.5458389  31.7716657
  31.4536779  66.1424478  44.5681772  31.6678749  65.5035392  44.0145126
  30.8370678  66.5870302  44.1389634  31.3942108  66.1134621  44.4232203
  20.3402627  69.0565240  35.9626875  20.7201591  69.4749785  35.2987143
  19.7657991  69.6378696  36.2695719  20.3113951  69.2043099  35.9103616
  33.6175867  67.7513543  45.5065079  32.8052549  67.4439433  45.5878252
  34.0765802  67.2712543  46.0707791  33.5656252  67.6350035  45.6019673
  33.0281122  75.6293215  35.9542023  32.6695777  75.8007858  36.7306056
  32.5419833  76.0906421  35.3970022  32.9039819  75.7232186  35.9867292
  27.8169487  71.3092380  28.4942258  28.1062012  72.0857263  28.7685832
  27.9041286  70.7981112  29.1956757  27.8723743  71.3484299  28.6384756
  30.7129375  69.1573614  50.2893781  31.1829006  69.7815731  50.6761655
  30.7591255  68.4890590  50.8486996  30.7897250  69.1508295  50.4293853
  27.8700648  61.2630642  41.0142585  27.3539137  60.5710833  41.1394164
  27.3094577  61.9301419  40.9605184  27.7107161  61.2593899  41.0248651
  29.9392882  61.8023602  42.8435438  29.5524635  61.8272633  43.6248968
  29.4525819  61.2365280  42.3909954  29.8105391  61.7219353  42.8923341
  34.1885861  76.5197111  46.9009224  34.8265582  76.0257306  46.5671680
  33.5459953  76.4474511  46.3161451  34.1880088  76.4356119  46.7651579
  35.9142861  68.3686257  41.4675140  35.4870469  68.2812605  40.7123239
  35.2768914  68.4764032  42.0529984  35.7572468  68.3718917  41.4420581
  29.6050023  58.6890587  45.1345698  30.2343141  59.2250887  44.8566768
  29.7735886  58.5967946  45.9859263  29.7227818  58.7551950  45.2194226
  29.4063938  63.4761782  47.4072109  30.2337368  63.2046931  47.4630724
  29.4271784  64.2722624  47.7635927  29.5316788  63.5541536  47.4687292
  34.2440118  77.2116919  43.5414581  35.0332496  76.8605984  43.6616663
  34.4183716  78.0253308  43.2791215  34.3860399  77.2802776  43.5202449
  23.9833428  70.6225645  40.5942370  23.1421435  70.5229519  40.8021264
  24.1923436  71.3921125  40.9456690  23.8898121  70.7217688  40.6769685
  21.4608995  68.2445182  38.4227120  21.0665693  68.3188194  37.6477230
  20.9049112  68.6303128  38.9735482  21.3211807  68.3126956  38.3894780
  27.7950093  68.5507044  39.8439967  27.4913231  67.9963032  40.4450375
  27.0929514  68.7299254  39.3568002  27.6466303  68.4951826  39.8609673
  26.8516190  65.8607564  34.4084669  27.1275924  65.1426476  33.9962237
  27.4514859  66.4592484  34.2005775  26.9809455  65.8427935  34.3165430
  23.8742236  73.0169407  42.0134003  23.2830169  73.6578905  41.9837018
  24.6363260  73.4407024  41.9865302  23.8990497  73.1745246  42.0049150
  24.2702859  64.1771405  42.6802020  24.7304340  64.2510334  43.4177144
  24.3158966  64.9752659  42.3301842  24.3453414  64.3065552  42.7374777
  25.9186209  64.8438100  47.2474047  25.5271774  64.1971447  47.6829825
  26.0872071  65.4349535  47.8668303  25.8857119  64.8352368  47.4036753
  39.9932658  72.8475177  43.0111281  40.0515781  73.2961826  43.7571257
  39.3599125  73.2573990  42.5741361  39.9083953  72.9748911  43.0563829
  33.6331752  78.4678719  39.4466027  33.4351441  78.9569533  38.7522238
  33.0119463  78.6719960  40.0250161  33.5119317  78.5695257  39.4289250
  27.6939731  70.2363616  33.7876271  28.4381776  70.6237892  34.0259221
  27.8400427  69.3921041  33.9516759  27.8250316  70.1694088  33.8470241
  29.6119306  62.0313874  38.8208133  28.7655351  62.2036682  38.6949483
  29.6090439  61.2263218  39.1573961  29.4866456  61.9374903  38.8519260
  30.6817606  65.8089089  39.6870191  30.2077561  65.2830851  40.1975502
  31.0535742  65.2618562  39.1185052  30.6667495  65.6505085  39.6785338
  21.0590637  67.8060596  45.0553737  21.9216250  67.7056305  44.9691066
  20.7282420  67.2255305  44.4939309  21.1375833  67.7052222  44.9599142
  36.9454337  70.8691465  41.0976971  36.7052560  70.0297880  41.1019398
  37.4246344  70.9491631  41.8217745  36.9806521  70.7572864  41.2051774
  32.6101106  66.7025643  32.7495945  32.0824125  66.7854387  32.0601653
  33.0696814  67.4443515  32.7460589  32.6002957  66.8246306  32.6470640
  38.9459524  67.6492922  39.0506230  38.7069294  67.6088756  38.2127015
  39.1093425  68.4964074  39.1771951  38.9349828  67.7685007  38.9459712
  35.5505554  72.0342871  44.9811275  36.2739753  71.5815397  44.8022295
  35.2855517  72.3147537  44.1983603  35.6186827  72.0093840  44.8389991
  24.4192423  66.6303045  41.7164155  23.7945493  66.6421437  41.1090107
  24.0838017  67.1063220  42.3655395  24.2777914  66.7021562  41.7220723
  24.6034171  64.9728163  27.7736840  24.2546976  65.6247888  28.2368389
  24.1230617  64.9585276  27.0460711  24.4804415  65.0671217  27.7347931
  21.1318098  74.6903505  43.1567919  20.6018023  73.9995944  43.2062894
  21.4043191  74.6813690  42.3280628  21.0942820  74.5870636  43.0415335
  32.1638189  75.2729207  31.8805602  32.8872387  75.7387320  31.7370175
  31.7238780  75.3402817  31.1303199  32.2053881  75.3513044  31.7490383
  31.3324344  72.1326749  43.1306291  30.7181337  71.5884800  43.4254926
  31.8491629  71.6190986  42.6512107  31.3180006  71.9763158  43.1030519
  30.5720641  73.2031019  40.8650589  30.1448249  72.5780738  40.4316025
  30.5645585  72.9205941  41.6909596  30.5079782  73.0683800  40.9230417
  23.6883168  68.2396192  43.9339023  23.8476655  67.4839517  44.3390745
  23.5076062  68.7887132  44.5879761  23.6848527  68.2090006  44.0901729
  31.6303471  60.4057428  44.4889813  31.1344032  60.6021102  43.7981379
  32.3872533  60.8050096  44.3178614  31.6690296  60.4935162  44.3609949
  28.9006351  64.0799774  41.0793123  28.9248838  63.5459886  40.3905903
  29.1517824  63.5717083  41.7418714  28.9416269  63.9260678  41.0757768
  16.4113940  71.3631269  40.5136267  16.3057389  71.3178113  39.6488351
  15.6614160  71.7085049  40.7950552  16.2849543  71.4072177  40.4273597
  25.1807673  62.8070592  40.4598868  25.2206044  63.3079799  41.1733575
  24.3557337  62.8980986  40.1904791  25.0647199  62.8952408  40.5249406
  27.3637286  72.3731332  48.5619162  26.5132916  72.5103046  48.6976807
  27.5265413  71.6395110  49.0066864  27.2621149  72.2845433  48.6474761
  26.6022036  69.3231102  42.7572767  25.7713966  69.4904920  42.5508015
  26.5473553  68.9467053  43.5421652  26.4711451  69.2920833  42.8421295
  24.4105819  62.8139995  48.3929177  25.0358523  62.2702128  48.6658610
  23.9556299  62.3334912  47.8236968  24.4354080  62.6629476  48.3490771
  24.9758080  67.5986693  33.2862884  25.1161041  68.0959158  33.9891526
  25.4740613  66.8972988  33.4277098  25.0699161  67.5688672  33.4114463
  25.0058302  68.4653804  30.6155461  25.6403382  69.0614230  30.5504923
  25.0883913  68.1657262  31.4301331  25.1114853  68.5094713  30.7258548
  37.9840868  70.9969282  43.4841825  38.5758708  71.6366533  43.5160023
  38.4199863  70.2992319  43.7733892  38.1359299  70.9887632  43.5322658
  26.5837285  64.3967780  30.5900903  26.9053126  63.9170862  29.9360165
  26.8464229  65.2067426  30.3991715  26.6703311  64.4457678  30.4656395
  29.8134258  75.4186654  44.1099719  29.3059349  75.9722501  44.5540350
  29.5160904  75.4794944  43.2918494  29.6939143  75.5092965  44.0548176
  31.9796440  63.7839974  42.9524382  32.4051512  63.3312500  42.3407909
  31.3653433  63.2300045  43.2289170  31.9525086  63.6353950  42.9029407
  21.5111290  70.6621645  33.8845007  22.0203520  71.2586153  34.2656313
  21.9845563  70.3947619  33.2021427  21.6554666  70.7107461  33.8399530
  35.0090010  68.2114500  35.7844968  34.3381199  68.7544203  35.6558033
  35.7029760  68.6809356  35.5426663  35.0118877  68.3612772  35.7300495
  35.1718137  64.6670384  38.6935341  35.5245747  64.2400107  39.3681140
  34.3132938  64.5821228  38.8236417  35.0967582  64.5915125  38.8130351
  23.8701822  67.2977904  36.7518187  23.1513811  67.7142036  37.0191051
  24.2414184  67.8632143  36.2009826  23.8193754  67.4427185  36.7100994
  33.1701403  67.9305753  42.6420183  33.1499330  67.7489048  43.4954962
  33.2180604  68.8017771  42.6179767  33.1736044  68.0322291  42.7643478
  31.1147733  74.5192945  48.5668660  31.0743588  73.8742622  47.9813816
  31.9271051  74.4629562  48.8794072  31.2290886  74.4151912  48.5265609
  29.6448396  66.3375904  32.0891567  29.0513236  66.6592900  31.5376134
  29.6823674  65.4916999  31.8812673  29.5622785  66.2600232  31.9774338
  36.6042197  59.7888796  39.6219653  36.0973062  59.0817936  39.5540831
  37.4009631  59.4581985  39.7520730  36.6469436  59.6361947  39.6318648
  32.5206213  66.2955408  35.5193317  32.2919906  66.3188110  34.6771675
  32.7804289  65.4712875  35.6388328  32.5252401  66.1771488  35.4118515
  26.8025441  68.1489881  45.1218417  26.2904344  67.5411064  45.4803449
  26.6304938  68.8646474  45.5892393  26.7015078  68.1653181  45.2434641
  21.6491156  66.5927457  47.7720779  21.4793746  67.2528831  47.2268986
  21.2057106  66.8034018  48.4933268  21.5590490  66.7213439  47.7982409
  25.5750975  64.8331955  36.8147513  26.0508342  65.1949034  36.1797694
  25.0739575  65.4888422  37.0947656  25.5716334  64.9826143  36.7624254
  38.8062337  74.3053723  32.6060518  39.1895943  75.0545079  32.8358615
  38.0106450  74.5519542  32.3472507  38.7456119  74.4523416  32.6018091
  30.6794512  66.0714126  47.5620673  31.2365942  65.8427935  46.9299138
  30.3555577  66.8319792  47.2855885  30.7140922  66.1497963  47.4277170
  18.5493221  69.4974322  43.0309269  18.0019940  68.8274968  43.1490137
  19.3385599  69.1304170  43.0952736  18.5845404  69.3439309  43.0577970
  28.3977629  69.1581779  48.5272680  29.1488956  69.4733456  48.8412234
  28.5900205  68.9560950  47.7006602  28.5369043  69.1749161  48.4516076
  27.6177629  66.9773154  30.1820897  27.9976593  66.9952783  29.3972012
  26.8770225  67.4227143  30.0611744  27.5646466  67.0454929  30.0484465
  35.2462919  65.2855345  35.7696476  35.2457146  65.1304002  36.6280752
  35.0419099  66.1318333  35.7137861  35.2162697  65.3875966  35.8884415
  17.3080190  68.7095130  40.1855292  17.1301951  68.2571739  40.9110208
  17.0199212  69.5121291  40.3693770  17.2393143  68.7617688  40.3198795
  32.9703771  69.9652847  39.4232682  33.4657436  69.2475842  39.3836703
  32.1603547  69.6623645  39.3087169  32.9247664  69.8150494  39.4006408
  28.4162383  73.8150661  31.5729687  27.6073705  73.4917334  31.5262996
  28.9237292  73.1083883  31.5057935  28.3712049  73.6631977  31.5559981
  19.0452660  71.2422854  37.2977051  18.1798179  71.2308544  37.1859822
  19.1451476  71.0553077  38.1448190  18.9326827  71.2128915  37.4065996
  35.0355590  72.7156535  42.1109811  35.4610662  72.1930957  41.5580236
  34.6712510  73.3137372  41.5898434  35.0442193  72.7266762  41.9518821
  31.6234189  76.4290799  38.4410969  32.0945368  77.1431062  38.6100954
  31.9594368  75.8289549  38.9770838  31.7429305  76.4462263  38.5443345
  33.7111174  78.0392112  50.6203041  33.8208140  77.2500673  50.9759788
  34.0402071  77.9498049  49.8177379  33.7763580  77.9097965  50.5545431
  28.5403684  61.2018270  45.3969063  28.6731590  60.4049263  45.7250039
  28.9248837  61.7284673  45.9767339  28.6160013  61.1618186  45.5312566
  32.2608136  76.2208733  45.2038661  31.7129082  75.5966617  44.9358727
  32.7221165  76.4103005  44.4882741  32.2475345  76.1567783  45.0589092
  31.6136040  58.1248596  41.9950157  30.8082003  58.0146325  42.3117995
  31.4842775  58.2261051  41.1380022  31.4756172  58.1232266  41.9158197
  35.0702000  64.2894088  42.5889854  34.4864989  64.7903294  42.1767421
  35.3906294  63.7823644  41.9554177  35.0315175  64.2885923  42.4348361
  27.6096799  63.2034682  32.8648528  28.4312494  63.3732995  32.6230223
  27.1466450  63.3581943  32.1414826  27.6627962  63.2516415  32.7220173
  26.1992131  61.1977445  43.6446957  26.7436544  60.8568572  44.2351299
  26.2529067  62.0562906  43.7868242  26.2881251  61.2732704  43.7528831
  31.8266462  77.2259806  41.7348002  32.6464836  77.0822772  41.9964298
  31.5460540  77.8506005  42.2764440  31.9063205  77.2970158  41.8535942
  38.2255584  78.8179374  38.4234192  37.8958914  79.2690518  37.7537891
  37.5500586  78.7395538  38.9707199  38.0766020  78.8730509  38.4057416
  45.4331992  74.8064897  36.6683803  45.1185433  75.4968376  37.1004225
  44.9158934  74.7509679  35.9669304  45.3096462  74.8999786  36.6280752
  36.4311538  76.8791663  33.9057140  37.1857506  77.2469980  33.6674190
  36.2539073  77.2531217  34.6736320  36.5166017  76.9889851  33.9842029
  49.7246437  83.0286103  41.9504679  48.8874858  83.0988290  42.1852274
  49.6934668  83.0310598  41.0778982  49.5964719  83.0396330  41.8564227
  40.4668322  76.2888392  33.6384277  41.1954483  76.1104347  33.1922433
  40.5563215  77.1306472  33.8491455  40.5874984  76.3872271  33.6037795
  47.4054277  78.0928885  40.5348402  48.0480185  78.1626989  41.1210317
  47.6577297  77.4258108  40.0327944  47.5376409  78.0055233  40.5475681
  42.6405559  79.1865856  38.2459355  41.9361886  78.6975042  38.4043274
  42.6890534  79.1988331  37.3747799  42.5435611  79.1155504  38.1398695
  49.8435779  82.8673522  36.2660365  49.5872344  82.0553464  36.0758248
  50.6865093  82.8751089  36.0390553  49.9301804  82.7485520  36.2045182
  44.0238871  76.8073146  41.0036520  44.4049383  76.1251317  41.3904394
  43.2202156  76.5182748  40.8212184  43.9615333  76.6640195  41.0340575
  37.9830712  79.3127344  50.8699128  37.6684153  80.0826907  50.6068691
  37.6620644  78.7497600  50.2851355  37.8889631  79.3437613  50.7440478
  35.5362609  77.7017866  36.4845324  34.6685034  77.7740465  36.5502933
  35.8237813  78.5039945  36.6733299  35.4502357  77.8312013  36.5220091
  44.6595498  77.8495725  44.8156646  45.4049090  77.6605536  44.4020072
  44.2432802  78.3753963  44.2570502  44.7080472  77.8997871  44.6721219
  44.2577140  81.3792872  40.7526290  43.4188241  81.4054151  40.5164553
  44.3281507  82.0263608  41.3331637  44.1445534  81.4788998  40.8035407
  42.7046418  78.2778249  35.4853906  43.4072771  78.0785997  35.0073864
  42.4390607  77.5054192  35.7922750  42.7693051  78.1341215  35.4599348
  37.4674975  79.5413534  44.5384787  37.2758172  79.5568669  45.3884210
  38.3173571  79.7377209  44.5151442  37.5650696  79.5727886  44.6608081
  40.3779202  79.7369044  44.7456610  40.8351816  80.4693018  44.8729402
  40.4535530  79.3135509  45.5043866  40.4570171  79.7826282  44.8757686
  44.8506528  72.9158919  38.6150453  44.9690096  73.3735382  37.8817755
  44.6768703  72.1104180  38.3286670  44.8425699  72.8652691  38.4651386
  41.8184091  74.7709721  39.5569115  40.9477649  74.7448442  39.5102424
  42.0724433  74.5986913  38.7394960  41.7277651  74.7419865  39.4289251
  38.8433232  76.7815950  41.0142585  38.3271720  76.0896141  41.1394164
  38.2827161  77.4486727  40.9605184  38.6839745  76.7779207  41.0248651
  40.9125465  77.3208910  42.8435438  40.5257218  77.3457941  43.6248968
  40.4258403  76.7550588  42.3909954  40.7837974  77.2404661  42.8923341
  40.5782607  74.2075895  45.1345698  41.2075725  74.7436195  44.8566768
  40.7468470  74.1153254  45.9859263  40.6960402  74.2737258  45.2194226
  40.3796522  78.9947090  47.4072109  41.2069951  78.7232239  47.4630724
  40.4004368  79.7907932  47.7635927  40.5049372  79.0726844  47.4687292
  44.0706525  76.7411784  38.1030999  44.2756119  76.6734092  38.9487996
  43.7432949  77.5470605  38.0352177  44.0521773  76.8497724  38.2190654
  47.3240213  77.2943548  37.5833765  46.7114527  77.7813950  37.9687497
  47.4204388  76.6187039  38.1271416  47.2478111  77.2661857  37.7212623
  41.3259294  79.0506389  32.6831264  41.7803041  79.2216950  33.4079109
  41.7999340  78.4374500  32.2829040  41.4627614  78.9857274  32.7305026
  40.5851890  77.5499182  38.8208133  39.7387935  77.7221990  38.6949483
  40.5823022  76.7448526  39.1573961  40.4599040  77.4560211  38.8519260
  41.6550190  81.3274397  39.6870191  41.1810144  80.8016159  40.1975502
  42.0268326  80.7803870  39.1185052  41.6400079  81.1690393  39.6785338
  49.9192108  83.1678230  39.0506230  49.6801878  83.1274064  38.2127015
  50.0826009  84.0149382  39.1771951  49.9082411  83.2870315  38.9459712
  42.6036055  75.9242736  44.4889813  42.1076616  76.1206410  43.7981379
  43.3605117  76.3235404  44.3178614  42.6422879  76.0120470  44.3609949
  39.8738934  79.5985082  41.0793123  39.8981421  79.0645194  40.3905903
  40.1250408  79.0902391  41.7418714  39.9148853  79.4445986  41.0757768
  36.1540256  78.3255900  40.4598868  36.1938628  78.8265107  41.1733575
  35.3289921  78.4166294  40.1904791  36.0379782  78.4137716  40.5249406
  35.3838403  78.3325303  48.3929177  36.0091106  77.7887436  48.6658610
  34.9288883  77.8520220  47.8236968  35.4086664  78.1814784  48.3490771
  42.9529024  79.3025282  42.9524382  43.3784095  78.8497808  42.3407909
  42.3386017  78.7485352  43.2289170  42.9257669  79.1539258  42.9029407
  41.3923247  75.7740382  36.3614959  40.7491565  75.6238028  36.9300098
  41.0522654  75.5282727  35.5964064  41.2468324  75.7152504  36.3317974
  46.1450721  80.1855692  38.6935341  46.4978331  79.7585415  39.3681140
  45.2865522  80.1006536  38.8236417  46.0700165  80.1100433  38.8130351
  47.5774781  75.3074104  39.6219653  47.0705645  74.6003243  39.5540831
  48.3742214  74.9767293  39.7520730  47.6202020  75.1547255  39.6318648
  43.4938797  81.8140716  35.5193317  43.2652490  81.8373418  34.6771675
  43.7536873  80.9898183  35.6388328  43.4984985  81.6956796  35.4118515
  46.2195503  80.8040653  35.7696476  46.2189729  80.6489310  36.6280752
  46.0151683  81.6503640  35.7137861  46.1895281  80.9061274  35.8884415
  39.5136268  76.7203578  45.3969063  39.6464174  75.9234571  45.7250039
  39.8981421  77.2469981  45.9767339  39.5892597  76.6803494  45.5312566
  42.5868623  73.6433904  41.9950157  41.7814587  73.5331633  42.3117995
  42.4575359  73.7446359  41.1380022  42.4488756  73.6417574  41.9158197
  46.0434584  79.8079396  42.5889854  45.4597573  80.3088602  42.1767421
  46.3638878  79.3008952  41.9554177  46.0047759  79.8071231  42.4348361
  38.5829383  78.7219990  32.8648528  39.4045077  78.8918303  32.6230223
  38.1199034  78.8767251  32.1414826  38.6360545  78.7701723  32.7220173
  37.1724715  76.7162753  43.6446957  37.7169128  76.3753879  44.2351299
  37.2261651  77.5748214  43.7868242  37.2613834  76.7918012  43.7528831
  15.0733186  15.2646865  21.6330926  15.0427190  16.1191502  21.8049195
  15.6714534  14.9642158  22.1917069  15.1570344  15.3463362  21.7405728
   8.2732871  14.3522516  26.3883856   7.4170766  14.5131014  26.4392973
   8.3200524  13.4814580  26.4088917   8.1531982  14.2473318  26.3989922
   2.6574010  23.8885234  22.1521088   1.9056910  23.5100772  21.9237133
   3.1060022  23.9203667  21.4039898   2.6123677  23.8370841  22.0078590
  11.5826587  20.6209042  35.9944312  12.2893354  20.1261072  36.1231247
  11.7714523  21.0618123  35.2646970  11.7154493  20.6127392  35.9053358
   8.1098970  24.3110603  17.5806635   7.7750339  24.9887525  17.1450857
   8.6225841  23.9215915  16.9923506   8.1364551  24.3535182  17.4293426
   7.6503261  26.2624872  23.5217746   8.0342641  26.8311771  22.9822522
   7.5862403  25.5374382  23.0423562   7.6976689  26.2400335  23.3711609
  11.1184692  16.4114560  29.0315508  11.6640652  17.0899647  29.0909477
  11.0601568  16.2702021  28.1717089  11.1900606  16.4906562  28.9127568
   4.2358766  23.9003626  24.4183860   4.3369129  23.0903980  24.7280988
   3.6400512  23.8060572  23.7883539   4.1631305  23.7668654  24.3710099
  12.8949760  17.8399167  19.9049235  12.7789286  18.5906853  20.3341374
  13.6905647  17.5823120  20.1545323  12.9954350  17.9134014  20.0053327
   4.0759506  28.8181215  25.8198716   4.7196961  29.2594379  26.2094875
   4.4015762  28.0134641  25.7328975   4.2191335  28.7646410  25.8644193
   4.7780086  21.8293190  21.1918578   5.0995927  22.3698397  20.5879886
   5.4252182  21.2589961  21.3240868   4.9206141  21.8252365  21.1225613
   6.8281794  13.8309185  21.2752965   7.5261958  14.0097313  21.7674428
   7.1434126  13.3079524  20.6523354   6.9777131  13.7802957  21.2554975
   7.0169729  20.2179630  21.2632756   7.4563365  19.6096731  21.7087529
   6.8674392  19.8387003  20.4918221   7.0591195  20.0718101  21.2151923
   4.4841372  18.8123642  28.4651582   5.1290375  18.3196085  28.1462530
   4.7243149  18.9548428  29.2917660   4.6151957  18.7601084  28.5401115
   7.0227464  21.6578548  28.1158474   7.3050706  20.8629953  27.8945230
   7.7513624  22.1359135  28.1363535   7.1717027  21.6113145  28.0861489
  10.6179066  18.5706811  18.2163525  10.5330361  19.4267778  18.3613094
  11.1063449  18.2951135  18.8845684  10.6767963  18.6564133  18.3365607
  11.5497499  15.1891605  19.7161260  11.0208970  15.4051239  20.3758567
  12.0722519  15.8827744  19.6362230  11.5485952  15.3234742  19.8016860
  17.0045552  20.7637910  25.0894305  16.1743255  20.9748554  25.2527721
  16.9554804  19.9374964  24.8136588  16.8752287  20.6727516  25.0731670
   5.0655289  23.5941764  27.9242214   4.5482231  23.2349179  27.3203522
   5.7629681  23.0703939  27.9348281   5.0920871  23.4639452  27.8372473
   8.7218881  24.0436578  33.8858387   8.8102227  23.8562719  34.7336598
   9.1508594  23.3974008  33.4863234   8.7980984  23.9199586  33.9530139
   6.2889341  23.3267738  32.8676050   5.7260176  22.9140348  33.3915711
   7.0510365  23.2520644  33.2869193   6.3183790  23.2545139  33.0069050
   1.8485333  25.3165759  25.4712680   2.5505912  24.8017748  25.5285436
   1.7682816  25.6439911  26.2759555   1.9409093  25.2879985  25.5985472
  16.4999510  13.4108311  28.8844726  15.6627931  13.4810498  29.1192321
  16.4687741  13.4132805  28.0119029  16.3717793  13.4218538  28.7904274
   2.8964239  15.5541346  34.5993095   3.0684743  15.4447241  35.4478376
   3.4333597  16.1995752  34.3624287   3.0009243  15.6333348  34.6898192
   1.1736108  21.5072111  24.9798288   2.0125007  21.7395044  25.0272049
   1.2047877  20.6376423  24.9105323   1.3017826  21.4129058  24.9762932
   1.7988811  21.9272986  29.2811593   2.3387036  21.7844118  29.9514966
   1.1158757  22.3269737  29.6495620   1.7780965  21.9652657  29.4346015
  11.2229696  17.6063987  24.4756618  11.9787211  18.0395501  24.5145526
  11.3292020  16.9568757  25.0491254  11.3499867  17.5741471  24.5654643
  14.2609867  21.4337264  25.2259021  13.8245099  21.4374007  25.9817992
  13.9272783  22.1142763  24.7938598  14.1472487  21.5349720  25.2739853
   8.8338941  23.4745597  36.5502171   9.6179357  23.5876445  36.9157913
   8.6335535  22.6486734  36.7460857   8.9204966  23.3692317  36.6336557
  14.1807350   8.4751092  27.4688449  14.8233258   8.5449197  28.0550364
  14.4330371   7.8080315  26.9667991  14.3129482   8.3877441  27.4815728
   8.9909334  25.3855699  30.1968627   8.1924580  25.1455199  30.4542495
   9.4395346  25.4370092  30.9435674   8.9383945  25.3578090  30.3453551
  17.3954213  18.1518184  24.1178658  18.0570647  17.5908853  24.0174566
  16.7545625  17.6570215  24.4431349  17.3983081  17.9954593  24.1510998
   8.2831021  21.4488316  16.4259581   8.6982170  21.1173339  15.7344077
   7.4522951  21.2157218  16.2979718   8.2219030  21.3659572  16.3050429
   0.6765121  15.6517060  33.2239868   1.4005094  15.6370090  33.7104762
   0.7781258  16.3612415  32.7261836   0.7983331  15.7541763  33.2218655
  15.5109501  18.0085233  21.6960250  15.8417718  18.5412873  21.0900345
  16.0842589  18.0624120  22.3522201  15.6443180  18.0954801  21.7038032
   8.0510071  19.1316144  38.0888815   7.2583052  19.4459656  38.2741434
   8.1658998  19.3467613  37.2509599   7.9505481  19.2099981  37.9927150
  10.7241390  15.8550135  22.3783831  10.8188244  16.5939429  22.8323456
  10.1000233  15.4267611  22.8118395  10.6450420  15.9011456  22.5091978
   8.9793864  19.0336348  33.0274111   9.5532725  18.3963592  33.1822675
   8.9008667  19.0340430  32.1583769   9.0527099  18.9401459  32.9220522
   4.3357582  17.4659613  25.0795309   4.0776827  16.6331348  25.0526608
   4.3906065  17.6917226  24.2387809   4.3057360  17.3757384  24.9515446
   9.4158632   9.5688064  25.1799402   8.7114959   9.0797249  25.3383321
   9.4643607   9.5810538  24.3087846   9.3188684   9.4977712  25.0738741
   3.3092294  15.0197375  25.5660204   2.7341886  15.1789544  26.2024165
   2.9327971  14.3832785  25.1028654   3.1695107  14.9495188  25.5914762
   6.9765583  13.4920725  30.4252582   6.5880016  13.0674943  29.7704773
   6.3120281  13.7402874  30.9329609   6.8212511  13.4659446  30.4040450
  16.6188852  13.2495729  23.2000412  16.3625417  12.4375671  23.0098295
  17.4618166  13.2573297  22.9730599  16.7054878  13.1307727  23.1385229
  10.7991945   7.1895354  27.9376566  11.1802456   6.5073525  28.3244441
   9.9955229   6.9004956  27.7552231  10.7368406   7.0462402  27.9680622
   8.0804521  17.7219329  18.6229389   8.8945160  18.0134222  18.5112160
   8.0163663  17.0679192  18.0487682   8.1907260  17.6684524  18.5218226
  14.3014012  20.4045325  33.0358965  14.0652649  19.5733390  32.9171025
  14.9457240  20.3530933  33.6213809  14.3608682  20.2743013  33.1044858
   3.9512430  21.1940847  23.7501701   4.5886377  20.9552594  24.2953495
   4.3767501  21.3978006  23.0154862   4.1088596  21.1891857  23.7218858
  15.3250432  20.1889774  29.0987259  15.0196249  20.9217831  29.4600575
  14.6056648  19.7827704  28.8180045  15.1737774  20.2371507  29.1100396
   6.3333902  21.6713269  25.4295487   6.4072910  21.5088441  26.2837337
   7.1503408  21.8603459  25.1855969   6.4650260  21.6750012  25.5193513
  21.0252224  16.8282775  28.4255603  20.9576725  16.8478734  27.5558190
  21.0107887  17.6713102  28.6511274  21.0130981  16.9556510  28.3308080
  11.4348571   8.2317933  31.7496693  12.1802163   8.0427743  31.3360118
  11.0185875   8.7576171  31.1910549  11.4833545   8.2820078  31.6061266
   4.8738487  24.6348012  20.1608961   5.1636786  24.2436994  19.4368187
   5.6041968  24.8164717  20.6014236   5.0245371  24.6041826  20.1191768
  18.8110842  15.6027161  26.7002198  19.3618763  14.9695230  26.9399290
  18.7954957  16.1342554  27.3917702  18.8896038  15.5876109  26.8381056
   5.4633232  19.4365758  31.2462091   4.9644926  20.1481526  31.3246980
   6.2733457  19.7566425  31.2080254   5.5089339  19.5892607  31.2518660
   2.8144403  26.6115395  23.2269111   2.5944698  26.3212750  24.0195778
   2.5938925  25.9530350  22.6987023   2.7491997  26.4715103  23.2658019
   1.7261350  18.6988711  25.4924812   1.4374599  18.0726183  26.0270539
   2.5944698  18.6408999  25.5589493   1.8121602  18.5976256  25.5815767
  12.5139248  13.8423495  25.8106794  12.1704014  13.1213830  26.1614044
  12.6132290  13.6337346  24.9685152  12.4781291  13.7047698  25.7378474
   4.9812359  27.9844785  22.0099803   5.6336417  27.4521227  22.2390829
   4.2837967  27.6313437  22.3967677   4.9743077  27.8534308  22.1011971
   1.9293623  20.3383962  21.4167177   2.6839591  20.7197002  21.6302640
   1.3364236  20.7895106  21.8713874   1.9530337  20.4612790  21.5150056
  12.9752277  20.3049199  21.3530782  13.5410310  20.9642409  21.2689325
  12.3280180  20.6498897  21.8247184  12.9631033  20.4531140  21.4103539
   4.3900290  12.2946803  36.5424390   3.5800066  12.6004583  36.4314232
   4.8674977  13.0152385  36.6576974   4.3403769  12.4461404  36.5431461
   3.2491850  21.5092524  26.7907293   2.7272604  21.6492815  27.4759157
   3.6365870  20.7503188  26.9809410   3.2295551  21.4178048  26.9208369
   9.4458855  23.2487983  20.7767861   9.2045531  22.5155844  20.3694926
   9.6260188  23.7974840  20.1234195   9.4366479  23.2210374  20.6198084
   4.6758176  18.5396543  22.1888784   4.4800958  19.1471277  21.5949087
   4.8992521  17.8464487  21.7080458   4.6792817  18.5274068  22.0304864
   3.0736706  15.4251281  22.3069652   3.7959358  15.5892439  21.8473458
   2.5944698  16.1460946  22.2008992   3.1100436  15.5549510  22.2235266
  11.0330213  11.7615080  27.6866337  10.1941314  11.7876358  27.4504600
  11.1034581  12.4085815  28.2671684  10.9198607  11.8611205  27.7375454
   9.4799492   8.6600457  22.4193953  10.1825844   8.4608205  21.9413911
   9.2143680   7.8876399  22.7262796   9.5446124   8.5163423  22.3939394
  14.9087737  16.9683066  24.9727579  14.8221712  17.1238492  25.8262358
  14.4538217  17.6121142  24.5986984  14.8290994  17.0858821  25.0434686
   4.2428048   9.9235742  31.4724834   4.0511245   9.9390876  32.3224257
   5.0926644  10.1199416  31.4491488   4.3403770   9.9550093  31.5948128
   8.7813553  14.2893813  23.5953138   8.5348267  14.2089564  24.4289927
   9.1098676  13.5047281  23.4015666   8.7934797  14.1620079  23.6900661
  12.6761602  20.9977173  27.3839919  12.5375961  21.6958219  27.8888662
  11.8961600  20.8425829  27.0276101  12.5404829  21.0777339  27.4066194
  11.0139687  17.2973548  33.6362301  11.0087726  16.4253365  33.6404728
  11.7200681  17.4961717  33.1631757  11.1184691  17.1977422  33.5669337
   4.7410580  17.0250532  33.0076121   4.8853956  17.6051740  32.3719231
   5.0886229  17.4026829  33.7125976   4.8138042  17.1671236  33.0175116
   6.9130498  16.2240700  30.7901253   6.1653812  16.4171715  30.3849531
   7.0672023  15.3985920  30.5525374   6.8252925  16.1305812  30.6946659
   3.8138335  25.2153304  29.8737148   3.9627899  24.6556220  29.2210553
   4.5938338  25.2945306  30.2569667   3.9512429  25.1438869  29.8334097
  14.1714975  20.3555427  18.1456419  13.7921784  19.5692564  18.1385708
  13.5081220  20.9042284  18.0028063  14.0173450  20.3200251  18.1237216
   6.3391636  25.3867947  31.1521639   6.2635307  24.7176757  31.7072427
   6.2681495  26.0885735  31.6662305   6.3172243  25.3912854  31.3098487
   7.1532275  10.1191251  31.6796657   7.6104889  10.8515225  31.8069449
   7.2288604   9.6957716  32.4383912   7.2323245  10.1648489  31.8097733
   6.9961883  23.9068946  21.9845245   7.7611774  23.6378589  21.6627909
   6.8939973  23.4218956  22.7015308   7.0943378  23.7958510  22.0425073
   5.0314653  12.1093355  28.5238481   4.2410728  11.9284815  28.8455816
   5.4275276  11.3320308  28.5068775   4.9731529  11.9680816  28.5691029
  10.4158339  19.7435785  26.2497927   9.7403341  19.5121017  26.7511314
  10.4250715  19.1356968  25.6240032  10.3176844  19.6194710  26.2314079
   7.5452483  14.5853614  33.0061980   7.4811624  15.4463571  32.8782116
   7.6849671  14.2685607  32.2057531   7.5567953  14.6653781  32.8690192
  12.4175074  22.6000918  18.4808105  12.4994911  23.4067904  18.1569555
  12.9024816  22.6196877  19.2048878  12.5012231  22.7221580  18.5395003
   6.2271577  17.2785753  27.1478182   5.8033826  17.4790253  26.4117201
   6.0516432  16.4314601  27.2602482   6.1382458  17.1834535  27.0551873
   5.7283270  28.7936266  29.6099640   6.2179201  28.0947056  29.4275304
   5.1567503  28.4960136  30.1975697   5.7167800  28.6462490  29.6700681
   1.5154022  17.7737805  22.5806155   1.6718641  17.7084608  23.4362147
   1.8554615  18.5486357  22.3684835   1.5887257  17.8787003  22.6760749
   8.0533166  17.1495689  21.4499518   8.5948712  16.6466070  21.9138139
   8.3679726  17.0960883  20.6389003   8.1797564  17.0675109  21.3983330
  11.9250274  21.3598336  38.5626430  12.7385139  21.0883485  38.7231563
  11.7645240  21.0605876  37.7586626  12.0220222  21.2753262  38.4671836
   6.2219616  22.5413040  18.7339546   6.2912437  21.6827579  18.8732547
   7.0008071  22.7584921  18.4058571   6.3472466  22.4465904  18.7056704
   9.2022436  12.0431993  31.5021819   9.4164405  11.4042907  30.9485173
   8.5856335  12.4877817  31.0729680   9.1427765  12.0142137  31.3572250
  10.6127104  24.9650741  22.9476040  10.2206896  24.6617456  22.2298906
  10.7680176  25.8019831  22.7580993  10.5780694  25.0434578  22.8132537
  11.3661524  13.6521058  32.4405126  10.5538206  13.3446949  32.5218299
  11.8251458  13.1720058  33.0047838  11.3141909  13.5357551  32.5359720
  10.7766779  21.5300730  22.8882070  10.4181433  21.7015373  23.6646103
  10.2905489  21.9913936  22.3310069  10.6525475  21.6239701  22.9207339
   8.4615031  15.0581130  37.2233828   8.9314663  15.6823246  37.6101702
   8.5076912  14.3898105  37.7827043   8.5382907  15.0515810  37.3633900
  11.9371518  22.4204626  33.8349271  12.5751238  21.9264822  33.5011727
  11.2945609  22.3482027  33.2501498  11.9365744  22.3363635  33.6991626
  13.6628518  14.2693772  28.4015187  13.2356126  14.1820121  27.6463286
  13.0254571  14.3771548  28.9870031  13.5058125  14.2726432  28.3760628
   7.1549595   9.3769297  34.3412156   7.9823024   9.1054446  34.3970770
   7.1757441  10.1730139  34.6975974   7.2802445   9.4549052  34.4027339
  11.9925774  23.1124434  30.4754628  12.7818153  22.7613499  30.5956709
  12.1669372  23.9260823  30.2131262  12.1346056  23.1810292  30.4542496
   1.7319085  16.5233160  27.5282417   0.8907091  16.4237034  27.7361310
   1.9409093  17.2928640  27.8796737   1.6383777  16.6225203  27.6109732
  10.8459599   7.1233991  25.0371046  11.0509192   7.0556299  25.8828043
  10.5186023   7.9292812  24.9692224  10.8274847   7.2319932  25.1530701
   5.5435750  14.4514559  26.7780014   5.2398887  13.8970548  27.3790422
   4.8415171  14.6306769  26.2908048   5.3951960  14.3959342  26.7949720
   3.6054101  21.6664280  31.4852112   3.4974456  21.6766342  32.3514170
   3.8149882  22.4919060  31.2957066   3.6204212  21.7905355  31.5856204
  14.0993286   7.6765755  24.5173812  13.4867600   8.1636158  24.9027543
  14.1957461   7.0009246  25.0611463  14.0231184   7.6484064  24.6552670
   1.6227893  18.9176922  28.9474050   1.0315826  19.5586421  28.9177065
   2.3848916  19.3414540  28.9205349   1.6476153  19.0752761  28.9389197
   3.6671865  10.7445615  34.1814094   3.2757430  10.0978962  34.6169872
   3.8357728  11.3357050  34.8008350   3.6342776  10.7359883  34.3376800
  17.7418314  18.7482692  29.9451328  17.8001438  19.1969341  30.6911304
  17.1084782  19.1581505  29.5081408  17.6569609  18.8756427  29.9903876
  11.3817409  24.3686234  26.3806074  11.1837098  24.8577049  25.6862285
  10.7605120  24.5727476  26.9590207  11.2604973  24.4702772  26.3629297
   5.4425387  16.1371131  20.7216318   6.1867432  16.5245407  20.9599268
   5.5886084  15.2928556  20.8856806   5.5735972  16.0701604  20.7810288
   8.4303263  11.7096604  26.6210238   7.9563217  11.1838366  27.1315548
   8.8021399  11.1626077  26.0525099   8.4153152  11.5512601  26.6125385
  14.6939994  16.7698980  28.0317018  14.4538217  15.9305395  28.0359445
  15.1732001  16.8499147  28.7557792  14.7292177  16.6580380  28.1391820
  16.6945181  13.5500437  25.9846277  16.4554951  13.5096271  25.1467062
  16.8579082  14.3971589  26.1111998  16.6835484  13.6692522  25.8799759
  13.2991211  17.9350386  31.9151322  14.0225410  17.4822913  31.7362342
  13.0341173  18.2155052  31.1323650  13.3672484  17.9101355  31.7730038
   2.1678079  12.5310560  28.6504202   1.5431150  12.5428952  28.0430154
   1.8323674  13.0070735  29.2995442   2.0263571  12.6029077  28.6560770
   9.9123845  21.1736722  18.8145648  10.6358044  21.6394835  18.6710222
   9.4724436  21.2410332  18.0643245   9.9539538  21.2520559  18.6830430
   9.0810000  18.0334265  30.0646337   8.4666994  17.4892315  30.3594973
   9.5977285  17.5198501  29.5852154   9.0665663  17.8770674  30.0370566
   8.3206298  19.1038535  27.7990636   7.8933906  18.4788253  27.3656071
   8.3131242  18.8213456  28.6249643   8.2565439  18.9691315  27.8570464
   1.4368825  14.1403708  30.8679070   1.5962311  13.3847032  31.2730792
   1.2561718  14.6894647  31.5219808   1.4334184  14.1097521  31.0241776
   9.3789128   6.3064943  31.4229860   8.8829689   6.5028617  30.7321426
  10.1358190   6.7057612  31.2518661   9.4175952   6.3942677  31.2949996
   6.6492007   9.9807289  28.0133170   6.6734494   9.4467401  27.3245950
   6.9003481   9.4724598  28.6758761   6.6901926   9.8268193  28.0097815
   5.1122942  18.2738847  35.4959209   4.2618573  18.4110562  35.6316854
   5.2751070  17.5402626  35.9406911   5.0106806  18.1852949  35.5814808
   4.3507693  15.2238617  29.6912813   3.5199623  15.3912435  29.4848061
   4.2959210  14.8474568  30.4761699   4.2197108  15.1928349  29.7761341
  15.7326525  16.8976797  30.4181872  16.3244365  17.5374048  30.4500070
  16.1685519  16.1999834  30.7073939  15.8844956  16.8895148  30.4662705
   7.5619915  21.3194170  31.0439766   7.0545006  21.8730016  31.4880396
   7.2646561  21.3802459  30.2258540   7.4424800  21.4100481  30.9888223
   9.7282097   9.6847489  29.8864429  10.1537169   9.2320016  29.2747955
   9.1139090   9.1307560  30.1629216   9.7010742   9.5361465  29.8369454
  10.1727695  25.2357427  18.9743709   9.4557005  25.0618289  18.5090947
  10.8234433  25.0010000  18.4419196  10.1629546  25.1753220  18.8272927
  12.7575666  14.1122016  22.7185015  12.0866856  14.6551718  22.5898080
  13.4515417  14.5816871  22.4766709  12.7604534  14.2620287  22.6640542
   6.8062400  26.2518728  27.9496773   6.5828054  25.4937557  28.3180799
   6.3172243  26.2816749  27.2277213   6.7005849  26.1440952  27.8973514
  12.9203794  10.5677899  25.6275388  13.2731404  10.1407622  26.3021187
  12.0618595  10.4828743  25.7576464  12.8453238  10.4922640  25.7470398
   1.6187479  13.1985419  23.6858234   0.8999468  13.6149552  23.9531098
   1.9899841  13.7639658  23.1349872   1.5679411  13.3434701  23.6441041
  10.9187060  13.8313268  29.5760230  10.8984987  13.6496563  30.4295009
  10.9666260  14.7025287  29.5519814  10.9221701  13.9329806  29.6983525
   8.8633389  20.4200460  35.5008707   8.8229244  19.7750137  34.9153862
   9.6756708  20.3637077  35.8134119   8.9776543  20.3159427  35.4605656
   5.4540857  26.4719186  25.4033858   5.0401256  25.8093316  25.0137699
   6.1388231  26.6197045  24.8829552   5.4939229  26.3959844  25.2690355
   8.8206151  25.6309271  26.1557474   8.4222434  25.7411542  25.3878294
   8.2057371  25.8391337  26.7384034   8.6705040  25.6782839  26.1288773
  14.3527854   5.6896311  26.5559700  13.8458719   4.9825451  26.4880878
  15.1495288   5.3589500  26.6860777  14.3955093   5.5369463  26.5658695
  10.2691870  12.1962924  22.4533364  10.0405563  12.2195625  21.6111722
  10.5289946  11.3720391  22.5728375  10.2738058  12.0779003  22.3458562
   4.5511098  14.0497397  32.0558464   4.0390001  13.4418580  32.4143496
   4.3790594  14.7653989  32.5232440   4.4500735  14.0660696  32.1774688
   3.3236632  10.7339470  23.7487560   3.7993998  11.0956550  23.1137741
   2.8225232  11.3895937  24.0287702   3.3201991  10.8833659  23.6964301
  16.5547994  20.2061238  19.5400565  16.9381600  20.9552594  19.7698662
  15.7592107  20.4527058  19.2812554  16.4941776  20.3530932  19.5358138
   8.4280168  11.9721641  34.4960720   8.9851599  11.7435451  33.8639185
   8.1041234  12.7327307  34.2195932   8.4626579  12.0505478  34.3617217
   6.1463286  15.0589294  35.4612727   6.8974613  15.3740971  35.7752281
   6.3385862  14.8568465  34.6346649   6.2854700  15.0756676  35.3856123
  12.9948576  11.1862861  22.7036522  12.9942802  11.0311517  23.5620799
  12.7904756  12.0325848  22.6477908  12.9648354  11.2883482  22.8224462
  10.7189428  15.8660363  26.3572729  11.2143093  15.1483358  26.3176749
   9.9089204  15.5631160  26.2427216  10.6733321  15.7158009  26.3346455
   6.1648039  19.7158176  18.5069734   5.3559362  19.3924849  18.4603043
   6.6722948  19.0091398  18.4397982   6.1197706  19.5639492  18.4900028
  12.7841247  18.6164050  29.0449858  13.2096318  18.0938472  28.4920283
  12.4198167  19.2144888  28.5238481  12.7927849  18.6274277  28.8858868
   2.4195327  26.9128268  27.8047203   2.7341886  27.7264656  27.8124985
   2.8288740  26.5278486  28.4729363   2.5263425  26.9756970  27.9051295
   9.3719846  22.3298314  25.3751015   9.8431024  23.0438577  25.5441001
   9.7080025  21.7297065  25.9110885   9.4914961  22.3469779  25.4783391
  11.4596831  23.9399628  37.5543088  11.5693796  23.1508188  37.9099835
  11.7887727  23.8505564  36.7517426  11.5249237  23.8105481  37.4885478
  10.0093793  22.1216249  32.1378708   9.4614739  21.4974132  31.8698773
  10.4706821  22.3110521  31.4222787   9.9961002  22.0575299  31.9929139
  12.8187657  10.1901603  29.5229900  12.2350646  10.6910809  29.1107468
  13.1391951   9.6831159  28.8894224  12.7800832  10.1893438  29.3688408
   9.5752119  23.1267321  28.6688049  10.3950493  22.9830287  28.9304344
   9.2946197  23.7513520  29.2104487   9.6548862  23.1977673  28.7875989
  19.2465454  29.8707824  26.3883856  18.3903350  30.0316322  26.4392973
  19.2933108  28.9999888  26.4088917  19.1264566  29.7658626  26.3989922
  13.6306594  39.4070542  22.1521088  12.8789493  39.0286080  21.9237133
  14.0792605  39.4388975  21.4039898  13.5856261  39.3556149  22.0078590
  19.0831554  39.8295911  17.5806635  18.7482922  40.5072833  17.1450857
  19.5958424  39.4401223  16.9923506  19.1097135  39.8720490  17.4293426
  18.6235845  41.7810180  23.5217746  19.0075224  42.3497079  22.9822522
  18.5594986  41.0559690  23.0423562  18.6709272  41.7585643  23.3711609
  15.2091350  39.4188934  24.4183860  15.3101713  38.6089288  24.7280988
  14.6133095  39.3245880  23.7883539  15.1363889  39.2853962  24.3710099
  23.8682344  33.3584475  19.9049235  23.7521870  34.1092161  20.3341374
  24.6638230  33.1008428  20.1545323  23.9686933  33.4319322  20.0053327
  15.0492090  44.3366523  25.8198716  15.6929545  44.7779687  26.2094875
  15.3748345  43.5319949  25.7328975  15.1923918  44.2831718  25.8644193
   8.4056394  35.4409221  24.0436194   8.1706579  34.6076873  23.9368463
   8.5442035  35.7213886  23.2297395   8.3912057  35.3592724  23.9078549
  10.7046482  27.6094951  26.9420501  10.0851513  27.0187598  26.7730516
  10.6030345  28.2006386  26.3084825  10.5984157  27.6099034  26.8225491
  15.7512669  37.3478498  21.1918578  16.0728510  37.8883705  20.5879886
  16.3984766  36.7775269  21.3240868  15.8938724  37.3437673  21.1225613
  17.8014377  29.3494493  21.2752965  18.4994542  29.5282620  21.7674428
  18.1166710  28.8264832  20.6523354  17.9509715  29.2988265  21.2554975
  10.4315615  31.1547233  29.1864070  10.3074312  31.7409678  29.8213889
  11.0833899  30.6607429  29.4876345  10.5089264  31.1686037  29.3250000
  17.9902313  35.7364938  21.2632756  18.4295948  35.1282038  21.7087529
  17.8406976  35.3572311  20.4918221  18.0323778  35.5903409  21.2151923
  15.4573956  34.3308950  28.4651582  16.1022958  33.8381393  28.1462530
  15.6975733  34.4733736  29.2917660  15.5884541  34.2786392  28.5401115
  17.9960047  37.1763856  28.1158474  18.2783290  36.3815261  27.8945230
  18.7246208  37.6544443  28.1363535  18.1449611  37.1298453  28.0861489
  15.9741241  24.7186890  25.3574239  15.6444571  25.1698033  24.6877938
  15.2986243  24.6403053  25.9047246  15.8251677  24.7738025  25.3397462
  21.5911649  34.0892119  18.2163525  21.5062944  34.9453086  18.3613094
  22.0796033  33.8136443  18.8845684  21.6500547  34.1749441  18.3365607
  23.1817649  20.7072412  23.6023850  22.8671090  21.3975891  24.0344272
  22.6644590  20.6517195  22.9009351  23.0582119  20.8007301  23.5620799
  22.5230083  30.7076913  19.7161260  21.9941554  30.9236547  20.3758567
  23.0455102  31.4013052  19.6362230  22.5218536  30.8420050  19.8016860
  14.4129690  34.6040130  18.5168728  13.8286906  35.1090162  18.9234592
  14.0099786  34.3782517  17.7765320  14.2668994  34.6448378  18.4673754
   9.9673719  40.3194891  25.3192400   9.4841297  41.0445381  25.2951984
  10.7797037  40.6171021  25.4302558  10.0164467  40.4697245  25.3319679
  16.0387873  39.1127072  27.9242214  15.5214815  38.7534487  27.3203522
  16.7362264  38.5889246  27.9348281  16.0653454  38.9824760  27.8372473
  18.8706905  30.8505782  16.9937649  19.1102908  31.0583766  16.1812992
  19.1922746  30.0463291  17.1026594  18.9544063  30.7619883  16.8898202
  14.1797195  22.7799178  20.8397187  14.9343163  23.1477495  20.6014237
  14.0024730  23.1538732  21.6076367  14.2651673  22.8897366  20.9182075
  12.8217916  40.8351067  25.4712680  13.5238496  40.3203056  25.5285436
  12.7415399  41.1625219  26.2759555  12.9141677  40.8065293  25.5985472
  13.8696823  31.0726654  34.5993095  14.0417326  30.9632549  35.4478376
  14.4066180  31.7181060  34.3624287  13.9741827  31.1518656  34.6898192
  12.5354260  25.1869497  17.5375300  12.3529833  25.4041378  16.7116293
  13.3979873  25.3008510  17.5933914  12.6358849  25.2359395  17.4229787
  12.1468692  37.0257419  24.9798288  12.9857591  37.2580352  25.0272049
  12.1780461  36.1561731  24.9105323  12.2750409  36.9314366  24.9762932
  12.7721395  37.4458294  29.2811593  13.3119620  37.3029425  29.9514966
  12.0891341  37.8455045  29.6495620  12.7513549  37.4837965  29.4346015
  18.2153979  22.1895908  20.5724324  18.9440139  22.0111863  20.1262480
  18.3048872  23.0313987  20.7831502  18.3360641  22.2879786  20.5377841
   8.1758540  33.6658585  29.4346015   7.9096955  32.8497702  29.5937005
   8.1897104  33.7111741  28.5641530   8.1383262  33.5515490  29.3299497
  12.0816287  28.4643670  16.0497773  11.3674464  28.1781849  16.4620205
  12.5660255  28.8040295  16.6904160  12.0475650  28.4725319  16.2053408
  12.9257146  27.2036963  32.0813023  12.2328943  26.7333943  32.3273754
  13.5417473  26.9775268  32.6554730  12.9141676  27.1004095  32.2022175
  19.2563605  36.9673624  16.4259581  19.6714753  36.6358647  15.7344077
  18.4255534  36.7342526  16.2979718  19.1951613  36.8844880  16.3050429
   8.5851953  34.4517365  26.7157759   8.4027527  34.4264251  25.8630051
   9.3201622  34.9216302  26.7546668   8.6666017  34.5178727  26.5955678
  11.6497705  31.1702367  33.2239868  12.3737677  31.1555398  33.7104762
  11.7513842  31.8797723  32.7261836  11.7715914  31.2727071  33.2218655
  26.4842084  33.5270540  21.6960250  26.8150301  34.0598181  21.0900345
  27.0575172  33.5809428  22.3522201  26.6175763  33.6140109  21.7038032
  19.0242654  34.6501452  38.0888815  18.2315635  34.9644964  38.2741434
  19.1391582  34.8652920  37.2509599  18.9238065  34.7285289  37.9927150
  21.6973973  31.3735443  22.3783831  21.7920828  32.1124737  22.8323456
  21.0732817  30.9452919  22.8118395  21.6183004  31.4196764  22.5091978
   8.5522864  31.3310865  26.8656826   9.1296366  31.1947316  27.5049071
   7.8536925  30.8746649  27.1202410   8.5343885  31.2433131  26.9979115
  21.9496995  33.2184183  15.6120783  21.8677157  33.2886370  16.4775770
  22.5876715  33.7813927  15.4204523  22.0316832  33.3123154  15.7110732
  15.3090166  32.9844921  25.0795309  15.0509410  32.1516656  25.0526608
  15.3638649  33.2102534  24.2387809  15.2789944  32.8942692  24.9515446
  20.3891216  25.0873372  25.1799402  19.6847543  24.5982557  25.3383321
  20.4376190  25.0995846  24.3087846  20.2921268  25.0163020  25.0738741
  14.2824878  30.5382683  25.5660204  13.7074469  30.6974852  26.2024165
  13.9060554  29.9018093  25.1028654  14.1427690  30.4680496  25.5914762
  17.9498167  29.0106033  30.4252582  17.5612599  28.5860250  29.7704773
  17.2852865  29.2588182  30.9329609  17.7945094  28.9844754  30.4040450
   4.0281697  30.1822758  23.5804644   4.1141949  29.8054627  24.3618174
   4.6557494  29.8083204  23.1024603   4.1338248  30.0708240  23.6250122
  19.0537105  33.2404637  18.6229389  19.8677744  33.5319530  18.5112160
  18.9896246  32.5864500  18.0487682  19.1639844  33.1869832  18.5218226
  14.9245013  36.7126155  23.7501701  15.5618960  36.4737902  24.2953495
  15.3500085  36.9163314  23.0154862  15.0821179  36.7077165  23.7218858
   9.6157656  38.9514491  27.6336005   9.6561801  39.2229342  26.8055785
  10.1752180  39.4756399  28.0493793   9.7041002  39.0690246  27.5727893
  15.5647828  31.9328445  18.0876591  15.9492981  31.7136151  18.8393136
  15.3159449  32.7591390  18.2177667  15.5849901  32.0226591  18.2177667
  15.7316369  25.2134860  37.8039175  15.4169810  25.9834422  37.5408737
  15.4106301  24.6505116  37.2191402  15.6375288  25.2445128  37.6780525
  17.3066485  37.1898577  25.4295487  17.3805493  37.0273749  26.2837337
  18.1235991  37.3788767  25.1855969  17.4382844  37.1935320  25.5193513
  11.0672242  37.5356440  22.4589931  10.2410360  37.7818177  22.3324210
  11.1284233  37.4568521  23.3251989  10.9546409  37.5601389  22.5678875
  13.2848266  23.6025381  23.4185371  12.4170691  23.6747981  23.4842980
  13.5723470  24.4047460  23.6073346  13.1988014  23.7319528  23.4560138
  15.8471071  40.1533320  20.1608961  16.1369369  39.7622302  19.4368187
  16.5774552  40.3350025  20.6014236  15.9977955  40.1227134  20.1191768
  16.4365816  34.9551066  31.2462091  15.9377510  35.6666834  31.3246980
  17.2466040  35.2751733  31.2080254  16.4821923  35.1077915  31.2518660
  13.7876986  42.1300703  23.2269111  13.5677282  41.8398058  24.0195778
  13.5671508  41.4715658  22.6987023  13.7224581  41.9900411  23.2658019
  12.6993934  34.2174019  25.4924812  12.4107182  33.5911491  26.0270539
  13.5677282  34.1594307  25.5589493  12.7854186  34.1161564  25.5815767
  15.9544942  43.5030093  22.0099803  16.6069000  42.9706535  22.2390829
  15.2570551  43.1498745  22.3967677  15.9475660  43.3719616  22.1011971
  12.9026207  35.8569270  21.4167177  13.6572175  36.2382309  21.6302640
  12.3096820  36.3080414  21.8713874  12.9262921  35.9798098  21.5150056
  23.9484861  35.8234507  21.3530782  24.5142893  36.4827717  21.2689325
  23.3012764  36.1684205  21.8247184  23.9363617  35.9716448  21.4103539
  15.3632874  27.8132111  36.5424390  14.5532650  28.1189890  36.4314232
  15.8407561  28.5337693  36.6576974  15.3136353  27.9646712  36.5431461
  14.2224434  37.0277832  26.7907293  13.7005187  37.1678123  27.4759157
  14.6098454  36.2688496  26.9809410  14.2028135  36.9363356  26.9208369
  11.2115618  27.0783640  20.8602247  10.9240413  26.7084911  20.1234195
  11.8986086  27.5478496  20.5985952  11.2704515  27.0930610  20.7117323
  20.4191439  38.7673291  20.7767861  20.1778115  38.0341152  20.3694926
  20.5992772  39.3160148  20.1234195  20.4099063  38.7395682  20.6198084
  15.6490759  34.0581851  22.1888784  15.4533542  34.6656585  21.5949087
  15.8725105  33.3649795  21.7080458  15.6525400  34.0459376  22.0304864
  14.0469289  30.9436589  22.3069652  14.7691941  31.1077747  21.8473458
  13.5677282  31.6646254  22.2008992  14.0833020  31.0734818  22.2235266
  11.6976906  33.3494661  31.4123792  12.2098003  33.6278914  30.7632552
  11.4113249  34.0883955  31.7786605  11.7311769  33.4997015  31.3713670
  20.4532075  24.1785765  22.4193953  21.1558428  23.9793513  21.9413911
  20.1876264  23.4061707  22.7262796  20.5178707  24.0348731  22.3939394
   8.7843812  27.8564853  21.7087528   8.8859949  28.6591014  22.0368504
   9.5799699  27.6552189  21.4110609   8.9171718  27.9450752  21.7122884
  15.2160631  25.4421050  31.4724834  15.0243828  25.4576184  32.3224257
  16.0659227  25.6384724  31.4491488  15.3136353  25.4735401  31.5948128
   9.6007544  27.9712031  29.4508650   9.4593036  27.1195972  29.5753158
   9.8848108  28.0140692  28.6270856   9.6215390  27.8511781  29.3476274
  19.7546137  29.8079121  23.5953138  19.5080851  29.7274872  24.4289927
  20.0831260  29.0232589  23.4015666  19.7667380  29.6805387  23.6900661
  15.7143164  32.5435840  33.0076121  15.8586540  33.1237048  32.3719231
  16.0618813  32.9212137  33.7125976  15.7870625  32.6856544  33.0175116
  14.7870919  40.7338612  29.8737148  14.9360483  40.1741528  29.2210553
  15.5670921  40.8130613  30.2569667  14.9245013  40.6624177  29.8334097
  18.1264858  25.6376559  31.6796657  18.5837473  26.3700533  31.8069449
  18.2021187  25.2143024  32.4383912  18.2055828  25.6833797  31.8097733
  10.3697850  25.8842379  32.7686100   9.8340039  25.2722737  33.0846868
  10.4315614  26.4590515  33.4219767  10.2993482  25.8789307  32.9121527
  22.5992184  18.8166434  25.5490500  22.7175752  19.2742898  24.8157802
  22.4254360  18.0111695  25.2626717  22.5911355  18.7660206  25.3991433
  17.9694467  39.4254254  21.9845245  18.7344358  39.1563897  21.6627909
  17.8672557  38.9404264  22.7015308  18.0675962  39.3143818  22.0425073
  16.0047236  27.6278663  28.5238481  15.2143311  27.4470123  28.8455816
  16.4007859  26.8505616  28.5068775  15.9464113  27.4866124  28.5691029
  20.4913127  36.4566437  13.9645194  21.2586112  36.5166562  13.5551046
  20.0444436  35.8846879  13.4801513  20.5386554  36.3803013  13.8322905
  21.3890923  35.2621093  26.2497927  20.7135924  35.0306325  26.7511314
  21.3983299  34.6542276  25.6240032  21.2909427  35.1380018  26.2314079
  18.5185067  30.1038922  33.0061980  18.4544208  30.9648879  32.8782116
  18.6582254  29.7870915  32.2057531  18.5300537  30.1839089  32.8690192
  23.3907657  38.1186226  18.4808105  23.4727495  38.9253212  18.1569555
  23.8757399  38.1382185  19.2048878  23.4744815  38.2406888  18.5395003
  17.2004161  32.7971061  27.1478182  16.7766410  32.9975560  26.4117201
  17.0249016  31.9499909  27.2602482  17.1115041  32.7019843  27.0551873
  16.7015854  44.3121574  29.6099640  17.1911784  43.6132364  29.4275304
  16.1300086  44.0145444  30.1975697  16.6900384  44.1647798  29.6700681
  12.4886605  33.2923113  22.5806155  12.6451225  33.2269916  23.4362147
  12.8287199  34.0671665  22.3684835  12.5619840  33.3972311  22.6760749
  19.0265750  32.6680996  21.4499518  19.5681296  32.1651378  21.9138139
  19.3412309  32.6146191  20.6389003  19.1530147  32.5860417  21.3983330
  17.1952200  38.0598348  18.7339546  17.2645020  37.2012886  18.8732547
  17.9740655  38.2770229  18.4058571  17.3205050  37.9651212  18.7056704
  21.5859687  40.4836049  22.9476040  21.1939479  40.1802764  22.2298906
  21.7412760  41.3205139  22.7580993  21.5513277  40.5619886  22.8132537
   9.0620867  30.4758063  22.8966922   9.4419832  30.8942608  22.2327190
   8.4876232  31.0571519  23.2035766   9.0332192  30.6235922  22.8443663
  21.7499362  37.0486038  22.8882070  21.3914017  37.2200681  23.6646103
  21.2638073  37.5099244  22.3310069  21.6258059  37.1425009  22.9207339
  19.5669748  20.6717237  26.4909162  18.6963306  20.6455958  26.4442471
  19.8210089  20.4994429  25.6735007  19.4763308  20.6427380  26.3629298
  16.5387728  32.7285204  15.4282305  16.8280252  33.5050086  15.7025879
  16.6259526  32.2173935  16.1296804  16.5941984  32.7677122  15.5724802
  19.4347615  30.5766438  37.2233828  19.9047246  31.2008554  37.6101702
  19.4809495  29.9083413  37.7827043  19.5115491  30.5701118  37.3633900
  16.5918889  22.6823465  27.9482632  16.0757377  21.9903657  28.0734211
  16.0312817  23.3494242  27.8945231  16.4325402  22.6786723  27.9588698
  18.6611122  23.2216425  29.7775484  18.2742875  23.2465457  30.5589014
  18.1744059  22.6558104  29.3250001  18.5323631  23.1412176  29.8263388
  18.3268264  20.1083411  32.0685744  18.9561382  20.6443711  31.7906815
  18.4954126  20.0160770  32.9199310  18.4446058  20.1744773  32.1534272
  18.1282179  24.8954605  34.3412156  18.9555608  24.6239754  34.3970770
  18.1490025  25.6915447  34.6975974  18.2535029  24.9734360  34.4027339
  12.7051669  32.0418468  27.5282417  11.8639675  31.9422342  27.7361310
  12.9141676  32.8113948  27.8796737  12.6116361  32.1410511  27.6109732
  10.1827235  29.6638005  25.3567167   9.7883933  29.7381017  24.5817277
   9.6267352  30.0495951  25.9075529  10.0430048  29.7319780  25.3234827
  21.8192182  22.6419299  25.0371046  22.0241776  22.5741607  25.8828043
  21.4918606  23.4478120  24.9692224  21.8007430  22.7505239  25.1530701
  16.5168333  29.9699867  26.7780014  16.2131471  29.4155856  27.3790422
  15.8147754  30.1492077  26.2908048  16.3684543  29.9144650  26.7949720
  15.5734430  27.2800387  21.3424716  15.8494165  26.5619300  20.9302284
  16.1733100  27.8785307  21.1345822  15.7027695  27.2620758  21.2505477
  14.5786684  37.1849588  31.4852112  14.4707039  37.1951650  32.3514170
  14.7882466  38.0104368  31.2957066  14.5936795  37.3090663  31.5856204
  25.0725870  23.1951063  24.5173812  24.4600184  23.6821465  24.9027543
  25.1690045  22.5194554  25.0611463  24.9963768  23.1669372  24.6552670
  19.0744951  24.9513904  19.6171311  19.5288698  25.1224465  20.3419156
  19.5484997  24.3382015  19.2169087  19.2113271  24.8864790  19.6645073
  12.5960476  34.4362230  28.9474050  12.0048410  35.0771729  28.9177065
  13.3581500  34.8599848  28.9205349  12.6208737  34.5938069  28.9389197
  12.9921099  25.5964228  29.6142067  13.4522581  25.6703158  30.3517191
  13.0377206  26.3945482  29.2641888  13.0671654  25.7258375  29.6714824
  14.6404449  26.2630923  34.1814094  14.2490014  25.6164270  34.6169872
  14.8090312  26.8542358  34.8008350  14.6075359  26.2545191  34.3376800
  22.3549993  39.8871542  26.3806074  22.1569681  40.3762356  25.6862285
  21.7337704  40.0912783  26.9590207  22.2337557  39.9888080  26.3629297
  16.4157971  31.6556439  20.7216318  17.1600016  32.0430715  20.9599268
  16.5618667  30.8113864  20.8856806  16.5468556  31.5886912  20.7810288
  18.3337546  23.4506698  25.7548180  17.4873591  23.6229505  25.6289529
  18.3308679  22.6456041  26.0914008  18.2084696  23.3567727  25.7859307
  19.4035847  27.2281912  26.6210238  18.9295801  26.7023674  27.1315548
  19.7753983  26.6811385  26.0525099  19.3885736  27.0697909  26.6125385
   9.7808877  29.2253419  31.9893783  10.6434490  29.1249128  31.9031113
   9.4500660  28.6448128  31.4279355   9.8594073  29.1245046  31.8939189
  21.3319346  28.1218467  19.6835991  20.8042365  28.2047211  18.9941700
  21.7915055  28.8636338  19.6800636  21.3221197  28.2439129  19.5810687
  13.1410663  28.0495868  28.6504202  12.5163733  28.0614260  28.0430154
  12.8056258  28.5256043  29.2995442  12.9996155  28.1214385  28.6560770
  13.3252412  26.3920986  14.7076887  12.9765216  27.0440712  15.1708436
  12.8448857  26.3778099  13.9800758  13.2022656  26.4864040  14.6687978
   9.8536338  36.1096328  30.0907966   9.3236263  35.4188767  30.1402941
  10.1261432  36.1006513  29.2620674   9.8161061  36.0063460  29.9755382
  20.8856429  36.6922030  18.8145648  21.6090628  37.1580143  18.6710222
  20.4457020  36.7595640  18.0643245  20.9272121  36.7705867  18.6830430
  19.2938881  34.6223843  27.7990636  18.8666489  33.9973561  27.3656071
  19.2863826  34.3398764  28.6249643  19.2298022  34.4876623  27.8570464
  12.4101408  29.6589016  30.8679070  12.5694895  28.9032340  31.2730792
  12.2294302  30.2079955  31.5219808  12.4066767  29.6282829  31.0241776
  20.3521711  21.8250251  31.4229860  19.8562273  22.0213925  30.7321426
  21.1090773  22.2242919  31.2518661  20.3908536  21.9127985  31.2949996
  17.6224591  25.4992597  28.0133170  17.6467078  24.9652709  27.3245950
  17.8736064  24.9909906  28.6758761  17.6634510  25.3453501  28.0097815
   5.1332181  32.7824092  27.4476314   5.0275630  32.7370936  26.5828398
   4.3832401  33.1277873  27.7290599   5.0067784  32.8265000  27.3613644
  13.9025913  24.2263415  27.3938914  13.9424285  24.7272622  28.1073622
  13.0775578  24.3173809  27.1244837  13.7865439  24.3145232  27.4589453
  16.0855526  33.7924155  35.4959209  15.2351157  33.9295870  35.6316854
  16.2483654  33.0587934  35.9406911  15.9839390  33.7038257  35.5814808
  15.3240277  30.7423925  29.6912813  14.4932206  30.9097743  29.4848061
  15.2691794  30.3659876  30.4761699  15.1929691  30.7113656  29.7761341
  13.1324060  24.2332818  35.3269224  13.7576763  23.6894951  35.5998656
  12.6774540  23.7527736  34.7577014  13.1572320  24.0822299  35.2830818
  13.6976320  29.0179517  20.2202931  13.8379281  29.5151981  20.9231572
  14.1958853  28.3165811  20.3617145  13.7917401  28.9881495  20.3454510
  13.7276543  29.8846628  17.5495508  14.3621622  30.4807053  17.4844970
  13.8102154  29.5850085  18.3641378  13.8333094  29.9287536  17.6598594
  15.3055526  25.8160603  17.5240950  15.6271367  25.3363686  16.8700212
  15.5682469  26.6260249  17.3331762  15.3921551  25.8650501  17.3996442
  18.5352498  36.8379477  31.0439766  18.0277589  37.3915324  31.4880396
  18.2379145  36.8987767  30.2258540  18.4157383  36.9285789  30.9888223
  10.2329531  32.0814468  20.8185054  10.7421760  32.6778976  21.1996359
  10.7063803  31.8140442  20.1361474  10.3772906  32.1300284  20.7739577
  21.1460279  40.7542735  18.9743709  20.4289588  40.5803597  18.5090947
  21.7967016  40.5195307  18.4419196  21.1362129  40.6938528  18.8272927
  19.1408903  21.6747897  23.2955006  18.4977221  21.5245543  23.8640144
  18.8008310  21.4290242  22.5304111  18.9953981  21.6160019  23.2658021
  17.7794984  41.7704036  27.9496773  17.5560638  41.0122865  28.3180799
  17.2904827  41.8002057  27.2277213  17.6738433  41.6626260  27.8973514
  23.8936377  26.0863207  25.6275388  24.2463987  25.6592930  26.3021187
  23.0351179  26.0014051  25.7576464  23.8185822  26.0107948  25.7470398
  12.5920062  28.7170727  23.6858234  11.8732051  29.1334860  23.9531098
  12.9632425  29.2824966  23.1349872  12.5411994  28.8620008  23.6441041
  16.4273441  41.9904494  25.4033858  16.0133839  41.3278624  25.0137699
  17.1120815  42.1382353  24.8829552  16.4671812  41.9145152  25.2690355
  19.7938735  41.1494579  26.1557474  19.3955018  41.2596849  25.3878294
  19.1789954  41.3576645  26.7384034  19.6437624  41.1968147  26.1288773
  18.3666637  27.7568727  19.0231614  17.7731476  28.0785723  18.4716181
  18.4041914  26.9109822  18.8152720  18.2841026  27.6793055  18.9114385
  25.3260437  21.2081619  26.5559700  24.8191302  20.5010759  26.4880878
  26.1227871  20.8774808  26.6860777  25.3687677  21.0554771  26.5658695
  21.2424453  27.7148231  22.4533364  21.0138146  27.7380933  21.6111722
  21.5022529  26.8905698  22.5728375  21.2470641  27.5964311  22.3458562
  15.5243682  29.5682704  32.0558464  15.0122585  28.9603887  32.4143496
  15.3523178  30.2839297  32.5232440  15.4233319  29.5846004  32.1774688
  10.3709396  28.0120280  34.7060826  10.2011987  28.6721655  34.1609033
   9.9275346  28.2226841  35.4273315  10.2808730  28.1406262  34.7322455
  14.2969216  26.2524778  23.7487560  14.7726582  26.6141858  23.1137741
  13.7957815  26.9081245  24.0287702  14.2934575  26.4018966  23.6964301
  27.5280577  35.7246546  19.5400565  27.9114183  36.4737902  19.7698662
  26.7324691  35.9712365  19.2812554  27.4674360  35.8716240  19.5358138
  19.4012752  27.4906949  34.4960720  19.9584182  27.2620759  33.8639185
  19.0773817  28.2512615  34.2195932  19.4359162  27.5690786  34.3617217
   7.2711461  30.9167145  29.9649316   6.7238180  30.2467791  30.0830184
   8.0603839  30.5496993  30.0292783   7.3063645  30.7632132  29.9918016
  17.1195869  30.5774602  35.4612727  17.8707196  30.8926279  35.7752281
  17.3118446  30.3753773  34.6346649  17.2587283  30.5941984  35.3856123
  16.3395869  28.3965978  17.1160944  16.7194834  28.4145607  16.3312058
  15.5988465  28.8419966  16.9951791  16.2864707  28.4647752  16.9824512
  23.9681159  26.7048169  22.7036522  23.9675386  26.5496825  23.5620799
  23.7637340  27.5511156  22.6477908  23.9380937  26.8068789  22.8224462
   6.0298430  30.1287953  27.1195339   5.8520192  29.6764562  27.8450254
   5.7417453  30.9314115  27.3033816   5.9611384  30.1810511  27.2538842
  17.1380623  35.2343484  18.5069734  16.3291946  34.9110157  18.4603043
  17.6455532  34.5276706  18.4397982  17.0930290  35.0824800  18.4900028
   7.7670900  32.6615677  24.2317098   6.9016420  32.6501367  24.1199869
   7.8669716  32.4745900  25.0788237   7.6545067  32.6321738  24.3406042
  20.3452430  37.8483622  25.3751015  20.8163608  38.5623885  25.5441001
  20.6812608  37.2482372  25.9110885  20.4647545  37.8655087  25.4783391
  17.2621925  22.6211093  32.3309110  17.3949830  21.8242086  32.6590086
  17.6467078  23.1477496  32.9107386  17.3378254  22.5811010  32.4652613
  20.3354280  19.5441419  28.9290203  19.5300244  19.4339149  29.2458042
  20.2061015  19.6453875  28.0720069  20.1974413  19.5425089  28.8498244
  16.3315040  24.6227506  19.7988575  17.1530734  24.7925819  19.5570270
  15.8684691  24.7774767  19.0754873  16.3846202  24.6709239  19.6560219
  14.9210372  22.6170268  30.5787004  15.4654785  22.2761395  31.1691346
  14.9747307  23.4755730  30.7208289  15.0099491  22.6925527  30.6868877
  10.7340930  36.3786684  27.4525812  11.3385788  36.3382518  26.8239633
  10.5268243  37.2257836  27.4829868  10.7929828  36.4974686  27.3641928
   5.9692213  35.3621302  27.3224735   5.8716491  34.5517573  27.6314792
   6.7521082  35.3413095  26.9371003   6.0708349  35.2388392  27.3111598
  37.0198353  46.3017481  21.6330926  36.9892357  47.1562118  21.8049195
  37.6179702  46.0012773  22.1917069  37.1035511  46.3833977  21.7405728
  30.2198038  45.3893132  26.3883856  29.3635933  45.5501630  26.4392973
  30.2665691  44.5185196  26.4088917  30.0997149  45.2843934  26.3989922
  24.6039177  54.9255850  22.1521088  23.8522077  54.5471388  21.9237133
  25.0525189  54.9574283  21.4039898  24.5588844  54.8741457  22.0078590
  30.0564137  55.3481219  17.5806635  29.7215506  56.0258141  17.1450857
  30.5691008  54.9586530  16.9923506  30.0829718  55.3905797  17.4293426
  29.5968429  57.2995488  23.5217746  29.9807808  57.8682387  22.9822522
  29.5327570  56.5744998  23.0423562  29.6441856  57.2770951  23.3711609
  33.0649859  47.4485176  29.0315508  33.6105819  48.1270262  29.0909477
  33.0066735  47.3072637  28.1717089  33.1365773  47.5277177  28.9127568
  26.1823934  54.9374242  24.4183860  26.2834296  54.1274596  24.7280988
  25.5865679  54.8431188  23.7883539  26.1096472  54.8039270  24.3710099
  34.8414927  48.8769783  19.9049235  34.7254453  49.6277469  20.3341374
  35.6370814  48.6193736  20.1545323  34.9419517  48.9504630  20.0053327
  26.0224673  59.8551831  25.8198716  26.6662129  60.2964995  26.2094875
  26.3480929  59.0505257  25.7328975  26.1656502  59.8017026  25.8644193
  19.3788978  50.9594528  24.0436194  19.1439162  50.1262181  23.9368463
  19.5174619  51.2399194  23.2297395  19.3644640  50.8778032  23.9078549
  21.6779065  43.1280259  26.9420501  21.0584097  42.5372906  26.7730516
  21.5762929  43.7191694  26.3084825  21.5716741  43.1284342  26.8225491
  26.7245253  52.8663806  21.1918578  27.0461094  53.4069013  20.5879886
  27.3717349  52.2960577  21.3240868  26.8671308  52.8622981  21.1225613
  28.7746961  44.8679801  21.2752965  29.4727126  45.0467928  21.7674428
  29.0899293  44.3450140  20.6523354  28.9242298  44.8173573  21.2554975
  21.4048198  46.6732541  29.1864070  21.2806895  47.2594986  29.8213889
  22.0566483  46.1792736  29.4876345  21.4821848  46.6871345  29.3250000
  28.9634896  51.2550246  21.2632756  29.4028532  50.6467346  21.7087529
  28.8139559  50.8757619  20.4918221  29.0056362  51.1088717  21.2151923
  26.4306539  49.8494258  28.4651582  27.0755542  49.3566701  28.1462530
  26.6708316  49.9919044  29.2917660  26.5617124  49.7971700  28.5401115
  28.9692631  52.6949164  28.1158474  29.2515874  51.9000569  27.8945230
  29.6978791  53.1729751  28.1363535  29.1182194  52.6483760  28.0861489
  26.9473825  40.2372198  25.3574239  26.6177155  40.6883341  24.6877938
  26.2718826  40.1588361  25.9047246  26.7984261  40.2923333  25.3397462
  32.5644233  49.6077427  18.2163525  32.4795528  50.4638394  18.3613094
  33.0528616  49.3321751  18.8845684  32.6233130  49.6934749  18.3365607
  33.4962666  46.2262221  19.7161260  32.9674138  46.4421855  20.3758567
  34.0187686  46.9198360  19.6362230  33.4951119  46.3605358  19.8016860
  25.3862274  50.1225438  18.5168728  24.8019489  50.6275469  18.9234592
  24.9832369  49.8967825  17.7765320  25.2401578  50.1633686  18.4673754
  27.0120457  54.6312380  27.9242214  26.4947398  54.2719795  27.3203522
  27.7094848  54.1074554  27.9348281  27.0386038  54.5010068  27.8372473
  29.8439488  46.3691090  16.9937649  30.0835492  46.5769074  16.1812992
  30.1655329  45.5648599  17.1026594  29.9276646  46.2805191  16.8898202
  25.1529779  38.2984486  20.8397187  25.9075747  38.6662803  20.6014237
  24.9757313  38.6724040  21.6076367  25.2384257  38.4082674  20.9182075
  23.7950500  56.3536375  25.4712680  24.4971079  55.8388364  25.5285436
  23.7147983  56.6810526  26.2759555  23.8874260  56.3250601  25.5985472
  23.5086843  40.7054805  17.5375300  23.3262416  40.9226686  16.7116293
  24.3712456  40.8193818  17.5933914  23.6091433  40.7544703  17.4229787
  23.1201275  52.5442727  24.9798288  23.9590175  52.7765660  25.0272049
  23.1513044  51.6747039  24.9105323  23.2482993  52.4499674  24.9762932
  23.7453978  52.9643602  29.2811593  24.2852203  52.8214733  29.9514966
  23.0623925  53.3640353  29.6495620  23.7246132  53.0023273  29.4346015
  29.1886562  37.7081216  20.5724324  29.9172723  37.5297171  20.1262480
  29.2781455  38.5499295  20.7831502  29.3093225  37.8065094  20.5377841
  19.1491123  49.1843893  29.4346015  18.8829539  48.3683010  29.5937005
  19.1629687  49.2297049  28.5641530  19.1115846  49.0700798  29.3299497
  23.0548870  43.9828978  16.0497773  22.3407047  43.6967157  16.4620205
  23.5392839  44.3225603  16.6904160  23.0208234  43.9910627  16.2053408
  30.2296188  52.4858932  16.4259581  30.6447337  52.1543955  15.7344077
  29.3988118  52.2527834  16.2979718  30.1684197  52.4030187  16.3050429
  19.5584537  49.9702673  26.7157759  19.3760110  49.9449559  25.8630051
  20.2934206  50.4401610  26.7546668  19.6398601  50.0364035  26.5955678
  22.6230289  46.6887675  33.2239868  23.3470261  46.6740706  33.7104762
  22.7246425  47.3983031  32.7261836  22.7448498  46.7912379  33.2218655
  32.6706557  46.8920751  22.3783831  32.7653411  47.6310045  22.8323456
  32.0465401  46.4638227  22.8118395  32.5915587  46.9382072  22.5091978
  19.5255447  46.8496173  26.8656826  20.1028950  46.7132624  27.5049071
  18.8269509  46.3931957  27.1202410  19.5076469  46.7618439  26.9979115
  32.9229578  48.7369491  15.6120783  32.8409741  48.8071678  16.4775770
  33.5609299  49.2999235  15.4204523  33.0049416  48.8308462  15.7110732
  26.2822749  48.5030229  25.0795309  26.0241994  47.6701964  25.0526608
  26.3371232  48.7287842  24.2387809  26.2522527  48.4128000  24.9515446
  31.3623800  40.6058680  25.1799402  30.6580126  40.1167865  25.3383321
  31.4108774  40.6181154  24.3087846  31.2653851  40.5348328  25.0738741
  25.2557462  46.0567991  25.5660204  24.6807053  46.2160160  26.2024165
  24.8793138  45.4203400  25.1028654  25.1160274  45.9865804  25.5914762
  28.9230750  44.5291341  30.4252582  28.5345183  44.1045558  29.7704773
  28.2585449  44.7773490  30.9329609  28.7677678  44.5030062  30.4040450
  38.5654019  44.2866345  23.2000412  38.3090584  43.4746287  23.0098295
  39.4083333  44.2943912  22.9730599  38.6520045  44.1678343  23.1385229
  15.0014281  45.7008066  23.5804644  15.0874532  45.3239934  24.3618174
  15.6290078  45.3268512  23.1024603  15.1070831  45.5893548  23.6250122
  32.7457112  38.2265969  27.9376566  33.1267624  37.5444140  28.3244441
  31.9420396  37.9375571  27.7552231  32.6833574  38.0833018  27.9680622
  30.0269689  48.7589945  18.6229389  30.8410327  49.0504838  18.5112160
  29.9628830  48.1049808  18.0487682  30.1372428  48.7055140  18.5218226
  25.8977597  52.2311463  23.7501701  26.5351544  51.9923210  24.2953495
  26.3232668  52.4348622  23.0154862  26.0553763  52.2262473  23.7218858
  20.5890239  54.4699799  27.6336005  20.6294384  54.7414650  26.8055785
  21.1484763  54.9941707  28.0493793  20.6773585  54.5875554  27.5727893
  26.5380412  47.4513752  18.0876591  26.9225565  47.2321459  18.8393136
  26.2892032  48.2776698  18.2177667  26.5582484  47.5411899  18.2177667
  28.2799069  52.7083885  25.4295487  28.3538077  52.5459057  26.2837337
  29.0968575  52.8974075  25.1855969  28.4115427  52.7120628  25.5193513
  22.0404825  53.0541748  22.4589931  21.2142943  53.3003485  22.3324210
  22.1016817  52.9753829  23.3251989  21.9278992  53.0786697  22.5678875
  24.2580849  39.1210689  23.4185371  23.3903275  39.1933289  23.4842980
  24.5456054  39.9232768  23.6073346  24.1720597  39.2504836  23.4560138
  26.8203654  55.6718628  20.1608961  27.1101953  55.2807610  19.4368187
  27.5507135  55.8535333  20.6014236  26.9710539  55.6412442  20.1191768
  24.7609570  57.6486011  23.2269111  24.5409865  57.3583365  24.0195778
  24.5404092  56.9900966  22.6987023  24.6957164  57.5085719  23.2658019
  23.6726517  49.7359327  25.4924812  23.3839766  49.1096799  26.0270539
  24.5409865  49.6779615  25.5589493  23.7586769  49.6346872  25.5815767
  26.9277526  59.0215401  22.0099803  27.5801584  58.4891843  22.2390829
  26.2303134  58.6684053  22.3967677  26.9208244  58.8904924  22.1011971
  23.8758791  51.3754578  21.4167177  24.6304759  51.7567617  21.6302640
  23.2829403  51.8265722  21.8713874  23.8995504  51.4983406  21.5150056
  34.9217444  51.3419815  21.3530782  35.4875477  52.0013025  21.2689325
  34.2745348  51.6869513  21.8247184  34.9096201  51.4901756  21.4103539
  25.1957017  52.5463140  26.7907293  24.6737771  52.6863431  27.4759157
  25.5831038  51.7873804  26.9809410  25.1760718  52.4548664  26.9208369
  22.1848201  42.5968948  20.8602247  21.8972997  42.2270219  20.1234195
  22.8718669  43.0663804  20.5985952  22.2437099  42.6115918  20.7117323
  26.6223343  49.5767159  22.1888784  26.4266125  50.1841893  21.5949087
  26.8457688  48.8835103  21.7080458  26.6257984  49.5644684  22.0304864
  25.0201873  46.4621897  22.3069652  25.7424525  46.6263055  21.8473458
  24.5409866  47.1831561  22.2008992  25.0565604  46.5920126  22.2235266
  32.9795380  42.7985695  27.6866337  32.1406481  42.8246974  27.4504600
  33.0499748  43.4456431  28.2671684  32.8663774  42.8981821  27.7375454
  22.6709490  48.8679969  31.4123792  23.1830586  49.1464222  30.7632552
  22.3845832  49.6069263  31.7786605  22.7044353  49.0182323  31.3713670
  31.4264659  39.6971072  22.4193953  32.1291012  39.4978821  21.9413911
  31.1608847  38.9247015  22.7262796  31.4911291  39.5534038  22.3939394
  19.7576396  43.3750161  21.7087528  19.8592532  44.1776322  22.0368504
  20.5532283  43.1737497  21.4110609  19.8904301  43.4636060  21.7122884
  30.7278720  45.3264429  23.5953138  30.4813435  45.2460180  24.4289927
  31.0563843  44.5417897  23.4015666  30.7399964  45.1990695  23.6900661
  34.6226769  52.0347789  27.3839919  34.4841128  52.7328834  27.8888662
  33.8426767  51.8796445  27.0276101  34.4869996  52.1147955  27.4066194
  25.7603503  56.2523920  29.8737148  25.9093066  55.6926836  29.2210553
  26.5403505  56.3315921  30.2569667  25.8977596  56.1809485  29.8334097
  36.1180142  51.3926042  18.1456419  35.7386951  50.6063180  18.1385708
  35.4546387  51.9412899  18.0028063  35.9638617  51.3570866  18.1237216
  28.2856803  56.4238563  31.1521639  28.2100474  55.7547373  31.7072427
  28.2146662  57.1256351  31.6662305  28.2637410  56.4283470  31.3098487
  28.9427050  54.9439561  21.9845245  29.7076941  54.6749205  21.6627909
  28.8405140  54.4589572  22.7015308  29.0408546  54.8329126  22.0425073
  26.9779820  43.1463971  28.5238481  26.1875895  42.9655431  28.8455816
  27.3740443  42.3690923  28.5068775  26.9196696  43.0051432  28.5691029
  31.4645711  51.9751745  13.9645194  32.2318696  52.0351870  13.5551046
  31.0177020  51.4032187  13.4801513  31.5119138  51.8988321  13.8322905
  32.3623506  50.7806401  26.2497927  31.6868508  50.5491633  26.7511314
  32.3715882  50.1727584  25.6240032  32.2642011  50.6565326  26.2314079
  34.3640241  53.6371533  18.4808105  34.4460078  54.4438520  18.1569555
  34.8489983  53.6567493  19.2048878  34.4477399  53.7592196  18.5395003
  28.1736744  48.3156369  27.1478182  27.7498993  48.5160868  26.4117201
  27.9981599  47.4685217  27.2602482  28.0847625  48.2205151  27.0551873
  27.6748438  59.8306882  29.6099640  28.1644368  59.1317672  29.4275304
  27.1032670  59.5330752  30.1975697  27.6632967  59.6833106  29.6700681
  23.4619189  48.8108421  22.5806155  23.6183808  48.7455224  23.4362147
  23.8019782  49.5856973  22.3684835  23.5352424  48.9157619  22.6760749
  29.9998334  48.1866304  21.4499518  30.5413879  47.6836685  21.9138139
  30.3144893  48.1331499  20.6389003  30.1262731  48.1045725  21.3983330
  28.1684783  53.5783656  18.7339546  28.2377604  52.7198194  18.8732547
  28.9473239  53.7955537  18.4058571  28.2937633  53.4836520  18.7056704
  32.5592271  56.0021357  22.9476040  32.1672063  55.6988072  22.2298906
  32.7145343  56.8390447  22.7580993  32.5245861  56.0805194  22.8132537
  20.0353451  45.9943371  22.8966922  20.4152415  46.4127916  22.2327190
  19.4608815  46.5756827  23.2035766  20.0064775  46.1421230  22.8443663
  32.7231946  52.5671346  22.8882070  32.3646600  52.7385989  23.6646103
  32.2370656  53.0284552  22.3310069  32.5990643  52.6610317  22.9207339
  27.5120311  48.2470511  15.4282305  27.8012836  49.0235394  15.7025879
  27.5992110  47.7359243  16.1296804  27.5674567  48.2862430  15.5724802
  23.6784252  47.5603776  27.5282417  22.8372259  47.4607650  27.7361310
  23.8874260  48.3299256  27.8796737  23.5848945  47.6595819  27.6109732
  21.1559819  45.1823313  25.3567167  20.7616517  45.2566325  24.5817277
  20.5999936  45.5681259  25.9075529  21.0162631  45.2505088  25.3234827
  27.4900917  45.4885175  26.7780014  27.1864054  44.9341163  27.3790422
  26.7880338  45.6677385  26.2908048  27.3417127  45.4329958  26.7949720
  26.5467014  42.7985695  21.3424716  26.8226748  42.0804608  20.9302284
  27.1465683  43.3970615  21.1345822  26.6760279  42.7806066  21.2505477
  25.5519268  52.7034896  31.4852112  25.4439623  52.7136958  32.3514170
  25.7615049  53.5289676  31.2957066  25.5669379  52.8275971  31.5856204
  36.0458454  38.7136371  24.5173812  35.4332767  39.2006773  24.9027543
  36.1422628  38.0379862  25.0611463  35.9696351  38.6854680  24.6552670
  30.0477535  40.4699212  19.6171311  30.5021281  40.6409773  20.3419156
  30.5217580  39.8567323  19.2169087  30.1845855  40.4050098  19.6645073
  23.5693060  49.9547538  28.9474050  22.9780993  50.5957036  28.9177065
  24.3314083  50.3785156  28.9205349  23.5941321  50.1123377  28.9389197
  27.3890555  47.1741747  20.7216318  28.1332599  47.5616023  20.9599268
  27.5351251  46.3299172  20.8856806  27.5201140  47.1072220  20.7810288
  30.3768430  42.7467220  26.6210238  29.9028385  42.2208982  27.1315548
  30.7486566  42.1996693  26.0525099  30.3618319  42.5883217  26.6125385
  32.3051930  43.6403775  19.6835991  31.7774949  43.7232519  18.9941700
  32.7647638  44.3821646  19.6800636  32.2953781  43.7624437  19.5810687
  24.1143247  43.5681176  28.6504202  23.4896317  43.5799568  28.0430154
  23.7788841  44.0441351  29.2995442  23.9728738  43.6399693  28.6560770
  24.2984995  41.9106294  14.7076887  23.9497800  42.5626019  15.1708436
  23.8181441  41.8963407  13.9800758  24.1755239  42.0049348  14.6687978
  20.8268922  51.6281636  30.0907966  20.2968847  50.9374075  30.1402941
  21.0994015  51.6191821  29.2620674  20.7893644  51.5248768  29.9755382
  31.8589013  52.2107338  18.8145648  32.5823211  52.6765451  18.6710222
  31.4189604  52.2780948  18.0643245  31.9004705  52.2891175  18.6830430
  31.0275168  49.0704880  30.0646337  30.4132161  48.5262931  30.3594973
  31.5442453  48.5569117  29.5852154  31.0130830  48.9141289  30.0370566
  30.2671465  50.1409150  27.7990636  29.8399073  49.5158869  27.3656071
  30.2596409  49.8584072  28.6249643  30.2030606  50.0061931  27.8570464
  23.3833992  45.1774324  30.8679070  23.5427479  44.4217648  31.2730792
  23.2026885  45.7265263  31.5219808  23.3799351  45.1468137  31.0241776
  28.5957174  41.0177905  28.0133170  28.6199662  40.4838017  27.3245950
  28.8468648  40.5095214  28.6758761  28.6367093  40.8638809  28.0097815
  16.1064764  48.3009400  27.4476314  16.0008213  48.2556244  26.5828398
  15.3564984  48.6463181  27.7290599  15.9800367  48.3450308  27.3613644
  24.8758497  39.7448723  27.3938914  24.9156868  40.2457930  28.1073622
  24.0508161  39.8359117  27.1244837  24.7598023  39.8330540  27.4589453
  26.2972860  46.2609233  29.6912813  25.4664790  46.4283051  29.4848061
  26.2424377  45.8845184  30.4761699  26.1662275  46.2298964  29.7761341
  24.6708904  44.5364825  20.2202931  24.8111865  45.0337289  20.9231572
  25.1691437  43.8351119  20.3617145  24.7649985  44.5066803  20.3454510
  24.7009126  45.4031936  17.5495508  25.3354206  45.9992361  17.4844970
  24.7834737  45.1035393  18.3641378  24.8065677  45.4472844  17.6598594
  26.2788109  41.3345911  17.5240950  26.6003950  40.8548994  16.8700212
  26.5415053  42.1445557  17.3331762  26.3654135  41.3835809  17.3996442
  21.2062114  47.5999776  20.8185054  21.7154344  48.1964284  21.1996359
  21.6796386  47.3325750  20.1361474  21.3505490  47.6485592  20.7739577
  32.1192862  56.2728043  18.9743709  31.4022172  56.0988905  18.5090947
  32.7699600  56.0380615  18.4419196  32.1094713  56.2123836  18.8272927
  34.7040833  45.1492632  22.7185015  34.0332023  45.6922334  22.5898080
  35.3980584  45.6187487  22.4766709  34.7069701  45.2990903  22.6640542
  28.7527567  57.2889344  27.9496773  28.5293222  56.5308173  28.3180799
  28.2637410  57.3187365  27.2277213  28.6471016  57.1811568  27.8973514
  34.8668961  41.6048515  25.6275388  35.2196571  41.1778238  26.3021187
  34.0083762  41.5199359  25.7576464  34.7918406  41.5293256  25.7470398
  23.5652646  44.2356035  23.6858234  22.8464635  44.6520168  23.9531098
  23.9365008  44.8010274  23.1349872  23.5144578  44.3805316  23.6441041
  27.4006024  57.5089802  25.4033858  26.9866423  56.8463932  25.0137699
  28.0853398  57.6567661  24.8829552  27.4404396  57.4330460  25.2690355
  30.7671318  56.6679887  26.1557474  30.3687601  56.7782157  25.3878294
  30.1522538  56.8761953  26.7384034  30.6170208  56.7153455  26.1288773
  29.3399220  43.2754035  19.0231614  28.7464060  43.5971031  18.4716181
  29.3774498  42.4295130  18.8152720  29.2573609  43.1978363  18.9114385
  32.2157037  43.2333539  22.4533364  31.9870730  43.2566241  21.6111722
  32.4755113  42.4091006  22.5728375  32.2203225  43.1149619  22.3458562
  25.2701799  41.7710086  23.7487560  25.7459166  42.1327165  23.1137741
  24.7690399  42.4266553  24.0287702  25.2667158  41.9204274  23.6964301
  18.2444045  46.4352453  29.9649316  17.6970764  45.7653099  30.0830184
  19.0336423  46.0682301  30.0292783  18.2796228  46.2817440  29.9918016
  27.3128453  43.9151285  17.1160944  27.6927417  43.9330915  16.3312058
  26.5721049  44.3605274  16.9951791  27.2597290  43.9833060  16.9824512
  34.9413743  42.2233477  22.7036522  34.9407969  42.0682133  23.5620799
  34.7369923  43.0696464  22.6477908  34.9113521  42.3254097  22.8224462
  17.0031014  45.6473261  27.1195339  16.8252775  45.1949870  27.8450254
  16.7150036  46.4499422  27.3033816  16.9343967  45.6995819  27.2538842
  28.1113207  50.7528792  18.5069734  27.3024529  50.4295465  18.4603043
  28.6188115  50.0462014  18.4397982  28.0662873  50.6010108  18.4900028
  18.7403484  48.1800985  24.2317098  17.8749003  48.1686675  24.1199869
  18.8402300  47.9931208  25.0788237  18.6277651  48.1507046  24.3406042
  24.3660494  57.9498883  27.8047203  24.6807053  58.7635272  27.8124985
  24.7753907  57.5649102  28.4729363  24.4728592  58.0127586  27.9051295
  31.3185013  53.3668930  25.3751015  31.7896192  54.0809193  25.5441001
  31.6545192  52.7667680  25.9110885  31.4380128  53.3840395  25.4783391
  27.3047623  40.1412814  19.7988575  28.1263318  40.3111127  19.5570270
  26.8417274  40.2960075  19.0754873  27.3578785  40.1894547  19.6560219
  21.7073514  51.8971992  27.4525812  22.3118371  51.8567826  26.8239633
  21.5000826  52.7443144  27.4829868  21.7662411  52.0159994  27.3641928
  16.9424796  50.8806609  27.3224735  16.8449074  50.0702881  27.6314792
  17.7253666  50.8598403  26.9371003  17.0440933  50.7573700  27.3111598
  35.5771761  70.4441158  22.1521088  34.8254661  70.0656696  21.9237133
  36.0257773  70.4759591  21.4039898  35.5321428  70.3926765  22.0078590
  44.5024338  67.1764965  35.9944312  45.2091105  66.6816996  36.1231247
  44.6912273  67.6174047  35.2646970  44.6352243  67.1683316  35.9053358
  41.0296721  70.8666527  17.5806635  40.6948089  71.5443449  17.1450857
  41.5423591  70.4771838  16.9923506  41.0562302  70.9091105  17.4293426
  40.5701012  72.8180796  23.5217746  40.9540391  73.3867694  22.9822522
  40.5060153  72.0930306  23.0423562  40.6174439  72.7956259  23.3711609
  44.0382442  62.9670484  29.0315508  44.5838402  63.6455570  29.0909477
  43.9799319  62.8257945  28.1717089  44.1098357  63.0462485  28.9127568
  37.1556517  70.4559550  24.4183860  37.2566880  69.6459904  24.7280988
  36.5598262  70.3616496  23.7883539  37.0829056  70.3224578  24.3710099
  45.8147511  64.3955091  19.9049235  45.6987037  65.1462777  20.3341374
  46.6103398  64.1379044  20.1545323  45.9152100  64.4689938  20.0053327
  36.9957257  75.3737139  25.8198716  37.6394712  75.8150303  26.2094875
  37.3213512  74.5690565  25.7328975  37.1389085  75.3202334  25.8644193
  30.3521561  66.4779836  24.0436194  30.1171746  65.6447489  23.9368463
  30.4907202  66.7584502  23.2297395  30.3377224  66.3963340  23.9078549
  37.6977836  68.3849114  21.1918578  38.0193678  68.9254321  20.5879886
  38.3449933  67.8145885  21.3240868  37.8403892  68.3808289  21.1225613
  39.7479545  60.3865109  21.2752965  40.4459709  60.5653236  21.7674428
  40.0631877  59.8635448  20.6523354  39.8974882  60.3358881  21.2554975
  39.9367480  66.7735554  21.2632756  40.3761115  66.1652654  21.7087529
  39.7872143  66.3942927  20.4918221  39.9788946  66.6274025  21.2151923
  39.9425214  68.2134471  28.1158474  40.2248457  67.4185877  27.8945230
  40.6711375  68.6915059  28.1363535  40.0914778  68.1669068  28.0861489
  43.5376816  65.1262735  18.2163525  43.4528112  65.9823702  18.3613094
  44.0261200  64.8507059  18.8845684  43.5965714  65.2120056  18.3365607
  44.4695250  61.7447529  19.7161260  43.9406721  61.9607163  20.3758567
  44.9920270  62.4383668  19.6362230  44.4683703  61.8790666  19.8016860
  49.9243303  67.3193834  25.0894305  49.0941006  67.5304477  25.2527721
  49.8752555  66.4930888  24.8136588  49.7950038  67.2283440  25.0731670
  36.3594857  65.6410746  18.5168728  35.7752073  66.1460777  18.9234592
  35.9564953  65.4153133  17.7765320  36.2134161  65.6818994  18.4673754
  31.9138886  71.3565507  25.3192400  31.4306464  72.0815997  25.2951984
  32.7262204  71.6541637  25.4302558  31.9629634  71.5067861  25.3319679
  37.9853040  70.1497688  27.9242214  37.4679982  69.7905103  27.3203522
  38.6827431  69.6259862  27.9348281  38.0118621  70.0195376  27.8372473
  41.6416632  70.5992502  33.8858387  41.7299978  70.4118642  34.7336598
  42.0706345  69.9529931  33.4863234  41.7178735  70.4755510  33.9530139
  39.2087092  69.8823662  32.8676050  38.6457927  69.4696272  33.3915711
  39.9708115  69.8076568  33.2869193  39.2381541  69.8101062  33.0069050
  40.8172072  61.8876398  16.9937649  41.0568076  62.0954382  16.1812992
  41.1387913  61.0833907  17.1026594  40.9009230  61.7990499  16.8898202
  36.1262362  53.8169794  20.8397187  36.8808330  54.1848111  20.6014237
  35.9489897  54.1909348  21.6076367  36.2116841  53.9267982  20.9182075
  34.7683083  71.8721683  25.4712680  35.4703663  71.3573672  25.5285436
  34.6880566  72.1995834  26.2759555  34.8606844  71.8435909  25.5985472
  34.4819427  56.2240113  17.5375300  34.2995000  56.4411994  16.7116293
  35.3445040  56.3379126  17.5933914  34.5824016  56.2730011  17.4229787
  34.0933859  68.0628035  24.9798288  34.9322758  68.2950968  25.0272049
  34.1245628  67.1932346  24.9105323  34.2215576  67.9684982  24.9762932
  34.7186562  68.4828910  29.2811593  35.2584787  68.3400041  29.9514966
  34.0356508  68.8825661  29.6495620  34.6978716  68.5208581  29.4346015
  44.1427447  64.1619911  24.4756618  44.8984962  64.5951425  24.5145526
  44.2489771  63.5124681  25.0491254  44.2697617  64.1297395  24.5654643
  47.1807618  67.9893188  25.2259021  46.7442850  67.9929931  25.9817992
  46.8470533  68.6698687  24.7938598  47.0670238  68.0905644  25.2739853
  41.7536691  70.0301521  36.5502171  42.5377108  70.1432369  36.9157913
  41.5533286  69.2042658  36.7460857  41.8402717  69.9248240  36.6336557
  34.0281454  59.5014285  16.0497773  33.3139631  59.2152465  16.4620205
  34.5125423  59.8410911  16.6904160  33.9940817  59.5095935  16.2053408
  41.9107085  71.9411623  30.1968627  41.1122331  71.7011123  30.4542495
  42.3593096  71.9926016  30.9435674  41.8581696  71.9134014  30.3453551
  41.2028772  68.0044239  16.4259581  41.6179920  67.6729263  15.7344077
  40.3720701  67.7713142  16.2979718  41.1416780  67.9215495  16.3050429
  30.5317121  65.4887980  26.7157759  30.3492694  65.4634866  25.8630051
  31.2666789  65.9586918  26.7546668  30.6131184  65.5549343  26.5955678
  46.6016795  65.7239490  23.8590647  46.8372384  65.8684689  23.0317497
  46.7506358  66.4881898  24.2522160  46.6582598  65.8578545  23.7954251
  48.4307251  64.5641156  21.6960250  48.7615469  65.0968796  21.0900345
  49.0040340  64.6180044  22.3522201  48.5640931  64.6510725  21.7038032
  40.9707822  65.6872068  38.0888815  40.1780802  66.0015580  38.2741434
  41.0856749  65.9023536  37.2509599  40.8703232  65.7655905  37.9927150
  43.6439141  62.4106059  22.3783831  43.7385995  63.1495353  22.8323456
  43.0197984  61.9823535  22.8118395  43.5648171  62.4567380  22.5091978
  41.8991614  65.5892272  33.0274111  42.4730476  64.9519516  33.1822675
  41.8206418  65.5896354  32.1583769  41.9724849  65.4957383  32.9220522
  43.8962162  64.2554799  15.6120783  43.8142324  64.3256986  16.4775770
  44.5341882  64.8184543  15.4204523  43.9781999  64.3493770  15.7110732
  37.2555333  64.0215537  25.0795309  36.9974577  63.1887272  25.0526608
  37.3103816  64.2473150  24.2387809  37.2255111  63.9313308  24.9515446
  36.2290045  61.5753299  25.5660204  35.6539636  61.7345468  26.2024165
  35.8525721  60.9388708  25.1028654  36.0892858  61.5051112  25.5914762
  25.9746864  61.2193374  23.5804644  26.0607116  60.8425242  24.3618174
  26.6022662  60.8453820  23.1024603  26.0803415  61.1078856  23.6250122
  41.0002272  64.2775253  18.6229389  41.8142911  64.5690146  18.5112160
  40.9361413  63.6235115  18.0487682  41.1105011  64.2240448  18.5218226
  47.2211762  66.9601249  33.0358965  46.9850400  66.1289314  32.9171025
  47.8654991  66.9086856  33.6213809  47.2806433  66.8298937  33.1044858
  36.8710180  67.7496771  23.7501701  37.5084127  67.5108518  24.2953495
  37.2965252  67.9533930  23.0154862  37.0286347  67.7447781  23.7218858
  31.5622823  69.9885107  27.6336005  31.6026968  70.2599958  26.8055785
  32.1217347  70.5127015  28.0493793  31.6506169  70.1060862  27.5727893
  37.5112995  62.9699060  18.0876591  37.8958148  62.7506767  18.8393136
  37.2624616  63.7962006  18.2177667  37.5315068  63.0597207  18.2177667
  39.2531652  68.2269193  25.4295487  39.3270661  68.0644365  26.2837337
  40.0701159  68.4159383  25.1855969  39.3848011  68.2305936  25.5193513
  33.0137409  68.5727056  22.4589931  32.1875527  68.8188793  22.3324210
  33.0749400  68.4939137  23.3251989  32.9011576  68.5972005  22.5678875
  37.7936238  71.1903936  20.1608961  38.0834536  70.7992918  19.4368187
  38.5239719  71.3720641  20.6014236  37.9443122  71.1597750  20.1191768
  38.3830983  65.9921682  31.2462091  37.8842677  66.7037450  31.3246980
  39.1931207  66.3122349  31.2080254  38.4287090  66.1448531  31.2518660
  35.7342154  73.1671319  23.2269111  35.5142449  72.8768673  24.0195778
  35.5136676  72.5086274  22.6987023  35.6689748  73.0271027  23.2658019
  34.6459101  65.2544635  25.4924812  34.3572349  64.6282106  26.0270539
  35.5142449  65.1964923  25.5589493  34.7319353  65.1532179  25.5815767
  37.9010109  74.5400709  22.0099803  38.5534167  74.0077151  22.2390829
  37.2035718  74.1869361  22.3967677  37.8940827  74.4090232  22.1011971
  34.8491374  66.8939886  21.4167177  35.6037342  67.2752925  21.6302640
  34.2561987  67.3451030  21.8713874  34.8728088  67.0168714  21.5150056
  45.8950028  66.8605123  21.3530782  46.4608060  67.5198333  21.2689325
  45.2477931  67.2054821  21.8247184  45.8828784  67.0087064  21.4103539
  36.1689601  68.0648448  26.7907293  35.6470354  68.2048739  27.4759157
  36.5563621  67.3059112  26.9809410  36.1493302  67.9733971  26.9208369
  33.1580785  58.1154256  20.8602247  32.8705581  57.7455527  20.1234195
  33.8451253  58.5849112  20.5985952  33.2169682  58.1301226  20.7117323
  42.3656606  69.8043907  20.7767861  42.1243282  69.0711768  20.3694926
  42.5457939  70.3530764  20.1234195  42.3564230  69.7766298  20.6198084
  37.5955926  65.0952467  22.1888784  37.3998709  65.7027201  21.5949087
  37.8190272  64.4020411  21.7080458  37.5990567  65.0829992  22.0304864
  35.9934456  61.9807205  22.3069652  36.7157108  62.1448363  21.8473458
  35.5142449  62.7016869  22.2008992  36.0298187  62.1105434  22.2235266
  30.7308979  58.8935469  21.7087528  30.8325116  59.6961630  22.0368504
  31.5264866  58.6922805  21.4110609  30.8636885  58.9821368  21.7122884
  41.7011304  60.8449737  23.5953138  41.4546018  60.7645488  24.4289927
  42.0296427  60.0603205  23.4015666  41.7132547  60.7176003  23.6900661
  45.5959353  67.5533097  27.3839919  45.4573712  68.2514142  27.8888662
  44.8159351  67.3981753  27.0276101  45.4602580  67.6333263  27.4066194
  43.9337438  63.8529472  33.6362301  43.9285476  62.9809288  33.6404728
  44.6398432  64.0517641  33.1631757  44.0382442  63.7533346  33.5669337
  36.7336086  71.7709228  29.8737148  36.8825650  71.2112144  29.2210553
  37.5136088  71.8501229  30.2569667  36.8710180  71.6994793  29.8334097
  47.0912726  66.9111350  18.1456419  46.7119534  66.1248488  18.1385708
  46.4278971  67.4598207  18.0028063  46.9371200  66.8756174  18.1237216
  39.2589387  71.9423871  31.1521639  39.1833058  71.2732681  31.7072427
  39.1879246  72.6441659  31.6662305  39.2369994  71.9468778  31.3098487
  39.9159634  70.4624869  21.9845245  40.6809525  70.1934513  21.6627909
  39.8137724  69.9774880  22.7015308  40.0141129  70.3514434  22.0425073
  42.4378294  67.4937053  13.9645194  43.2051279  67.5537178  13.5551046
  41.9909603  66.9217495  13.4801513  42.4851721  67.4173629  13.8322905
  43.3356090  66.2991709  26.2497927  42.6601092  66.0676941  26.7511314
  43.3448466  65.6912892  25.6240032  43.2374594  66.1750634  26.2314079
  45.3372824  69.1556841  18.4808105  45.4192662  69.9623828  18.1569555
  45.8222567  69.1752801  19.2048878  45.4209982  69.2777504  18.5395003
  39.1469328  63.8341677  27.1478182  38.7231577  64.0346176  26.4117201
  38.9714183  62.9870525  27.2602482  39.0580208  63.7390459  27.0551873
  38.6481021  75.3492190  29.6099640  39.1376951  74.6502980  29.4275304
  38.0765253  75.0516060  30.1975697  38.6365551  75.2018414  29.6700681
  34.4351773  64.3293729  22.5806155  34.5916392  64.2640532  23.4362147
  34.7752366  65.1042281  22.3684835  34.5085007  64.4342927  22.6760749
  40.9730917  63.7051612  21.4499518  41.5146463  63.2021993  21.9138139
  41.2877476  63.6516807  20.6389003  41.0995314  63.6231033  21.3983330
  44.8448025  67.9154260  38.5626430  45.6582890  67.6439409  38.7231563
  44.6842991  67.6161800  37.7586626  44.9417973  67.8309186  38.4671836
  39.1417367  69.0968964  18.7339546  39.2110187  68.2383502  18.8732547
  39.9205822  69.3140845  18.4058571  39.2670217  69.0021828  18.7056704
  43.5324855  71.5206665  22.9476040  43.1404646  71.2173380  22.2298906
  43.6877927  72.3575755  22.7580993  43.4978444  71.5990502  22.8132537
  31.0086034  61.5128679  22.8966922  31.3884999  61.9313224  22.2327190
  30.4341399  62.0942135  23.2035766  30.9797359  61.6606538  22.8443663
  43.6964529  68.0856654  22.8882070  43.3379184  68.2571297  23.6646103
  43.2103240  68.5469860  22.3310069  43.5723226  68.1795625  22.9207339
  38.4852895  63.7655819  15.4282305  38.7745420  64.5420702  15.7025879
  38.5724694  63.2544551  16.1296804  38.5407151  63.8047738  15.5724802
  44.8569269  68.9760550  33.8349271  45.4948989  68.4820746  33.5011727
  44.2143360  68.9037950  33.2501498  44.8563495  68.8919558  33.6991626
  44.9123525  69.6680358  30.4754628  45.7015903  69.3169423  30.5956709
  45.0867123  70.4816747  30.2131262  45.0543807  69.7366215  30.4542496
  32.1292403  60.7008621  25.3567167  31.7349100  60.7751633  24.5817277
  31.5732519  61.0866567  25.9075529  31.9895215  60.7690396  25.3234827
  37.5199598  58.3171003  21.3424716  37.7959332  57.5989915  20.9302284
  38.1198267  58.9155923  21.1345822  37.6492862  58.2991374  21.2505477
  36.5251852  68.2220204  31.4852112  36.4172206  68.2322266  32.3514170
  36.7347633  69.0474984  31.2957066  36.5401963  68.3461279  31.5856204
  44.3015160  70.9242158  26.3806074  44.1034848  71.4132972  25.6862285
  43.6802871  71.1283399  26.9590207  44.1802724  71.0258696  26.3629297
  38.3623138  62.6927055  20.7216318  39.1065183  63.0801331  20.9599268
  38.5083834  61.8484480  20.8856806  38.4933723  62.6257527  20.7810288
  46.2188962  64.4906310  31.9151322  46.9423161  64.0378837  31.7362342
  45.9538924  64.7710976  31.1323650  46.2870235  64.4657279  31.7730038
  35.2717579  57.4291602  14.7076887  34.9230383  58.0811327  15.1708436
  34.7914025  57.4148715  13.9800758  35.1487823  57.5234656  14.6687978
  42.8321596  67.7292646  18.8145648  43.5555795  68.1950759  18.6710222
  42.3922187  67.7966256  18.0643245  42.8737288  67.8076483  18.6830430
  42.0007751  64.5890188  30.0646337  41.3864744  64.0448239  30.3594973
  42.5175036  64.0754425  29.5852154  41.9863414  64.4326597  30.0370566
  41.2404048  65.6594458  27.7990636  40.8131656  65.0344177  27.3656071
  41.2328993  65.3769380  28.6249643  41.1763190  65.5247239  27.8570464
  27.0797348  63.8194708  27.4476314  26.9740797  63.7741552  26.5828398
  26.3297568  64.1648488  27.7290599  26.9532951  63.8635616  27.3613644
  38.0320693  64.8294771  35.4959209  37.1816324  64.9666485  35.6316854
  38.1948821  64.0958549  35.9406911  37.9304557  64.7408872  35.5814808
  35.6441487  60.0550133  20.2202931  35.7844449  60.5522597  20.9231572
  36.1424020  59.3536427  20.3617145  35.7382568  60.0252111  20.3454510
  35.6741710  60.9217244  17.5495508  36.3086789  61.5177669  17.4844970
  35.7567321  60.6220701  18.3641378  35.7798261  60.9658152  17.6598594
  37.2520693  56.8531219  17.5240950  37.5736534  56.3734302  16.8700212
  37.5147636  57.6630865  17.3331762  37.3386718  56.9021117  17.3996442
  40.4817666  67.8750093  31.0439766  39.9742757  68.4285940  31.4880396
  40.1844312  67.9358383  30.2258540  40.3622550  67.9656405  30.9888223
  32.1794698  63.1185084  20.8185054  32.6886927  63.7149592  21.1996359
  32.6528970  62.8511058  20.1361474  32.3238073  63.1670900  20.7739577
  43.0925446  71.7913351  18.9743709  42.3754756  71.6174213  18.5090947
  43.7432183  71.5565923  18.4419196  43.0827296  71.7309144  18.8272927
  39.7260151  72.8074652  27.9496773  39.5025805  72.0493481  28.3180799
  39.2369994  72.8372673  27.2277213  39.6203600  72.6996876  27.8973514
  34.5385229  59.7541343  23.6858234  33.8197219  60.1705475  23.9531098
  34.9097592  60.3195582  23.1349872  34.4877161  59.8990624  23.6441041
  41.7831140  66.9756384  35.5008707  41.7426995  66.3306061  34.9153862
  42.5954458  66.9193001  35.8134119  41.8974294  66.8715351  35.4605656
  38.3738608  73.0275110  25.4033858  37.9599006  72.3649240  25.0137699
  39.0585982  73.1752968  24.8829552  38.4136979  72.9515768  25.2690355
  41.7403902  72.1865195  26.1557474  41.3420185  72.2967465  25.3878294
  41.1255121  72.3947261  26.7384034  41.5902791  72.2338763  26.1288773
  40.3131804  58.7939343  19.0231614  39.7196643  59.1156339  18.4716181
  40.3507082  57.9480438  18.8152720  40.2306193  58.7163671  18.9114385
  49.4745745  66.7617162  19.5400565  49.8579350  67.5108518  19.7698662
  48.6789858  67.0082981  19.2812554  49.4139527  66.9086856  19.5358138
  29.2176628  61.9537761  29.9649316  28.6703348  61.2838407  30.0830184
  30.0069006  61.5867609  30.0292783  29.2528812  61.8002748  29.9918016
  38.2861036  59.4336593  17.1160944  38.6660001  59.4516223  16.3312058
  37.5453632  59.8790582  16.9951791  38.2329874  59.5018368  16.9824512
  27.9763598  61.1658569  27.1195339  27.7985359  60.7135178  27.8450254
  27.6882620  61.9684730  27.3033816  27.9076551  61.2181127  27.2538842
  43.6387179  62.4216286  26.3572729  44.1340844  61.7039281  26.3176749
  42.8286954  62.1187084  26.2427216  43.5931072  62.2713933  26.3346455
  39.0845790  66.2714100  18.5069734  38.2757113  65.9480773  18.4603043
  39.5920699  65.5647322  18.4397982  39.0395457  66.1195416  18.4900028
  29.7136067  63.6986293  24.2317098  28.8481587  63.6871983  24.1199869
  29.8134883  63.5116516  25.0788237  29.6010234  63.6692354  24.3406042
  35.3393077  73.4684191  27.8047203  35.6539636  74.2820580  27.8124985
  35.7486491  73.0834410  28.4729363  35.4461175  73.5312894  27.9051295
  42.2917597  68.8854238  25.3751015  42.7628775  69.5994501  25.5441001
  42.6277776  68.2852988  25.9110885  42.4112712  68.9025702  25.4783391
  44.3794582  70.4955552  37.5543088  44.4891547  69.7064112  37.9099835
  44.7085478  70.4061488  36.7517426  44.4446987  70.3661404  37.4885478
  42.9291543  68.6772172  32.1378708  42.3812489  68.0530056  31.8698773
  43.3904572  68.8666444  31.4222787  42.9158753  68.6131222  31.9929139
  38.2780207  55.6598122  19.7988575  39.0995901  55.8296434  19.5570270
  37.8149858  55.8145383  19.0754873  38.3311369  55.7079855  19.6560219
  32.6806097  67.4157300  27.4525812  33.2850955  67.3753134  26.8239633
  32.4733410  68.2628452  27.4829868  32.7394995  67.5345302  27.3641928
  42.4949870  69.6823245  28.6688049  43.3148243  69.5386211  28.9304344
  42.2143947  70.3069444  29.2104487  42.5746613  69.7533597  28.7875989
  27.9157380  66.3991917  27.3224735  27.8181658  65.5888189  27.6314792
  28.6986249  66.3783711  26.9371003  28.0173516  66.2759008  27.3111598
  52.1663205  76.4263748  26.3883856  51.3101100  76.5872246  26.4392973
  52.2130859  75.5555812  26.4088917  52.0462316  76.3214550  26.3989922
  55.4756921  82.6950273  35.9944312  56.1823689  82.2002304  36.1231247
  55.6644857  83.1359355  35.2646970  55.6084827  82.6868624  35.9053358
  55.0115026  78.4855792  29.0315508  55.5570986  79.1640878  29.0909477
  54.9531902  78.3443253  28.1717089  55.0830940  78.5647793  28.9127568
  43.6244232  74.1650875  26.9420501  43.0049264  73.5743522  26.7730516
  43.5228096  74.7562310  26.3084825  43.5181908  74.1654957  26.8225491
  50.7212128  75.9050417  21.2752965  51.4192293  76.0838544  21.7674428
  51.0364461  75.3820756  20.6523354  50.8707465  75.8544189  21.2554975
  43.3513365  77.7103157  29.1864070  43.2272062  78.2965602  29.8213889
  44.0031650  77.2163352  29.4876345  43.4287015  77.7241961  29.3250000
  48.3771706  80.8864874  28.4651582  49.0220709  80.3937317  28.1462530
  48.6173484  81.0289660  29.2917660  48.5082292  80.8342316  28.5401115
  50.9157798  83.7319779  28.1158474  51.1981041  82.9371185  27.8945230
  51.6443958  84.2100367  28.1363535  51.0647362  83.6854376  28.0861489
  48.8938992  71.2742813  25.3574239  48.5642322  71.7253957  24.6877938
  48.2183993  71.1958977  25.9047246  48.7449428  71.3293949  25.3397462
  56.1015399  67.2628336  23.6023850  55.7868840  67.9531815  24.0344272
  55.5842341  67.2073119  22.9009351  55.9779870  67.3563225  23.5620799
  47.0994946  69.3355102  20.8397187  47.8540914  69.7033419  20.6014237
  46.9222480  69.7094656  21.6076367  47.1849424  69.4453290  20.9182075
  60.3929844  75.4849542  28.8844726  59.5558266  75.5551729  29.1192321
  60.3618075  75.4874037  28.0119029  60.2648127  75.4959769  28.7904274
  46.7894573  77.6282578  34.5993095  46.9615077  77.5188473  35.4478376
  47.3263931  78.2736983  34.3624287  46.8939577  77.7074580  34.6898192
  45.4552010  71.7425421  17.5375300  45.2727584  71.9597302  16.7116293
  46.3177623  71.8564433  17.5933914  45.5556600  71.7915319  17.4229787
  51.1351730  68.7451831  20.5724324  51.8637890  68.5667786  20.1262480
  51.2246622  69.5869911  20.7831502  51.2558392  68.8435710  20.5377841
  55.1160030  79.6805219  24.4756618  55.8717545  80.1136733  24.5145526
  55.2222355  79.0309989  25.0491254  55.2430201  79.6482703  24.5654643
  41.0956290  80.2214509  29.4346015  40.8294706  79.4053626  29.5937005
  41.1094855  80.2667665  28.5641530  41.0581013  80.1071414  29.3299497
  58.0737684  70.5492324  27.4688449  58.7163593  70.6190428  28.0550364
  58.3260705  69.8821547  26.9667991  58.2059816  70.4618673  27.4815728
  45.0014037  75.0199593  16.0497773  44.2872215  74.7337773  16.4620205
  45.4858006  75.3596219  16.6904160  44.9673401  75.0281243  16.2053408
  45.8454897  73.7592887  32.0813023  45.1526694  73.2889867  32.3273754
  46.4615224  73.5331192  32.6554730  45.8339427  73.6560019  32.2022175
  41.5049704  81.0073288  26.7157759  41.3225277  80.9820174  25.8630051
  42.2399373  81.4772226  26.7546668  41.5863768  81.0734651  26.5955678
  44.5695456  77.7258291  33.2239868  45.2935428  77.7111322  33.7104762
  44.6711592  78.4353646  32.7261836  44.6913665  77.8282994  33.2218655
  51.9440405  81.2057376  38.0888815  51.1513386  81.5200888  38.2741434
  52.0589332  81.4208844  37.2509599  51.8435816  81.2841213  37.9927150
  54.6171724  77.9291367  22.3783831  54.7118579  78.6680661  22.8323456
  53.9930568  77.5008842  22.8118395  54.5380754  77.9752688  22.5091978
  52.8724198  81.1077580  33.0274111  53.4463060  80.4704824  33.1822675
  52.7939002  81.1081662  32.1583769  52.9457433  81.0142691  32.9220522
  41.4720614  77.8866789  26.8656826  42.0494117  77.7503240  27.5049071
  40.7734676  77.4302573  27.1202410  41.4541636  77.7989055  26.9979115
  48.2287917  79.5400845  25.0795309  47.9707161  78.7072580  25.0526608
  48.2836399  79.7658458  24.2387809  48.1987694  79.4498616  24.9515446
  53.3088967  71.6429295  25.1799402  52.6045293  71.1538481  25.3383321
  53.3573941  71.6551770  24.3087846  53.2119018  71.5718943  25.0738741
  47.2022629  77.0938607  25.5660204  46.6272220  77.2530776  26.2024165
  46.8258305  76.4574016  25.1028654  47.0625441  77.0236420  25.5914762
  50.8695917  75.5661956  30.4252582  50.4810350  75.1416174  29.7704773
  50.2050616  75.8144106  30.9329609  50.7142845  75.5400678  30.4040450
  60.5119187  75.3236961  23.2000412  60.2555751  74.5116903  23.0098295
  61.3548501  75.3314528  22.9730599  60.5985212  75.2048959  23.1385229
  36.9479448  76.7378682  23.5804644  37.0339699  76.3610550  24.3618174
  37.5755245  76.3639128  23.1024603  37.0535999  76.6264164  23.6250122
  54.6922279  69.2636585  27.9376566  55.0732791  68.5814756  28.3244441
  53.8885563  68.9746187  27.7552231  54.6298741  69.1203634  27.9680622
  47.8442764  83.2682079  23.7501701  48.4816711  83.0293826  24.2953495
  48.2697835  83.4719237  23.0154862  48.0018930  83.2633089  23.7218858
  48.4845579  78.4884368  18.0876591  48.8690732  78.2692075  18.8393136
  48.2357199  79.3147314  18.2177667  48.5047652  78.5782515  18.2177667
  48.6514119  71.7690783  37.8039175  48.3367560  72.5390346  37.5408737
  48.3304052  71.2061040  37.2191402  48.5573038  71.8001052  37.6780525
  50.2264236  83.7454501  25.4295487  50.3003244  83.5829673  26.2837337
  51.0433742  83.9344691  25.1855969  50.3580594  83.7491243  25.5193513
  46.2046016  70.1581305  23.4185371  45.3368442  70.2303904  23.4842980
  46.4921221  70.9603384  23.6073346  46.1185764  70.2875452  23.4560138
  55.3278905  70.3059164  31.7496693  56.0732497  70.1168975  31.3360118
  54.9116210  70.8317402  31.1910549  55.3763879  70.3561310  31.6061266
  62.7041176  77.6768393  26.7002198  63.2549097  77.0436462  26.9399290
  62.6885291  78.2083786  27.3917702  62.7826372  77.6617341  26.8381056
  49.3563567  81.5106990  31.2462091  48.8575260  82.2222758  31.3246980
  50.1663791  81.8307657  31.2080254  49.4019673  81.6633839  31.2518660
  45.6191684  80.7729943  25.4924812  45.3304933  80.1467414  26.0270539
  46.4875032  80.7150231  25.5589493  45.7051936  80.6717487  25.5815767
  56.4069582  75.9164727  25.8106794  56.0634348  75.1955062  26.1614044
  56.5062625  75.7078578  24.9685152  56.3711625  75.7788930  25.7378474
  45.8223958  82.4125194  21.4167177  46.5769926  82.7938233  21.6302640
  45.2294570  82.8636338  21.8713874  45.8460671  82.5354022  21.5150056
  48.2830625  74.3688035  36.5424390  47.4730401  74.6745814  36.4314232
  48.7605311  75.0893617  36.6576974  48.2334104  74.5202636  36.5431461
  44.1313368  73.6339564  20.8602247  43.8438164  73.2640835  20.1234195
  44.8183837  74.1034420  20.5985952  44.1902266  73.6486534  20.7117323
  48.5688510  80.6137775  22.1888784  48.3731293  81.2212509  21.5949087
  48.7922856  79.9205719  21.7080458  48.5723151  80.6015300  22.0304864
  46.9667040  77.4992512  22.3069652  47.6889692  77.6633671  21.8473458
  46.4875033  78.2202177  22.2008992  47.0030771  77.6290742  22.2235266
  54.9260548  73.8356311  27.6866337  54.0871648  73.8617590  27.4504600
  54.9964915  74.4827047  28.2671684  54.8128941  73.9352437  27.7375454
  44.6174657  79.9050585  31.4123792  45.1295754  80.1834838  30.7632552
  44.3310999  80.6439879  31.7786605  44.6509520  80.0552939  31.3713670
  53.3729826  70.7341688  22.4193953  54.0756179  70.5349437  21.9413911
  53.1074015  69.9617631  22.7262796  53.4376458  70.5904654  22.3939394
  58.8018071  79.0424298  24.9727579  58.7152046  79.1979724  25.8262358
  58.3468551  79.6862374  24.5986984  58.7221328  79.1600053  25.0434686
  41.7041563  74.4120777  21.7087528  41.8057699  75.2146938  22.0368504
  42.4997450  74.2108113  21.4110609  41.8369469  74.5006676  21.7122884
  48.1358382  71.9976973  31.4724834  47.9441579  72.0132108  32.3224257
  48.9856978  72.1940648  31.4491488  48.2334104  72.0291325  31.5948128
  42.5205295  74.5267955  29.4508650  42.3790787  73.6751896  29.5753158
  42.8045858  74.5696616  28.6270856  42.5413141  74.4067705  29.3476274
  52.6743887  76.3635045  23.5953138  52.4278602  76.2830796  24.4289927
  53.0029011  75.5788513  23.4015666  52.6865131  76.2361310  23.6900661
  54.9070021  79.3714780  33.6362301  54.9018060  78.4994596  33.6404728
  55.6131015  79.5702949  33.1631757  55.0115025  79.2718654  33.5669337
  48.6340915  79.0991764  33.0076121  48.7784290  79.6792972  32.3719231
  48.9816563  79.4768060  33.7125976  48.7068376  79.2412468  33.0175116
  50.8060832  78.2981932  30.7901253  50.0584146  78.4912946  30.3849531
  50.9602357  77.4727152  30.5525374  50.7183260  78.2047044  30.6946659
  51.0462609  72.1932483  31.6796657  51.5035223  72.9256457  31.8069449
  51.1218938  71.7698948  32.4383912  51.1253579  72.2389721  31.8097733
  43.2895600  72.4398303  32.7686100  42.7537790  71.8278661  33.0846868
  43.3513365  73.0146439  33.4219767  43.2191233  72.4345230  32.9121527
  55.5189935  65.3722358  25.5490500  55.6373503  65.8298821  24.8157802
  55.3452111  64.5667619  25.2626717  55.5109106  65.3216130  25.3991433
  48.9244987  74.1834587  28.5238481  48.1341062  74.0026047  28.8455816
  49.3205610  73.4061539  28.5068775  48.8661863  74.0422048  28.5691029
  54.3088673  81.8177017  26.2497927  53.6333675  81.5862249  26.7511314
  54.3181049  81.2098200  25.6240032  54.2107178  81.6935942  26.2314079
  51.4382817  76.6594846  33.0061980  51.3741959  77.5204802  32.8782116
  51.5780005  76.3426839  32.2057531  51.4498287  76.7395013  32.8690192
  50.1201911  79.3526985  27.1478182  49.6964160  79.5531484  26.4117201
  49.9446766  78.5055833  27.2602482  50.0312792  79.2575767  27.0551873
  45.4084356  79.8479037  22.5806155  45.5648975  79.7825839  23.4362147
  45.7484949  80.6227589  22.3684835  45.4817591  79.9528235  22.6760749
  51.9463501  79.2236920  21.4499518  52.4879046  78.7207301  21.9138139
  52.2610060  79.1702115  20.6389003  52.0727898  79.1416341  21.3983330
  53.0952770  74.1173225  31.5021819  53.3094740  73.4784139  30.9485173
  52.4786669  74.5619049  31.0729680  53.0358099  74.0883368  31.3572250
  41.9818618  77.0313987  22.8966922  42.3617583  77.4498532  22.2327190
  41.4073982  77.6127443  23.2035766  41.9529943  77.1791846  22.8443663
  55.2591858  75.7262290  32.4405126  54.4468540  75.4188180  32.5218299
  55.7181793  75.2461290  33.0047838  55.2072243  75.6098782  32.5359720
  52.3545366  77.1322361  37.2233828  52.8244997  77.7564478  37.6101702
  52.4007246  76.4639337  37.7827043  52.4313242  77.1257042  37.3633900
  49.5116639  69.2379389  27.9482632  48.9955128  68.5459580  28.0734211
  48.9510568  69.9050166  27.8945231  49.3523153  69.2342646  27.9588698
  51.5808873  69.7772349  29.7775484  51.1940626  69.8021380  30.5589014
  51.0941810  69.2114028  29.3250001  51.4521382  69.6968100  29.8263388
  57.5558852  76.3435004  28.4015187  57.1286460  76.2561352  27.6463286
  56.9184905  76.4512779  28.9870031  57.3988460  76.3467664  28.3760628
  51.0479929  71.4510529  34.3412156  51.8753359  71.1795678  34.3970770
  51.0687775  72.2471371  34.6975974  51.1732779  71.5290283  34.4027339
  45.6249419  78.5974392  27.5282417  44.7837426  78.4978266  27.7361310
  45.8339427  79.3669872  27.8796737  45.5314112  78.6966435  27.6109732
  43.1024986  76.2193929  25.3567167  42.7081684  76.2936941  24.5817277
  42.5465103  76.6051875  25.9075529  42.9627799  76.2875703  25.3234827
  54.7389933  69.1975223  25.0371046  54.9439526  69.1297531  25.8828043
  54.4116357  70.0034044  24.9692224  54.7205181  69.3061163  25.1530701
  49.4366084  76.5255791  26.7780014  49.1329222  75.9711779  27.3790422
  48.7345505  76.7048001  26.2908048  49.2882294  76.4700573  26.7949720
  48.4932181  73.8356311  21.3424716  48.7691916  73.1175223  20.9302284
  49.0930851  74.4341231  21.1345822  48.6225446  73.8176682  21.2505477
  57.9923621  69.7506987  24.5173812  57.3797934  70.2377389  24.9027543
  58.0887796  69.0750478  25.0611463  57.9161518  69.7225296  24.6552670
  51.9942702  71.5069828  19.6171311  52.4486448  71.6780389  20.3419156
  52.4682747  70.8937939  19.2169087  52.1311022  71.4420713  19.6645073
  45.5158227  80.9918154  28.9474050  44.9246160  81.6327652  28.9177065
  46.2779251  81.4155771  28.9205349  45.5406488  81.1493993  28.9389197
  45.9118850  72.1520152  29.6142067  46.3720331  72.2259081  30.3517191
  45.9574957  72.9501406  29.2641888  45.9869405  72.2814299  29.6714824
  47.5602200  72.8186847  34.1814094  47.1687765  72.1720194  34.6169872
  47.7288062  73.4098282  34.8008350  47.5273110  72.8101115  34.3376800
  49.3355722  78.2112363  20.7216318  50.0797767  78.5986639  20.9599268
  49.4816418  77.3669788  20.8856806  49.4666307  78.1442835  20.7810288
  51.2535297  70.0062621  25.7548180  50.4071342  70.1785429  25.6289529
  51.2506430  69.2011965  26.0914008  51.1282447  69.9123650  25.7859307
  52.3233598  73.7837836  26.6210238  51.8493552  73.2579598  27.1315548
  52.6951733  73.2367309  26.0525099  52.3083486  73.6253833  26.6125385
  42.7006628  75.7809343  31.9893783  43.5632241  75.6805052  31.9031113
  42.3698411  75.2004052  31.4279355  42.7791824  75.6800969  31.8939189
  58.5870328  78.8440212  28.0317018  58.3468551  78.0046627  28.0359445
  59.0662335  78.9240378  28.7557792  58.6222512  78.7321611  28.1391820
  54.2517097  74.6774390  19.6835991  53.7240116  74.7603134  18.9941700
  54.7112805  75.4192262  19.6800636  54.2418948  74.7995053  19.5810687
  60.5875515  75.6241669  25.9846277  60.3485285  75.5837503  25.1467062
  60.7509416  76.4712821  26.1111998  60.5765819  75.7433754  25.8799759
  57.1921545  80.0091618  31.9151322  57.9155744  79.5564144  31.7362342
  56.9271508  80.2896284  31.1323650  57.2602819  79.9842587  31.7730038
  46.0608414  74.6051792  28.6504202  45.4361484  74.6170184  28.0430154
  45.7254009  75.0811967  29.2995442  45.9193906  74.6770309  28.6560770
  46.2450162  72.9476910  14.7076887  45.8962967  73.5996635  15.1708436
  45.7646608  72.9334023  13.9800758  46.1220406  73.0419964  14.6687978
  52.9740335  80.1075496  30.0646337  52.3597328  79.5633547  30.3594973
  53.4907620  79.5939733  29.5852154  52.9595997  79.9511905  30.0370566
  52.2136632  81.1779766  27.7990636  51.7864240  80.5529485  27.3656071
  52.2061576  80.8954688  28.6249643  52.1495773  81.0432547  27.8570464
  45.3299159  76.2144939  30.8679070  45.4892646  75.4588264  31.2730792
  45.1492053  76.7635879  31.5219808  45.3264518  76.1838753  31.0241776
  53.2719462  68.3806175  31.4229860  52.7760023  68.5769849  30.7321426
  54.0288524  68.7798843  31.2518661  53.3106287  68.4683909  31.2949996
  50.5422342  72.0548521  28.0133170  50.5664829  71.5208633  27.3245950
  50.7933815  71.5465830  28.6758761  50.5832260  71.9009425  28.0097815
  38.0529931  79.3380016  27.4476314  37.9473381  79.2926860  26.5828398
  37.3030151  79.6833796  27.7290599  37.9265534  79.3820924  27.3613644
  46.8223664  70.7819339  27.3938914  46.8622035  71.2828546  28.1073622
  45.9973329  70.8729733  27.1244837  46.7063190  70.8701155  27.4589453
  49.0053277  80.3480079  35.4959209  48.1548907  80.4851793  35.6316854
  49.1681404  79.6143857  35.9406911  48.9037140  80.2594180  35.5814808
  48.2438027  77.2979849  29.6912813  47.4129957  77.4653667  29.4848061
  48.1889544  76.9215800  30.4761699  48.1127442  77.2669580  29.7761341
  46.0521810  70.7888742  35.3269224  46.6774514  70.2450875  35.5998656
  45.5972290  70.3083659  34.7577014  46.0770071  70.6378223  35.2830818
  46.6174071  75.5735440  20.2202931  46.7577032  76.0707905  20.9231572
  47.1156604  74.8721735  20.3617145  46.7115152  75.5437419  20.3454510
  46.6474293  76.4402552  17.5495508  47.2819373  77.0362977  17.4844970
  46.7299904  76.1406009  18.3641378  46.7530844  76.4843460  17.6598594
  59.6256859  78.9718029  30.4181872  60.2174700  79.6115280  30.4500070
  60.0615854  78.2741066  30.7073939  59.7775290  78.9636379  30.4662705
  48.2253276  72.3716527  17.5240950  48.5469117  71.8919609  16.8700212
  48.4880220  73.1816173  17.3331762  48.3119302  72.4206425  17.3996442
  51.4550249  83.3935401  31.0439766  50.9475340  83.9471248  31.4880396
  51.1576895  83.4543691  30.2258540  51.3355134  83.4841712  30.9888223
  53.6212431  71.7588721  29.8864429  54.0467503  71.3061247  29.2747955
  53.0069424  71.2048792  30.1629216  53.5941077  71.6102697  29.8369454
  43.1527281  78.6370392  20.8185054  43.6619511  79.2334900  21.1996359
  43.6261554  78.3696366  20.1361474  43.2970657  78.6856208  20.7739577
  52.0606654  68.2303821  23.2955006  51.4174972  68.0801467  23.8640144
  51.7206061  67.9846166  22.5304111  51.9151731  68.1715943  23.2658021
  56.6506001  76.1863248  22.7185015  55.9797190  76.7292950  22.5898080
  57.3445751  76.6558103  22.4766709  56.6534868  76.3361519  22.6640542
  56.8134128  72.6419131  25.6275388  57.1661738  72.2148854  26.3021187
  55.9548930  72.5569975  25.7576464  56.7383573  72.5663872  25.7470398
  45.5117813  75.2726651  23.6858234  44.7929802  75.6890783  23.9531098
  45.8830175  75.8380890  23.1349872  45.4609745  75.4175932  23.6441041
  54.8117394  75.9054500  29.5760230  54.7915321  75.7237795  30.4295009
  54.8596595  76.7766518  29.5519814  54.8152035  76.0071038  29.6983525
  52.7563724  82.4941692  35.5008707  52.7159579  81.8491369  34.9153862
  53.5687042  82.4378309  35.8134119  52.8706877  82.3900659  35.4605656
  51.2864387  74.3124651  19.0231614  50.6929227  74.6341647  18.4716181
  51.3239665  73.4665746  18.8152720  51.2038777  74.2348979  18.9114385
  58.2458188  67.7637543  26.5559700  57.7389053  67.0566683  26.4880878
  59.0425622  67.4330732  26.6860777  58.2885427  67.6110694  26.5658695
  54.1622204  74.2704155  22.4533364  53.9335897  74.2936857  21.6111722
  54.4220280  73.4461622  22.5728375  54.1668392  74.1520235  22.3458562
  48.4441432  76.1238628  32.0558464  47.9320336  75.5159811  32.4143496
  48.2720929  76.8395221  32.5232440  48.3431069  76.1401928  32.1774688
  47.2166967  72.8080702  23.7487560  47.6924333  73.1697781  23.1137741
  46.7155566  73.4637169  24.0287702  47.2132326  72.9574890  23.6964301
  52.3210503  74.0462873  34.4960720  52.8781933  73.8176682  33.8639185
  51.9971568  74.8068539  34.2195932  52.3556913  74.1246710  34.3617217
  40.1909212  77.4723069  29.9649316  39.6435931  76.8023715  30.0830184
  40.9801590  77.1052917  30.0292783  40.2261395  77.3188056  29.9918016
  50.0393620  77.1330526  35.4612727  50.7904947  77.4482203  35.7752281
  50.2316197  76.9309697  34.6346649  50.1785034  77.1497908  35.3856123
  49.2593620  74.9521901  17.1160944  49.6392585  74.9701531  16.3312058
  48.5186216  75.3975890  16.9951791  49.2062457  75.0203676  16.9824512
  56.8878910  73.2604093  22.7036522  56.8873137  73.1052749  23.5620799
  56.6835090  74.1067080  22.6477908  56.8578688  73.3624713  22.8224462
  38.9496181  76.6843877  27.1195339  38.7717942  76.2320486  27.8450254
  38.6615203  77.4870038  27.3033816  38.8809134  76.7366435  27.2538842
  54.6119762  77.9401594  26.3572729  55.1073428  77.2224589  26.3176749
  53.8019538  77.6372392  26.2427216  54.5663656  77.7899241  26.3346455
  40.6868651  79.2171601  24.2317098  39.8214171  79.2057291  24.1199869
  40.7867467  79.0301824  25.0788237  40.5742818  79.1877662  24.3406042
  56.6771581  80.6905282  29.0449858  57.1026653  80.1679704  28.4920283
  56.3128501  81.2886119  28.5238481  56.6858184  80.7015509  28.8858868
  53.2650181  84.4039546  25.3751015  53.7361359  85.1179809  25.5441001
  53.6010359  83.8038296  25.9110885  53.3845296  84.4211010  25.4783391
  50.1819676  69.1767017  32.3309110  50.3147581  68.3798010  32.6590086
  50.5664828  69.7033420  32.9107386  50.2576004  69.1366933  32.4652613
  53.9024127  84.1957480  32.1378708  53.3545073  83.5715364  31.8698773
  54.3637156  84.3851752  31.4222787  53.8891336  84.1316530  31.9929139
  56.7117991  72.2642835  29.5229900  56.1280980  72.7652041  29.1107468
  57.0322285  71.7572391  28.8894224  56.6731167  72.2634670  29.3688408
  49.2512790  71.1783430  19.7988575  50.0728485  71.3481742  19.5570270
  48.7882441  71.3330690  19.0754873  49.3043953  71.2265162  19.6560219
  47.8408122  69.1726192  30.5787004  48.3852535  68.8317319  31.1691346
  47.8945058  70.0311653  30.7208289  47.9297242  69.2481451  30.6868877
  22.2509995  13.0772481  22.9284359  22.9576762  12.5824511  23.0571293
  22.4397930  13.5181562  22.1987017  22.3837900  13.0690831  22.8393404
  19.3902289  16.5000017  20.8198434  19.4785635  16.3126158  21.6676645
  19.8192001  15.8537447  20.4203281  19.4664391  16.3763025  20.8870186
  16.9572749  15.7831177  19.8016096  16.3943584  15.3703787  20.3255758
  17.7193772  15.7084083  20.2209240  16.9867197  15.7108578  19.9409097
  13.5647647   8.0104785  21.5333142  13.7368150   7.9010680  22.3818423
  14.1017004   8.6559191  21.2964334  13.6692651   8.0896787  21.6238238
  19.5022348  15.9309036  23.4842218  20.2862765  16.0439884  23.8497960
  19.3018943  15.1050173  23.6800904  19.5888374  15.8255756  23.5676604
  19.6592742  17.8419138  17.1308673  18.8607987  17.6018638  17.3882542
  20.1078753  17.8933531  17.8775721  19.6067353  17.8141529  17.2793598
  18.7193478  11.5879583  25.0228862  17.9266459  11.9023095  25.2081481
  18.8342406  11.8031052  24.1849646  18.6188889  11.6663420  24.9267196
  19.6477271  11.4899787  19.9614158  20.2216133  10.8527031  20.1162722
  19.5692075  11.4903869  19.0923816  19.7210506  11.3964898  19.8560569
  24.9697419  12.8608765  19.9699012  24.7336056  12.0296829  19.8511072
  25.6140648  12.8094372  20.5553856  25.0292090  12.7306453  20.0384905
  25.9933840  12.6453213  16.0327306  25.6879657  13.3781270  16.3940622
  25.2740055  12.2391143  15.7520092  25.8421182  12.6934946  16.0440443
  31.6935632   9.2846214  15.3595650  31.6260132   9.3042173  14.4898237
  31.6791294  10.1276541  15.5851321  31.6814388   9.4119949  15.2648127
  16.1316640  11.8929198  18.1802138  15.6328334  12.6044965  18.2587027
  16.9416864  12.2129864  18.1420301  16.1772747  12.0456046  18.1858707
  15.0583698   4.7510242  23.4764436  14.2483474   5.0568022  23.3654279
  15.5358385   5.4715824  23.5917020  15.0087177   4.9024843  23.4771507
  21.6823095   9.7536987  20.5702348  21.6771133   8.8816804  20.5744774
  22.3884088   9.9525156  20.0971804  21.7868099   9.6540861  20.5009383
  15.4093988   9.4813971  19.9416168  15.5537364  10.0615179  19.3059278
  15.7569637   9.8590268  20.6466023  15.4821449   9.6234675  19.9515163
  14.4821743  17.6716743  16.8077195  14.6311307  17.1119659  16.1550599
  15.2621745  17.7508745  17.1909714  14.6195837  17.6002308  16.7674144
  17.0075044  17.8431386  18.0861686  16.9318715  17.1740196  18.6412474
  16.9364903  18.5449174  18.6002352  16.9855650  17.8476293  18.2438534
  16.3966678  21.2499706  16.5439687  16.8862608  20.5510495  16.3615351
  15.8250910  20.9523576  17.1315744  16.3851208  21.1025929  16.6040727
  22.5933681  13.8161775  25.4966477  23.4068547  13.5446924  25.6571610
  22.4328648  13.5169315  24.6926673  22.6903630  13.7316701  25.4011883
  22.0344931   6.1084497  19.3745173  21.2221613   5.8010388  19.4558345
  22.4934866   5.6283497  19.9387885  21.9825316   5.9920990  19.4699767
  19.1298439   7.5144569  24.1573875  19.5998070   8.1386685  24.5441749
  19.1760319   6.8461544  24.7167090  19.2066315   7.5079249  24.2973946
  22.6054925  14.8768065  20.7689318  23.2434646  14.3828261  20.4351774
  21.9629017  14.8045466  20.1841545  22.6049152  14.7927074  20.6331673
  22.6609182  15.5687874  17.4094675  23.4501560  15.2176938  17.5296756
  22.8352780  16.3824262  17.1471308  22.8029464  15.6373731  17.3882543
  14.2737508  14.1227719  18.4192159  14.1657863  14.1329781  19.2854217
  14.4833290  14.9482500  18.2297113  14.2887619  14.2468794  18.5196250
  28.4101722  11.2046131  16.8791375  28.4684846  11.6532780  17.6251351
  27.7768189  11.6144944  16.4421455  28.3253017  11.3319866  16.9243923
  22.0500817  16.8249673  13.3146121  21.8520505  17.3140488  12.6202332
  21.4288528  17.0290915  13.8930254  21.9288381  16.9266211  13.2969344
  23.9674618  10.3913825  18.8491369  24.6908817   9.9386352  18.6702389
  23.7024581  10.6718491  18.0663697  24.0355892  10.3664794  18.7070084
  15.7806350  10.7302286  22.4299256  14.9301980  10.8674001  22.5656901
  15.9434478   9.9966065  22.8746957  15.6790213  10.6416388  22.5154855
  26.4009932   9.3540236  17.3521919  26.9927773   9.9937487  17.3840117
  26.8368927   8.6563273  17.6413986  26.5528364   9.3458587  17.4002751
  18.2303322  13.7757609  17.9779813  17.7228413  14.3293455  18.4220443
  17.9329968  13.8365899  17.1598587  18.1108207  13.8663920  17.9228269
  17.4745808  18.7082167  14.8836820  17.2511462  17.9500996  15.2520846
  16.9855651  18.7380188  14.1617259  17.3689257  18.6004391  14.8313561
  19.5316797  12.8763899  22.4348753  19.4912652  12.2313576  21.8493909
  20.3440115  12.8200516  22.7474165  19.6459950  12.7722866  22.3945703
  19.0963576   4.4285080  21.4300767  19.6535006   4.1998890  20.7979232
  18.7724641   5.1890746  21.1535979  19.1309986   4.5068917  21.2957264
  16.8146693   7.5152734  22.3952774  17.5658020   7.8304410  22.7092328
  17.0069270   7.3131905  21.5686695  16.9538107   7.5320115  22.3196169
  23.4524654  11.0727489  15.9789905  23.8779726  10.5501911  15.4260330
  23.0881574  11.6708327  15.4578528  23.4611257  11.0837716  15.8198915
  13.0878734  19.3691707  14.7387250  13.4025293  20.1828095  14.7465032
  13.4972147  18.9841925  15.4069409  13.1946832  19.4320409  14.8391342
  22.1280238  16.3963067  24.4883134  22.2377204  15.6071627  24.8439882
  22.4571135  16.3069003  23.6857472  22.1932644  16.2668920  24.4225525
  20.6777200  14.5779688  19.0718755  20.1298146  13.9537571  18.8038820
  21.1390229  14.7673960  18.3562834  20.6644410  14.5138738  18.9269186
  20.2435526  15.5830760  15.6028096  21.0633900  15.4393726  15.8644391
  19.9629604  16.2076959  16.1444534  20.3232270  15.6541112  15.7216035
  36.7149177  23.2395612   8.5670972  36.6843181  24.0940249   8.7389242
  37.3130526  22.9390905   9.1257116  36.7986335  23.3212109   8.6745775
  29.9148862  22.3271263  13.3223903  29.0586757  22.4879761  13.3733020
  29.9616515  21.4563327  13.3428964  29.7947973  22.2222065  13.3329969
  24.2990001  31.8633981   9.0861134  23.5472901  31.4849519   8.8577179
  24.7476013  31.8952415   8.3379945  24.2539668  31.8119588   8.9418637
  29.7514961  32.2859350   4.5146682  29.4166330  32.9636272   4.0790904
  30.2641832  31.8964662   3.9263553  29.7780542  32.3283929   4.3633473
  29.2919253  34.2373619  10.4557793  29.6758632  34.8060518   9.9162568
  29.2278394  33.5123129   9.9763609  29.3392680  34.2149083  10.3051656
  32.7600683  24.3863307  15.9655554  33.3056643  25.0648394  16.0249524
  32.7017559  24.2450768  15.1057136  32.8316597  24.4655309  15.8467615
  25.8774757  31.8752373  11.3523907  25.9785120  31.0652727  11.6621035
  25.2816503  31.7809319  10.7223585  25.8047296  31.7417401  11.3050145
  34.5365751  25.8147914   6.8389282  34.4205277  26.5655600   7.2681420
  35.3321638  25.5571867   7.0885369  34.6370341  25.8882761   6.9393374
  25.7175497  36.7929962  12.7538763  26.3612953  37.2343126  13.1434921
  26.0431753  35.9883388  12.6669022  25.8607326  36.7395157  12.7984240
  19.0739802  27.8972660  10.9776241  18.8389986  27.0640312  10.8708509
  19.2125443  28.1777325  10.1637442  19.0595464  27.8156163  10.8418596
  21.3729889  20.0658390  13.8760548  20.7534921  19.4751037  13.7070563
  21.2713753  20.6569825  13.2424871  21.2667565  20.0662473  13.7565538
  26.4196077  29.8041937   8.1258625  26.7411918  30.3447144   7.5219933
  27.0668173  29.2338708   8.2580914  26.5622132  29.8001112   8.0565660
  28.4697785  21.8057932   8.2093011  29.1677950  21.9846060   8.7014475
  28.7850117  21.2828271   7.5863401  28.6193122  21.7551704   8.1895022
  21.0999022  23.6110672  16.1204117  20.9757719  24.1973117  16.7553936
  21.7517307  23.1170868  16.4216392  21.1772672  23.6249476  16.2590047
  28.6585720  28.1928377   8.1972803  29.0979356  27.5845478   8.6427576
  28.5090383  27.8135750   7.4258268  28.7007186  28.0466848   8.1491970
  26.1257363  26.7872389  15.3991628  26.7706366  26.2944832  15.0802577
  26.3659140  26.9297175  16.2257707  26.2567948  26.7349831  15.4741162
  26.6424648  17.1750329  12.2914286  26.3127979  17.6261472  11.6217985
  25.9669650  17.0966492  12.8387292  26.4935085  17.2301464  12.2737509
  32.2595057  26.5455558   5.1503572  32.1746352  27.4016525   5.2953141
  32.7479440  26.2699882   5.8185731  32.3183954  26.6312880   5.2705654
  33.8501056  13.1635852  10.5363897  33.5354497  13.8539330  10.9684319
  33.3327998  13.1080634   9.8349397  33.7265527  13.2570740  10.4960846
  33.1913490  23.1640353   6.6501307  32.6624962  23.3799986   7.3098613
  33.7138510  23.8576491   6.5702277  33.1901943  23.2983489   6.7356906
  38.6461543  28.7386657  12.0234352  37.8159246  28.9497301  12.1867768
  38.5970795  27.9123712  11.7476635  38.5168278  28.6476263  12.0071717
  20.6357126  32.7758330  12.2532447  20.1524705  33.5008820  12.2292030
  21.4480445  33.0734460  12.3642604  20.6847874  32.9260684  12.2659726
  26.7071281  31.5690511  14.8582261  26.1898222  31.2097926  14.2543569
  27.4045672  31.0452686  14.8688327  26.7336862  31.4388199  14.7712520
  27.9305332  31.3016485  19.8016096  27.3676167  30.8889095  20.3255758
  28.6926356  31.2269391  20.2209240  27.9599781  31.2293886  19.9409097
  23.4901324  33.2914506  12.4052727  24.1921903  32.7766495  12.4625483
  23.4098807  33.6188658  13.2099602  23.5825084  33.2628733  12.5325519
  38.1415501  21.3857058  15.8184773  37.3043922  21.4559245  16.0532368
  38.1103732  21.3881552  14.9459075  38.0133784  21.3967285  15.7244321
  24.5380230  23.5290093  21.5333142  24.7100734  23.4195988  22.3818423
  25.0749588  24.1744499  21.2964334  24.6425234  23.6082095  21.6238238
  22.8152099  29.4820858  11.9138335  23.6540999  29.7143791  11.9612096
  22.8463868  28.6125170  11.8445370  22.9433817  29.3877805  11.9102979
  23.4404802  29.9021734  16.2151640  23.9803027  29.7592865  16.8855012
  22.7574748  30.3018484  16.5835666  23.4196956  29.9401404  16.3686062
  32.8645687  25.5812734  11.4096664  33.6203202  26.0144248  11.4485573
  32.9708012  24.9317504  11.9831301  32.9915858  25.5490218  11.4994690
  35.9025858  29.4086011  12.1599067  35.4661090  29.4122754  12.9158039
  35.5688774  30.0891510  11.7278645  35.7888478  29.5098467  12.2079900
  18.8441947  26.1222024  16.3686062  18.5780362  25.3061141  16.5277052
  18.8580511  26.1675180  15.4981577  18.8066670  26.0078929  16.2639544
  35.8223341  16.4499839  14.4028495  36.4649250  16.5197944  14.9890411
  36.0746362  15.7829062  13.9008037  35.9545473  16.3626188  14.4155775
  23.5940554  19.6600403  19.0153069  22.9012350  19.1897382  19.2613801
  24.2100881  19.4338707  19.5894777  23.5825084  19.5567534  19.1362222
  30.6325325  33.3604446  17.1308673  29.8340571  33.1203946  17.3882542
  31.0811337  33.4118839  17.8775721  30.5799936  33.3326837  17.2793598
  39.0370204  26.1266931  11.0518705  39.6986638  25.5657600  10.9514613
  38.3961616  25.6318962  11.3771396  39.0399072  25.9703340  11.0851045
  29.9247012  29.4237063   3.3599628  30.3398161  29.0922087   2.6684124
  29.0938942  29.1905965   3.2319765  29.8635021  29.3408319   3.2390475
  19.2535361  26.9080804  13.6497806  19.0710934  26.8827690  12.7970098
  19.9885030  27.3779742  13.6886715  19.3349425  26.9742166  13.5295724
  35.3235035  27.1432314  10.7930693  35.5590624  27.2877513   9.9657544
  35.4724599  27.9074722  11.1862207  35.3800838  27.2771368  10.7294297
  22.3181113  23.6265807  20.1579915  23.0421085  23.6118837  20.6444809
  22.4197249  24.3361162  19.6601883  22.4399322  23.7290510  20.1558701
  37.1525492  25.9833980   8.6300297  37.4833709  26.5161620   8.0240392
  37.7258580  26.0372867   9.2862248  37.2859171  26.0703548   8.6378079
  32.3657381  23.8298882   9.3123877  32.4604235  24.5688176   9.7663503
  31.7416224  23.4016358   9.7458442  32.2866411  23.8760203   9.4432025
  30.6209855  27.0085095  19.9614158  31.1948716  26.3712339  20.1162722
  30.5424659  27.0089177  19.0923816  30.6943090  26.9150206  19.8560569
  19.2206271  23.7874304  13.7996873  19.7979774  23.6510755  14.4389118
  18.5220333  23.3310089  14.0542457  19.2027293  23.6996571  13.9319162
  25.9773573  25.4408360  12.0135356  25.7192818  24.6080095  11.9866655
  26.0322056  25.6665973  11.1727856  25.9473351  25.3506131  11.8855492
  31.0574624  17.5436811  12.1139448  30.3530950  17.0545996  12.2723368
  31.1059598  17.5559285  11.2427893  30.9604675  17.4726459  12.0078788
  24.9508286  22.9946123  12.5000250  24.3757877  23.1538291  13.1364211
  24.5743962  22.3581532  12.0368701  24.8111098  22.9243935  12.5254809
  28.6181574  21.4669472  17.3592629  28.2296007  21.0423690  16.7044820
  27.9536273  21.7151621  17.8669656  28.4628502  21.4408193  17.3380497
  38.2604843  21.2244476  10.1340459  38.0041408  20.4124418   9.9438342
  39.1034157  21.2322044   9.9070646  38.3470869  21.1056474  10.0725276
  32.4407936  15.1644101  14.8716613  32.8218448  14.4822272  15.2584487
  31.6371220  14.8753703  14.6892278  32.3784397  15.0211149  14.9020669
  29.7220512  25.6968076   5.5569436  30.5361151  25.9882969   5.4452207
  29.6579654  25.0427939   4.9827729  29.8323251  25.6433271   5.4558273
  25.5928421  29.1689594  10.6841748  26.2302368  28.9301341  11.2293541
  26.0183492  29.3726753   9.9494909  25.7504587  29.1640604  10.6558905
  20.2841063  31.4077930  14.5676052  20.3245208  31.6792781  13.7395831
  20.8435587  31.9319838  14.9833840  20.3724409  31.5253685  14.5067940
  26.3999776  17.6698299  24.7379222  26.0853217  18.4397862  24.4748784
  26.0789709  17.1068555  24.1531449  26.3058695  17.7008567  24.6120572
  36.9666423  28.1638521  16.0327306  36.6612240  28.8966578  16.3940622
  36.2472639  27.7576451  15.7520092  36.8153766  28.2120254  16.0440443
  27.9749893  29.6462016  12.3635534  28.0488901  29.4837188  13.2177384
  28.7919399  29.8352206  12.1196016  28.1066251  29.6498759  12.4533560
  42.6668215  24.8031522  15.3595650  42.5992716  24.8227481  14.4898237
  42.6523878  25.6461849  15.5851321  42.6546972  24.9305257  15.2648127
  21.7355649  29.9919879   9.3929978  20.9093767  30.2381616   9.2664257
  21.7967641  29.9131960  10.2592036  21.6229816  30.0164828   9.5018922
  33.0764562  16.2066680  18.6836740  33.8218154  16.0176490  18.2700165
  32.6601866  16.7324918  18.1250596  33.1249536  16.2568825  18.5401313
  26.5154478  32.6096760   7.0949008  26.8052777  32.2185741   6.3708234
  27.2457959  32.7913464   7.5354283  26.6661363  32.5790573   7.0531815
  40.4526833  23.5775908  13.6342245  41.0034754  22.9443977  13.8739337
  40.4370948  24.1091301  14.3257749  40.5312029  23.5624856  13.7721103
  27.1049224  27.4114505  18.1802138  26.6060917  28.1230273  18.2587027
  27.9149448  27.7315172  18.1420301  27.1505330  27.5641354  18.1858707
  24.4560394  34.5864142  10.1609157  24.2360689  34.2961497  10.9535824
  24.2354916  33.9279097   9.6327070  24.3907988  34.4463850  10.1998066
  23.3677341  26.6737458  12.4264859  23.0790590  26.0474930  12.9610586
  24.2360689  26.6157746  12.4929539  23.4537593  26.5725003  12.5155814
  34.1555239  21.8172242  12.7446841  33.8120005  21.0962577  13.0954091
  34.2548282  21.6086093  11.9025199  34.1197282  21.6796445  12.6718521
  26.6228350  35.9593532   8.9439850  27.2752408  35.4269974   9.1730876
  25.9253958  35.6062184   9.3307724  26.6159068  35.8283055   9.0352017
  23.5709615  28.3132710   8.3507224  24.3255583  28.6945749   8.5642687
  22.9780227  28.7643853   8.8053921  23.5946328  28.4361537   8.4490102
  34.6168268  28.2797946   8.2870829  35.1826301  28.9391156   8.2029372
  33.9696171  28.6247644   8.7587231  34.6047024  28.4279887   8.3443585
  26.0316282  20.2695550  23.4764436  25.2216057  20.5753330  23.3654279
  26.5090968  20.9901132  23.5917020  25.9819760  20.4210151  23.4771507
  24.8907841  29.4841271  13.7247339  24.3688595  29.6241563  14.4099204
  25.2781861  28.7251935  13.9149457  24.8711542  29.3926795  13.8548416
  31.0874846  31.2236730   7.7107908  30.8461522  30.4904591   7.3034973
  31.2676179  31.7723587   7.0574242  31.0782470  31.1959121   7.5538131
  26.3174167  26.5145290   9.1228830  26.1216949  27.1220024   8.5289133
  26.5408512  25.8213234   8.6420504  26.3208808  26.5022815   8.9644911
  24.7152697  23.4000028   9.2409699  25.4375349  23.5641186   8.7813505
  24.2360690  24.1209693   9.1349039  24.7516427  23.5298257   9.1575313
  32.6746204  19.7363827  14.6206384  31.8357305  19.7625105  14.3844647
  32.7450572  20.3834562  15.2011730  32.5614598  19.8359952  14.6715501
  22.3660313  25.8058100  18.3463839  22.8781410  26.0842353  17.6972598
  22.0796656  26.5447394  18.7126652  22.3995177  25.9560454  18.3053717
  31.1215483  16.6349204   9.3534000  31.8241835  16.4356952   8.8753958
  30.8559671  15.8625146   9.6602843  31.1862115  16.4912170   9.3279441
  36.5503728  24.9431813  11.9067626  36.4637703  25.0987239  12.7602404
  36.0954208  25.5869889  11.5327031  36.4706985  25.0607568  11.9774732
  25.8844039  17.8984489  18.4064880  25.6927236  17.9139623  19.2564304
  26.7342635  18.0948163  18.3831535  25.9819761  17.9298840  18.5288175
  20.2690952  20.4275470  16.3848697  20.1276444  19.5759411  16.5093205
  20.5531515  20.4704131  15.5610903  20.2898798  20.3075220  16.2816321
  30.4229544  22.2642560  10.5293185  30.1764259  22.1838311  11.3629974
  30.7514667  21.4796028  10.3355713  30.4350788  22.1368826  10.6240708
  34.3177593  28.9725920  14.3179966  34.1791952  29.6706966  14.8228709
  33.5377591  28.8174576  13.9616148  34.1820820  29.0526086  14.3406240
  26.3826572  24.9999279  19.9416168  26.5269947  25.5800487  19.3059278
  26.7302220  25.3775576  20.6466023  26.4554033  25.1419983  19.9515163
  28.5546489  24.1989447  17.7241300  27.8069803  24.3920462  17.3189578
  28.7088014  23.3734667  17.4865421  28.4668916  24.1054559  17.6286706
  25.4554327  33.1902051  16.8077195  25.6043890  32.6304967  16.1550599
  26.2354329  33.2694053  17.1909714  25.5928420  33.1187616  16.7674144
  35.8130966  28.3304174   5.0796466  35.4337775  27.5441312   5.0725755
  35.1497211  28.8791031   4.9368110  35.6589441  28.2948998   5.0577262
  27.9807627  33.3616694  18.0861686  27.9051298  32.6925504  18.6412474
  27.9097486  34.0634482  18.6002352  27.9588234  33.3661601  18.2438534
  28.7948266  18.0939998  18.6136703  29.2520880  18.8263972  18.7409496
  28.8704595  17.6706463  19.3723959  28.8739236  18.1397236  18.7437780
  21.0381257  18.3405818  19.7026147  20.5023447  17.7286176  20.0186914
  21.0999022  18.9153954  20.3559814  20.9676890  18.3352746  19.8461574
  33.2675592  11.2729873  12.4830546  33.3859160  11.7306337  11.7497849
  33.0937768  10.4675135  12.1966764  33.2594763  11.2223645  12.3331480
  28.6377874  31.8817693   8.9185292  29.4027765  31.6127336   8.5967956
  28.5355964  31.3967703   9.6355355  28.7359370  31.7707257   8.9765119
  26.6730644  20.0842102  15.4578527  25.8826719  19.9033562  15.7795863
  27.0691267  19.3069055  15.4408822  26.6147520  19.9429563  15.5031076
  32.0574330  27.7184532  13.1837973  31.3819332  27.4869764  13.6851360
  32.0666706  27.1105715  12.5580078  31.9592835  27.5943457  13.1654126
  29.1868474  22.5602361  19.9402026  29.1227615  23.4212318  19.8122163
  29.3265662  22.2434354  19.1397578  29.1983944  22.6402528  19.8030239
  34.0591065  30.5749665   5.4148151  34.1410902  31.3816651   5.0909602
  34.5440807  30.5945624   6.1388925  34.1428223  30.6970327   5.4735050
  27.8687568  25.2534501  14.0818229  27.4449817  25.4539000  13.3457248
  27.6932423  24.4063349  14.1942529  27.7798449  25.1583282  13.9891919
  27.3699261  36.7685014  16.5439687  27.8595192  36.0695803  16.3615351
  26.7983494  36.4708884  17.1315744  27.3583791  36.6211237  16.6040727
  23.1570013  25.7486552   9.5146202  23.3134632  25.6833355  10.3702194
  23.4970606  26.5235105   9.3024881  23.2303248  25.8535750   9.6100796
  29.6949158  25.1244436   8.3839565  30.2364703  24.6214817   8.8478186
  30.0095717  25.0709630   7.5729050  29.8213555  25.0423856   8.3323377
  27.8635607  30.5161787   5.6679593  27.9328428  29.6576326   5.8072593
  28.6424062  30.7333668   5.3398618  27.9888457  30.4214651   5.6396750
  30.8438427  20.0180740  18.4361866  31.0580397  19.3791654  17.8825219
  30.2272326  20.4626564  18.0069727  30.7843756  19.9890884  18.2912297
  32.2543095  32.9399488   9.8816086  31.8622887  32.6366204   9.1638953
  32.4096167  33.7768578   9.6921040  32.2196685  33.0183325   9.7472584
  33.0077515  21.6269805  19.3745173  32.1954197  21.3195696  19.4558345
  33.4667450  21.1468805  19.9387885  32.9557900  21.5106298  19.4699767
  32.4182770  29.5049477   9.8222117  32.0597424  29.6764120  10.5986149
  31.9321480  29.9662683   9.2650115  32.2941467  29.5988448   9.8547386
  30.2353156  13.1280676  13.4249208  29.3646714  13.1019397  13.3782518
  30.4893497  12.9557868  12.6075054  30.1446716  13.0990819  13.2969345
  30.1031022  23.0329877  24.1573875  30.5730654  23.6571993  24.5441749
  30.1492903  22.3646852  24.7167090  30.1798898  23.0264557  24.2973946
  27.2602296  15.1386904  14.8822679  26.7440785  14.4467096  15.0074258
  26.6996225  15.8057681  14.8285277  27.1008809  15.1350162  14.8928745
  29.3294530  15.6779864  16.7115531  28.9426283  15.7028896  17.4929061
  28.8427467  15.1121543  16.2590048  29.2007038  15.5975615  16.7603435
  35.3044509  22.2442519  15.3355233  34.8772117  22.1568868  14.5803333
  34.6670562  22.3520295  15.9210078  35.1474116  22.2475179  15.3100675
  28.9951671  12.5646850  19.0025791  29.6244789  13.1007150  18.7246862
  29.1637534  12.4724209  19.8539357  29.1129466  12.6308212  19.0874319
  28.7965586  17.3518044  21.2752203  29.6239016  17.0803193  21.3310817
  28.8173432  18.1478886  21.6316021  28.9218436  17.4297799  21.3367386
  33.6341766  31.0873181  17.4094675  34.4234144  30.7362246  17.5296756
  33.8085363  31.9009570  17.1471308  33.7762047  31.1559039  17.3882543
  23.3735076  24.4981907  14.4622463  22.5323083  24.3985781  14.6701357
  23.5825084  25.2677387  14.8136784  23.2799769  24.5973951  14.5449778
  20.8510643  22.1201444  12.2907214  20.4567341  22.1944456  11.5157324
  20.2950760  22.5059390  12.8415576  20.7113455  22.1883219  12.2574874
  32.4875590  15.0982738  11.9711093  32.6925183  15.0305046  12.8168090
  32.1602014  15.9041559  11.9032270  32.4690838  15.2068679  12.0870748
  27.1851741  22.4263306  13.7120061  26.8814878  21.8719295  14.3130469
  26.4831162  22.6055516  13.2248095  27.0367951  22.3708089  13.7289767
  25.2470092  29.6413027  18.4192159  25.1390447  29.6515089  19.2854217
  25.4565873  30.4667807  18.2297113  25.2620203  29.7654102  18.5196250
  35.7409277  15.6514502  11.4513858  35.1283591  16.1384905  11.8367590
  35.8373452  14.9757993  11.9951510  35.6647175  15.6232811  11.5892717
  23.2643884  26.8925670  15.8814096  22.6731817  27.5335168  15.8517111
  24.0264907  27.3163287  15.8545396  23.2892145  27.0501508  15.8729244
  23.6604507  18.0527667  16.5482114  24.1205988  18.1266597  17.2857238
  23.7060613  18.8508921  16.1981935  23.7355062  18.1821814  16.6054870
  25.3087856  18.7194362  21.1154141  24.9173422  18.0727709  21.5509919
  25.4773719  19.3105797  21.7348396  25.2758767  18.7108630  21.2716847
  39.3834305  26.7231439  16.8791375  39.4417429  27.1718088  17.6251351
  38.7500773  27.1330252  16.4421455  39.2985601  26.8505174  16.9243923
  33.0233400  32.3434981  13.3146121  32.8253089  32.8325796  12.6202332
  32.4021111  32.5476223  13.8930254  32.9020965  32.4451519  13.2969344
  27.0841378  24.1119878   7.6556365  27.8283423  24.4994154   7.8939315
  27.2302075  23.2677303   7.8196853  27.2151964  24.0450351   7.7150335
  29.0020954  15.9070137  12.6888226  28.1556999  16.0792945  12.5629576
  28.9992086  15.1019481  13.0254055  28.8768104  15.8131166  12.7199353
  30.0719254  19.6845351  13.5550284  29.5979209  19.1587113  14.0655595
  30.4437390  19.1374824  12.9865146  30.0569143  19.5261348  13.5465432
  20.4492284  21.6816858  18.9233830  21.3117898  21.5812567  18.8371160
  20.1184067  21.1011567  18.3619402  20.5277481  21.5808485  18.8279236
  36.3355985  24.7447727  14.9657065  36.0954208  23.9054142  14.9699491
  36.8147992  24.8247894  15.6897838  36.3708169  24.6329127  15.0731867
  38.3361172  21.5249184  12.9186324  38.0970942  21.4845018  12.0807109
  38.4995073  22.3720336  13.0452045  38.3251475  21.6441269  12.8139806
  34.9407202  25.9099133  18.8491369  35.6641401  25.4571660  18.6702389
  34.6757164  26.1903799  18.0663697  35.0088475  25.8850102  18.7070084
  23.8094070  20.5059307  15.5844248  23.1847141  20.5177699  14.9770201
  23.4739665  20.9819482  16.2335489  23.6679562  20.5777824  15.5900817
  20.5219746  28.5659767  17.0248013  19.9919671  27.8752206  17.0742987
  20.7944839  28.5569952  16.1960721  20.4844468  28.4626899  16.9095429
  31.5539836  29.1485469   5.7485695  32.2774035  29.6143582   5.6050268
  31.1140428  29.2159079   4.9983292  31.5955529  29.2269306   5.6170477
  30.7225992  26.0083012  16.9986384  30.1082985  25.4641062  17.2935019
  31.2393277  25.4947248  16.5192200  30.7081654  25.8519421  16.9710613
  29.9622289  27.0787282  14.7330683  29.5349897  26.4537000  14.2996118
  29.9547233  26.7962204  15.5589690  29.8981430  26.9440062  14.7910510
  23.0784816  22.1152455  17.8019117  23.2378303  21.3595779  18.2070839
  22.8977709  22.6643394  18.4559854  23.0750175  22.0846268  17.9581823
  31.0205119  14.2813690  18.3569906  30.5245680  14.4777364  17.6661473
  31.7774181  14.6806359  18.1858708  31.0591944  14.3691424  18.2290043
  28.2907998  17.9556036  14.9473217  28.3150486  17.4216148  14.2585997
  28.5419472  17.4473345  15.6098807  28.3317917  17.8016940  14.9437862
  15.8015588  25.2387531  14.3816361  15.6959037  25.1934376  13.5168445
  15.0515808  25.5841312  14.6630646  15.6751191  25.2828439  14.2953691
  24.5709321  16.6826854  14.3278961  24.6107692  17.1836061  15.0413669
  23.7458985  16.7737248  14.0584884  24.4548847  16.7708671  14.3929499
  26.7538934  26.2487594  22.4299256  25.9034564  26.3859309  22.5656901
  26.9167061  25.5151373  22.8746957  26.6522797  26.1601696  22.5154855
  25.9923684  23.1987364  16.6252860  25.1615614  23.3661182  16.4188108
  25.9375201  22.8223315  17.4101745  25.8613099  23.1677096  16.7101388
  23.8007467  16.6896257  22.2609271  24.4260171  16.1458390  22.5338703
  23.3457947  16.2091175  21.6917061  23.8255728  16.5385739  22.2170865
  37.3742516  24.8725544  17.3521919  37.9660356  25.5122795  17.3840117
  37.8101511  24.1748581  17.6413986  37.5260947  24.8643895  17.4002751
  29.2035906  29.2942917  17.9779813  28.6960997  29.8478763  18.4220443
  28.9062552  29.3551206  17.1598587  29.0840791  29.3849228  17.9228269
  31.3698088  17.6596236  16.8204476  31.7953160  17.2068763  16.2088002
  30.7555081  17.1056307  17.0969263  31.3426733  17.5110212  16.7709501
  31.8143686  33.2106174   5.9083756  31.0972996  33.0367037   5.4430994
  32.4650424  32.9758747   5.3759242  31.8045537  33.1501967   5.7612974
  34.3991657  22.0870763   9.6525061  33.7282847  22.6300465   9.5238127
  35.0931408  22.5565618   9.4106756  34.4020525  22.2369034   9.5980589
  28.4478391  34.2267475  14.8836820  28.2244046  33.4686304  15.2520846
  27.9588234  34.2565496  14.1617259  28.3421840  34.1189699  14.8313561
  34.5619785  18.5426646  12.5615435  34.9147395  18.1156369  13.2361233
  33.7034586  18.4577490  12.6916511  34.4869230  18.4671387  12.6810445
  23.2603470  21.1734166  10.6198281  22.5415459  21.5898299  10.8871145
  23.6315832  21.7388405  10.0689919  23.2095402  21.3183448  10.5781088
  32.5603051  21.8062015  16.5100277  32.5400978  21.6245310  17.3635056
  32.6082251  22.6774034  16.4859860  32.5637692  21.9078553  16.6323572
  30.5049381  28.3949207  22.4348753  30.4645235  27.7498884  21.8493909
  31.3172699  28.3385824  22.7474165  30.6192534  28.2908174  22.3945703
  27.0956848  34.4467933  12.3373904  26.6817247  33.7842063  11.9477746
  27.7804222  34.5945792  11.8169598  27.1355220  34.3708591  12.2030401
  30.4622142  33.6058018  13.0897521  30.0638425  33.7160289  12.3218341
  29.8473362  33.8140085  13.6724081  30.3121032  33.6531586  13.0628820
  35.9943845  13.6645058  13.4899747  35.4874710  12.9574198  13.4220925
  36.7911279  13.3338247  13.6200824  36.0371084  13.5118210  13.4998742
  31.9107861  20.1711671   9.3873411  31.6821554  20.1944372   8.5451769
  32.1705937  19.3469138   9.5068421  31.9154049  20.0527750   9.2798609
  26.1927089  22.0246144  18.9898511  25.6805992  21.4167327  19.3483542
  26.0206585  22.7402736  19.4572487  26.0916726  22.0409443  19.1114735
  21.0392804  20.4683719  21.6400873  20.8695394  21.1285094  21.0949079
  20.5958754  20.6790280  22.3613362  20.9492138  20.5969701  21.6662502
  24.9652623  18.7088217  10.6827606  25.4409990  19.0705297  10.0477788
  24.4641223  19.3644684  10.9627749  24.9617982  18.8582406  10.6304347
  38.1963985  28.1809985   6.4740611  38.5797591  28.9301341   6.7038709
  37.4008098  28.4275805   6.2152601  38.1357767  28.3279679   6.4698185
  30.0696160  19.9470388  21.4300767  30.6267590  19.7184198  20.7979232
  29.7457225  20.7076054  21.1535979  30.1042570  20.0254225  21.2957264
  17.9394868  23.3730584  16.8989363  17.3921588  22.7031230  17.0170231
  18.7287247  23.0060432  16.9632830  17.9747052  23.2195571  16.9258063
  27.7879277  23.0338042  22.3952774  28.5390604  23.3489718  22.7092328
  27.9801853  22.8317212  21.5686695  27.9270691  23.0505423  22.3196169
  34.6364567  19.1611608   9.6376569  34.6358793  19.0060264  10.4960845
  34.4320747  20.0074595   9.5817955  34.6064345  19.2632229   9.7564509
  16.6981838  22.5851392  14.0535386  16.5203599  22.1328001  14.7790301
  16.4100860  23.3877554  14.2373863  16.6294791  22.6373950  14.1878889
  32.3605419  23.8409110  13.2912776  32.8559084  23.1232105  13.2516796
  31.5505195  23.5379907  13.1767263  32.3149312  23.6906756  13.2686502
  27.8064031  27.6906923   5.4409780  26.9975353  27.3673596   5.3943090
  28.3138939  26.9840145   5.3738029  27.7613697  27.5388239   5.4240075
  18.4354308  25.1179116  11.1657145  17.5699827  25.1064806  11.0539916
  18.5353124  24.9309339  12.0128284  18.3228475  25.0885177  11.2746089
  34.4257238  26.5912797  15.9789905  34.8512309  26.0687219  15.4260330
  34.0614158  27.1893635  15.4578528  34.4343840  26.6023024  15.8198915
  24.0611318  34.8877015  14.7387250  24.3757877  35.7013403  14.7465032
  24.4704731  34.5027233  15.4069409  24.1679416  34.9505717  14.8391342
  31.0135837  30.3047061  12.3091062  31.4847016  31.0187324  12.4781047
  31.3496016  29.7045812  12.8450932  31.1330952  30.3218526  12.4123438
  27.9305332  15.0774532  19.2649157  28.0633238  14.2805525  19.5930133
  28.3150485  15.6040935  19.8447433  28.0061661  15.0374449  19.3992660
  31.6509784  30.0964996  19.0718755  31.1030730  29.4722879  18.8038820
  32.1122812  30.2859268  18.3562834  31.6376993  30.0324046  18.9269186
  31.0037687  12.0004858  15.8630250  30.1983651  11.8902588  16.1798089
  30.8744423  12.1017314  15.0060116  30.8657820  11.9988528  15.7838291
  34.4603648  18.1650350  16.4569947  33.8766637  18.6659557  16.0447515
  34.7807942  17.6579906  15.8234270  34.4216823  18.1642185  16.3028454
  25.5893779  15.0733707  17.5127051  26.1338192  14.7324834  18.1031392
  25.6430715  15.9319169  17.6548335  25.6782898  15.1488966  17.6208924
  21.4024338  28.8350123  14.3865859  22.0069195  28.7945957  13.7579679
  21.1951650  29.6821275  14.4169915  21.4613235  28.9538126  14.2981975
  31.2168110  31.1016068  15.6028096  32.0366484  30.9579034  15.8644391
  30.9362188  31.7262267  16.1444534  31.2964853  31.1726420  15.7216035
  16.6375620  27.8184741  14.2564782  16.5399898  27.0081012  14.5654838
  17.4204490  27.7976534  13.8711050  16.7391757  27.6951831  14.2451645
  47.6881760  38.7580920   8.5670972  47.6575765  39.6125557   8.7389242
  48.2863109  38.4576213   9.1257116  47.7718918  38.8397417   8.6745775
  40.8881445  37.8456571  13.3223903  40.0319341  38.0065069  13.3733020
  40.9349099  36.9748635  13.3428964  40.7680557  37.7407373  13.3329969
  35.2722585  47.3819289   9.0861134  34.5205484  47.0034827   8.8577179
  35.7208597  47.4137722   8.3379945  35.2272252  47.3304896   8.9418637
  40.7247545  47.8044658   4.5146682  40.3898913  48.4821580   4.0790904
  41.2374415  47.4149970   3.9263553  40.7513126  47.8469237   4.3633473
  40.2651836  49.7558927  10.4557793  40.6491215  50.3245826   9.9162568
  40.2010977  49.0308437   9.9763609  40.3125263  49.7334390  10.3051656
  43.7333266  39.9048615  15.9655554  44.2789226  40.5833701  16.0249524
  43.6750143  39.7636076  15.1057136  43.8049181  39.9840617  15.8467615
  36.8507341  47.3937681  11.3523907  36.9517704  46.5838035  11.6621035
  36.2549086  47.2994627  10.7223585  36.7779880  47.2602709  11.3050145
  45.5098335  41.3333222   6.8389282  45.3937861  42.0840908   7.2681420
  46.3054222  41.0757175   7.0885369  45.6102924  41.4068069   6.9393374
  36.6908081  52.3115270  12.7538763  37.3345536  52.7528434  13.1434921
  37.0164336  51.5068696  12.6669022  36.8339909  52.2580465  12.7984240
  30.0472385  43.4157968  10.9776241  29.8122570  42.5825620  10.8708509
  30.1858026  43.6962633  10.1637442  30.0328048  43.3341471  10.8418596
  32.3462473  35.5843698  13.8760548  31.7267504  34.9936345  13.7070563
  32.2446336  36.1755133  13.2424871  32.2400148  35.5847781  13.7565538
  37.3928660  45.3227245   8.1258625  37.7144501  45.8632452   7.5219933
  38.0400757  44.7524016   8.2580914  37.5354716  45.3186420   8.0565660
  39.4430368  37.3243240   8.2093011  40.1410533  37.5031367   8.7014475
  39.7582701  36.8013579   7.5863401  39.5925706  37.2737012   8.1895022
  32.0731606  39.1295980  16.1204117  31.9490303  39.7158425  16.7553936
  32.7249890  38.6356176  16.4216392  32.1505255  39.1434784  16.2590047
  39.6318304  43.7113685   8.1972803  40.0711939  43.1030785   8.6427576
  39.4822967  43.3321058   7.4258268  39.6739770  43.5652156   8.1491970
  37.0989947  42.3057697  15.3991628  37.7438949  41.8130140  15.0802577
  37.3391724  42.4482483  16.2257707  37.2300532  42.2535139  15.4741162
  39.6376038  45.1512603  15.0498521  39.9199281  44.3564008  14.8285277
  40.3662199  45.6293190  15.0703582  39.7865602  45.1047200  15.0201536
  37.6157232  32.6935637  12.2914286  37.2860562  33.1446780  11.6217985
  36.9402234  32.6151800  12.8387292  37.4667668  32.7486772  12.2737509
  43.2327640  42.0640866   5.1503572  43.1478936  42.9201833   5.2953141
  43.7212024  41.7885190   5.8185731  43.2916538  42.1498188   5.2705654
  44.8233640  28.6821159  10.5363897  44.5087081  29.3724638  10.9684319
  44.3060581  28.6265942   9.8349397  44.6998110  28.7756048  10.4960846
  44.1646074  38.6825660   6.6501307  43.6357545  38.8985294   7.3098613
  44.6871094  39.3761799   6.5702277  44.1634527  38.8168797   6.7356906
  49.6194127  44.2571965  12.0234352  48.7891830  44.4682609  12.1867768
  49.5703379  43.4309019  11.7476635  49.4900862  44.1661571  12.0071717
  36.0545681  42.5788877   5.4508775  35.4702897  43.0838909   5.8574639
  35.6515777  42.3531264   4.7105367  35.9084985  42.6197126   5.4013800
  31.6089710  48.2943638  12.2532447  31.1257288  49.0194128  12.2292030
  32.4213028  48.5919768  12.3642604  31.6580458  48.4445992  12.2659726
  37.6803864  47.0875819  14.8582261  37.1630806  46.7283234  14.2543569
  38.3778255  46.5637993  14.8688327  37.7069445  46.9573507  14.7712520
  38.9037916  46.8201793  19.8016096  38.3408751  46.4074403  20.3255758
  39.6658939  46.7454699  20.2209240  38.9332364  46.7479194  19.9409097
  40.5122896  38.8254529   3.9277696  40.7518900  39.0332513   3.1153039
  40.8338737  38.0212038   4.0366640  40.5960054  38.7368630   3.8238249
  35.8213186  30.7547925   7.7737234  36.5759154  31.1226242   7.5354284
  35.6440721  31.1287479   8.5416413  35.9067665  30.8646113   7.8522122
  34.4633907  48.8099814  12.4052727  35.1654487  48.2951803  12.4625483
  34.3831390  49.1373966  13.2099602  34.5557668  48.7814040  12.5325519
  49.1148085  36.9042366  15.8184773  48.2776506  36.9744553  16.0532368
  49.0836316  36.9066860  14.9459075  48.9866367  36.9152593  15.7244321
  35.5112814  39.0475401  21.5333142  35.6833318  38.9381296  22.3818423
  36.0482171  39.6929807  21.2964334  35.6157818  39.1267403  21.6238238
  34.1770251  33.1618244   4.4715347  33.9945824  33.3790125   3.6456339
  35.0395864  33.2757257   4.5273961  34.2774840  33.2108142   4.3569834
  33.7884683  45.0006166  11.9138335  34.6273582  45.2329099  11.9612096
  33.8196452  44.1310478  11.8445370  33.9166400  44.9063113  11.9102979
  34.4137386  45.4207041  16.2151640  34.9535611  45.2778172  16.8855012
  33.7307332  45.8203792  16.5835666  34.3929540  45.4586712  16.3686062
  39.8569970  30.1644655   7.5064371  40.5856130  29.9860610   7.0602527
  39.9464863  31.0062734   7.7171549  39.9776632  30.2628533   7.4717888
  43.8378271  41.0998042  11.4096664  44.5935786  41.5329556  11.4485573
  43.9440595  40.4502812  11.9831301  43.9648441  41.0675526  11.4994690
  46.8758442  44.9271319  12.1599067  46.4393674  44.9308062  12.9158039
  46.5421357  45.6076818  11.7278645  46.7621062  45.0283775  12.2079900
  29.8174531  41.6407332  16.3686062  29.5512946  40.8246449  16.5277052
  29.8313095  41.6860488  15.4981577  29.7799253  41.5264237  16.2639544
  46.7955925  31.9685147  14.4028495  47.4381833  32.0383252  14.9890411
  47.0478945  31.3014370  13.9008037  46.9278057  31.8811496  14.4155775
  33.7232278  36.4392417   2.9837820  33.0090455  36.1530596   3.3960252
  34.2076246  36.7789042   3.6244207  33.6891641  36.4474066   3.1393455
  34.5673137  35.1785711  19.0153069  33.8744934  34.7082690  19.2613801
  35.1833465  34.9524015  19.5894777  34.5557667  35.0752842  19.1362222
  41.6057909  48.8789754  17.1308673  40.8073154  48.6389254  17.3882542
  42.0543920  48.9304147  17.8775721  41.5532520  48.8512145  17.2793598
  50.0102788  41.6452239  11.0518705  50.6719222  41.0842908  10.9514613
  49.3694200  41.1504270  11.3771396  50.0131655  41.4888648  11.0851045
  40.8979596  44.9422371   3.3599628  41.3130744  44.6107394   2.6684124
  40.0671525  44.7091273   3.2319765  40.8367604  44.8593627   3.2390475
  30.2267944  42.4266112  13.6497806  30.0443518  42.4012998  12.7970098
  30.9617613  42.8965049  13.6886715  30.3082008  42.4927474  13.5295724
  46.2967619  42.6617622  10.7930693  46.5323208  42.8062820   9.9657544
  46.4457182  43.4260030  11.1862207  46.3533422  42.7956676  10.7294297
  33.2913696  39.1451114  20.1579915  34.0153668  39.1304145  20.6444809
  33.3929833  39.8546470  19.6601883  33.4131905  39.2475818  20.1558701
  48.1258075  41.5019288   8.6300297  48.4566293  42.0346928   8.0240392
  48.6991164  41.5558175   9.2862248  48.2591755  41.5888856   8.6378079
  43.3389965  39.3484190   9.3123877  43.4336819  40.0873484   9.7663503
  42.7148808  38.9201666   9.7458442  43.2598995  39.3945511   9.4432025
  41.5942438  42.5270403  19.9614158  42.1681300  41.8897647  20.1162722
  41.5157242  42.5274485  19.0923816  41.6675673  42.4335514  19.8560569
  30.1938855  39.3059612  13.7996873  30.7712357  39.1696063  14.4389118
  29.4952917  38.8495396  14.0542457  30.1759876  39.2181879  13.9319162
  43.5912986  41.1932930   2.5460829  43.5093148  41.2635117   3.4115816
  44.2292706  41.7562674   2.3544570  43.6732823  41.2871901   2.6450779
  36.9506157  40.9593668  12.0135356  36.6925401  40.1265403  11.9866655
  37.0054640  41.1851281  11.1727856  36.9205935  40.8691439  11.8855492
  42.0307207  33.0622119  12.1139448  41.3263534  32.5731304  12.2723368
  42.0792181  33.0744593  11.2427893  41.9337259  32.9911767  12.0078788
  35.9240869  38.5131430  12.5000250  35.3490460  38.6723599  13.1364211
  35.5476545  37.8766840  12.0368701  35.7843681  38.4429243  12.5254809
  39.5914158  36.9854780  17.3592629  39.2028591  36.5608997  16.7044820
  38.9268856  37.2336929  17.8669656  39.4361086  36.9593501  17.3380497
  49.2337427  36.7429784  10.1340459  48.9773992  35.9309726   9.9438342
  50.0766741  36.7507352   9.9070646  49.3203452  36.6241782  10.0725276
  25.6697688  38.1571505  10.5144691  25.7557940  37.7803374  11.2958221
  26.2973485  37.7831951  10.0364649  25.7754239  38.0456987  10.5590168
  43.4140519  30.6829408  14.8716613  43.7951031  30.0007580  15.2584487
  42.6103804  30.3939011  14.6892278  43.3516981  30.5396457  14.9020669
  40.6953096  41.2153384   5.5569436  41.5093735  41.5068277   5.4452207
  40.6312237  40.5613247   4.9827729  40.8055835  41.1618579   5.4558273
  46.9162586  43.8979380  19.9699012  46.6801224  43.0667445  19.8511072
  47.5605815  43.8464988  20.5553856  46.9757257  43.7677068  20.0384905
  36.5661004  44.6874902  10.6841748  37.2034951  44.4486649  11.2293541
  36.9916076  44.8912061   9.9494909  36.7237171  44.6825912  10.6558905
  31.2573647  46.9263238  14.5676052  31.2977792  47.1978089  13.7395831
  31.8168171  47.4505146  14.9833840  31.3456993  47.0438993  14.5067940
  37.2063819  39.9077192   5.0216637  37.5908972  39.6884898   5.7733182
  36.9575440  40.7340137   5.1517714  37.2265892  39.9975338   5.1517714
  47.9399007  43.6823829  16.0327306  47.6344824  44.4151886  16.3940622
  47.2205223  43.2761759  15.7520092  47.7886349  43.7305562  16.0440443
  38.9482476  45.1647324  12.3635534  39.0221485  45.0022496  13.2177384
  39.7651983  45.3537514  12.1196016  39.0798835  45.1684067  12.4533560
  53.6400799  40.3216830  15.3595650  53.5725299  40.3412789  14.4898237
  53.6256461  41.1647157  15.5851321  53.6279555  40.4490565  15.2648127
  32.7088233  45.5105187   9.3929978  31.8826351  45.7566924   9.2664257
  32.7700224  45.4317268  10.2592036  32.5962400  45.5350136   9.5018922
  34.9264257  31.5774128  10.3525418  34.0586682  31.6496728  10.4183027
  35.2139461  32.3796207  10.5413393  34.8404005  31.7068275  10.3900184
  44.0497145  31.7251988  18.6836740  44.7950737  31.5361798  18.2700165
  43.6334450  32.2510226  18.1250596  44.0982120  31.7754133  18.5401313
  37.4887062  48.1282067   7.0949008  37.7785360  47.7371049   6.3708234
  38.2190543  48.3098772   7.5354283  37.6393946  48.0975881   7.0531815
  51.4259416  39.0961216  13.6342245  51.9767338  38.4629285  13.8739337
  51.4103532  39.6276609  14.3257749  51.5044613  39.0810164  13.7721103
  38.0781807  42.9299813  18.1802138  37.5793501  43.6415581  18.2587027
  38.8882031  43.2500480  18.1420301  38.1237914  43.0826662  18.1858707
  35.4292978  50.1049450  10.1609157  35.2093273  49.8146805  10.9535824
  35.2087500  49.4464405   9.6327070  35.3640572  49.9649158  10.1998066
  34.3409925  42.1922766  12.4264859  34.0523173  41.5660238  12.9610586
  35.2093273  42.1343054  12.4929539  34.4270177  42.0910311  12.5155814
  45.1287823  37.3357550  12.7446841  44.7852588  36.6147885  13.0954091
  45.2280865  37.1271401  11.9025199  45.0929865  37.1981753  12.6718521
  37.5960933  51.4778840   8.9439850  38.2484991  50.9455282   9.1730876
  36.8986542  51.1247492   9.3307724  37.5891651  51.3468363   9.0352017
  34.5442198  43.8318017   8.3507224  35.2988166  44.2131056   8.5642687
  33.9512811  44.2829161   8.8053921  34.5678912  43.9546845   8.4490102
  45.5900852  43.7983254   8.2870829  46.1558884  44.4576464   8.2029372
  44.9428755  44.1432952   8.7587231  45.5779608  43.9465195   8.3443585
  37.0048865  35.7880858  23.4764436  36.1948641  36.0938637  23.3654279
  37.4823552  36.5086440  23.5917020  36.9552344  35.9395459  23.4771507
  35.8640425  45.0026579  13.7247339  35.3421178  45.1426870  14.4099204
  36.2514445  44.2437243  13.9149457  35.8444126  44.9112103  13.8548416
  32.8531609  35.0532388   7.7942294  32.5656405  34.6833658   7.0574241
  33.5402077  35.5227243   7.5325999  32.9120506  35.0679357   7.6457370
  42.0607430  46.7422038   7.7107908  41.8194106  46.0089899   7.3034973
  42.2408763  47.2908895   7.0574242  42.0515054  46.7144429   7.5538131
  37.2906750  42.0330598   9.1228830  37.0949533  42.6405332   8.5289133
  37.5141096  41.3398542   8.6420504  37.2941391  42.0208123   8.9644911
  35.6885280  38.9185336   9.2409699  36.4107932  39.0826494   8.7813505
  35.2093273  39.6395001   9.1349039  35.7249011  39.0483565   9.1575313
  43.6478788  35.2549135  14.6206384  42.8089889  35.2810413  14.3844647
  43.7183155  35.9019870  15.2011730  43.5347181  35.3545260  14.6715501
  33.3392897  41.3243408  18.3463839  33.8513994  41.6027661  17.6972598
  33.0529240  42.0632702  18.7126652  33.3727760  41.4745762  18.3053717
  42.0948066  32.1534512   9.3534000  42.7974419  31.9542260   8.8753958
  41.8292255  31.3810454   9.6602843  42.1594699  32.0097478   9.3279441
  47.5236312  40.4617121  11.9067626  47.4370286  40.6172547  12.7602404
  47.0686792  41.1055197  11.5327031  47.4439568  40.5792876  11.9774732
  30.4259803  35.8313600   8.6427575  30.5275940  36.6339761   8.9708551
  31.2215690  35.6300936   8.3450656  30.5587709  35.9199499   8.6462931
  36.8576622  33.4169797  18.4064880  36.6659819  33.4324931  19.2564304
  37.7075218  33.6133471  18.3831535  36.9552344  33.4484148  18.5288175
  31.2423535  35.9460778  16.3848697  31.1009027  35.0944719  16.5093205
  31.5264099  35.9889439  15.5610903  31.2631382  35.8260528  16.2816321
  41.3962128  37.7827868  10.5293185  41.1496842  37.7023619  11.3629974
  41.7247251  36.9981336  10.3355713  41.4083371  37.6554134  10.6240708
  45.2910177  44.4911228  14.3179966  45.1524536  45.1892274  14.8228709
  44.5110175  44.3359884  13.9616148  45.1553404  44.5711394  14.3406240
  43.6288262  40.7907603  20.5702348  43.6236300  39.9187420  20.5744774
  44.3349256  40.9895772  20.0971804  43.7333266  40.6911477  20.5009383
  37.3559155  40.5184587  19.9416168  37.5002531  41.0985795  19.3059278
  37.7034804  40.8960884  20.6466023  37.4286616  40.6605291  19.9515163
  39.5279072  39.7174755  17.7241300  38.7802387  39.9105770  17.3189578
  39.6820598  38.8919975  17.4865421  39.4401500  39.6239867  17.6286706
  36.4286910  48.7087359  16.8077195  36.5776474  48.1490275  16.1550599
  37.2086912  48.7879360  17.1909714  36.5661004  48.6372924  16.7674144
  46.7863549  43.8489482   5.0796466  46.4070358  43.0626619   5.0725755
  46.1229795  44.3976339   4.9368110  46.6322024  43.8134305   5.0577262
  38.9540211  48.8802002  18.0861686  38.8783882  48.2110812  18.6412474
  38.8830070  49.5819790  18.6002352  38.9320818  48.8846909  18.2438534
  39.7680849  33.6125306  18.6136703  40.2253464  34.3449280  18.7409496
  39.8437178  33.1891771  19.3723959  39.8471819  33.6582544  18.7437780
  32.0113841  33.8591126  19.7026147  31.4756030  33.2471484  20.0186914
  32.0731605  34.4339262  20.3559814  31.9409473  33.8538054  19.8461574
  44.2408175  26.7915181  12.4830546  44.3591744  27.2491645  11.7497849
  44.0670351  25.9860442  12.1966764  44.2327346  26.7408953  12.3331480
  39.6110458  47.4003001   8.9185292  40.3760349  47.1312644   8.5967956
  39.5088548  46.9153011   9.6355355  39.7091953  47.2892565   8.9765119
  37.6463227  35.6027410  15.4578527  36.8559302  35.4218870  15.7795863
  38.0423850  34.8254363  15.4408822  37.5880104  35.4614871  15.5031076
  42.1329118  44.4315184   0.8985241  42.9002103  44.4915309   0.4891093
  41.6860427  43.8595626   0.4141560  42.1802545  44.3551760   0.7662951
  43.0306914  43.2369840  13.1837973  42.3551916  43.0055072  13.6851360
  43.0399290  42.6291023  12.5580078  42.9325418  43.1128765  13.1654126
  40.1601058  38.0787669  19.9402026  40.0960199  38.9397626  19.8122163
  40.2998245  37.7619662  19.1397578  40.1716528  38.1587836  19.8030239
  45.0323648  46.0934973   5.4148151  45.1143486  46.9001959   5.0909602
  45.5173390  46.1130932   6.1388925  45.1160806  46.2155635   5.4735050
  38.8420152  40.7719808  14.0818229  38.4182401  40.9724308  13.3457248
  38.6665007  39.9248656  14.1942529  38.7531032  40.6768590  13.9891919
  34.1302597  41.2671860   9.5146202  34.2867216  41.2018663  10.3702194
  34.4703190  42.0420412   9.3024881  34.2035831  41.3721058   9.6100796
  40.6681741  40.6429743   8.3839565  41.2097287  40.1400125   8.8478186
  40.9828300  40.5894938   7.5729050  40.7946138  40.5609164   8.3323377
  38.8368191  46.0347095   5.6679593  38.9061011  45.1761633   5.8072593
  39.6156646  46.2518976   5.3398618  38.9621041  45.9399959   5.6396750
  41.8171011  35.5366048  18.4361866  42.0312980  34.8976962  17.8825219
  41.2004910  35.9811872  18.0069727  41.7576340  35.5076192  18.2912297
  43.2275678  48.4584796   9.8816086  42.8355470  48.1551511   9.1638953
  43.3828751  49.2953886   9.6921040  43.1929268  48.5368633   9.7472584
  30.7036858  38.4506810   9.8306969  31.0835823  38.8691355   9.1667236
  30.1292223  39.0320266  10.1375812  30.6748183  38.5984669   9.7783710
  43.9810099  37.1455113  19.3745173  43.1686780  36.8381004  19.4558345
  44.4400033  36.6654113  19.9387885  43.9290483  37.0291606  19.4699767
  43.3915353  45.0234785   9.8222117  43.0330008  45.1949428  10.5986149
  42.9054064  45.4847991   9.2650115  43.2674050  45.1173756   9.8547386
  41.2085739  28.6465984  13.4249208  40.3379297  28.6204705  13.3782518
  41.4626080  28.4743176  12.6075054  41.1179299  28.6176127  13.2969345
  38.1803719  40.7033951   2.3622351  38.4696243  41.4798833   2.6365926
  38.2675517  40.1922682   3.0636851  38.2357975  40.7425869   2.5064849
  38.2334880  30.6572212  14.8822679  37.7173368  29.9652404  15.0074258
  37.6728809  31.3242989  14.8285277  38.0741393  30.6535470  14.8928745
  40.3027113  31.1965172  16.7115531  39.9158866  31.2214204  17.4929061
  39.8160050  30.6306851  16.2590048  40.1739622  31.1160923  16.7603435
  46.2777093  37.7627827  15.3355233  45.8504701  37.6754176  14.5803333
  45.6403146  37.8705603  15.9210078  46.1206700  37.7660487  15.3100675
  39.9684255  28.0832158  19.0025791  40.5977373  28.6192458  18.7246862
  40.1370118  27.9909517  19.8539357  40.0862049  28.1493520  19.0874319
  39.7698170  32.8703352  21.2752203  40.5971599  32.5988501  21.3310817
  39.7906016  33.6664194  21.6316021  39.8951020  32.9483107  21.3367386
  44.6074349  46.6058489  17.4094675  45.3966727  46.2547554  17.5296756
  44.7817947  47.4194878  17.1471308  44.7494631  46.6744347  17.3882543
  34.3467660  40.0167215  14.4622463  33.5055666  39.9171089  14.6701357
  34.5557668  40.7862695  14.8136784  34.2532352  40.1159258  14.5449778
  31.8243227  37.6386752  12.2907214  31.4299924  37.7129764  11.5157324
  31.2683343  38.0244698  12.8415576  31.6846039  37.7068527  12.2574874
  43.4608173  30.6168046  11.9711093  43.6657767  30.5490354  12.8168090
  43.1334597  31.4226867  11.9032270  43.4423421  30.7253987  12.0870748
  38.1584324  37.9448614  13.7120061  37.8547462  37.3904603  14.3130469
  37.4563745  38.1240824  13.2248095  38.0100534  37.8893397  13.7289767
  37.2150422  35.2549134   8.2764763  37.4910156  34.5368047   7.8642330
  37.8149091  35.8534054   8.0685869  37.3443686  35.2369505   8.1845524
  36.2202675  45.1598335  18.4192159  36.1123030  45.1700397  19.2854217
  36.4298457  45.9853115  18.2297113  36.2352787  45.2839410  18.5196250
  46.7141861  31.1699810  11.4513858  46.1016175  31.6570212  11.8367590
  46.8106036  30.4943301  11.9951510  46.6379759  31.1418119  11.5892717
  40.7160942  32.9262651   6.5511358  41.1704689  33.0973212   7.2759202
  41.1900988  32.3130762   6.1509134  40.8529262  32.8613537   6.5985119
  34.2376467  42.4110977  15.8814096  33.6464401  43.0520476  15.8517111
  34.9997491  42.8348595  15.8545396  34.2624728  42.5686816  15.8729244
  34.6337090  33.5712975  16.5482114  35.0938572  33.6451905  17.2857238
  34.6793197  34.3694229  16.1981935  34.7087646  33.7007122  16.6054870
  36.2820440  34.2379670  21.1154141  35.8906005  33.5913017  21.5509919
  36.4506303  34.8291105  21.7348396  36.2491350  34.2293938  21.2716847
  50.3566889  42.2416747  16.8791375  50.4150013  42.6903396  17.6251351
  49.7233357  42.6515560  16.4421455  50.2718184  42.3690482  16.9243923
  43.9965984  47.8620289  13.3146121  43.7985672  48.3511103  12.6202332
  43.3753695  48.0661530  13.8930254  43.8753548  47.9636827  13.2969344
  38.0573962  39.6305186   7.6556365  38.8016007  40.0179462   7.8939315
  38.2034658  38.7862611   7.8196853  38.1884547  39.5635659   7.7150335
  39.9753538  31.4255445  12.6888226  39.1289583  31.5978253  12.5629576
  39.9724670  30.6204788  13.0254055  39.8500687  31.3316474  12.7199353
  41.0451838  35.2030659  13.5550284  40.5711792  34.6772421  14.0655595
  41.4169974  34.6560132  12.9865146  41.0301727  35.0446656  13.5465432
  31.4224868  37.2002166  18.9233830  32.2850481  37.0997875  18.8371160
  31.0916651  36.6196875  18.3619402  31.5010064  37.0993793  18.8279236
  47.3088568  40.2633035  14.9657065  47.0686791  39.4239450  14.9699491
  47.7880576  40.3433202  15.6897838  47.3440752  40.1514435  15.0731867
  42.9735338  36.0967214   6.6176038  42.4458356  36.1795958   5.9281747
  43.4331046  36.8385085   6.6140683  42.9637188  36.2187876   6.5150733
  49.3093756  37.0434492  12.9186324  49.0703525  37.0030326  12.0807109
  49.4727657  37.8905644  13.0452045  49.2984059  37.1626577  12.8139806
  45.9139786  41.4284441  18.8491369  46.6373985  40.9756968  18.6702389
  45.6489748  41.7089107  18.0663697  45.9821059  41.4035410  18.7070084
  34.7826654  36.0244615  15.5844248  34.1579724  36.0363007  14.9770201
  34.4472249  36.5004790  16.2335489  34.6412146  36.0963132  15.5900817
  34.9668403  34.3669733   1.6416933  34.6181207  35.0189459   2.1048483
  34.4864849  34.3526846   0.9140805  34.8438647  34.4612787   1.6028025
  31.4952330  44.0845075  17.0248013  30.9652254  43.3937514  17.0742987
  31.7677423  44.0755260  16.1960721  31.4577052  43.9812207  16.9095429
  42.5272420  44.6670777   5.7485695  43.2506619  45.1328890   5.6050268
  42.0873011  44.7344387   4.9983292  42.5688112  44.7454614   5.6170477
  41.6958575  41.5268320  16.9986384  41.0815568  40.9826370  17.2935019
  42.2125860  41.0132556  16.5192200  41.6814238  41.3704729  16.9710613
  40.9354872  42.5972590  14.7330683  40.5082480  41.9722308  14.2996118
  40.9279817  42.3147511  15.5589690  40.8714013  42.4625370  14.7910510
  34.0517399  37.6337763  17.8019117  34.2110886  36.8781087  18.2070839
  33.8710293  38.1828702  18.4559854  34.0482758  37.6031576  17.9581823
  41.9937702  29.7998998  18.3569906  41.4978264  29.9962672  17.6661473
  42.7506764  30.1991666  18.1858708  42.0324527  29.8876732  18.2290043
  39.2640582  33.4741344  14.9473217  39.2883069  32.9401456  14.2585997
  39.5152056  32.9658653  15.6098807  39.3050501  33.3202248  14.9437862
  26.7748172  40.7572839  14.3816361  26.6691621  40.7119683  13.5168445
  26.0248392  41.1026620  14.6630646  26.6483775  40.8013747  14.2953691
  35.5441904  32.2012162  14.3278961  35.5840276  32.7021369  15.0413669
  34.7191569  32.2922556  14.0584884  35.4281430  32.2893979  14.3929499
  37.7271517  41.7672902  22.4299256  36.8767148  41.9044617  22.5656901
  37.8899645  41.0336681  22.8746957  37.6255381  41.6787004  22.5154855
  36.9656268  38.7172672  16.6252860  36.1348197  38.8846490  16.4188108
  36.9107785  38.3408623  17.4101745  36.8345682  38.6862403  16.7101388
  35.3392311  36.9928264   7.1542978  35.4795273  37.4900728   7.8571619
  35.8374844  36.2914558   7.2957192  35.4333392  36.9630242   7.2794557
  35.3692534  37.8595375   4.4835555  36.0037613  38.4555800   4.4185016
  35.4518145  37.5598832   5.2981425  35.4749085  37.9036283   4.5938641
  48.3475100  40.3910852  17.3521919  48.9392940  41.0308103  17.3840117
  48.7834094  39.6933889  17.6413986  48.4993531  40.3829202  17.4002751
  36.9471517  33.7909350   4.4580997  37.2687358  33.3112433   3.8040259
  37.2098460  34.6008996   4.2671808  37.0337542  33.8399248   4.3336489
  40.1768489  44.8128225  17.9779813  39.6693581  45.3664071  18.4220443
  39.8795136  44.8736514  17.1598587  40.0573374  44.9034536  17.9228269
  42.3430672  33.1781544  16.8204476  42.7685743  32.7254071  16.2088002
  41.7287665  32.6241615  17.0969263  42.3159317  33.0295520  16.7709501
  31.8745522  40.0563215   7.7525101  32.3837751  40.6527723   8.1336406
  32.3479794  39.7889189   7.0701520  32.0188897  40.1049031   7.7079623
  42.7876270  48.7291482   5.9083756  42.0705579  48.5552344   5.4430994
  43.4383007  48.4944054   5.3759242  42.7778120  48.6687275   5.7612974
  40.7824895  29.6496644  10.2295053  40.1393212  29.4994290  10.7980191
  40.4424301  29.4038989   9.4644157  40.6369972  29.5908766  10.1998068
  45.3724241  37.6056071   9.6525061  44.7015431  38.1485773   9.5238127
  46.0663991  38.0750926   9.4106756  45.3753108  37.7554342   9.5980589
  39.4210975  49.7452783  14.8836820  39.1976629  48.9871612  15.2520846
  38.9320818  49.7750804  14.1617259  39.3154424  49.6375007  14.8313561
  45.5352368  34.0611954  12.5615435  45.8879979  33.6341677  13.2361233
  44.6767170  33.9762798  12.6916511  45.4601813  33.9856695  12.6810445
  34.2336053  36.6919474  10.6198281  33.5148043  37.1083607  10.8871145
  34.6048416  37.2573713  10.0689919  34.1827985  36.8368756  10.5781088
  43.5335634  37.3247323  16.5100277  43.5133562  37.1430618  17.3635056
  43.5814835  38.1959341  16.4859860  43.5370275  37.4263861  16.6323572
  41.4781964  43.9134515  22.4348753  41.4377819  43.2684192  21.8493909
  42.2905282  43.8571132  22.7474165  41.5925118  43.8093482  22.3945703
  38.0689432  49.9653241  12.3373904  37.6549830  49.3027371  11.9477746
  38.7536806  50.1131100  11.8169598  38.1087803  49.8893899  12.2030401
  41.4354726  49.1243326  13.0897521  41.0371009  49.2345596  12.3218341
  40.8205945  49.3325392  13.6724081  41.2853615  49.1716894  13.0628820
  40.0082628  35.7317474   5.9571661  39.4147467  36.0534470   5.4056228
  40.0457906  34.8858569   5.7492767  39.9257017  35.6541802   5.8454432
  46.9676429  29.1830366  13.4899747  46.4607293  28.4759506  13.4220925
  47.7643862  28.8523555  13.6200824  47.0103668  29.0303518  13.4998742
  42.8840444  35.6896978   9.3873411  42.6554137  35.7129680   8.5451769
  43.1438521  34.8654445   9.5068421  42.8886632  35.5713058   9.2798609
  37.1659673  37.5431451  18.9898511  36.6538576  36.9352634  19.3483542
  36.9939169  38.2588044  19.4572487  37.0649310  37.5594751  19.1114735
  35.9385207  34.2273525  10.6827606  36.4142573  34.5890605  10.0477788
  35.4373807  34.8829992  10.9627749  35.9350566  34.3767714  10.6304347
  49.1696568  43.6995293   6.4740611  49.5530174  44.4486649   6.7038709
  48.3740682  43.9461113   6.2152601  49.1090351  43.8464987   6.4698185
  41.0428743  35.4655696  21.4300767  41.6000173  35.2369506  20.7979232
  40.7189808  36.2261362  21.1535979  41.0775153  35.5439533  21.2957264
  28.9127452  38.8915892  16.8989363  28.3654171  38.2216538  17.0170231
  29.7019830  38.5245740  16.9632830  28.9479636  38.7380879  16.9258063
  38.7611860  38.5523349  22.3952774  39.5123187  38.8675026  22.7092328
  38.9534437  38.3502520  21.5686695  38.9003275  38.5690731  22.3196169
  37.9811860  36.3714725   4.0500990  38.3610825  36.3894354   3.2652105
  37.2404456  36.8168713   3.9291838  37.9280698  36.4396499   3.9164559
  45.6097151  34.6796916   9.6376569  45.6091377  34.5245572  10.4960845
  45.4053331  35.5259903   9.5817955  45.5796928  34.7817537   9.7564509
  27.6714422  38.1036700  14.0535386  27.4936183  37.6513309  14.7790301
  27.3833444  38.9062862  14.2373863  27.6027375  38.1559258  14.1878889
  43.3338003  39.3594418  13.2912776  43.8291668  38.6417413  13.2516796
  42.5237778  39.0565215  13.1767263  43.2881896  39.2092064  13.2686502
  38.7796614  43.2092231   5.4409780  37.9707937  42.8858904   5.3943090
  39.2871523  42.5025453   5.3738029  38.7346281  43.0573547   5.4240075
  29.4086891  40.6364424  11.1657145  28.5432411  40.6250114  11.0539916
  29.5085707  40.4494647  12.0128284  29.2961058  40.6070485  11.2746089
  45.3989821  42.1098105  15.9789905  45.8244893  41.5872527  15.4260330
  45.0346741  42.7078942  15.4578528  45.4076424  42.1208332  15.8198915
  35.0343901  50.4062323  14.7387250  35.3490460  51.2198711  14.7465032
  35.4437315  50.0212541  15.4069409  35.1411999  50.4691025  14.8391342
  41.9868421  45.8232369  12.3091062  42.4579599  46.5372632  12.4781047
  42.3228599  45.2231119  12.8450932  42.1063536  45.8403834  12.4123438
  38.9037916  30.5959840  19.2649157  39.0365821  29.7990833  19.5930133
  39.2883069  31.1226243  19.8447433  38.9794245  30.5559757  19.3992660
  42.6242367  45.6150303  19.0718755  42.0763313  44.9908187  18.8038820
  43.0855396  45.8044576  18.3562834  42.6109577  45.5509354  18.9269186
  41.9770271  27.5190166  15.8630250  41.1716235  27.4087896  16.1798089
  41.8477007  27.6202622  15.0060116  41.8390404  27.5173836  15.7838291
  45.4336232  33.6835658  16.4569947  44.8499220  34.1844864  16.0447515
  45.7540526  33.1765214  15.8234270  45.3949407  33.6827493  16.3028454
  37.9731031  32.5976253   6.7328622  38.7946725  32.7674566   6.4910317
  37.5100682  32.7523514   6.0094920  38.0262193  32.6457986   6.5900266
  36.5626363  30.5919015  17.5127051  37.1070776  30.2510142  18.1031392
  36.6163298  31.4504477  17.6548335  36.6515482  30.6674274  17.6208924
  32.3756921  44.3535431  14.3865859  32.9801779  44.3131265  13.7579679
  32.1684234  45.2006583  14.4169915  32.4345819  44.4723434  14.2981975
  42.1900694  46.6201376  15.6028096  43.0099067  46.4764342  15.8644391
  41.9094771  47.2447575  16.1444534  42.2697437  46.6911728  15.7216035
  27.6108204  43.3370049  14.2564782  27.5132482  42.5266320  14.5654838
  28.3937073  43.3161842  13.8711050  27.7124340  43.2137139  14.2451645
  58.6614344  54.2766228   8.5670972  58.6308348  55.1310865   8.7389242
  59.2595693  53.9761520   9.1257116  58.7451502  54.3582724   8.6745775
  51.8614029  53.3641879  13.3223903  51.0051924  53.5250377  13.3733020
  51.9081683  52.4933943  13.3428964  51.7413140  53.2592681  13.3329969
  46.2455169  62.9004597   9.0861134  45.4938068  62.5220135   8.8577179
  46.6941180  62.9323030   8.3379945  46.2004835  62.8490204   8.9418637
  55.1707745  59.6328405  22.9284359  55.8774513  59.1380435  23.0571293
  55.3595681  60.0737486  22.1987017  55.3035651  59.6246755  22.8393404
  54.7065850  55.4233923  15.9655554  55.2521810  56.1019009  16.0249524
  54.6482726  55.2821384  15.1057136  54.7781764  55.5025924  15.8467615
  47.8239925  62.9122989  11.3523907  47.9250288  62.1023343  11.6621035
  47.2281670  62.8179935  10.7223585  47.7512463  62.7788017  11.3050145
  47.6640664  67.8300578  12.7538763  48.3078120  68.2713742  13.1434921
  47.9896920  67.0254004  12.6669022  47.8072493  67.7765773  12.7984240
  41.0204969  58.9343275  10.9776241  40.7855153  58.1010928  10.8708509
  41.1590610  59.2147941  10.1637442  41.0060631  58.8526779  10.8418596
  43.3195056  51.1029006  13.8760548  42.7000088  50.5121653  13.7070563
  43.2178920  51.6940441  13.2424871  43.2132732  51.1033089  13.7565538
  50.4162952  52.8428548   8.2093011  51.1143117  53.0216675   8.7014475
  50.7315285  52.3198887   7.5863401  50.5658289  52.7922320   8.1895022
  43.0464189  54.6481288  16.1204117  42.9222886  55.2343733  16.7553936
  43.6982474  54.1541484  16.4216392  43.1237839  54.6620092  16.2590047
  50.6050887  59.2298993   8.1972803  51.0444523  58.6216093   8.6427576
  50.4555550  58.8506366   7.4258268  50.6472353  59.0837464   8.1491970
  48.0722530  57.8243005  15.3991628  48.7171533  57.3315448  15.0802577
  48.3124307  57.9667791  16.2257707  48.2033116  57.7720447  15.4741162
  50.6108622  60.6697911  15.0498521  50.8931865  59.8749316  14.8285277
  51.3394782  61.1478498  15.0703582  50.7598185  60.6232508  15.0201536
  48.5889816  48.2120945  12.2914286  48.2593146  48.6632088  11.6217985
  47.9134817  48.1337108  12.8387292  48.4400252  48.2672080  12.2737509
  55.7966223  44.2006467  10.5363897  55.4819664  44.8909946  10.9684319
  55.2793165  44.1451250   9.8349397  55.6730694  44.2941356  10.4960846
  60.5926710  59.7757273  12.0234352  59.7624413  59.9867916  12.1867768
  60.5435962  58.9494327  11.7476635  60.4633446  59.6846879  12.0071717
  42.5822294  63.8128946  12.2532447  42.0989872  64.5379436  12.2292030
  43.3945612  64.1105076  12.3642604  42.6313041  63.9631300  12.2659726
  48.6536448  62.6061127  14.8582261  48.1363389  62.2468542  14.2543569
  49.3510839  62.0823301  14.8688327  48.6802029  62.4758815  14.7712520
  52.3100040  63.0555941  20.8198434  52.3983386  62.8682081  21.6676645
  52.7389752  62.4093371  20.4203281  52.3862142  62.9318949  20.8870186
  49.8770499  62.3387101  19.8016096  49.3141334  61.9259711  20.3255758
  50.6391523  62.2640007  20.2209240  49.9064948  62.2664502  19.9409097
  45.4366491  64.3285122  12.4052727  46.1387070  63.8137111  12.4625483
  45.3563974  64.6559274  13.2099602  45.5290251  64.2999348  12.5325519
  60.0880668  52.4227673  15.8184773  59.2509089  52.4929861  16.0532368
  60.0568899  52.4252168  14.9459075  59.9598951  52.4337900  15.7244321
  45.1502834  48.6803552   4.4715347  44.9678408  48.8975433   3.6456339
  46.0128447  48.7942565   4.5273961  45.2507424  48.7293450   4.3569834
  44.7617266  60.5191474  11.9138335  45.6006166  60.7514407  11.9612096
  44.7929035  59.6495786  11.8445370  44.8898984  60.4248421  11.9102979
  45.3869969  60.9392349  16.2151640  45.9268194  60.7963480  16.8855012
  44.7039916  61.3389100  16.5835666  45.3662123  60.9772020  16.3686062
  50.8302554  45.6829963   7.5064371  51.5588714  45.5045918   7.0602527
  50.9197446  46.5248042   7.7171549  50.9509216  45.7813841   7.4717888
  54.8110854  56.6183350  11.4096664  55.5668369  57.0514864  11.4485573
  54.9173179  55.9688120  11.9831301  54.9381025  56.5860834  11.4994690
  57.8491025  60.4456627  12.1599067  57.4126257  60.4493370  12.9158039
  57.5153941  61.1262126  11.7278645  57.7353645  60.5469083  12.2079900
  40.7907114  57.1592640  16.3686062  40.5245530  56.3431757  16.5277052
  40.8045679  57.2045796  15.4981577  40.7531837  57.0449545  16.2639544
  57.7688508  47.4870455  14.4028495  58.4114417  47.5568560  14.9890411
  58.0211529  46.8199678  13.9008037  57.9010640  47.3996804  14.4155775
  44.6964861  51.9577725   2.9837820  43.9823038  51.6715904   3.3960252
  45.1808830  52.2974350   3.6244207  44.6624225  51.9659374   3.1393455
  52.5790492  64.3975062  17.1308673  51.7805738  64.1574562  17.3882542
  53.0276504  64.4489455  17.8775721  52.5265104  64.3697453  17.2793598
  60.9835372  57.1637547  11.0518705  61.6451806  56.6028216  10.9514613
  60.3426784  56.6689578  11.3771396  60.9864239  57.0073956  11.0851045
  41.2000528  57.9451420  13.6497806  41.0176101  57.9198306  12.7970098
  41.9350197  58.4150357  13.6886715  41.2814592  58.0112782  13.5295724
  57.2700202  58.1802930  10.7930693  57.5055791  58.3248128   9.9657544
  57.4189766  58.9445338  11.1862207  57.3266006  58.3141984  10.7294297
  54.3122548  54.8669498   9.3123877  54.4069402  55.6058792   9.7663503
  53.6881392  54.4386974   9.7458442  54.2331578  54.9130819   9.4432025
  52.5675022  58.0455711  19.9614158  53.1413884  57.4082955  20.1162722
  52.4889826  58.0459793  19.0923816  52.6408257  57.9520822  19.8560569
  41.1671438  54.8244920  13.7996873  41.7444941  54.6881371  14.4389118
  40.4685500  54.3680704  14.0542457  41.1492460  54.7367186  13.9319162
  47.9238741  56.4778976  12.0135356  47.6657985  55.6450711  11.9866655
  47.9787223  56.7036589  11.1727856  47.8938518  56.3876747  11.8855492
  53.0039791  48.5807427  12.1139448  52.2996117  48.0916612  12.2723368
  53.0524765  48.5929901  11.2427893  52.9069842  48.5097075  12.0078788
  46.8973453  54.0316738  12.5000250  46.3223044  54.1908907  13.1364211
  46.5209129  53.3952147  12.0368701  46.7576265  53.9614551  12.5254809
  50.5646741  52.5040088  17.3592629  50.1761174  52.0794305  16.7044820
  49.9001440  52.7522237  17.8669656  50.4093669  52.4778809  17.3380497
  60.2070011  52.2615092  10.1340459  59.9506575  51.4495034   9.9438342
  61.0499324  52.2692659   9.9070646  60.2936036  52.1427090  10.0725276
  36.6430272  53.6756813  10.5144691  36.7290523  53.2988681  11.2958221
  37.2706069  53.3017259  10.0364649  36.7486823  53.5642295  10.5590168
  54.3873103  46.2014716  14.8716613  54.7683615  45.5192888  15.2584487
  53.5836387  45.9124319  14.6892278  54.3249565  46.0581765  14.9020669
  57.8895170  59.4164688  19.9699012  57.6533807  58.5852753  19.8511072
  58.5338399  59.3650296  20.5553856  57.9489841  59.2862376  20.0384905
  47.5393588  60.2060210  10.6841748  48.1767535  59.9671957  11.2293541
  47.9648659  60.4097369   9.9494909  47.6969754  60.2011220  10.6558905
  42.2306230  62.4448546  14.5676052  42.2710376  62.7163397  13.7395831
  42.7900754  62.9690454  14.9833840  42.3189576  62.5624301  14.5067940
  48.1796403  55.4262499   5.0216637  48.5641556  55.2070206   5.7733182
  47.9308023  56.2525445   5.1517714  48.1998475  55.5160646   5.1517714
  58.9131590  59.2009137  16.0327306  58.6077407  59.9337194  16.3940622
  58.1937806  58.7947067  15.7520092  58.7618933  59.2490870  16.0440443
  49.9215060  60.6832632  12.3635534  49.9954068  60.5207804  13.2177384
  50.7384566  60.8722822  12.1196016  50.0531418  60.6869375  12.4533560
  64.6133383  55.8402138  15.3595650  64.5457883  55.8598097  14.4898237
  64.5989045  56.6832465  15.5851321  64.6012139  55.9675872  15.2648127
  43.6820817  61.0290495   9.3929978  42.8558934  61.2752232   9.2664257
  43.7432808  60.9502576  10.2592036  43.5694983  61.0535444   9.5018922
  45.8996840  47.0959436  10.3525418  45.0319266  47.1682036  10.4183027
  46.1872045  47.8981515  10.5413393  45.8136588  47.2253583  10.3900184
  55.0229729  47.2437296  18.6836740  55.7683321  47.0547106  18.2700165
  54.6067034  47.7695533  18.1250596  55.0714703  47.2939441  18.5401313
  62.3992000  54.6146524  13.6342245  62.9499921  53.9814593  13.8739337
  62.3836115  55.1461917  14.3257749  62.4777196  54.5995472  13.7721103
  49.0514391  58.4485121  18.1802138  48.5526084  59.1600889  18.2587027
  49.8614615  58.7685788  18.1420301  49.0970497  58.6011970  18.1858707
  46.4025561  65.6234758  10.1609157  46.1825857  65.3332113  10.9535824
  46.1820083  64.9649713   9.6327070  46.3373155  65.4834466  10.1998066
  45.3142508  57.7108074  12.4264859  45.0255757  57.0845546  12.9610586
  46.1825856  57.6528362  12.4929539  45.4002760  57.6095619  12.5155814
  56.1020406  52.8542858  12.7446841  55.7585172  52.1333193  13.0954091
  56.2013449  52.6456709  11.9025199  56.0662449  52.7167061  12.6718521
  45.5174782  59.3503325   8.3507224  46.2720750  59.7316364   8.5642687
  44.9245394  59.8014469   8.8053921  45.5411495  59.4732153   8.4490102
  46.8373008  60.5211887  13.7247339  46.3153762  60.6612178  14.4099204
  47.2247029  59.7622551  13.9149457  46.8176709  60.4297411  13.8548416
  43.8264192  50.5717695   7.7942294  43.5388988  50.2018966   7.0574241
  44.5134661  51.0412551   7.5325999  43.8853090  50.5864665   7.6457370
  48.2639334  57.5515906   9.1228830  48.0682117  58.1590640   8.5289133
  48.4873679  56.8583850   8.6420504  48.2673975  57.5393431   8.9644911
  46.6617864  54.4370644   9.2409699  47.3840516  54.6011802   8.7813505
  46.1825857  55.1580308   9.1349039  46.6981595  54.5668873   9.1575313
  54.6211372  50.7734442  14.6206384  53.7822472  50.7995721  14.3844647
  54.6915739  51.4205178  15.2011730  54.5079765  50.8730568  14.6715501
  53.0680650  47.6719819   9.3534000  53.7707003  47.4727568   8.8753958
  52.8024839  46.8995762   9.6602843  53.1327282  47.5282785   9.3279441
  58.4968895  55.9802429  11.9067626  58.4102870  56.1357855  12.7602404
  58.0419375  56.6240505  11.5327031  58.4172152  56.0978184  11.9774732
  41.3992387  51.3498908   8.6427575  41.5008523  52.1525069   8.9708551
  42.1948274  51.1486244   8.3450656  41.5320293  51.4384807   8.6462931
  42.2156119  51.4646086  16.3848697  42.0741611  50.6130027  16.5093205
  42.4996682  51.5074747  15.5610903  42.2363965  51.3445836  16.2816321
  52.3694711  53.3013176  10.5293185  52.1229426  53.2208927  11.3629974
  52.6979834  52.5166644  10.3355713  52.3815955  53.1739442  10.6240708
  56.2642760  60.0096536  14.3179966  56.1257120  60.7077581  14.8228709
  55.4842758  59.8545192  13.9616148  56.1285987  60.0896702  14.3406240
  54.6020845  56.3092911  20.5702348  54.5968884  55.4372728  20.5744774
  55.3081839  56.5081080  20.0971804  54.7065849  56.2096785  20.5009383
  50.5011656  55.2360063  17.7241300  49.7534970  55.4291078  17.3189578
  50.6553181  54.4105283  17.4865421  50.4134084  55.1425175  17.6286706
  47.4019494  64.2272667  16.8077195  47.5509057  63.6675583  16.1550599
  48.1819496  64.3064668  17.1909714  47.5393587  64.1558232  16.7674144
  49.9272794  64.3987310  18.0861686  49.8516465  63.7296120  18.6412474
  49.8562653  65.1005098  18.6002352  49.9053401  64.4032217  18.2438534
  50.7413433  49.1310614  18.6136703  51.1986047  49.8634588  18.7409496
  50.8169762  48.7077079  19.3723959  50.8204403  49.1767852  18.7437780
  55.2140759  42.3100489  12.4830546  55.3324327  42.7676952  11.7497849
  55.0402935  41.5045750  12.1966764  55.2059930  42.2594261  12.3331480
  48.6195811  51.1212718  15.4578527  47.8291886  50.9404178  15.7795863
  49.0156434  50.3439670  15.4408822  48.5612687  50.9800179  15.5031076
  54.0039497  58.7555148  13.1837973  53.3284499  58.5240380  13.6851360
  54.0131873  58.1476331  12.5580078  53.9058002  58.6314073  13.1654126
  51.1333641  53.5972977  19.9402026  51.0692782  54.4582933  19.8122163
  51.2730829  53.2804970  19.1397578  51.1449111  53.6773144  19.8030239
  49.8152735  56.2905116  14.0818229  49.3914984  56.4909615  13.3457248
  49.6397590  55.4433964  14.1942529  49.7263616  56.1953898  13.9891919
  49.3164429  67.8055629  16.5439687  49.8060359  67.1066419  16.3615351
  48.7448661  67.5079499  17.1315744  49.3048959  67.6581853  16.6040727
  45.1035180  56.7857168   9.5146202  45.2599799  56.7203971  10.3702194
  45.4435773  57.5605720   9.3024881  45.1768415  56.8906366   9.6100796
  51.6414325  56.1615051   8.3839565  52.1829870  55.6585432   8.8478186
  51.9560884  56.1080246   7.5729050  51.7678722  56.0794472   8.3323377
  55.5131432  60.3717699  25.4966477  56.3266297  60.1002848  25.6571610
  55.3526398  60.0725239  24.6926673  55.6101381  60.2872625  25.4011883
  52.7903594  51.0551356  18.4361866  53.0045564  50.4162270  17.8825219
  52.1737493  51.4997180  18.0069727  52.7308923  51.0261500  18.2912297
  41.6769442  53.9692118   9.8306969  42.0568406  54.3876663   9.1667236
  41.1024806  54.5505574  10.1375812  41.6480767  54.1169977   9.7783710
  54.9542682  52.6640421  19.3745173  54.1419364  52.3566311  19.4558345
  55.4132617  52.1839421  19.9387885  54.9023067  52.5476913  19.4699767
  52.1818323  44.1651292  13.4249208  51.3111881  44.1390013  13.3782518
  52.4358664  43.9928484  12.6075054  52.0911883  44.1361435  13.2969345
  49.2067463  46.1757520  14.8822679  48.6905952  45.4837711  15.0074258
  48.6461392  46.8428297  14.8285277  49.0473977  46.1720778  14.8928745
  51.2759697  46.7150480  16.7115531  50.8891450  46.7399512  17.4929061
  50.7892634  46.1492159  16.2590048  51.1472206  46.6346231  16.7603435
  55.5252676  61.4323989  20.7689318  56.1632397  60.9384185  20.4351774
  54.8826768  61.3601390  20.1841545  55.5246903  61.3482998  20.6331673
  57.2509676  53.2813135  15.3355233  56.8237284  53.1939484  14.5803333
  56.6135729  53.3890911  15.9210078  57.0939283  53.2845795  15.3100675
  50.9416838  43.6017466  19.0025791  51.5709956  44.1377766  18.7246862
  51.1102701  43.5094824  19.8539357  51.0594633  43.6678828  19.0874319
  55.5806933  62.1243797  17.4094675  56.3699311  61.7732862  17.5296756
  55.7550531  62.9380186  17.1471308  55.7227214  62.1929654  17.3882543
  45.3200243  55.5352523  14.4622463  44.4788250  55.4356397  14.6701357
  45.5290251  56.3048003  14.8136784  45.2264936  55.6344566  14.5449778
  42.7975810  53.1572060  12.2907214  42.4032508  53.2315072  11.5157324
  42.2415927  53.5430006  12.8415576  42.6578622  53.2253835  12.2574874
  54.4340757  46.1353354  11.9711093  54.6390350  46.0675662  12.8168090
  54.1067181  46.9412175  11.9032270  54.4156005  46.2439294  12.0870748
  49.1316908  53.4633922  13.7120061  48.8280046  52.9089910  14.3130469
  48.4296329  53.6426132  13.2248095  48.9833118  53.4078705  13.7289767
  48.1883005  50.7734442   8.2764763  48.4642739  50.0553355   7.8642330
  48.7881674  51.3719362   8.0685869  48.3176270  50.7554813   8.1845524
  47.1935259  60.6783643  18.4192159  47.0855614  60.6885705  19.2854217
  47.4031041  61.5038423  18.2297113  47.2085370  60.8024718  18.5196250
  57.6874445  46.6885118  11.4513858  57.0748758  47.1755520  11.8367590
  57.7838620  46.0128609  11.9951510  57.6112342  46.6603427  11.5892717
  51.6893526  48.4447959   6.5511358  52.1437272  48.6158520   7.2759202
  52.1633571  47.8316070   6.1509134  51.8261846  48.3798845   6.5985119
  45.2109051  57.9296285  15.8814096  44.6196984  58.5705784  15.8517111
  45.9730075  58.3533903  15.8545396  45.2357312  58.0872124  15.8729244
  45.6069674  49.0898283  16.5482114  46.0671155  49.1637213  17.2857238
  45.6525781  49.8879537  16.1981935  45.6820229  49.2192430  16.6054870
  61.3299473  57.7602055  16.8791375  61.3882596  58.2088704  17.6251351
  60.6965940  58.1700868  16.4421455  61.2450768  57.8875790  16.9243923
  54.9698567  63.3805597  13.3146121  54.7718256  63.8696411  12.6202332
  54.3486278  63.5846838  13.8930254  54.8486132  63.4822135  13.2969344
  49.0306546  55.1490494   7.6556365  49.7748591  55.5364770   7.8939315
  49.1767242  54.3047919   7.8196853  49.1617131  55.0820967   7.7150335
  50.9486121  46.9440753  12.6888226  50.1022166  47.1163560  12.5629576
  50.9457254  46.1390096  13.0254055  50.8233271  46.8501782  12.7199353
  52.0184421  50.7215967  13.5550284  51.5444376  50.1957729  14.0655595
  52.3902557  50.1745440  12.9865146  52.0034310  50.5631964  13.5465432
  58.2821152  55.7818343  14.9657065  58.0419375  54.9424758  14.9699491
  58.7613159  55.8618509  15.6897838  58.3173336  55.6699742  15.0731867
  53.9467921  51.6152522   6.6176038  53.4190940  51.6981266   5.9281747
  54.4063629  52.3570393   6.6140683  53.9369772  51.7373184   6.5150733
  60.2826339  52.5619800  12.9186324  60.0436109  52.5215634  12.0807109
  60.4460240  53.4090952  13.0452045  60.2716643  52.6811885  12.8139806
  56.8872369  56.9469749  18.8491369  57.6106568  56.4942276  18.6702389
  56.6222332  57.2274415  18.0663697  56.9553643  56.9220718  18.7070084
  45.7559238  51.5429923  15.5844248  45.1312308  51.5548315  14.9770201
  45.4204832  52.0190098  16.2335489  45.6144729  51.6148440  15.5900817
  45.9400986  49.8855041   1.6416933  45.5913791  50.5374766   2.1048483
  45.4597432  49.8712154   0.9140805  45.8171230  49.9798095   1.6028025
  42.4684913  59.6030383  17.0248013  41.9384838  58.9122822  17.0742987
  42.7410006  59.5940568  16.1960721  42.4309635  59.4997515  16.9095429
  52.6691159  57.0453627  16.9986384  52.0548152  56.5011678  17.2935019
  53.1858444  56.5317864  16.5192200  52.6546821  56.8890037  16.9710613
  51.9087456  58.1157897  14.7330683  51.4815064  57.4907616  14.2996118
  51.9012400  57.8332819  15.5589690  51.8446597  57.9810678  14.7910510
  45.0249983  53.1523071  17.8019117  45.1843470  52.3966395  18.2070839
  44.8442877  53.7014010  18.4559854  45.0215342  53.1216884  17.9581823
  52.9670286  45.3184306  18.3569906  52.4710847  45.5147980  17.6661473
  53.7239348  45.7176974  18.1858708  53.0057111  45.4062040  18.2290043
  50.2373166  48.9926652  14.9473217  50.2615653  48.4586764  14.2585997
  50.4884639  48.4843961  15.6098807  50.2783084  48.8387556  14.9437862
  37.7480755  56.2758147  14.3816361  37.6424204  56.2304991  13.5168445
  36.9980975  56.6211928  14.6630646  37.6216358  56.3199055  14.2953691
  46.5174488  47.7197470  14.3278961  46.5572859  48.2206677  15.0413669
  45.6924152  47.8107864  14.0584884  46.4014014  47.8079287  14.3929499
  47.9388851  54.2357980  16.6252860  47.1080781  54.4031798  16.4188108
  47.8840368  53.8593931  17.4101745  47.8078266  54.2047711  16.7101388
  46.3124895  52.5113572   7.1542978  46.4527856  53.0086036   7.8571619
  46.8107428  51.8099866   7.2957192  46.4065976  52.4815550   7.2794557
  46.3425117  53.3780683   4.4835555  46.9770197  53.9741108   4.4185016
  46.4250728  53.0784140   5.2981425  46.4481668  53.4221591   4.5938641
  59.3207683  55.9096160  17.3521919  59.9125523  56.5493411  17.3840117
  59.7566678  55.2119197  17.6413986  59.4726114  55.9014510  17.4002751
  47.9204100  49.3094658   4.4580997  48.2419941  48.8297741   3.8040259
  48.1831044  50.1194304   4.2671808  48.0070126  49.3584556   4.3336489
  51.1501073  60.3313532  17.9779813  50.6426164  60.8849379  18.4220443
  50.8527719  60.3921822  17.1598587  51.0305958  60.4219844  17.9228269
  53.3163255  48.6966852  16.8204476  53.7418327  48.2439378  16.2088002
  52.7020248  48.1426923  17.0969263  53.2891901  48.5480828  16.7709501
  42.8478105  55.5748523   7.7525101  43.3570335  56.1713031   8.1336406
  43.3212378  55.3074497   7.0701520  42.9921481  55.6234339   7.7079623
  51.7557478  45.1681952  10.2295053  51.1125796  45.0179598  10.7980191
  51.4156885  44.9224297   9.4644157  51.6102555  45.1094074  10.1998068
  56.3456825  53.1241379   9.6525061  55.6748014  53.6671081   9.5238127
  57.0396575  53.5936234   9.4106756  56.3485692  53.2739650   9.5980589
  50.3943558  65.2638091  14.8836820  50.1709213  64.5056920  15.2520846
  49.9053402  65.2936112  14.1617259  50.2887007  65.1560315  14.8313561
  56.5084952  49.5797262  12.5615435  56.8612562  49.1526985  13.2361233
  55.6499754  49.4948106  12.6916511  56.4334397  49.5042003  12.6810445
  45.2068637  52.2104782  10.6198281  44.4880626  52.6268915  10.8871145
  45.5780999  52.7759021  10.0689919  45.1560569  52.3554063  10.5781088
  54.5068218  52.8432631  16.5100277  54.4866145  52.6615926  17.3635056
  54.5547419  53.7144649  16.4859860  54.5102859  52.9449169  16.6323572
  52.4514548  59.4319823  22.4348753  52.4110403  58.7869500  21.8493909
  53.2637866  59.3756440  22.7474165  52.5657701  59.3278790  22.3945703
  49.0422015  65.4838549  12.3373904  48.6282414  64.8212679  11.9477746
  49.7269389  65.6316408  11.8169598  49.0820387  65.4079207  12.2030401
  52.4087309  64.6428634  13.0897521  52.0103593  64.7530904  12.3218341
  51.7938529  64.8510700  13.6724081  52.2586199  64.6902202  13.0628820
  50.9815211  51.2502782   5.9571661  50.3880051  51.5719778   5.4056228
  51.0190489  50.4043877   5.7492767  50.8989601  51.1727110   5.8454432
  57.9409012  44.7015674  13.4899747  57.4339877  43.9944814  13.4220925
  58.7376446  44.3708863  13.6200824  57.9836251  44.5488826  13.4998742
  53.8573028  51.2082286   9.3873411  53.6286721  51.2314988   8.5451769
  54.1171104  50.3839753   9.5068421  53.8619216  51.0898366   9.2798609
  46.9117790  49.7458833  10.6827606  47.3875157  50.1075913  10.0477788
  46.4106390  50.4015300  10.9627749  46.9083149  49.8953021  10.6304347
  52.0161327  50.9841004  21.4300767  52.5732757  50.7554814  20.7979232
  51.6922392  51.7446670  21.1535979  52.0507737  51.0624841  21.2957264
  48.9544444  51.8900032   4.0500990  49.3343408  51.9079662   3.2652105
  48.2137040  52.3354021   3.9291838  48.9013281  51.9581807   3.9164559
  56.5829734  50.1982224   9.6376569  56.5823961  50.0430880  10.4960845
  56.3785914  51.0445211   9.5817955  56.5529512  50.3002844   9.7564509
  38.6447005  53.6222008  14.0535386  38.4668766  53.1698617  14.7790301
  38.3566027  54.4248170  14.2373863  38.5759958  53.6744566  14.1878889
  54.3070586  54.8779725  13.2912776  54.8024252  54.1602721  13.2516796
  53.4970362  54.5750523  13.1767263  54.2614479  54.7277372  13.2686502
  40.3819475  56.1549732  11.1657145  39.5164994  56.1435422  11.0539916
  40.4818291  55.9679955  12.0128284  40.2693642  56.1255793  11.2746089
  56.3722405  57.6283413  15.9789905  56.7977477  57.1057835  15.4260330
  56.0079325  58.2264250  15.4578528  56.3809008  57.6393640  15.8198915
  46.0076485  65.9247630  14.7387250  46.3223044  66.7384019  14.7465032
  46.4169898  65.5397849  15.4069409  46.1144583  65.9876333  14.8391342
  52.9601005  61.3417677  12.3091062  53.4312183  62.0557940  12.4781047
  53.2961183  60.7416427  12.8450932  53.0796120  61.3589142  12.4123438
  55.0477989  62.9518991  24.4883134  55.1574955  62.1627551  24.8439882
  55.3768886  62.8624927  23.6857472  55.1130395  62.8224844  24.4225525
  53.5974951  61.1335611  19.0718755  53.0495897  60.5093495  18.8038820
  54.0587980  61.3229883  18.3562834  53.5842160  61.0694662  18.9269186
  52.9502855  43.0375474  15.8630250  52.1448818  42.9273204  16.1798089
  52.8209590  43.1387930  15.0060116  52.8122987  43.0359144  15.7838291
  56.4068815  49.2020966  16.4569947  55.8231804  49.7030172  16.0447515
  56.7273109  48.6950522  15.8234270  56.3681991  49.2012801  16.3028454
  48.9463614  48.1161561   6.7328622  49.7679309  48.2859874   6.4910317
  48.4833265  48.2708822   6.0094920  48.9994777  48.1643294   6.5900266
  47.5358946  46.1104323  17.5127051  48.0803359  45.7695450  18.1031392
  47.5895882  46.9689784  17.6548335  47.6248066  46.1859582  17.6208924
  43.3489505  59.8720739  14.3865859  43.9534362  59.8316573  13.7579679
  43.1416818  60.7191891  14.4169915  43.4078402  59.9908741  14.2981975
  53.1633277  62.1386684  15.6028096  53.9831651  61.9949650  15.8644391
  52.8827355  62.7632883  16.1444534  53.2430021  62.2097036  15.7216035
  38.5840787  58.8555356  14.2564782  38.4865065  58.0451628  14.5654838
  39.3669657  58.8347150  13.8711050  38.6856924  58.7322447  14.2451645
  54.0196773  70.1666596  16.1204117  53.8955470  70.7529041  16.7553936
  54.6715058  69.6726791  16.4216392  54.0970422  70.1805400  16.2590047
  57.4577981  70.0846017  21.5333142  57.6298485  69.9751912  22.3818423
  57.9947339  70.7300422  21.2964334  57.5622985  70.1638019  21.6238238
  56.5138304  66.2156326  19.0153069  55.8210101  65.7453306  19.2613801
  57.1298632  65.9894631  19.5894777  56.5022834  66.1123458  19.1362222
  55.2378863  70.1821730  20.1579915  55.9618836  70.1674761  20.6444809
  55.3395000  70.8917086  19.6601883  55.3597072  70.2846434  20.1558701
  62.6123813  73.6620815  25.0228862  61.8196794  73.9764327  25.2081481
  62.7272740  73.8772283  24.1849646  62.5119223  73.7404652  24.9267196
  61.5379325  68.0225396  17.3592629  61.1493758  67.5979613  16.7044820
  60.8734023  68.2707545  17.8669656  61.3826253  67.9964117  17.3380497
  59.3197527  64.2254223  24.7379222  59.0050968  64.9953785  24.4748784
  58.9987459  63.6624479  24.1531449  59.2256446  64.2564491  24.6120572
  65.9962313  62.7622603  18.6836740  66.7415905  62.5732414  18.2700165
  65.5799617  63.2880841  18.1250596  66.0447287  62.8124749  18.5401313
  58.9514032  66.8251474  23.4764436  58.1413808  67.1309253  23.3654279
  59.4288719  67.5457056  23.5917020  58.9017511  66.9766075  23.4771507
  55.2858064  72.3614024  18.3463839  55.7979161  72.6398277  17.6972598
  54.9994407  73.1003318  18.7126652  55.3192927  72.5116378  18.3053717
  58.8041790  64.4540413  18.4064880  58.6124987  64.4695547  19.2564304
  59.6540386  64.6504087  18.3831535  58.9017512  64.4854764  18.5288175
  53.1888703  66.9831394  16.3848697  53.0474194  66.1315335  16.5093205
  53.4729266  67.0260055  15.5610903  53.2096549  66.8631144  16.2816321
  59.3024322  71.5555203  19.9416168  59.4467698  72.1356411  19.3059278
  59.6499971  71.9331500  20.6466023  59.3751784  71.6975907  19.9515163
  61.7146017  64.6495922  18.6136703  62.1718631  65.3819896  18.7409496
  61.7902345  64.2262387  19.3723959  61.7936986  64.6953160  18.7437780
  53.9579008  64.8961742  19.7026147  53.4221197  64.2842100  20.0186914
  54.0196773  65.4709878  20.3559814  53.8874641  64.8908669  19.8461574
  59.5928395  66.6398026  15.4578527  58.8024469  66.4589486  15.7795863
  59.9889017  65.8624978  15.4408822  59.5345271  66.4985487  15.5031076
  62.1066225  69.1158285  19.9402026  62.0425366  69.9768241  19.8122163
  62.2463413  68.7990278  19.1397578  62.1181695  69.1958452  19.8030239
  63.7636178  66.5736664  18.4361866  63.9778147  65.9347578  17.8825219
  63.1470077  67.0182488  18.0069727  63.7041507  66.5446808  18.2912297
  65.9275266  68.1825729  19.3745173  65.1151947  67.8751619  19.4558345
  66.3865200  67.7024729  19.9387885  65.8755650  68.0662221  19.4699767
  63.0228773  69.5885800  24.1573875  63.4928404  70.2127917  24.5441749
  63.0690653  68.9202776  24.7167090  63.0996649  69.5820481  24.2973946
  60.1800047  61.6942828  14.8822679  59.6638535  61.0023019  15.0074258
  59.6193976  62.3613605  14.8285277  60.0206560  61.6906086  14.8928745
  62.2492280  62.2335788  16.7115531  61.8624033  62.2584819  17.4929061
  61.7625218  61.6677467  16.2590048  62.1204789  62.1531539  16.7603435
  61.9149422  59.1202773  19.0025791  62.5442540  59.6563074  18.7246862
  62.0835285  59.0280132  19.8539357  62.0327217  59.1864136  19.0874319
  61.7163337  63.9073968  21.2752203  62.5436766  63.6359117  21.3310817
  61.7371183  64.7034810  21.6316021  61.8416187  63.9853722  21.3367386
  56.5802257  64.6083591  16.5482114  57.0403739  64.6822520  17.2857238
  56.6258364  65.4064845  16.1981935  56.6552813  64.7377738  16.6054870
  58.2285607  65.2750286  21.1154141  57.8371172  64.6283633  21.5509919
  58.3971470  65.8661721  21.7348396  58.1956517  65.2664554  21.2716847
  53.3690035  68.2372782  18.9233830  54.2315648  68.1368491  18.8371160
  53.0381818  67.6567491  18.3619402  53.4475232  68.1364408  18.8279236
  56.7291821  67.0615231  15.5844248  56.1044891  67.0733623  14.9770201
  56.3937416  67.5375406  16.2335489  56.5877313  67.1333748  15.5900817
  55.9982567  68.6708378  17.8019117  56.1576053  67.9151703  18.2070839
  55.8175460  69.2199318  18.4559854  55.9947926  68.6402192  17.9581823
  63.9402870  60.8369614  18.3569906  63.4443431  61.0333288  17.6661473
  64.6971932  61.2362282  18.1858708  63.9789694  60.9247348  18.2290043
  57.4907071  63.2382778  14.3278961  57.5305443  63.7391985  15.0413669
  56.6656736  63.3293172  14.0584884  57.3746597  63.3264595  14.3929499
  59.6736684  72.8043518  22.4299256  58.8232315  72.9415232  22.5656901
  59.8364812  72.0707296  22.8746957  59.5720548  72.7157619  22.5154855
  56.7205218  63.2452181  22.2609271  57.3457921  62.7014314  22.5338703
  56.2655698  62.7647099  21.6917061  56.7453479  63.0941662  22.2170865
  64.2895839  64.2152160  16.8204476  64.7150910  63.7624686  16.2088002
  63.6752832  63.6612231  17.0969263  64.2624484  64.0666136  16.7709501
  63.4247131  74.9505131  22.4348753  63.3842986  74.3054808  21.8493909
  64.2370450  74.8941748  22.7474165  63.5390285  74.8464098  22.3945703
  59.1124840  68.5802067  18.9898511  58.6003743  67.9723250  19.3483542
  58.9404336  69.2958660  19.4572487  59.0114477  68.5965367  19.1114735
  53.9590555  67.0239643  21.6400873  53.7893145  67.6841018  21.0949079
  53.5156505  67.2346204  22.3613362  53.8689888  67.1525625  21.6662502
  62.9893910  66.5026312  21.4300767  63.5465340  66.2740122  20.7979232
  62.6654975  67.2631978  21.1535979  63.0240320  66.5810149  21.2957264
  50.8592619  69.9286508  16.8989363  50.3119339  69.2587154  17.0170231
  51.6484997  69.5616356  16.9632830  50.8944803  69.7751495  16.9258063
  60.7077028  69.5893965  22.3952774  61.4588355  69.9045642  22.7092328
  60.8999604  69.3873136  21.5686695  60.8468442  69.6061347  22.3196169
  49.6179589  69.1407316  14.0535386  49.4401350  68.6883925  14.7790301
  49.3298611  69.9433477  14.2373863  49.5492542  69.1929874  14.1878889
  60.8503083  61.6330456  19.2649157  60.9830989  60.8361449  19.5930133
  61.2348236  62.1596859  19.8447433  60.9259412  61.5930372  19.3992660
  63.9235438  58.5560782  15.8630250  63.1181402  58.4458512  16.1798089
  63.7942174  58.6573238  15.0060116  63.7855571  58.5544452  15.7838291
  58.5091530  61.6289631  17.5127051  59.0535943  61.2880758  18.1031392
  58.5628466  62.4875092  17.6548335  58.5980649  61.7044890  17.6208924
  43.8925986  21.0521228   9.8624406  44.5992753  20.5573258   9.9911340
  44.0813921  21.4930309   9.1327064  44.0253891  21.0439578   9.7733451
  36.3858905  29.2493401  -0.3121190  37.0296360  29.6906565   0.0774968
  36.7115160  28.4446828  -0.3990931  36.5290733  29.1958596  -0.2675713
  41.0318280  24.4748764   7.7538481  41.1201626  24.2874905   8.6016691
  41.4607993  23.8286194   7.3543328  41.1080382  24.3511772   7.8210233
  38.5988740  23.7579924   6.7356143  38.0359575  23.3452534   7.2595804
  39.3609763  23.6832830   7.1549287  38.6283188  23.6857325   6.8749144
  35.2063638  15.9853532   8.4673189  35.3784142  15.8759427   9.3158470
  35.7432995  16.6307938   8.2304381  35.3108642  16.0645534   8.5578285
  41.1438339  23.9057783  10.4182265  41.9278756  24.0188631  10.7838007
  40.9434934  23.0798920  10.6140950  41.2304365  23.8004503  10.5016651
  41.3008733  25.8167885   4.0648720  40.5023978  25.5767385   4.3222589
  41.7494744  25.8682278   4.8115768  41.2483344  25.7890277   4.2133644
  40.3609470  19.5628330  11.9568908  39.5682450  19.8771842  12.1421528
  40.4758397  19.7779799  11.1189693  40.2604880  19.6412167  11.8607243
  41.2893262  19.4648534   6.8954205  41.8632124  18.8275778   7.0502769
  41.2108066  19.4652616   6.0263863  41.3626497  19.3713645   6.7900616
  46.6113410  20.8357512   6.9039058  46.3752048  20.0045576   6.7851119
  47.2556639  20.7843119   7.4893903  46.6708081  20.7055200   6.9724952
  37.0683184  10.1261738  11.6719268  36.7536625  10.8961301  11.4088831
  36.7473116   9.5631994  11.0871495  36.9742103  10.1572007  11.5460618
  47.6349831  20.6201960   2.9667353  47.3295648  21.3530017   3.3280668
  46.9156046  20.2139890   2.6860139  47.4837173  20.6683693   2.9780490
  53.3351623  17.2594961   2.2935697  53.2676123  17.2790920   1.4238284
  53.3207285  18.1025288   2.5191368  53.3230379  17.3868696   2.1988174
  37.7732631  19.8677945   5.1142185  37.2744325  20.5793712   5.1927073
  38.5832855  20.1878611   5.0760347  37.8188738  20.0204793   5.1198753
  36.6999689  12.7258989  10.4104483  35.8899465  13.0316769  10.2994325
  37.1774376  13.4464571  10.5257067  36.6503168  12.8773590  10.4111554
  44.9861001  21.4289359   1.2520013  44.8475360  22.1270405   1.7568755
  44.2060998  21.2738015   0.8956195  44.8504227  21.5089526   1.2746287
  43.3239086  17.7285734   7.5042395  43.3187124  16.8565551   7.5084821
  44.0300080  17.9273903   7.0311850  43.4284090  17.6289608   7.4349430
  37.0509979  17.4562718   6.8756215  37.1953355  18.0363926   6.2399325
  37.3985628  17.8339015   7.5806070  37.1237440  17.5983422   6.8855210
  36.1237734  25.6465490   3.7417242  36.2727298  25.0868406   3.0890646
  36.9037736  25.7257492   4.1249761  36.2611828  25.5751055   3.7014191
  38.6491035  25.8180133   5.0201733  38.5734706  25.1488943   5.5752521
  38.5780894  26.5197921   5.5342399  38.6271642  25.8225040   5.1778581
  39.8551882  15.0165800   6.8742073  39.7911023  15.8775757   6.7462210
  39.9949069  14.6997794   6.0737625  39.8667352  15.0965967   6.7370286
  38.0382669  29.2248453   3.4779733  38.5278599  28.5259242   3.2955398
  37.4666901  28.9272323   4.0655791  38.0267199  29.0774676   3.5380774
  44.2349673  21.7910522  12.4306524  45.0484538  21.5195671  12.5911657
  44.0744639  21.4918062  11.6266720  44.3319621  21.7065448  12.3351930
  43.6760922  14.0833244   6.3085219  42.8637604  13.7759135   6.3898392
  44.1350857  13.6032244   6.8727932  43.6241307  13.9669737   6.4039814
  40.7714430  15.4893316  11.0913922  41.2414061  16.1135432  11.4781796
  40.8176310  14.8210291  11.6507136  40.8482306  15.4827996  11.2313993
  44.2470917  22.8516812   7.7029365  44.8850637  22.3577008   7.3691821
  43.6045008  22.7794213   7.1181591  44.2465143  22.7675821   7.5671720
  44.3025173  23.5436621   4.3434721  45.0917551  23.1925685   4.4636803
  44.4768771  24.3573009   4.0811355  44.4445455  23.6122478   4.3222589
  35.9153499  22.0976466   5.3532206  35.8073854  22.1078528   6.2194264
  36.1249281  22.9231247   5.1637159  35.9303610  22.2217541   5.4536297
  50.0517713  19.1794878   3.8131421  50.1100837  19.6281527   4.5591398
  49.4184181  19.5893691   3.3761501  49.9669008  19.3068613   3.8583970
  43.6916808  24.7998420   0.2486168  43.4936496  25.2889235  -0.4457621
  43.0704519  25.0039662   0.8270301  43.5704372  24.9014958   0.2309391
  45.6090610  18.3662572   5.7831416  46.3324808  17.9135099   5.6042436
  45.3440572  18.6467238   5.0003744  45.6771883  18.3413541   5.6410131
  41.3909399  18.4646451   3.9326431  40.7766392  17.9204501   4.2275066
  41.9076684  17.9510687   3.4532247  41.3765062  18.3082860   3.9050659
  37.4222341  18.7051034   9.3639303  36.5717972  18.8422748   9.4996947
  37.5850469  17.9714812   9.8087004  37.3206205  18.6165135   9.4494902
  48.0425924  17.3288983   4.2861966  48.6343764  17.9686234   4.3180164
  48.4784918  16.6312020   4.5754032  48.1944355  17.3207334   4.3342798
  39.8719313  21.7506356   4.9119860  39.3644404  22.3042203   5.3560490
  39.5745960  21.8114646   4.0938634  39.7524198  21.8412667   4.8568316
  39.1161799  26.6830914   1.8176866  38.8927453  25.9249743   2.1860893
  38.6271642  26.7128935   1.0957306  39.0105248  26.5753138   1.7653607
  41.1732788  20.8512646   9.3688800  41.1328643  20.2062323   8.7833956
  41.9856106  20.7949264   9.6814212  41.2875942  20.7471613   9.3285749
  41.1305550  26.0621457   0.0237568  40.7321833  26.1723728  -0.7441612
  40.5156769  26.2703524   0.6064127  40.9804439  26.1095025  -0.0031133
  40.7379567  12.4033827   8.3640813  41.2950997  12.1747637   7.7319279
  40.4140632  13.1639493   8.0876026  40.7725977  12.4817664   8.2297310
  38.4562684  15.4901481   9.3292821  39.2074011  15.8053157   9.6432375
  38.6485261  15.2880652   8.5026742  38.5954099  15.5068862   9.2536216
  45.0940645  19.0476236   2.9129952  45.5195717  18.5250658   2.3600377
  44.7297565  19.6457074   2.3918575  45.1027248  19.0586463   2.7538961
  34.7294725  27.3440454   1.6727297  35.0441284  28.1576842   1.6805079
  35.1388139  26.9590672   2.3409456  34.8362823  27.4069156   1.7731389
  43.7696229  24.3711814  11.4223181  43.8793195  23.5820374  11.7779928
  44.0987126  24.2817750  10.6197519  43.8348635  24.2417667  11.3565572
  42.3193191  22.5528435   6.0058802  41.7714137  21.9286318   5.7378867
  42.7806220  22.7422707   5.2902881  42.3060401  22.4887485   5.8609233
  41.8851518  23.5579507   2.5368143  42.7049891  23.4142473   2.7984438
  41.6045595  24.1825706   3.0784581  41.9648261  23.6289859   2.6556082
  51.5564853  30.3020010   0.2563950  50.7002748  30.4628508   0.3073066
  51.6032506  29.4312074   0.2769011  51.4363964  30.1970812   0.2670016
  45.9405992  39.8382728  -3.9798819  45.1888892  39.4598266  -4.2082774
  46.3892004  39.8701162  -4.7280008  45.8955659  39.7868335  -4.1241317
  54.8658569  36.5706536   9.8624406  55.5725337  36.0758566   9.9911340
  55.0546505  37.0115617   9.1327064  54.9986475  36.5624886   9.7733451
  54.4016674  32.3612054   2.8995601  54.9472634  33.0397141   2.9589571
  54.3433550  32.2199515   2.0397183  54.4732588  32.4404056   2.7807662
  47.5190749  39.8501120  -1.7136046  47.6201112  39.0401474  -1.4038919
  46.9232494  39.7558066  -2.3436368  47.4463287  39.7166148  -1.7609808
  47.3591488  44.7678709  -0.3121190  48.0028944  45.2091873   0.0774968
  47.6847744  43.9632135  -0.3990931  47.5023317  44.7143904  -0.2675713
  40.7155793  35.8721407  -2.0883713  40.4805977  35.0389059  -2.1951444
  40.8541434  36.1526072  -2.9022512  40.7011455  35.7904910  -2.2241358
  43.0145880  28.0407137   0.8100595  42.3950912  27.4499785   0.6410610
  42.9129744  28.6318572   0.1764918  42.9083556  28.0411220   0.6905585
  50.1113776  29.7806679  -4.8566942  50.8093941  29.9594807  -4.3645479
  50.4266109  29.2577018  -5.4796552  50.2609113  29.7300451  -4.8764932
  42.7415013  31.5859419   3.0544164  42.6173710  32.1721864   3.6893983
  43.3933298  31.0919615   3.3556439  42.8188663  31.5998223   3.1930093
  47.7673354  34.7621136   2.3331675  48.4122357  34.2693579   2.0142624
  48.0075131  34.9045923   3.1597753  47.8983939  34.7098578   2.4081208
  50.3059446  37.6076042   1.9838568  50.5882689  36.8127448   1.7625324
  51.0345606  38.0856629   2.0043629  50.4549009  37.5610639   1.9541583
  48.2840640  25.1499076  -0.7745667  47.9543970  25.6010219  -1.4441968
  47.6085641  25.0715239  -0.2272661  48.1351076  25.2050211  -0.7922444
  60.2877534  36.7135404  -1.0425602  59.4575237  36.9246048  -0.8792185
  60.2386786  35.8872459  -1.3183318  60.1584269  36.6225010  -1.0588236
  42.2773118  40.7507077  -0.8127506  41.7940696  41.4757567  -0.8367923
  43.0896436  41.0483207  -0.7017349  42.3263865  40.9009431  -0.8000227
  48.3487272  39.5439258   1.7922308  47.8314213  39.1846673   1.1883616
  49.0461663  39.0201433   1.8028374  48.3752853  39.4136946   1.7052567
  52.0050864  39.9934072   7.7538481  52.0934209  39.8060213   8.6016691
  52.4340576  39.3471502   7.3543328  52.0812966  39.8697080   7.8210233
  49.5721323  39.2765232   6.7356143  49.0092158  38.8637842   7.2595804
  50.3342347  39.2018138   7.1549287  49.6015772  39.2042633   6.8749144
  45.1317315  41.2663253  -0.6607227  45.8337894  40.7515242  -0.6034470
  45.0514798  41.5937405   0.1439649  45.2241075  41.2377480  -0.5334434
  59.7831492  29.3605805   2.7524820  58.9459913  29.4307992   2.9872414
  59.7519723  29.3630299   1.8799122  59.6549775  29.3716032   2.6584368
  46.1796221  31.5038840   8.4673189  46.3516725  31.3944735   9.3158470
  46.7165579  32.1493246   8.2304381  46.2841225  31.5830842   8.5578285
  44.4568090  37.4569605  -1.1521619  45.2956990  37.6892538  -1.1047857
  44.4879859  36.5873917  -1.2214583  44.5849808  37.3626552  -1.1556974
  45.0820793  37.8770481   3.1491687  45.6219018  37.7341612   3.8195059
  44.3990740  38.2767231   3.5175713  45.0612947  37.9150151   3.3026109
  54.5061678  33.5561481  -1.6563289  55.2619193  33.9892996  -1.6174380
  54.6124003  32.9066251  -1.0828653  54.6331849  33.5238965  -1.5665263
  57.5441849  37.3834758  -0.9060886  57.1077081  37.3871501  -0.1501914
  57.2104765  38.0640257  -1.3381308  57.4304469  37.4847214  -0.8580053
  52.1170923  39.4243091  10.4182265  52.9011340  39.5373939  10.7838007
  51.9167517  38.5984228  10.6140950  52.2036948  39.3189811  10.5016651
  40.4857938  34.0970771   3.3026108  40.2196354  33.2809888   3.4617099
  40.4996502  34.1423927   2.4321624  40.4482661  33.9827676   3.1979590
  57.4639332  24.4248586   1.3368542  58.1065241  24.4946691   1.9230458
  57.7162353  23.7577809   0.8348084  57.5961464  24.3374935   1.3495821
  45.2356545  27.6349150   5.9493116  44.5428341  27.1646129   6.1953848
  45.8516872  27.4087454   6.5234823  45.2241075  27.5316281   6.0702269
  52.2741316  41.3353193   4.0648720  51.4756562  41.0952693   4.3222589
  52.7227328  41.3867586   4.8115768  52.2215927  41.3075584   4.2133644
  60.6786195  34.1015678  -2.0141248  61.3402630  33.5406347  -2.1145340
  60.0377607  33.6067709  -1.6888557  60.6815063  33.9452087  -1.9808908
  40.8951352  34.8829551   0.5837853  40.7126925  34.8576437  -0.2689855
  41.6301021  35.3528489   0.6226762  40.9765416  34.9490913   0.4635771
  56.9651026  35.1181061  -2.2729260  57.2006615  35.2626260  -3.1002409
  57.1140590  35.8823469  -1.8797746  57.0216829  35.2520115  -2.3365656
  43.9597104  31.6014554   7.0919961  44.6837076  31.5867584   7.5784856
  44.0613240  32.3109909   6.5941930  44.0815313  31.7039257   7.0898748
  51.3342053  35.0813638  11.9568908  50.5415034  35.3957150  12.1421528
  51.4490980  35.2965107  11.1189693  51.2337464  35.1597475  11.8607243
  54.0073372  31.8047629  -3.7536076  54.1020226  32.5436923  -3.2996450
  53.3832216  31.3765105  -3.3201511  53.9282402  31.8508950  -3.6227928
  52.2625846  34.9833842   6.8954205  52.8364708  34.3461086   7.0502769
  52.1840650  34.9837924   6.0263863  52.3359081  34.8898953   6.7900616
  40.8622262  31.7623051   0.7336919  41.4395765  31.6259502   1.3729165
  40.1636324  31.3058836   0.9882504  40.8443284  31.6745318   0.8659209
  47.6189564  33.4157107  -1.0524597  47.3608809  32.5828842  -1.0793298
  47.6738047  33.6414720  -1.8932097  47.5889342  33.3254878  -1.1804461
  52.6990615  25.5185558  -0.9520505  51.9946941  25.0294743  -0.7936586
  52.7475589  25.5308032  -1.8232060  52.6020666  25.4475206  -1.0581165
  46.5924277  30.9694870  -0.5659703  46.0173868  31.1287038   0.0704258
  46.2159953  30.3330279  -1.0291252  46.4527089  30.8992682  -0.5405144
  50.2597565  29.4418219   4.2932676  49.8711998  29.0172437   3.6384867
  49.5952264  29.6900368   4.8009702  50.1044493  29.4156940   4.2720544
  54.0823927  23.1392848   1.8056660  54.4634439  22.4571019   2.1924534
  53.2787211  22.8502450   1.6232324  54.0200389  22.9959896   1.8360716
  57.5845994  36.3542820   6.9039058  57.3484631  35.5230884   6.7851119
  58.2289223  36.3028427   7.4893903  57.6440664  36.2240508   6.9724952
  47.2344412  37.1438341  -2.3818205  47.8718359  36.9050088  -1.8366412
  47.6599483  37.3475500  -3.1165045  47.3920578  37.1389351  -2.4101048
  41.9257054  39.3826677   1.5016099  41.9661199  39.6541528   0.6735878
  42.4851578  39.9068585   1.9173886  42.0140400  39.5002432   1.4407987
  48.0415767  25.6447046  11.6719268  47.7269208  26.4146609  11.4088831
  47.7205700  25.0817302  11.0871495  47.9474686  25.6757315  11.5460618
  58.6082414  36.1387268   2.9667353  58.3028231  36.8715325   3.3280668
  57.8888630  35.7325198   2.6860139  58.4569757  36.1869001   2.9780490
  49.6165884  37.6210763  -0.7024419  49.6904892  37.4585935   0.1517431
  50.4335390  37.8100953  -0.9463937  49.7482242  37.6247506  -0.6126393
  64.3084206  32.7780269   2.2935697  64.2408707  32.7976228   1.4238284
  64.2939869  33.6210596   2.5191368  64.2962963  32.9054004   2.1988174
  43.3771640  37.9668626  -3.6729975  42.5509758  38.2130364  -3.7995697
  43.4383632  37.8880707  -2.8067917  43.2645807  37.9913575  -3.5641031
  54.7180553  24.1815427   5.6176787  55.4634145  23.9925237   5.2040212
  54.3017858  24.7073665   5.0590643  54.7665527  24.2317572   5.4741360
  62.0942824  31.5524655   0.5682291  62.6450745  30.9192724   0.8079384
  62.0786939  32.0840048   1.2597796  62.1728020  31.5373603   0.7061150
  48.7465215  35.3863252   5.1142185  48.2476908  36.0979020   5.1927073
  49.5565439  35.7063919   5.0760347  48.7921321  35.5390101   5.1198753
  46.0976385  42.5612889  -2.9050796  45.8776680  42.2710244  -2.1124129
  45.8770907  41.9027844  -3.4332883  46.0323979  42.4212597  -2.8661887
  45.0093332  34.6486205  -0.6395094  44.7206581  34.0223677  -0.1049367
  45.8776680  34.5906493  -0.5730414  45.0953584  34.5473750  -0.5504140
  55.7971230  29.7920989  -0.3213112  55.4535996  29.0711324   0.0294137
  55.8964273  29.5834840  -1.1634754  55.7613273  29.6545192  -0.3941432
  45.2125606  36.2881457  -4.7152729  45.9671574  36.6694496  -4.5017267
  44.6196218  36.7392600  -4.2606033  45.2362319  36.4110284  -4.6169851
  47.6732273  28.2444297  10.4104483  46.8632048  28.5502077  10.2994325
  48.1506959  28.9649879  10.5257067  47.6235751  28.3958898  10.4111554
  46.5323832  37.4590018   0.6587386  46.0104586  37.5990310   1.3439251
  46.9197853  36.7000682   0.8489504  46.5127533  37.3675542   0.7888463
  47.9590158  34.4894037  -3.9431123  47.7632940  35.0968771  -4.5370820
  48.1824503  33.7961981  -4.4239449  47.9624799  34.4771562  -4.1015042
  46.3568688  31.3748775  -3.8250254  47.0791340  31.5389933  -4.2846448
  45.8776681  32.0958440  -3.9310915  46.3932419  31.5047004  -3.9084640
  54.3162195  27.7112574   1.5546431  53.4773296  27.7373853   1.3184694
  54.3866563  28.3583309   2.1351777  54.2030589  27.8108699   1.6055547
  44.0076305  33.7806847   5.2803886  44.5197402  34.0591101   4.6312645
  43.7212647  34.5196141   5.6466699  44.0411168  33.9309201   5.2393764
  58.1919719  32.9180560  -1.1592328  58.1053694  33.0735986  -0.3057549
  57.7370199  33.5618636  -1.5332923  58.1122976  33.0356315  -1.0885221
  47.5260030  25.8733236   5.3404927  47.3343227  25.8888370   6.1904351
  48.3758626  26.0696910   5.3171582  47.6235752  25.9047587   5.4628222
  41.9106943  28.4024217   3.3188744  41.7692435  27.5508158   3.4433252
  42.1947506  28.4452878   2.4950950  41.9314789  28.2823967   3.2156368
  52.0645535  30.2391307  -2.5366768  51.8180250  30.1587058  -1.7029979
  52.3930658  29.4544775  -2.7304241  52.0766779  30.1117573  -2.4419245
  55.9593584  36.9474667   1.2520013  55.8207943  37.6455713   1.7568755
  55.1793582  36.7923323   0.8956195  55.8236811  37.0274833   1.2746287
  54.2971669  33.2471042   7.5042395  54.2919708  32.3750859   7.5084821
  55.0032663  33.4459211   7.0311850  54.4016673  33.1474916   7.4349430
  48.0242563  32.9748026   6.8756215  48.1685938  33.5549234   6.2399325
  48.3718211  33.3524323   7.5806070  48.0970024  33.1168730   6.8855210
  50.1962480  32.1738194   4.6581347  49.4485794  32.3669209   4.2529625
  50.3504005  31.3483414   4.4205468  50.1084908  32.0803306   4.5626752
  47.0970318  41.1650798   3.7417242  47.2459881  40.6053714   3.0890646
  47.8770320  41.2442800   4.1249761  47.2344411  41.0936363   3.7014191
  49.6223618  41.3365441   5.0201733  49.5467289  40.6674251   5.5752521
  49.5513477  42.0383229   5.5342399  49.6004225  41.3410348   5.1778581
  50.4364257  26.0688745   5.5476750  50.8936871  26.8012720   5.6749542
  50.5120586  25.6455210   6.3064006  50.5155227  26.1145983   5.6777827
  42.6797248  26.3154565   6.6366194  42.1439438  25.7034923   6.9526961
  42.7415013  26.8902701   7.2899861  42.6092881  26.3101493   6.7801621
  48.3146635  28.0590849   2.3918574  47.5242710  27.8782309   2.7135910
  48.7107258  27.2817802   2.3748869  48.2563511  27.9178310   2.4371123
  53.6990321  35.6933279   0.1178020  53.0235323  35.4618512   0.6191407
  53.7082697  35.0854462  -0.5079875  53.6008826  35.5692204   0.0994172
  50.8284465  30.5351108   6.8742073  50.7643606  31.3961065   6.7462210
  50.9681653  30.2183101   6.0737625  50.8399935  30.6151275   6.7370286
  49.5103559  33.2283248   1.0158276  49.0865808  33.4287747   0.2797294
  49.3348414  32.3812096   1.1282576  49.4214440  33.1332029   0.9231966
  49.0115253  44.7433761   3.4779733  49.5011183  44.0444550   3.2955398
  48.4399485  44.4457631   4.0655791  48.9999782  44.5959984   3.5380774
  44.7986004  33.7235299  -3.5513751  44.9550623  33.6582102  -2.6957759
  45.1386597  34.4983852  -3.7635072  44.8719239  33.8284497  -3.4559157
  51.3365149  33.0993183  -4.6820388  51.8780694  32.5963564  -4.2181768
  51.6511708  33.0458377  -5.4930903  51.4629546  33.0172604  -4.7336576
  55.2082256  37.3095830  12.4306524  56.0217121  37.0380979  12.5911657
  55.0477222  37.0103370  11.6266720  55.3052205  37.2250756  12.3351930
  52.4854418  27.9929487   5.3701912  52.6996388  27.3540401   4.8165266
  51.8688317  28.4375311   4.9409774  52.4259747  27.9639631   5.2252343
  41.3720266  30.9070249  -3.2352984  41.7519230  31.3254794  -3.8992717
  40.7975630  31.4883705  -2.9284141  41.3431590  31.0548108  -3.2876243
  54.6493506  29.6018552   6.3085219  53.8370188  29.2944443   6.3898392
  55.1083441  29.1217552   6.8727932  54.5973891  29.4855045   6.4039814
  51.8769147  21.1029423   0.3589255  51.0062705  21.0768144   0.3122565
  52.1309488  20.9306615  -0.4584899  51.7862707  21.0739566   0.2309392
  51.7447014  31.0078624  11.0913922  52.2146645  31.6320740  11.4781796
  51.7908894  30.3395599  11.6507136  51.8214889  31.0013304  11.2313993
  48.9018287  23.1135651   1.8162725  48.3856776  22.4215843   1.9414304
  48.3412216  23.7806428   1.7625324  48.7424800  23.1098909   1.8268791
  50.9710521  23.6528611   3.6455578  50.5842274  23.6777643   4.4269108
  50.4843458  23.0870290   3.1930095  50.8423030  23.5724362   3.6943482
  55.2203500  38.3702120   7.7029365  55.8583221  37.8762316   7.3691821
  54.5777592  38.2979521   7.1181591  55.2197727  38.2861129   7.5671720
  56.9460500  30.2191266   2.2695280  56.5188108  30.1317615   1.5143380
  56.3086553  30.3269042   2.8550124  56.7890107  30.2223926   2.2440722
  50.6367662  20.5395597   5.9365838  51.2660780  21.0755897   5.6586908
  50.8053525  20.4472956   6.7879404  50.7545457  20.6056959   6.0214366
  50.4381577  25.3266791   8.2092250  51.2655007  25.0551940   8.2650864
  50.4589423  26.1227633   8.5656068  50.5634427  25.4046546   8.2707432
  55.2757757  39.0621928   4.3434721  56.0650135  38.7110993   4.4636803
  55.4501355  39.8758317   4.0811355  55.4178038  39.1307786   4.3222589
  45.0151067  32.4730654   1.3962510  44.1739074  32.3734528   1.6041404
  45.2241075  33.2426135   1.7476831  44.9215760  32.5722698   1.4789825
  42.4926634  30.0950191  -0.7752739  42.0983332  30.1693203  -1.5502629
  41.9366751  30.4808138  -0.2244377  42.3529446  30.1631966  -0.8085079
  54.1291581  23.0731485  -1.0948860  54.3341174  23.0053793  -0.2491863
  53.8018005  23.8790306  -1.1627683  54.1106829  23.1817426  -0.9789205
  48.8267732  30.4012053   0.6460108  48.5230869  29.8468042   1.2470515
  48.1247153  30.5804263   0.1588142  48.6783942  30.3456836   0.6629813
  46.8886083  37.6161774   5.3532206  46.7806438  37.6263836   6.2194264
  47.0981864  38.4416555   5.1637159  46.9036194  37.7402849   5.4536297
  44.9059875  34.8674417   2.8154143  44.3147808  35.5083915   2.7857158
  45.6680899  35.2912034   2.7885443  44.9308136  35.0250255   2.8069290
  45.3020498  26.0276414   3.4822161  45.7621979  26.1015344   4.2197284
  45.3476605  26.8257668   3.1321982  45.3771053  26.1570561   3.5394917
  46.9503848  26.6943109   8.0494188  46.5589413  26.0476456   8.4849966
  47.1189710  27.2854544   8.6688443  46.9174758  26.6857377   8.2056894
  61.0250297  34.6980186   3.8131421  61.0833420  35.1466835   4.5591398
  60.3916764  35.1078999   3.3761501  60.9401592  34.8253921   3.8583970
  54.6649391  40.3183728   0.2486168  54.4669080  40.8074543  -0.4457621
  54.0437102  40.5224970   0.8270301  54.5436956  40.4200266   0.2309391
  48.7257370  32.0868625  -5.4103588  49.4699415  32.4742901  -5.1720638
  48.8718066  31.2426050  -5.2463100  48.8567955  32.0199098  -5.3509618
  50.6436945  23.8818884  -0.3771727  49.7972990  24.0541692  -0.5030377
  50.6408077  23.0768228  -0.0405898  50.5184095  23.7879913  -0.3460600
  51.7135245  27.6594098   0.4890331  51.2395200  27.1335860   0.9995642
  52.0853381  27.1123571  -0.0794807  51.6985134  27.5010095   0.4805478
  42.0908276  29.6565605   5.8573877  42.9533889  29.5561314   5.7711207
  41.7600059  29.0760314   5.2959449  42.1693472  29.5557232   5.7619283
  57.9771976  32.7196474   1.8997112  57.7370199  31.8802889   1.9039538
  58.4563983  32.7996641   2.6237885  58.0124160  32.6077874   2.0071914
  59.9777163  29.4997931  -0.1473629  59.7386933  29.4593765  -0.9852845
  60.1411064  30.3469083  -0.0207908  59.9667466  29.6190016  -0.2520147
  56.5823193  33.8847880   5.7831416  57.3057392  33.4320407   5.6042436
  56.3173155  34.1652546   5.0003744  56.6504466  33.8598849   5.6410131
  45.4510062  28.4808054   2.5184295  44.8263132  28.4926446   1.9110248
  45.1155656  28.9568229   3.1675535  45.3095553  28.5526571   2.5240864
  42.1635737  36.5408514   3.9588059  41.6335662  35.8500953   4.0083034
  42.4360830  36.5318699   3.1300768  42.1260459  36.4375646   3.8435475
  52.3641983  33.9831759   3.9326431  51.7498976  33.4389809   4.2275066
  52.8809268  33.4695995   3.4532247  52.3497645  33.8268168   3.9050659
  51.6038280  35.0536029   1.6670730  51.1765888  34.4285747   1.2336165
  51.5963224  34.7710951   2.4929737  51.5397421  34.9188809   1.7250557
  44.7200807  30.0901202   4.7359164  44.8794294  29.3344526   5.1410886
  44.5393701  30.6392141   5.3899901  44.7166166  30.0595016   4.8921870
  52.6621110  22.2562437   5.2909953  52.1661671  22.4526112   4.6001520
  53.4190172  22.6555106   5.1198755  52.7007935  22.3440171   5.1630090
  49.9323990  25.9304783   1.8813264  49.9566477  25.3964896   1.1926044
  50.1835463  25.4222092   2.5438854  49.9733908  25.7765687   1.8777908
  37.4431579  33.2136278   1.3156408  37.3375028  33.1683123   0.4508492
  36.6931799  33.5590059   1.5970693  37.3167182  33.2577186   1.2293737
  46.2125312  24.6575601   1.2619008  46.2523683  25.1584808   1.9753715
  45.3874976  24.7485995   0.9924931  46.0964838  24.7457418   1.3269546
  48.3954925  34.2236341   9.3639303  47.5450555  34.3608056   9.4996947
  48.5583052  33.4900120   9.8087004  48.2938788  34.1350443   9.4494902
  47.6339675  31.1736111   3.5592907  46.8031605  31.3409929   3.3528155
  47.5791192  30.7972062   4.3441792  47.5029090  31.1425843   3.6441435
  45.4423458  24.6645004   9.1949318  46.0676162  24.1207137   9.4678750
  44.9873938  24.1839922   8.6257108  45.4671719  24.5134486   9.1510911
  59.0158507  32.8474291   4.2861966  59.6076347  33.4871542   4.3180164
  59.4517502  32.1497328   4.5754032  59.1676938  32.8392642   4.3342798
  50.8451897  37.2691664   4.9119860  50.3376988  37.8227510   5.3560490
  50.5478543  37.3299954   4.0938634  50.7256782  37.3597975   4.8568316
  53.0114079  25.6344983   3.7544523  53.4369151  25.1817510   3.1428049
  52.3971072  25.0805054   4.0309310  52.9842725  25.4858959   3.7049548
  56.0407648  30.0619510  -3.4134892  55.3698838  30.6049212  -3.5421826
  56.7347399  30.5314365  -3.6553197  56.0436516  30.2117781  -3.4679364
  50.0894382  42.2016222   1.8176866  49.8660037  41.4435051   2.1860893
  49.6004226  42.2314243   1.0957306  49.9837831  42.0938446   1.7653607
  56.2035776  26.5175393  -0.5044519  56.5563386  26.0905116   0.1701280
  55.3450577  26.4326237  -0.3743442  56.1285221  26.4420134  -0.3849508
  44.9019461  29.1482913  -2.4461672  44.1831450  29.5647046  -2.1788809
  45.2731823  29.7137152  -2.9970034  44.8511393  29.2932195  -2.4878865
  54.2019042  29.7810762   3.4440324  54.1816969  29.5994057   4.2975103
  54.2498242  30.6522781   3.4199907  54.2053683  29.8827300   3.5663618
  52.1465372  36.3697954   9.3688800  52.1061226  35.7247631   8.7833956
  52.9588690  36.3134571   9.6814212  52.2608525  36.2656921   9.3285749
  48.7372839  42.4216680  -0.7286049  48.3233238  41.7590810  -1.1182207
  49.4220213  42.5694539  -1.2490355  48.7771211  42.3457338  -0.8629552
  52.1038133  41.5806765   0.0237568  51.7054417  41.6909036  -0.7441612
  51.4889353  41.7888832   0.6064127  51.9537023  41.6280333  -0.0031133
  53.5523852  28.1460418  -3.6786542  53.3237545  28.1693119  -4.5208184
  53.8121928  27.3217885  -3.5591532  53.5570040  28.0276498  -3.7861345
  47.8343080  29.9994891   5.9238558  47.3221983  29.3916074   6.2823589
  47.6622576  30.7151483   6.3912534  47.7332717  30.0158190   6.0454782
  42.6808795  28.4432466   8.5740920  42.5111385  29.1033841   8.0289126
  42.2374745  28.6539027   9.2953409  42.5908129  28.5718448   8.6002549
  46.6068614  26.6836964  -2.3832347  47.0825981  27.0454044  -3.0182166
  46.1057214  27.3393431  -2.1032204  46.6033973  26.8331153  -2.4355606
  51.7112151  27.9219135   8.3640813  52.2683581  27.6932945   7.7319279
  51.3873216  28.6824801   8.0876026  51.7458561  28.0002972   8.2297310
  39.5810860  31.3479331   3.8329409  39.0337579  30.6779977   3.9510278
  40.3703238  30.9809179   3.8972877  39.6163043  31.1944318   3.8598110
  49.4295268  31.0086789   9.3292821  50.1806595  31.3238465   9.6432375
  49.6217844  30.8065959   8.5026742  49.5686682  31.0254170   9.2536216
  56.2780558  27.1360355  -3.4283384  56.2774785  26.9809011  -2.5699108
  56.0736738  27.9823342  -3.4841998  56.2480336  27.2380976  -3.3095445
  38.3397829  30.5600139   0.9875433  38.1619590  30.1076748   1.7130348
  38.0516851  31.3626301   1.1713910  38.2710782  30.6122697   1.1218935
  54.0021410  31.8157857   0.2252823  54.4975075  31.0980852   0.1856843
  53.1921186  31.5128654   0.1107310  53.9565303  31.6655503   0.2026549
  40.0770299  33.0927863  -1.9002808  39.2115818  33.0813554  -2.0120037
  40.1769115  32.9058086  -1.0531669  39.9644466  33.0633924  -1.7913864
  56.0673229  34.5661544   2.9129952  56.4928301  34.0435966   2.3600377
  55.7030149  35.1642382   2.3918575  56.0759832  34.5771771   2.7538961
  45.7027309  42.8625762   1.6727297  46.0173868  43.6762150   1.6805079
  46.1120722  42.4775980   2.3409456  45.8095407  42.9254464   1.7731389
  52.6551828  38.2795808  -0.7568891  53.1263007  38.9936071  -0.5878906
  52.9912007  37.6794559  -0.2209021  52.7746943  38.2967273  -0.6536515
  54.7428813  39.8897122  11.4223181  54.8525779  39.1005682  11.7779928
  55.0719710  39.8003058  10.6197519  54.8081219  39.7602975  11.3565572
  49.5721323  23.0523279   6.1989204  49.7049229  22.2554272   6.5270179
  49.9566476  23.5789682   6.7787479  49.6477652  23.0123196   6.3332707
  53.2925775  38.0713743   6.0058802  52.7446721  37.4471626   5.7378867
  53.7538803  38.2608015   5.2902881  53.2792984  38.0072793   5.8609233
  52.6453679  19.9753605   2.7970297  51.8399642  19.8651335   3.1138135
  52.5160414  20.0766061   1.9400163  52.5073811  19.9737275   2.7178338
  56.1019639  26.1399097   3.3909994  55.5182628  26.6408304   2.9787561
  56.4223933  25.6328653   2.7574317  56.0632814  26.1390932   3.2368501
  47.2309770  23.0482454   4.4467098  47.7754183  22.7073581   5.0371439
  47.2846706  23.9067916   4.5888382  47.3198890  23.1237713   4.5548971
  43.0440329  36.8098870   1.3205905  43.6485186  36.7694704   0.6919726
  42.8367641  37.6570022   1.3509961  43.1029226  36.9286873   1.2322022
  52.8584101  39.0764815   2.5368143  53.6782475  38.9327781   2.7984438
  52.5778179  39.7011014   3.0784581  52.9380844  39.1475167   2.6556082
  38.2791611  35.7933488   1.1904829  38.1815889  34.9829759   1.4994885
  39.0620481  35.7725281   0.8051097  38.3807748  35.6700578   1.1791692
  53.9878464  43.5592445   0.8100595  53.3683496  42.9685092   0.6410610
  53.8862328  44.1503880   0.1764918  53.8816139  43.5596528   0.6905585
  53.7147597  47.1044727   3.0544164  53.5906294  47.6907172   3.6893983
  54.3665881  46.6104923   3.3556439  53.7921246  47.1183531   3.1930093
  57.1528805  47.0224148   8.4673189  57.3249309  46.9130043   9.3158470
  57.6898162  47.6678554   8.2304381  57.2573809  47.1016150   8.5578285
  63.0903506  54.9428399  10.4182265  63.8743923  55.0559247  10.7838007
  62.8900101  54.1169536  10.6140950  63.1769532  54.8375119  10.5016651
  51.4590522  49.6156079   3.3026108  51.1928937  48.7995196   3.4617099
  51.4729086  49.6609235   2.4321624  51.4215244  49.5012984   3.1979590
  56.2089128  43.1534458   5.9493116  55.5160925  42.6831437   6.1953848
  56.8249456  42.9272762   6.5234823  56.1973658  43.0501589   6.0702269
  54.9329687  47.1199862   7.0919961  55.6569660  47.1052892   7.5784856
  55.0345824  47.8295217   6.5941930  55.0547896  47.2224565   7.0898748
  62.3074637  50.5998946  11.9568908  61.5147617  50.9142458  12.1421528
  62.4223564  50.8150415  11.1189693  62.2070047  50.6782783  11.8607243
  61.2330149  44.9603527   4.2932676  60.8444582  44.5357745   3.6384867
  60.5684847  45.2085676   4.8009702  61.0777077  44.9342248   4.2720544
  65.0556510  38.6578156   1.8056660  65.4367022  37.9756327   2.1924534
  64.2519795  38.3687758   1.6232324  64.9932972  38.5145204   1.8360716
  59.0148351  41.1632354  11.6719268  58.7001792  41.9331917  11.4088831
  58.6938283  40.6002610  11.0871495  58.9207270  41.1942622  11.5460618
  65.6913137  39.7000735   5.6176787  66.4366729  39.5110545   5.2040212
  65.2750441  40.2258973   5.0590643  65.7398111  39.7502880   5.4741360
  58.6464856  43.7629605  10.4104483  57.8364632  44.0687385  10.2994325
  59.1239543  44.4835187  10.5257067  58.5968335  43.9144206  10.4111554
  54.9808888  49.2992155   5.2803886  55.4929985  49.5776408   4.6312645
  54.6945231  50.0381449   5.6466699  55.0143751  49.4494509   5.2393764
  58.4992614  41.3918544   5.3404927  58.3075811  41.4073678   6.1904351
  59.3491209  41.5882218   5.3171582  58.5968335  41.4232895   5.4628222
  52.8839527  43.9209525   3.3188744  52.7425018  43.0693466   3.4433252
  53.1680090  43.9638186   2.4950950  52.9047373  43.8009275   3.2156368
  58.9975146  48.4933334   6.8756215  59.1418522  49.0734542   6.2399325
  59.3450795  48.8709631   7.5806070  59.0702608  48.6354038   6.8855210
  61.4096841  41.5874053   5.5476750  61.8669455  42.3198027   5.6749542
  61.4853169  41.1640518   6.3064006  61.4887810  41.6331291   5.6777827
  53.6529832  41.8339873   6.6366194  53.1172021  41.2220231   6.9526961
  53.7147597  42.4088009   7.2899861  53.5825464  41.8286801   6.7801621
  59.2879218  43.5776157   2.3918574  58.4975293  43.3967617   2.7135910
  59.6839841  42.8003110   2.3748869  59.2296095  43.4363618   2.4371123
  61.8017049  46.0536416   6.8742073  61.7376190  46.9146373   6.7462210
  61.9414237  45.7368409   6.0737625  61.8132519  46.1336583   6.7370286
  66.1814840  52.8281138  12.4306524  66.9949705  52.5566287  12.5911657
  66.0209806  52.5288678  11.6266720  66.2784788  52.7436064  12.3351930
  63.4587002  43.5114795   5.3701912  63.6728971  42.8725709   4.8165266
  62.8420901  43.9560619   4.9409774  63.3992331  43.4824939   5.2252343
  65.6226090  45.1203860   6.3085219  64.8102771  44.8129751   6.3898392
  66.0816024  44.6402860   6.8727932  65.5706474  45.0040353   6.4039814
  62.8501730  36.6214731   0.3589255  61.9795288  36.5953452   0.3122565
  63.1042072  36.4491923  -0.4584899  62.7595290  36.5924874   0.2309392
  62.7179597  46.5263932  11.0913922  63.1879228  47.1506048  11.4781796
  62.7641477  45.8580907  11.6507136  62.7947473  46.5198612  11.2313993
  59.8750871  38.6320959   1.8162725  59.3589359  37.9401151   1.9414304
  59.3144800  39.2991736   1.7625324  59.7157384  38.6284217   1.8268791
  61.9443104  39.1713919   3.6455578  61.5574857  39.1962951   4.4269108
  61.4576042  38.6055598   3.1930095  61.8155613  39.0909670   3.6943482
  61.6100246  36.0580905   5.9365838  62.2393364  36.5941205   5.6586908
  61.7786109  35.9658264   6.7879404  61.7278041  36.1242267   6.0214366
  61.4114161  40.8452099   8.2092250  62.2387590  40.5737248   8.2650864
  61.4322007  41.6412941   8.5656068  61.5367011  40.9231854   8.2707432
  56.2753081  41.5461722   3.4822161  56.7354563  41.6200652   4.2197284
  56.3209188  42.3442976   3.1321982  56.3503637  41.6755869   3.5394917
  57.9236431  42.2128417   8.0494188  57.5321996  41.5661764   8.4849966
  58.0922294  42.8039852   8.6688443  57.8907341  42.2042685   8.2056894
  53.0640859  45.1750913   5.8573877  53.9266472  45.0746622   5.7711207
  52.7332642  44.5945622   5.2959449  53.1426056  45.0742540   5.7619283
  56.4242645  43.9993362   2.5184295  55.7995715  44.0111754   1.9110248
  56.0888240  44.4753537   3.1675535  56.2828137  44.0711879   2.5240864
  55.6933391  45.6086510   4.7359164  55.8526877  44.8529834   5.1410886
  55.5126284  46.1577449   5.3899901  55.6898749  45.5780323   4.8921870
  63.6353693  37.7747745   5.2909953  63.1394255  37.9711419   4.6001520
  64.3922756  38.1740413   5.1198755  63.6740518  37.8625479   5.1630090
  60.9056573  41.4490091   1.8813264  60.9299060  40.9150203   1.1926044
  61.1568047  40.9407400   2.5438854  60.9466492  41.2950995   1.8777908
  48.4164163  48.7321586   1.3156408  48.3107612  48.6868430   0.4508492
  47.6664383  49.0775367   1.5970693  48.2899766  48.7762494   1.2293737
  57.1857895  40.1760909   1.2619008  57.2256267  40.6770116   1.9753715
  56.3607560  40.2671303   0.9924931  57.0697421  40.2642726   1.3269546
  59.3687508  49.7421649   9.3639303  58.5183139  49.8793364   9.4996947
  59.5315636  49.0085428   9.8087004  59.2671372  49.6535751   9.4494902
  58.6072259  46.6921419   3.5592907  57.7764188  46.8595237   3.3528155
  58.5523776  46.3157370   4.3441792  58.4761674  46.6611151   3.6441435
  56.4156042  40.1830312   9.1949318  57.0408745  39.6392445   9.4678750
  55.9606522  39.7025230   8.6257108  56.4404303  40.0319793   9.1510911
  63.9846663  41.1530291   3.7544523  64.4101734  40.7002818   3.1428049
  63.3703656  40.5990362   4.0309310  63.9575308  41.0044267   3.7049548
  63.1197955  51.8883262   9.3688800  63.0793810  51.2432939   8.7833956
  63.9321273  51.8319879   9.6814212  63.2341109  51.7842229   9.3285749
  58.8075664  45.5180199   5.9238558  58.2954567  44.9101382   6.2823589
  58.6355160  46.2336791   6.3912534  58.7065301  45.5343498   6.0454782
  53.6541379  43.9617774   8.5740920  53.4843969  44.6219149   8.0289126
  53.2107328  44.1724335   9.2953409  53.5640712  44.0903756   8.6002549
  62.6844734  43.4404443   8.3640813  63.2416164  43.2118253   7.7319279
  62.3605799  44.2010109   8.0876026  62.7191144  43.5188280   8.2297310
  50.5543443  46.8664639   3.8329409  50.0070163  46.1965285   3.9510278
  51.3435821  46.4994487   3.8972877  50.5895627  46.7129626   3.8598110
  60.4027852  46.5272096   9.3292821  61.1539179  46.8423773   9.6432375
  60.5950428  46.3251267   8.5026742  60.5419266  46.5439478   9.2536216
  49.3130413  46.0785447   0.9875433  49.1352174  45.6262056   1.7130348
  49.0249435  46.8811609   1.1713910  49.2443366  46.1308005   1.1218935
  60.5453907  38.5708587   6.1989204  60.6781813  37.7739580   6.5270179
  60.9299060  39.0974990   6.7787479  60.6210236  38.5308504   6.3332707
  63.6186262  35.4938913   2.7970297  62.8132226  35.3836643   3.1138135
  63.4892998  35.5951369   1.9400163  63.4806395  35.4922583   2.7178338
  58.2042354  38.5667762   4.4467098  58.7486767  38.2258889   5.0371439
  58.2579289  39.4253224   4.5888382  58.2931473  38.6423021   4.5548971
   1.9267191  59.0146244  36.3949163   1.6120632  59.7049723  36.8269586
   1.4094133  58.9591027  35.6934664   1.8031661  59.1081133  36.3546113
   6.2181636  67.2367450  41.6770040   5.3810057  67.3069638  41.9117634
   6.1869867  67.2391945  40.8044342   6.0899918  67.2477677  41.5829588
   3.8989476  62.3010232  40.2613762   4.5415384  62.3708337  40.8475678
   4.1512496  61.6339455  39.7593304   4.0311608  62.2136581  40.2741041
   6.3370978  67.0754869  35.9925726   6.0807543  66.2634811  35.8023609
   7.1800292  67.0832436  35.7655913   6.4237003  66.9566867  35.9310543
   1.1530697  62.0577073  44.5422007   1.8984289  61.8686883  44.1285432
   0.7368001  62.5835310  43.9835863   1.2015671  62.1079218  44.3986580
   8.5292967  69.4286301  39.4927512   9.0800889  68.7954370  39.7324604
   8.5137083  69.9601694  40.1843016   8.6078164  69.4135249  39.6306370
   2.2321374  67.6682635  38.6032108   1.8886139  66.9472970  38.9539357
   2.3314416  67.4596486  37.7610466   2.1963416  67.5306838  38.5303788
   1.3441727  57.1240266  38.3415813   1.4625295  57.5816729  37.6083116
   1.1703902  56.3185527  38.0552031   1.3360897  57.0734038  38.1916747
   3.8175412  61.5024895  37.3099125   3.2049726  61.9895297  37.6952857
   3.9139587  60.8268386  37.8536776   3.7413310  61.4743204  37.4477983
   6.4127307  67.3759577  38.7771591   6.1737077  67.3355411  37.9392375
   6.5761208  68.2230729  38.9037312   6.4017610  67.4951662  38.6725073
   2.6385920  64.3937039  38.4200701   2.9913530  63.9666762  39.0946500
   1.7800721  64.3087883  38.5501778   2.5635364  64.3181780  38.5395712
   4.0709980  59.5155451  39.3485014   3.5640844  58.8084591  39.2806191
   4.8677413  59.1848640  39.4786090   4.1137219  59.3628603  39.3584009
   2.7130702  65.0122001  35.4961836   2.7124928  64.8570657  36.3546112
   2.5086882  65.8584988  35.4403222   2.6830480  65.1142621  35.6149775
   2.5369783  64.0160743  42.3155214   1.9532772  64.5169949  41.9032781
   2.8574077  63.5090299  41.6819537   2.4982958  64.0152578  42.1613721
   4.4866135  46.0284136  21.3596286   4.4560140  46.8828773  21.5314555
   5.0847484  45.7279429  21.9182430   4.5703293  46.1100633  21.4671088
   0.9959537  51.3846313  35.7209673   1.7026304  50.8898343  35.8496607
   1.1847472  51.8255394  34.9912331   1.1287442  51.3764663  35.6318718
   2.3082710  48.6036438  19.6314596   2.1922236  49.3544124  20.0606734
   3.1038597  48.3460391  19.8810683   2.4087299  48.6771285  19.7318688
   1.6218015  35.9524376  23.3289210   1.3071456  36.6427854  23.7609633
   1.1044957  35.8969158  22.6274711   1.4982485  36.0459264  23.2886159
   6.4178502  51.5275181  24.8159665   5.5876205  51.7385825  24.9793082
   6.3687754  50.7012236  24.5401949   6.2885237  51.4364787  24.7997031
   0.6362646  48.3701258  24.2021978   1.3920161  48.8032773  24.2410887
   0.7424970  47.7206028  24.7756614   0.7632816  48.3378742  24.2920004
   3.6742817  52.1974535  24.9524381   3.2378049  52.2011278  25.7083353
   3.3405732  52.8780034  24.5203959   3.5605437  52.2986991  25.0005214
   6.8087163  48.9155455  23.8444018   7.4703597  48.3546124  23.7439927
   6.1678575  48.4207486  24.1696710   6.8116031  48.7591864  23.8776359
   3.0951994  49.9320838  23.5856007   3.3307583  50.0766037  22.7582858
   3.2441557  50.6963246  23.9787521   3.1517797  50.0659892  23.5219611
   4.9242450  48.7722504  21.4225611   5.2550668  49.3050144  20.8165706
   5.4975539  48.8261391  22.0787562   5.0576130  48.8592072  21.4303393
   6.0321802  44.0133001  22.9265773   5.7758367  43.2012942  22.7363655
   6.8751116  44.0210568  22.6995960   6.1187827  43.8944998  22.8650590
   3.7146961  51.1682597  32.7624325   3.4785599  50.3370661  32.6436386
   4.3590190  51.1168204  33.3479169   3.7741632  51.0380285  32.8310219
   4.7383382  50.9527045  28.8252620   4.4329199  51.6855102  29.1865935
   4.0189598  50.5464975  28.5445406   4.5870724  51.0008778  28.8365757
  10.4385174  47.5920046  28.1520964  10.3709674  47.6116005  27.2823550
  10.4240836  48.4350373  28.3776634  10.4263930  47.7193781  28.0573441
   8.2243791  46.3664432  26.4267558   8.7751713  45.7332501  26.6664650
   8.2087907  46.8979825  27.1183063   8.3028988  46.3513380  26.5646417
   1.9272198  44.6060766  25.5372155   1.5836963  43.8851101  25.8879404
   2.0265240  44.3974617  24.6950513   1.8914240  44.4684969  25.4643835
   2.3885227  51.0686470  21.0796143   2.9543259  51.7279680  20.9954686
   1.7413130  51.4136168  21.5512545   2.3763983  51.2168411  21.1368899
   4.3220687  47.7320337  24.6992939   4.2354661  47.8875763  25.5527718
   3.8671167  48.3758413  24.3252344   4.2423943  47.8496092  24.7700046
   2.0894552  51.7614444  27.1105280   1.9508911  52.4595490  27.6154022
   1.3094550  51.6063100  26.7541462   1.9537779  51.8414610  27.1331554
   3.5847925  51.1192698  17.8721779   3.2054733  50.3329836  17.8651069
   2.9214170  51.6679555  17.7293423   3.4306399  51.0837522  17.8502576
   1.0392550  34.0618397  25.2755860   1.1576119  34.5194861  24.5423163
   0.8654726  33.2563659  24.9892078   1.0311721  34.0112169  25.1256794
   1.8308023  53.3638189  18.2073465   1.9127861  54.1705175  17.8834916
   2.3157766  53.3834148  18.9314238   1.9145181  53.4858851  18.2660364
   1.3383224  52.1235607  38.2891791   2.1518089  51.8520756  38.4496923
   1.1778190  51.8243147  37.4851987   1.4353172  52.0390533  38.1937197
   1.3504468  53.1841897  33.5614631   1.9884188  52.6902093  33.2277088
   0.7078559  53.1119298  32.9766858   1.3498694  53.1000906  33.4256986
   3.0761468  45.0331043  28.1280547   2.6489076  44.9457392  27.3728647
   2.4387521  45.1408819  28.7135391   2.9191075  45.0363703  28.1025989
   1.4058724  53.8761705  30.2019988   2.1951102  53.5250770  30.3222070
   1.5802322  54.6898094  29.9396622   1.5479006  53.9447563  30.1807856
   3.5126236  38.4403026  24.2439172   2.9000550  38.9273429  24.6292904
   3.6090411  37.7646517  24.7876823   3.4364134  38.4121335  24.3818030
   7.1551264  49.5119963  29.6716688   7.2134388  49.9606612  30.4176665
   6.5217732  49.9218776  29.2346768   7.0702559  49.6393698  29.7169237
   4.1072944  47.5336251  27.7582379   3.8671166  46.6942666  27.7624805
   4.5864951  47.6136418  28.4823152   4.1425127  47.4217651  27.8657181
   6.1078131  44.3137708  25.7111638   5.8687901  44.2733542  24.8732422
   6.2712032  45.1608860  25.8377359   6.0968434  44.4329793  25.6065120
   2.7124161  48.6987657  31.6416683   3.4358360  48.2460184  31.4627703
   2.4474123  48.9792323  30.8589011   2.7805434  48.6738626  31.4995398
   5.1459475  47.6614068  30.1447232   5.7377315  48.3011319  30.1765431
   5.5818469  46.9637105  30.4339299   5.2977906  47.6532419  30.1928065
   2.1708616  44.8759287  22.4450375   1.4999806  45.4188989  22.3163441
   2.8648366  45.3454142  22.2032070   2.1737484  45.0257558  22.3905903
   2.3336743  41.3315170  25.3540748   2.6864354  40.9044893  26.0286547
   1.4751545  41.2466014  25.4841825   2.2586188  41.2559911  25.4735759
   3.7660804  36.4533582  26.2825061   3.2591668  35.7462722  26.2146238
   4.5628237  36.1226771  26.4126137   3.8088043  36.3006734  26.2924056
   5.9680944  50.9698509  19.2665925   6.3514549  51.7189865  19.4964022
   5.1725057  51.2164329  19.0077914   5.9074726  51.1168203  19.2623499
   2.4081526  41.9500132  22.4301883   2.4075752  41.7948788  23.2886159
   2.2037706  42.7963119  22.3743268   2.3781303  42.0520753  22.5489822
   2.1974197  49.3801321  28.7715218   2.6229268  48.8575743  28.2185643
   1.8331116  49.9782159  28.2503841   2.2060799  49.3911548  28.6124228
   0.8729781  54.7036899  37.2808448   0.9826746  53.9145459  37.6365195
   1.2020677  54.6142835  36.4782786   0.9382186  54.5742752  37.2150839
   2.2320607  40.9538874  29.2495261   1.6483595  41.4548081  28.8372828
   2.5524901  40.4468430  28.6159584   2.1933782  40.9530709  29.0953768
  15.4598719  61.5469444  21.3596286  15.4292723  62.4014081  21.5314555
  16.0580068  61.2464737  21.9182430  15.5435877  61.6285941  21.4671088
   8.6598404  60.6345095  26.1149216   7.8036299  60.7953593  26.1658333
   8.7066058  59.7637159  26.1354278   8.5397515  60.5295897  26.1255283
  11.9692120  66.9031621  35.7209673  12.6758888  66.4083651  35.8496607
  12.1580056  67.3440702  34.9912331  12.1020026  66.8949971  35.6318718
  11.5050225  62.6937139  28.7580868  12.0506185  63.3722226  28.8174838
  11.4467101  62.5524600  27.8982450  11.5766139  62.7729141  28.6392929
  13.2815293  64.1221746  19.6314596  13.1654819  64.8729432  20.0606734
  14.0771180  63.8645699  19.8810683  13.3819883  64.1956593  19.7318688
   7.2147327  60.1131764  21.0018325   7.9127492  60.2919892  21.4939788
   7.5299660  59.5902103  20.3788714   7.3642664  60.0625536  20.9820335
   7.4035262  66.5002209  20.9898116   7.8428898  65.8919310  21.4352889
   7.2539925  66.1209582  20.2183582   7.4456728  66.3540680  20.9417284
   4.8706905  65.0946221  28.1916942   5.5155908  64.6018664  27.8727891
   5.1108683  65.2371007  29.0183020   5.0017491  65.0423663  28.2666475
   7.4092997  67.9401127  27.8423835   7.6916240  67.1452532  27.6210590
   8.1379157  68.4181714  27.8628896   7.5582561  67.8935724  27.8126850
   5.3874191  55.4824161  25.0839600   5.0577521  55.9335304  24.4143298
   4.7119192  55.4040324  25.6312606   5.2384627  55.5375296  25.0662823
  11.0044599  64.8529390  17.9428886  10.9195894  65.7090357  18.0878455
  11.4928982  64.5773714  18.6111045  11.0633496  64.9386712  18.0630967
  12.5950598  51.4709684  23.3289210  12.2804039  52.1613162  23.7609633
  12.0777540  51.4154466  22.6274711  12.4715069  51.5644572  23.2886159
  11.9363032  61.4714184  19.4426621  11.4074504  61.6873818  20.1023927
  12.4588052  62.1650323  19.3627590  11.9351485  61.6057321  19.5282220
  17.3911085  67.0460489  24.8159665  16.5608788  67.2571133  24.9793082
  17.3420337  66.2197543  24.5401949  17.2617821  66.9550095  24.7997031
   9.1084415  70.3259157  33.6123748   9.1967761  70.1385298  34.4601958
   9.5374127  69.6796587  33.2128595   9.1846517  70.2022165  33.6795499
   8.2839854  61.6143053  16.7203009   8.5235858  61.8221037  15.9078353
   8.6055695  60.8100562  16.8291954   8.3677012  61.5257155  16.6163562
   3.5930145  53.5436449  20.5662547   4.3476113  53.9114766  20.3279598
   3.4157679  53.9176003  21.3341727   3.6784623  53.6534637  20.6447436
  16.8865043  59.6930890  28.6110087  16.0493465  59.7633077  28.8457681
  16.8553274  59.6955384  27.7384389  16.7583326  59.7041117  28.5169635
   3.2829772  61.8363925  34.3258455   3.4550276  61.7269820  35.1743737
   3.8199130  62.4818331  34.0889648   3.3874776  61.9155927  34.4163552
   1.9487209  55.9506768  17.2640660   1.7662783  56.1678649  16.4381653
   2.8112822  56.0645781  17.3199275   2.0491799  55.9996666  17.1495147
   7.6286929  52.9533179  20.2989684   8.3573089  52.7749134  19.8527840
   7.7181821  53.7951258  20.5096862   7.7493591  53.0517057  20.2643202
  11.6095229  63.8886566  24.2021978  12.3652744  64.3218080  24.2410887
  11.7157554  63.2391336  24.7756614  11.7365400  63.8564050  24.2920004
  14.6475400  67.7159843  24.9524381  14.2110632  67.7196586  25.7083353
  14.3138316  68.3965342  24.5203959  14.5338020  67.8172299  25.0005214
   9.2204474  69.7568176  36.2767531  10.0044891  69.8699024  36.6423274
   9.0201069  68.9309313  36.4726217   9.3070499  69.6514896  36.3601917
  14.5672883  54.7573671  27.1953809  15.2098792  54.8271776  27.7815724
  14.8195904  54.0902894  26.6933351  14.6995015  54.6700020  27.2081088
   2.3390096  57.9674235  31.8078383   1.6461893  57.4971214  32.0539115
   2.9550423  57.7412539  32.3820090   2.3274626  57.8641366  31.9287536
  17.7819747  64.4340763  23.8444018  18.4436181  63.8731432  23.7439927
  17.1411159  63.9392794  24.1696710  17.7848614  64.2777172  23.8776359
  14.0684577  65.4506146  23.5856007  14.3040166  65.5951345  22.7582858
  14.2174141  66.2148554  23.9787521  14.1250381  65.5845200  23.5219611
   1.0630655  61.9339639  32.9505228   1.7870627  61.9192669  33.4370123
   1.1646791  62.6434994  32.4527196   1.1848864  62.0364342  32.9484015
  15.8975034  64.2907812  21.4225611  16.2283251  64.8235452  20.8165706
  16.4708122  64.3446699  22.0787562  16.0308713  64.3777380  21.4303393
   8.4375604  65.4138723  37.8154175   7.6448585  65.7282235  38.0006795
   8.5524531  65.6290192  36.9774960   8.3371015  65.4922560  37.7192510
  11.1106923  62.1372714  22.1049191  11.2053778  62.8762008  22.5588817
  10.4865767  61.7090190  22.5383756  11.0315953  62.1834035  22.2357339
   9.3659397  65.3158927  32.7539472   9.9398259  64.6786171  32.9088036
   9.2874201  65.3163009  31.8849130   9.4392632  65.2224038  32.6485883
  11.3629944  63.9821454  15.3386143  11.2810107  64.0523641  16.2041130
  12.0009665  64.5451198  15.1469884  11.4449782  64.0760425  15.4376093
   4.7223116  63.7482192  24.8060669   4.4642360  62.9153927  24.7791969
   4.7771598  63.9739805  23.9653170   4.6922893  63.6579963  24.6780806
   9.8024166  55.8510643  24.9064762   9.0980492  55.3619828  25.0648681
   9.8509140  55.8633117  24.0353206   9.7054217  55.7800291  24.8004102
   3.6957828  61.3019954  25.2925564   3.1207419  61.4612123  25.9289525
   3.3193504  60.6655364  24.8294015   3.5560640  61.2317767  25.3180123
   7.3631116  59.7743304  30.1517943   6.9745549  59.3497521  29.4970134
   6.6985815  60.0225453  30.6594969   7.2078044  59.7482025  30.1305811
  17.0054386  59.5318308  22.9265773  16.7490950  58.7198250  22.7363655
  17.8483699  59.5395876  22.6995960  17.0920411  59.4130306  22.8650590
  11.1857478  53.4717933  27.6641927  11.5667990  52.7896104  28.0509801
  10.3820762  53.1827535  27.4817591  11.1233940  53.3284981  27.6945983
   8.4670055  64.0041908  18.3494750   9.2810693  64.2956801  18.2377521
   8.4029196  63.3501771  17.7753043   8.5772794  63.9507103  18.2483587
  14.6879545  66.6867904  32.7624325  14.4518182  65.8555969  32.6436386
  15.3322774  66.6353512  33.3479169  14.7474216  66.5565592  32.8310219
   4.3377963  67.4763426  23.4767062   4.9751910  67.2375173  24.0218855
   4.7633034  67.6800585  22.7420222   4.4954129  67.4714436  23.4484219
   5.1449318  55.9772131  37.5304535   4.8302759  56.7471693  37.2674098
   4.8239251  55.4142387  36.9456762   5.0508237  56.0082399  37.4045885
  15.7115965  66.4712353  28.8252620  15.4061782  67.2040410  29.1865935
  14.9922181  66.0650283  28.5445406  15.5603308  66.5194086  28.8365757
   6.7199435  67.9535848  25.1560848   6.7938443  67.7911020  26.0102698
   7.5368941  68.1426038  24.9121330   6.8515793  67.9572591  25.2458873
  21.4117758  63.1105354  28.1520964  21.3442258  63.1301313  27.2823550
  21.3973420  63.9535681  28.3776634  21.3996514  63.2379089  28.0573441
   2.6981215  54.3662652  23.1450732   1.8303641  54.4385252  23.2108341
   2.9856420  55.1684731  23.3338707   2.6120963  54.4956799  23.1825498
  11.8214104  54.5140512  31.4762053  12.5667696  54.3250322  31.0625479
  11.4051409  55.0398750  30.9175910  11.8699078  54.5642657  31.3326627
  19.1976375  61.8849740  26.4267558  19.7484296  61.2517809  26.6664650
  19.1820490  62.4165133  27.1183063  19.2761571  61.8698688  26.5646417
   5.8498766  65.7188337  30.9727452   5.3510459  66.4304105  31.0512340
   6.6598990  66.0389004  30.9345614   5.8954872  65.8715186  30.9784020
   2.1126883  64.9811290  25.2190173   1.8240132  64.3548762  25.7535900
   2.9810231  64.9231578  25.2854853   2.1987135  64.8798835  25.3081127
  12.9004781  60.1246074  25.5372155  12.5569547  59.4036409  25.8879404
  12.9997824  59.9159925  24.6950513  12.8646824  59.9870277  25.4643835
  13.3617810  66.5871778  21.0796143  13.9275843  67.2464988  20.9954686
  12.7145714  66.9321476  21.5512545  13.3496567  66.7353719  21.1368899
   4.7765824  58.5769382  36.2689750   3.9665599  58.8827161  36.1579592
   5.2540510  59.2974964  36.3842334   4.7269303  58.7283983  36.2696821
   3.6357383  67.7915103  26.5172653   3.1138137  67.9315394  27.2024518
   4.0231404  67.0325767  26.7074770   3.6161084  67.7000627  26.6473730
   9.8324388  69.5310562  20.5033222   9.5911064  68.7978423  20.0960287
  10.0125721  70.0797419  19.8499555   9.8232012  69.5032953  20.3463445
   5.0623709  64.8219122  21.9154144   4.8666492  65.4293856  21.3214447
   5.2858055  64.1287066  21.4345818   5.0658350  64.8096647  21.7570225
   3.4602239  61.7073860  22.0335013   4.1824891  61.8715018  21.5738819
   2.9810232  62.4283525  21.9274352   3.4965970  61.8372089  21.9500627
  11.4195747  58.0437659  27.4131697  10.5806847  58.0698937  27.1769961
  11.4900114  58.6908394  27.9937044  11.3064140  58.1433784  27.4640814
   1.1109856  64.1131932  31.1389152   1.6230953  64.3916185  30.4897912
   0.8246198  64.8521226  31.5051965   1.1444719  64.2634286  31.0979030
   9.8665025  54.9423036  22.1459313  10.5691378  54.7430784  21.6679272
   9.6009214  54.1698978  22.4528157   9.9311657  54.7986002  22.1204755
  15.2953270  63.2505645  24.6992939  15.2087245  63.4061071  25.5527718
  14.8403750  63.8943721  24.3252344  15.2156527  63.3681400  24.7700046
   4.6293581  56.2058321  31.1990194   4.4376778  56.2213455  32.0489617
   5.4792177  56.4021995  31.1756849   4.7269303  56.2372672  31.3213489
   9.1679086  60.5716392  23.3218499   8.9213801  60.4912143  24.1555288
   9.4964210  59.7869860  23.1281026   9.1800330  60.4442658  23.4166022
  13.0627135  67.2799752  27.1105280  12.9241495  67.9780798  27.6154022
  12.2827133  67.1248408  26.7541462  12.9270362  67.3599918  27.1331554
  11.4005220  63.5796127  33.3627662  11.3953259  62.7075944  33.3670088
  12.1066214  63.7784296  32.8897117  11.5050224  63.4800001  33.2934697
   5.1276114  63.3073111  32.7341482   5.2719489  63.8874319  32.0984592
   5.4751762  63.6849408  33.4391336   5.2003575  63.4493815  32.7440477
   7.2996031  62.5063279  30.5166613   6.5519345  62.6994294  30.1114891
   7.4537556  61.6808499  30.2790735   7.2118459  62.4128391  30.4212019
  14.5580508  66.6378006  17.8721779  14.1787317  65.8515143  17.8651069
  13.8946754  67.1864863  17.7293423  14.4038983  66.6022830  17.8502576
   7.5397808  56.4013830  31.4062017   7.9970422  57.1337804  31.5334809
   7.6154137  55.9780295  32.1649273   7.6188778  56.4471068  31.5363094
  12.0125134  49.5803705  25.2755860  12.1308702  50.0380169  24.5423163
  11.8387310  48.7748967  24.9892078  12.0044305  49.5297477  25.1256794
   5.4180186  58.3915934  28.2503841   4.6276261  58.2107394  28.5721177
   5.8140809  57.6142887  28.2334136   5.3597062  58.2503395  28.2956389
  10.8023872  66.0258364  25.9763287  10.1268874  65.7943596  26.4776674
  10.8116248  65.4179547  25.3505392  10.7042377  65.9017289  25.9579439
   7.9318016  60.8676193  32.7327340   7.8677158  61.7286150  32.6047477
   8.0715204  60.5508186  31.9322891   7.9433486  60.9476360  32.5955553
  12.8040607  68.8823497  18.2073465  12.8860444  69.6890483  17.8834916
  13.2890349  68.9019456  18.9314238  12.8877765  69.0044159  18.2660364
   6.6137110  63.5608332  26.8743543   6.1899359  63.7612832  26.1382561
   6.4381965  62.7137180  26.9867843   6.5247991  63.4657114  26.7817233
   1.9019555  64.0560384  22.3071515   2.0584174  63.9907187  23.1627508
   2.2420148  64.8308936  22.0950195   1.9752790  64.1609582  22.4026110
   8.4398700  63.4318268  21.1764879   8.9814245  62.9288649  21.6403499
   8.7545259  63.3783462  20.3654364   8.5663097  63.3497688  21.1248691
  12.3115807  67.6420915  38.2891791  13.1250672  67.3706064  38.4496923
  12.1510774  67.3428455  37.4851987  12.4085756  67.5575841  38.1937197
   9.5887969  58.3254572  31.2287179   9.8029939  57.6865486  30.6750533
   8.9721868  58.7700396  30.7995041   9.5293298  58.2964716  31.0837610
  11.7527057  59.9343637  32.1670486  10.9403739  59.6269528  32.2483659
  12.2116992  59.4542637  32.7313198  11.7007442  59.8180130  32.2625080
  11.1632312  67.8123309  22.6147431  10.8046967  67.9837952  23.3911463
  10.6771023  68.2736515  22.0575429  11.0391009  67.9062280  22.6472700
   8.9802698  51.4354508  26.2174522   8.1096256  51.4093229  26.1707831
   9.2343039  51.2631700  25.4000368   8.8896258  51.4064651  26.0894659
   8.8480565  61.3403709  36.9499189   9.3180196  61.9645825  37.3367063
   8.8942445  60.6720684  37.5092403   8.9248441  61.3338389  37.0899260
   6.0051838  53.4460736  27.6747992   5.4890327  52.7540928  27.7999571
   5.4445767  54.1131513  27.6210591   5.8458352  53.4423994  27.6854058
   8.0744072  53.9853696  29.5040845   7.6875825  54.0102728  30.2854375
   7.5877009  53.4195375  29.0515362   7.9456581  53.9049447  29.5528749
  12.3237051  68.7027205  33.5614631  12.9616772  68.2087401  33.2277088
  11.6811143  68.6304606  32.9766858  12.3231278  68.6186214  33.4256986
  14.0494051  60.5516351  28.1280547  13.6221659  60.4642700  27.3728647
  13.4120104  60.6594127  28.7135391  13.8923659  60.5549011  28.1025989
   7.7401213  50.8720682  31.7951105   8.3694331  51.4080982  31.5172175
   7.9087076  50.7798041  32.6464670   7.8579008  50.9382044  31.8799633
   7.5415128  55.6591876  34.0677516   8.3688558  55.3877025  34.1236131
   7.5622974  56.4552718  34.4241335   7.6667978  55.7371631  34.1292699
  12.3791308  69.3947013  30.2019988  13.1683686  69.0436078  30.3222070
  12.5534906  70.2083402  29.9396622  12.5211589  69.4632871  30.1807856
   2.1184618  62.8055739  27.2547777   1.2772625  62.7059613  27.4626671
   2.3274626  63.5751219  27.6062098   2.0249311  62.9047782  27.3375092
  11.2325132  53.4056570  24.7636407  11.4374725  53.3378878  25.6093404
  10.9051556  54.2115391  24.6957584  11.2140380  53.5142511  24.8796062
   5.9301283  60.7337138  26.5045375   5.6264421  60.1793127  27.1055782
   5.2280704  60.9129348  26.0173409   5.7817493  60.6781921  26.5215080
   4.9867380  58.0437658  21.0690076   5.2627115  57.3256571  20.6567644
   5.5866049  58.6422578  20.8611182   5.1160645  58.0258029  20.9770838
  14.4858820  53.9588334  24.2439172  13.8733133  54.4458737  24.6292904
  14.5822995  53.2831825  24.7876823  14.4096717  53.9306643  24.3818030
   8.4877901  55.7151176  19.3436671   8.9421647  55.8861736  20.0684516
   8.9617946  55.1019286  18.9434447   8.6246221  55.6502061  19.3910433
   2.0093426  65.1999501  28.6739410   1.4181359  65.8409000  28.6442425
   2.7714450  65.6237119  28.6470709   2.0341687  65.3575340  28.6654557
   2.4054049  56.3601499  29.3407428   2.8655530  56.4340429  30.0782551
   2.4510156  57.1582753  28.9907249   2.4804604  56.4895646  29.3980184
   4.0537399  57.0268194  33.9079455   3.6622964  56.3801541  34.3435232
   4.2223261  57.6179629  34.5273710   4.0208309  57.0182462  34.0642161
  18.1283848  65.0305271  29.6716688  18.1866971  65.4791920  30.4176665
  17.4950315  65.4404084  29.2346768  18.0435143  65.1579006  29.7169237
  11.7682942  70.6508813  26.1071434  11.5702631  71.1399628  25.4127646
  11.1470653  70.8550055  26.6855568  11.6470507  70.7525351  26.0894658
   5.8290921  62.4193710  20.4481679   6.5732966  62.8067986  20.6864629
   5.9751617  61.5751135  20.6122166   5.9601506  62.3524183  20.5075648
   7.7470496  54.2143969  25.4813540   6.9006541  54.3866777  25.3554890
   7.7441629  53.4093313  25.8179368   7.6217646  54.1204998  25.5124667
   8.8168797  57.9919183  26.3475598   8.3428751  57.4660945  26.8580909
   9.1886932  57.4448656  25.7790460   8.8018685  57.8335180  26.3390745
  15.0805527  63.0521559  27.7582379  14.8403750  62.2127974  27.7624805
  15.5597534  63.1321726  28.4823152  15.1157711  62.9402959  27.8657181
  10.7452296  58.8855738  19.4101352  10.2175315  58.9684482  18.7207061
  11.2048004  59.6273609  19.4065996  10.7354147  59.0076400  19.3076047
  17.0810714  59.8323016  25.7111638  16.8420484  59.7918850  24.8732422
  17.2444615  60.6794168  25.8377359  17.0701018  59.9515101  25.6065120
  13.6856744  64.2172965  31.6416683  14.4090943  63.7645492  31.4627703
  13.4206707  64.4977631  30.8589011  13.7538018  64.1923934  31.4995398
   2.5543613  58.8133139  28.3769562   1.9296683  58.8251531  27.7695515
   2.2189208  59.2893314  29.0260802   2.4129104  58.8851656  28.3826130
  10.2989379  67.4559301  18.5411009  11.0223578  67.9217414  18.3975582
   9.8589970  67.5232911  17.7908606  10.3405071  67.5343138  18.4095790
   9.4675534  64.3156844  29.7911698   8.8532527  63.7714894  30.0860333
   9.9842819  63.8021080  29.3117514   9.4531196  64.1593253  29.7635926
   8.7071831  65.3861114  27.5255996   8.2799439  64.7610832  27.0921432
   8.6996775  65.1036035  28.3515004   8.6430972  65.2513894  27.5835824
   1.8234358  60.4226287  30.5944430   1.9827845  59.6669611  30.9996152
   1.6427252  60.9717226  31.2485168   1.8199717  60.3920100  30.7507136
   9.7654661  52.5887522  31.1495220   9.2695222  52.7851196  30.4586787
  10.5223723  52.9880190  30.9784022   9.8041486  52.6765256  31.0215357
   7.0357541  56.2629868  27.7398530   7.0600028  55.7289980  27.0511310
   7.2869014  55.7547177  28.4024121   7.0767459  56.1090772  27.7363175
   3.3158863  54.9900686  27.1204275   3.3557234  55.4909893  27.8338982
   2.4908527  55.0811080  26.8510198   3.1998389  55.0782503  27.1854813
   5.4988476  64.5561426  35.2224569   4.6484106  64.6933141  35.3582214
   5.6616603  63.8225205  35.6672271   5.3972339  64.4675528  35.3080169
   4.7373226  61.5061196  29.4178174   3.9065156  61.6735014  29.2113422
   4.6824743  61.1297147  30.2027059   4.6062641  61.4750927  29.5026702
   2.5457009  54.9970089  35.0534585   3.1709713  54.4532222  35.3264017
   2.0907489  54.5165007  34.4842375   2.5705270  54.8459570  35.0096178
   3.1109270  59.7816788  19.9468292   3.2512231  60.2789252  20.6496933
   3.6091803  59.0803082  20.0882505   3.2050351  59.7518767  20.0719871
  16.1192058  63.1799376  30.1447232  16.7109898  63.8196627  30.1765431
  16.5551053  62.4822413  30.4339299  16.2710489  63.1717726  30.1928065
   4.7188475  56.5797874  17.2506310   5.0404316  56.1000957  16.5965573
   4.9815419  57.3897520  17.0597122   4.8054501  56.6287772  17.1261802
   7.9485448  67.6016749  30.7705126   7.4410539  68.1552595  31.2145757
   7.6512094  67.6625038  29.9523901   7.8290333  67.6923060  30.7153583
  10.1147630  55.9670068  29.6129789  10.5402702  55.5142595  29.0013316
   9.5004623  55.4130139  29.8894577  10.0876276  55.8184044  29.5634815
   8.5541853  52.4385168  23.0220366   7.9110171  52.2882814  23.5905505
   8.2141260  52.1927513  22.2569471   8.4086930  52.3797290  22.9923382
  13.1441200  60.3944595  22.4450375  12.4732389  60.9374297  22.3163441
  13.8380950  60.8639450  22.2032070  13.1470067  60.5442866  22.3905903
  13.3069327  56.8500478  25.3540748  13.6596937  56.4230201  26.0286547
  12.4484129  56.7651322  25.4841825  13.2318772  56.7745219  25.4735759
   2.0053012  59.4807998  23.4123595   1.2865001  59.8972131  23.6796458
   2.3765374  60.0462237  22.8615233   1.9544944  59.6257280  23.3706402
  11.3052593  60.1135847  29.3025590  11.2850520  59.9319142  30.1560369
  11.3531794  60.9847866  29.2785174  11.3087234  60.2152385  29.4248885
   9.2498923  66.7023039  35.2274067   9.2094778  66.0572716  34.6419223
  10.0622241  66.6459656  35.5399479   9.3642076  66.5982006  35.1871016
   7.7799586  58.5205998  18.7496974   7.1864426  58.8422994  18.1981541
   7.8174864  57.6747093  18.5418080   7.6973976  58.4430326  18.6379746
  14.7393387  51.9718890  26.2825061  14.2324252  51.2648030  26.2146238
  15.5360821  51.6412079  26.4126137  14.7820626  51.8192042  26.2924056
  10.6557403  58.4785502  22.1798724  10.4271096  58.5018204  21.3377083
  10.9155479  57.6542970  22.2993735  10.6603591  58.3601582  22.0723922
   4.9376631  60.3319976  31.7823825   4.4255535  59.7241158  32.1408856
   4.7656128  61.0476568  32.2497800   4.8366268  60.3483275  31.9040048
   3.7102165  57.0162049  23.4752920   4.1859532  57.3779129  22.8403101
   3.2090765  57.6718516  23.7553063   3.7067524  57.1656238  23.4229661
  16.9413527  66.4883817  19.2665925  17.3247133  67.2375173  19.4964022
  16.1457640  66.7349637  19.0077914  16.8807309  66.6353511  19.2623499
   8.8145702  58.2544220  34.2226080   9.3717132  58.0258030  33.5904546
   8.4906767  59.0149886  33.9461293   8.8492112  58.3328057  34.0882577
   6.5328819  61.3411873  35.1878087   7.2840146  61.6563550  35.5017642
   6.7251396  61.1391044  34.3612009   6.6720233  61.3579255  35.1121483
   5.7528819  59.1603249  16.8426304   6.1327783  59.1782878  16.0577419
   5.0121415  59.6057237  16.7217151   5.6997656  59.2285023  16.7089872
  13.3814109  57.4685440  22.4301883  13.3808336  57.3134096  23.2886159
  13.1770289  58.3148427  22.3743268  13.3513887  57.5706061  22.5489822
  11.1054961  62.1482942  26.0838090  11.6008627  61.4305937  26.0442110
  10.2954737  61.8453739  25.9692577  11.0598855  61.9980588  26.0611815
  13.1706780  64.8986629  28.7715218  13.5961852  64.3761051  28.2185643
  12.8063700  65.4967467  28.2503841  13.1793383  64.9096856  28.6124228
   9.7585380  68.6120893  25.1016376  10.2296558  69.3261156  25.2706361
  10.0945558  68.0119644  25.6376245   9.8780495  68.6292358  25.2048752
  11.8462364  70.2222207  37.2808448  11.9559330  69.4330767  37.6365195
  12.1753261  70.1328143  36.4782786  11.9114770  70.0928060  37.2150839
   6.6754875  53.3848364  32.0574471   6.8082780  52.5879357  32.3855446
   7.0600027  53.9114767  32.6372746   6.7511203  53.3448281  32.1917974
  10.3959326  68.4038828  31.8644069   9.8480272  67.7796711  31.5964134
  10.8572355  68.5933100  31.1488148  10.3826535  68.3397878  31.7194500
   9.7487230  50.3078690  28.6555564   8.9433193  50.1976420  28.9723402
   9.6193965  50.4091146  27.7985430   9.6107363  50.3062360  28.5763604
  13.2053190  56.4724182  29.2495261  12.6216179  56.9733388  28.8372828
  13.5257484  55.9653738  28.6159584  13.1666366  56.4716017  29.0953768
   5.7447989  55.3864777  19.5253936   6.5663684  55.5563090  19.2835631
   5.2817640  55.5412038  18.8020233   5.7979152  55.4346510  19.3825580
   4.3343321  53.3807539  30.3052364   4.8787734  53.0398666  30.8956706
   4.3880257  54.2393001  30.4473649   4.4232441  53.4562798  30.4134238
   9.9617652  69.4089900  28.3953410  10.7816026  69.2652866  28.6569705
   9.6811730  70.0336099  28.9369848  10.0414396  69.4800252  28.5141349
  16.3606774  71.0009469  25.0839600  16.0310104  71.4520612  24.4143298
  15.6851776  70.9225632  25.6312606  16.2117211  71.0560604  25.0662823
  23.5683182  66.9894991  23.3289210  23.2536623  67.6798470  23.7609633
  23.0510124  66.9339774  22.6274711  23.4447652  67.0829880  23.2886159
  14.5662728  69.0621757  20.5662547  15.3208696  69.4300074  20.3279598
  14.3890263  69.4361311  21.3341727  14.6517207  69.1719945  20.6447436
  27.8597627  75.2116197  28.6110087  27.0226048  75.2818385  28.8457681
  27.8285858  75.2140692  27.7384389  27.7315909  75.2226425  28.5169635
  12.9219793  71.4692076  17.2640660  12.7395366  71.6863957  16.4381653
  13.7845406  71.5831089  17.3199275  13.0224382  71.5181974  17.1495147
  18.6019512  68.4718487  20.2989684  19.3305673  68.2934442  19.8527840
  18.6914405  69.3136566  20.5096862  18.7226174  68.5702365  20.2643202
  25.5405467  70.2758979  27.1953809  26.1831375  70.3457084  27.7815724
  25.7928488  69.6088202  26.6933351  25.6727599  70.1885328  27.2081088
  20.7756749  71.3695951  24.9064762  20.0713076  70.8805136  25.0648681
  20.8241724  71.3818425  24.0353206  20.6786801  71.2985599  24.8004102
  27.9786969  75.0503616  22.9265773  27.7223534  74.2383558  22.7363655
  28.8216283  75.0581184  22.6995960  28.0652995  74.9315614  22.8650590
  22.1590062  68.9903240  27.6641927  22.5400573  68.3081412  28.0509801
  21.3553346  68.7012843  27.4817591  22.0966523  68.8470289  27.6945983
  16.1181902  71.4957439  37.5304535  15.8035343  72.2657001  37.2674098
  15.7971834  70.9327695  36.9456762  16.0240821  71.5267707  37.4045885
  13.6713799  69.8847960  23.1450732  12.8036224  69.9570560  23.2108341
  13.9589003  70.6870039  23.3338707  13.5853547  70.0142107  23.1825498
  22.7946688  70.0325820  31.4762053  23.5400280  69.8435630  31.0625479
  22.3783992  70.5584057  30.9175910  22.8431662  70.0827965  31.3326627
  23.8737365  75.6431382  25.5372155  23.5302131  74.9221717  25.8879404
  23.9730407  75.4345233  24.6950513  23.8379408  75.5055585  25.4643835
  22.3928330  73.5622966  27.4131697  21.5539431  73.5884245  27.1769961
  22.4632697  74.2093702  27.9937044  22.2796724  73.6619092  27.4640814
  20.8397608  70.4608343  22.1459313  21.5423961  70.2616092  21.6679272
  20.5741797  69.6884286  22.4528157  20.9044241  70.3171310  22.1204755
  15.6026165  71.7243629  31.1990194  15.4109362  71.7398763  32.0489617
  16.4524761  71.9207303  31.1756849  15.7001887  71.7557980  31.3213489
  18.5130392  71.9199138  31.4062017  18.9703006  72.6523112  31.5334809
  18.5886720  71.4965603  32.1649273  18.5921362  71.9656376  31.5363094
  22.9857718  65.0989013  25.2755860  23.1041286  65.5565477  24.5423163
  22.8119893  64.2934274  24.9892078  22.9776889  65.0482785  25.1256794
  19.9535281  66.9539816  26.2174522  19.0828839  66.9278537  26.1707831
  20.2075623  66.7817008  25.4000368  19.8628841  66.9249959  26.0894659
  16.9784422  68.9646044  27.6747992  16.4622910  68.2726236  27.7999571
  16.4178351  69.6316821  27.6210591  16.8190935  68.9609302  27.6854058
  19.0476655  69.5039004  29.5040845  18.6608408  69.5288036  30.2854375
  18.5609593  68.9380683  29.0515362  18.9189164  69.4234755  29.5528749
  18.7133797  66.3905990  31.7951105  19.3426915  66.9266290  31.5172175
  18.8819660  66.2983349  32.6464670  18.8311592  66.4567352  31.8799633
  18.5147712  71.1777184  34.0677516  19.3421141  70.9062333  34.1236131
  18.5355558  71.9738026  34.4241335  18.6400562  71.2556939  34.1292699
  22.2057716  68.9241878  24.7636407  22.4107309  68.8564186  25.6093404
  21.8784140  69.7300699  24.6957584  22.1872963  69.0327818  24.8796062
  25.4591403  69.4773642  24.2439172  24.8465717  69.9644044  24.6292904
  25.5555578  68.8017133  24.7876823  25.3829301  69.4491951  24.3818030
  19.4610484  71.2336483  19.3436671  19.9154231  71.4047044  20.0684516
  19.9350530  70.6204594  18.9434447  19.5978804  71.1687369  19.3910433
  18.7203080  69.7329277  25.4813540  17.8739125  69.9052084  25.3554890
  18.7174212  68.9278620  25.8179368  18.5950230  69.6390306  25.5124667
  19.7901380  73.5104491  26.3475598  19.3161334  72.9846253  26.8580909
  20.1619516  72.9633964  25.7790460  19.7751269  73.3520488  26.3390745
  28.0543298  75.3508324  25.7111638  27.8153068  75.3104158  24.8732422
  28.2177199  76.1979476  25.8377359  28.0433601  75.4700409  25.6065120
  20.7387245  68.1072830  31.1495220  20.2427806  68.3036504  30.4586787
  21.4956307  68.5065498  30.9784022  20.7774069  68.1950564  31.0215357
  18.0090124  71.7815176  27.7398530  18.0332611  71.2475288  27.0511310
  18.2601598  71.2732485  28.4024121  18.0500043  71.6276080  27.7363175
  14.2891446  70.5085994  27.1204275  14.3289818  71.0095201  27.8338982
  13.4641111  70.5996388  26.8510198  14.1730972  70.5967811  27.1854813
  13.5189593  70.5155397  35.0534585  14.1442296  69.9717530  35.3264017
  13.0640073  70.0350315  34.4842375  13.5437854  70.3644878  35.0096178
  21.0880214  71.4855376  29.6129789  21.5135285  71.0327903  29.0013316
  20.4737207  70.9315447  29.8894577  21.0608859  71.3369352  29.5634815
  19.5274437  67.9570476  23.0220366  18.8842755  67.8068122  23.5905505
  19.1873844  67.7112821  22.2569471  19.3819514  67.8982598  22.9923382
  24.2801911  72.3685786  25.3540748  24.6329521  71.9415509  26.0286547
  23.4216712  72.2836630  25.4841825  24.2051355  72.2930527  25.4735759
  25.7125971  67.4904198  26.2825061  25.2056835  66.7833338  26.2146238
  26.5093404  67.1597387  26.4126137  25.7553210  67.3377350  26.2924056
  21.6289987  73.9970810  22.1798724  21.4003680  74.0203512  21.3377083
  21.8888063  73.1728277  22.2993735  21.6336175  73.8786890  22.0723922
  24.3546693  72.9870748  22.4301883  24.3540919  72.8319404  23.2886159
  24.1502873  73.8333735  22.3743268  24.3246471  73.0891368  22.5489822
  17.6487458  68.9033672  32.0574471  17.7815364  68.1064665  32.3855446
  18.0332611  69.4300075  32.6372746  17.7243787  68.8633589  32.1917974
  20.7219813  65.8263998  28.6555564  19.9165777  65.7161728  28.9723402
  20.5926549  65.9276454  27.7985430  20.5839946  65.8247668  28.5763604
  24.1785774  71.9909490  29.2495261  23.5948763  72.4918696  28.8372828
  24.4990068  71.4839046  28.6159584  24.1398949  71.9901325  29.0953768
  16.7180573  70.9050085  19.5253936  17.5396267  71.0748398  19.2835631
  16.2550224  71.0597346  18.8020233  16.7711735  70.9531818  19.3825580
  15.3075905  68.8992847  30.3052364  15.8520318  68.5583974  30.8956706
  15.3612841  69.7578308  30.4473649  15.3965024  68.9748106  30.4134238
   0.6910361  28.3224444  22.6549719   1.3977128  27.8276475  22.7836654
   0.8798296  28.7633525  21.9252377   0.8238266  28.3142794  22.5658765
   3.4097785  28.1060728  19.6964372   3.1736423  27.2748793  19.5776433
   4.0541014  28.0546335  20.2819216   3.4692456  27.9758416  19.7650266
   4.4334206  27.8905176  15.7592667   4.1280023  28.6233233  16.1205982
   3.7140421  27.4843106  15.4785453   4.2821548  27.9386909  15.7705804
  10.1335998  24.5298177  15.0861011  10.0660498  24.5494136  14.2163597
  10.1191660  25.3728504  15.3116681  10.1214754  24.6571912  14.9913488
   1.0334048  29.0613738  25.2231838   1.8468913  28.7898887  25.3836970
   0.8729014  28.7621278  24.4192034   1.1303996  28.9768664  25.1277244
   1.1009548  30.8139837  17.1360035   1.8901926  30.4628901  17.2562117
   1.2753146  31.6276225  16.8736669   1.2429830  30.8825694  17.1147903
   6.8502088  26.4498094  16.6056735   6.9085212  26.8984743  17.3516712
   6.2168556  26.8596907  16.1686815   6.7653383  26.5771829  16.6509283
   2.4074985  25.6365789  18.5756730   3.1309183  25.1838315  18.3967750
   2.1424947  25.9170454  17.7929057   2.4756258  25.6116757  18.4335445
   4.8410299  24.5992199  17.0787279   5.4328139  25.2389450  17.1105477
   5.2769293  23.9015236  17.3679346   4.9928730  24.5910550  17.1268112
   1.8925020  26.3179452  15.7055265   2.3180092  25.7953874  15.1525690
   1.5281940  26.9160290  15.1843888   1.9011623  26.3289679  15.5464275
   0.5680604  31.6415030  24.2148495   0.6777570  30.8523591  24.5705242
   0.8971501  31.5520966  23.4122833   0.6333010  31.5120883  24.1490885
  15.1549543  38.4847575   8.2936333  15.1243547  39.3392212   8.4654602
  15.7530892  38.1842868   8.8522477  15.2386701  38.5664072   8.4011135
   8.3549228  37.5723226  13.0489263   7.4987123  37.7331724  13.0998380
   8.4016881  36.7015290  13.0694324   8.2348339  37.4674028  13.0595329
  11.6642944  43.8409752  22.6549719  12.3709712  43.3461783  22.7836654
  11.8530880  44.2818833  21.9252377  11.7970850  43.8328102  22.5658765
   7.7319619  49.4825582  10.1823154   8.1158998  50.0512481   9.6427929
   7.6678760  48.7575093   9.7028970   7.7793046  49.4601046  10.0317016
  11.2001049  39.6315270  15.6920915  11.7457009  40.3100357  15.7514885
  11.1417925  39.4902731  14.8322496  11.2716963  39.7107272  15.5732976
   4.3175124  47.1204336  11.0789267   4.4185487  46.3104690  11.3886395
   3.7216869  47.0261283  10.4488946   4.2447662  46.9869364  11.0315506
  12.9766117  41.0599877   6.5654643  12.8605643  41.8107563   6.9946781
  13.7722004  40.8023830   6.8150730  13.0770707  41.1334724   6.6658734
   4.1575863  52.0381925  12.4804123   4.8013319  52.4795089  12.8700282
   4.4832119  51.2335352  12.3934382   4.3007692  51.9847120  12.5249601
   6.9098151  37.0509895   7.9358372   7.6078316  37.2298023   8.4279835
   7.2250484  36.5280234   7.3128761   7.0593488  37.0003667   7.9160382
   7.0986086  43.4380340   7.9238163   7.5379722  42.8297441   8.3692936
   6.9490749  43.0587714   7.1523628   7.1407552  43.2918811   7.8757331
   4.5657729  42.0324352  15.1256989   5.2106732  41.5396795  14.8067937
   4.8059506  42.1749139  15.9523067   4.6968315  41.9801794  15.2006522
   7.1043821  44.8779258  14.7763881   7.3867064  44.0830664  14.5550637
   7.8329981  45.3559845  14.7968942   7.2533384  44.8313855  14.7466897
   5.0825015  32.4202292  12.0179646   4.7528345  32.8713435  11.3483345
   4.4070016  32.3418455  12.5652653   4.9335451  32.4753427  12.0002870
  10.6995423  41.7907521   4.8768933  10.6146718  42.6468488   5.0218501
  11.1879806  41.5151846   5.5451092  10.7584320  41.8764843   4.9971014
  11.6313856  38.4092316   6.3766668  11.1025328  38.6251949   7.0363974
  12.1538876  39.1028454   6.2967637  11.6302309  38.5435453   6.4622267
  17.0861909  43.9838620  11.7499712  16.2559612  44.1949264  11.9133129
  17.0371161  43.1575675  11.4741996  16.9568644  43.8928226  11.7337078
   5.1471647  46.8142474  14.5847622   4.6298588  46.4549889  13.9808930
   5.8446038  46.2904649  14.5953688   5.1737228  46.6840162  14.4977880
   8.8035239  47.2637288  20.5463795   8.8918584  47.0763429  21.3942005
   9.2324951  46.6174718  20.1468641   8.8797341  47.1400296  20.6135546
   6.3705698  46.5468448  19.5281457   5.8076533  46.1341058  20.0521118
   7.1326722  46.4721354  19.9474600   6.4000147  46.4745849  19.6674457
   1.9301690  48.5366469  12.1318087   2.6322269  48.0218459  12.1890844
   1.8499173  48.8640621  12.9364962   2.0225450  48.5080696  12.2590879
  16.5815867  36.6309021  15.5450134  15.7444288  36.7011208  15.7797728
  16.5504098  36.6333516  14.6724436  16.4534150  36.6419248  15.4509681
   2.9780596  38.7742056  21.2598502   3.1501100  38.6647951  22.1083784
   3.5149954  39.4196462  21.0229694   3.0825600  38.8534058  21.3503599
   1.2552465  44.7272821  11.6403695   2.0941365  44.9595754  11.6877457
   1.2864234  43.8577133  11.5710730   1.3834183  44.6329768  11.6368340
   1.8805168  45.1473697  15.9417001   2.4203393  45.0044828  16.6120373
   1.1975115  45.5470447  16.3101027   1.8597322  45.1853368  16.0951422
  11.3046053  40.8264697  11.1362025  12.0603568  41.2596212  11.1750934
  11.4108378  40.1769467  11.7096661  11.4316224  40.7942181  11.2260051
  14.3426224  44.6537975  11.8864428  13.9061456  44.6574717  12.6423399
  14.0089140  45.3343474  11.4544005  14.2288844  44.7550430  11.9345261
   8.9155298  46.6946307  23.2107578   9.6995715  46.8077155  23.5763320
   8.7151892  45.8687444  23.4066264   9.0021323  46.5893027  23.2941964
  14.2623707  31.6951802  14.1293856  14.9049616  31.7649907  14.7155771
  14.5146728  31.0281025  13.6273398  14.3945839  31.6078151  14.1421135
   2.0340920  34.9052366  18.7418430   1.3412717  34.4349345  18.9879161
   2.6501247  34.6790670  19.3160137   2.0225450  34.8019498  18.8627582
   9.0725691  48.6056409  16.8574034   8.2740937  48.3655909  17.1147902
   9.5211703  48.6570802  17.6041082   9.0200302  48.5778801  17.0058958
  17.4770571  41.3718894  10.7784065  18.1387005  40.8109563  10.6779974
  16.8361982  40.8770925  11.1036756  17.4799438  41.2155303  10.8116405
  13.7635401  42.3884277  10.5196054  13.9990990  42.5329476   9.6922905
  13.9124965  43.1526685  10.9127568  13.8201204  42.5223331  10.4559658
   0.7581479  38.8717770  19.8845275   1.4821451  38.8570800  20.3710170
   0.8597615  39.5813125  19.3867243   0.8799688  38.9742473  19.8824062
  15.5925858  41.2285943   8.3565658  15.9234075  41.7613583   7.7505753
  16.1658946  41.2824831   9.0127609  15.7259537  41.3155512   8.3643440
   8.1326428  42.3516854  24.7494222   7.3399409  42.6660366  24.9346842
   8.2475355  42.5668323  23.9115007   8.0321839  42.4300691  24.6532557
  10.8057747  39.0750845   9.0389238  10.9004601  39.8140140   9.4928863
  10.1816591  38.6468321   9.4723802  10.7266777  39.1212166   9.1697385
   9.0610221  42.2537058  19.6879519   9.6349083  41.6164302  19.8428083
   8.9825025  42.2541140  18.8189176   9.1343456  42.1602169  19.5825930
   4.4173940  40.6860323  11.7400716   4.1593184  39.8532058  11.7132016
   4.4722422  40.9117936  10.8993217   4.3873717  40.5958094  11.6120853
   9.4974990  32.7888774  11.8404809   8.7931316  32.2997959  11.9988728
   9.5459964  32.8011248  10.9693253   9.4005041  32.7178422  11.7344149
   3.3908652  38.2398086  12.2265611   2.8158243  38.3990254  12.8629572
   3.0144328  37.6033495  11.7634062   3.2511464  38.1695899  12.2520169
   7.0581940  36.7121435  17.0857989   6.6696373  36.2875653  16.4310181
   6.3936639  36.9603585  17.5935016   6.9028868  36.6860156  17.0645857
  16.7005209  36.4696440   9.8605819  16.4441774  35.6576381   9.6703702
  17.5434523  36.4774007   9.6336007  16.7871235  36.3508437   9.7990637
  10.8808302  30.4096064  14.5981974  11.2618814  29.7274235  14.9849848
  10.0771586  30.1205666  14.4157638  10.8184764  30.2663112  14.6286030
   8.1620879  40.9420040   5.2834796   8.9761517  41.2334932   5.1717568
   8.0980020  40.2879902   4.7093089   8.2723618  40.8885234   5.1823634
  14.3830369  43.6246036  19.6964372  14.1469006  42.7934100  19.5776433
  15.0273598  43.5731643  20.2819216  14.4425040  43.4943724  19.7650266
   4.0328787  44.4141557  10.4107108   4.6702734  44.1753305  10.9558902
   4.4583858  44.6178716   9.6760269   4.1904953  44.4092567  10.3824266
   4.8400142  32.9150262  24.4644582   4.5253583  33.6849825  24.2014145
   4.5190075  32.3520518  23.8796809   4.7459061  32.9460531  24.3385932
  15.4066789  43.4090484  15.7592667  15.1012606  44.1418541  16.1205982
  14.6873005  43.0028414  15.4785453  15.2554132  43.4572217  15.7705804
   6.4150259  44.8913980  12.0900895   6.4889267  44.7289151  12.9442745
   7.2319765  45.0804169  11.8461376   6.5466617  44.8950722  12.1798920
  21.1068582  40.0483485  15.0861011  21.0393082  40.0679444  14.2163597
  21.0924244  40.8913812  15.3116681  21.0947338  40.1757220  14.9913488
  11.5164928  31.4518643  18.4102100  12.2618520  31.2628453  17.9965526
  11.1002233  31.9776881  17.8515957  11.5649902  31.5020788  18.2666673
  18.8927199  38.8227871  13.3607605  19.4435120  38.1895940  13.6004697
  18.8771314  39.3543264  14.0523109  18.9712395  38.8076819  13.4986463
   5.5449590  42.6566469  17.9067499   5.0461283  43.3682236  17.9852387
   6.3549814  42.9767135  17.8685661   5.5905696  42.8093317  17.9124067
   1.8077707  41.9189422  12.1530219   1.5190956  41.2926893  12.6875947
   2.6761055  41.8609709  12.2194900   1.8937959  41.8176966  12.2421174
  12.5955605  37.0624205  12.4712201  12.2520371  36.3414540  12.8219451
  12.6948648  36.8538056  11.6290560  12.5597648  36.9248408  12.3983881
  13.0568634  43.5249909   8.0136189  13.6226667  44.1843119   7.9294732
  12.4096538  43.8699607   8.4852592  13.0447391  43.6731850   8.0708946
   4.4716648  35.5147513  23.2029797   3.6616423  35.8205293  23.0919639
   4.9491334  36.2353095  23.3182381   4.4220126  35.6662114  23.2036868
   3.3308207  44.7293234  13.4512700   2.8088961  44.8693526  14.1364565
   3.7182228  43.9703898  13.6414817   3.3111908  44.6378758  13.5813776
   9.5275212  46.4688693   7.4373269   9.2861888  45.7356554   7.0300334
   9.7076545  47.0175550   6.7839602   9.5182836  46.4411084   7.2803492
   4.7574533  41.7597253   8.8494191   4.5617316  42.3671988   8.2554494
   4.9808878  41.0665197   8.3685865   4.7609174  41.7474779   8.6910272
   3.1553063  38.6451991   8.9675059   3.8775715  38.8093149   8.5078865
   2.6761056  39.3661656   8.8614399   3.1916794  38.7750221   8.8840673
  11.1146571  34.9815790  14.3471744  10.2757671  35.0077069  14.1110008
  11.1850938  35.6286525  14.9277091  11.0014964  35.0811916  14.3980861
   9.5615849  31.8801167   9.0799360  10.2642202  31.6808915   8.6019318
   9.2960037  31.1077109   9.3868204   9.6262481  31.7364133   9.0544802
  14.9904094  40.1883777  11.6332986  14.9038069  40.3439203  12.4867765
  14.5354574  40.8321852  11.2592391  14.9107351  40.3059532  11.7040093
   4.3244405  33.1436452  18.1330241   4.1327602  33.1591586  18.9829664
   5.1743001  33.3400126  18.1096896   4.4220127  33.1750803  18.2553536
   8.8629910  37.5094524  10.2558546   8.6164625  37.4290275  11.0895334
   9.1915033  36.7247991  10.0621073   8.8751154  37.3820789  10.3506069
  12.7577959  44.2177883  14.0445327  12.6192319  44.9158929  14.5494069
  11.9777957  44.0626539  13.6881509  12.6221186  44.2978050  14.0671601
  11.0956044  40.5174258  20.2967708  11.0904083  39.6454075  20.3010135
  11.8017038  40.7162427  19.8237164  11.2001048  40.4178132  20.2274744
   4.8226938  40.2451242  19.6681529   4.9670313  40.8252450  19.0324639
   5.1702586  40.6227539  20.3731383   4.8954399  40.3871946  19.6780524
   6.9946855  39.4441411  17.4506660   6.2470169  39.6372425  17.0454938
   7.1488380  38.6186630  17.2130781   6.9069283  39.3506522  17.3552066
   3.8954693  48.4354014  16.5342555   4.0444256  47.8756930  15.8815960
   4.6754695  48.5146016  16.9175074   4.0328786  48.3639579  16.4939505
  14.2531332  43.5756137   4.8061826  13.8738141  42.7893275   4.7991115
  13.5897577  44.1242994   4.6633470  14.0989807  43.5400961   4.7842623
   6.4207993  48.6068657  17.8127046   6.3451664  47.9377467  18.3677835
   6.3497852  49.3086445  18.3267712   6.3988600  48.6113564  17.9703894
   7.2348632  33.3391961  18.3402064   7.6921246  34.0715936  18.4674856
   7.3104961  32.9158427  19.0989320   7.3139602  33.3849199  18.4703140
  11.7075958  26.5181836  12.2095907  11.8259526  26.9758300  11.4763210
  11.5338134  25.7127098  11.9232124  11.6995129  26.4675609  12.0596841
   7.0778240  47.1269656   8.6450652   7.8428131  46.8579299   8.3233316
   6.9756330  46.6419666   9.3620715   7.1759736  47.0159220   8.7030480
   5.1131010  35.3294065  15.1843888   4.3227085  35.1485525  15.5061224
   5.5091633  34.5521018  15.1674182   5.0547886  35.1881526  15.2296436
  10.4974696  42.9636495  12.9103334   9.8219698  42.7321728  13.4116721
  10.5067072  42.3557678  12.2845439  10.3993201  42.8395421  12.8919486
   7.6268840  37.8054324  19.6667387   7.5627981  38.6664281  19.5387524
   7.7666028  37.4886318  18.8662938   7.6384310  37.8854491  19.5295600
  12.4991431  45.8201628   5.1413512  12.5811268  46.6268614   4.8174963
  12.9841173  45.8397587   5.8654285  12.5828589  45.9422290   5.2000410
   6.3087934  40.4986464  13.8083590   5.8850183  40.6990963  13.0722608
   6.1332789  39.6515312  13.9207890   6.2198815  40.4035245  13.7157280
   5.8099628  52.0136977  16.2705047   6.2995558  51.3147766  16.0880712
   5.2383860  51.7160847  16.8581104   5.7984158  51.8663200  16.3306088
   1.5970379  40.9938515   9.2411562   1.7534998  40.9285318  10.0967554
   1.9370972  41.7687068   9.0290242   1.6703614  41.0987713   9.3366156
   8.1349524  40.3696399   8.1104926   8.6765069  39.8666780   8.5743546
   8.4496083  40.3161593   7.2994411   8.2613921  40.2875820   8.0588738
  12.0066631  44.5799046  25.2231838  12.8201496  44.3084195  25.3836970
  11.8461597  44.2806586  24.4192034  12.1036580  44.4953972  25.1277244
   9.2838793  35.2632703  18.1627226   9.4980763  34.6243617  17.6090580
   8.6672692  35.7078527  17.7335088   9.2244122  35.2342847  18.0177657
  10.6943461  48.1851452   9.6081447  10.3023253  47.8818167   8.8904313
  10.8496533  49.0220541   9.4186401  10.6597051  48.2635288   9.4737944
  11.4477881  36.8721768  19.1010533  10.6354563  36.5647659  19.1823706
  11.9067816  36.3920769  19.6653245  11.3958266  36.7558261  19.1965127
  10.8583136  44.7501440   9.5487477  10.4997791  44.9216083  10.3251510
  10.3721847  45.2114646   8.9915476  10.7341833  44.8440411   9.5812746
   8.6753522  28.3732639  13.1514569   7.8047080  28.3471360  13.1047878
   8.9293863  28.2009831  12.3340414   8.5847082  28.3442783  13.0234706
   8.5431389  38.2781840  23.8839235   9.0131020  38.9023956  24.2707109
   8.5893269  37.6098815  24.4432450   8.6199264  38.2716520  24.0239307
   5.7002662  30.3838867  14.6088039   5.1841151  29.6919059  14.7339618
   5.1396591  31.0509644  14.5550638   5.5409175  30.3802125  14.6194105
   7.7694896  30.9231827  16.4380892   7.3826649  30.9480859  17.2194422
   7.2827833  30.3573506  15.9855408   7.6407405  30.8427578  16.4868795
  12.0187875  45.6405336  20.4954678  12.6567596  45.1465532  20.1617134
  11.3761967  45.5682737  19.9106905  12.0182102  45.5564345  20.3597033
  13.7444875  37.4894482  15.0620594  13.3172483  37.4020831  14.3068693
  13.1070928  37.5972258  15.6475438  13.5874482  37.4927142  15.0366035
   7.4352037  27.8098813  18.7291152   8.0645155  28.3459113  18.4512222
   7.6037900  27.7176172  19.5804717   7.5529832  27.8760175  18.8139680
   7.2365952  32.5970008  21.0017563   8.0639382  32.3255156  21.0576178
   7.2573798  33.3930849  21.3581381   7.3618802  32.6749762  21.0632746
  12.0742132  46.3325145  17.1360035  12.8634510  45.9814209  17.2562117
  12.2485730  47.1461533  16.8736669  12.2162413  46.4011002  17.1147903
   1.8135442  39.7433870  14.1887824   0.9723449  39.6437744  14.3966718
   2.0225450  40.5129351  14.5402145   1.7200135  39.8425914  14.2715139
  10.9275956  30.3434701  11.6976453  11.1325549  30.2757009  12.5433451
  10.6002380  31.1493523  11.6297631  10.9091204  30.4520642  11.8136109
   5.6252107  37.6715270  13.4385421   5.3215245  37.1171258  14.0395829
   4.9231528  37.8507479  12.9513456   5.4768317  37.6160052  13.4555127
   3.6870458  44.8864990  18.1457519   3.5790813  44.8967052  19.0119577
   3.8966240  45.7119771  17.9562473   3.7020569  45.0106065  18.2461611
  14.1809644  30.8966466  11.1779219  13.5683957  31.3836868  11.5632951
  14.2773819  30.2209956  11.7216870  14.1047541  30.8684774  11.3158077
   1.7044250  42.1377633  15.6079457   1.1132183  42.7787131  15.5782472
   2.4665274  42.5615250  15.5810756   1.7292511  42.2953471  15.5994604
   2.1004873  33.2979630  16.2747474   2.5606354  33.3718560  17.0122598
   2.1460980  34.0960884  15.9247296   2.1755428  33.4273777  16.3320231
   3.7488223  33.9646325  20.8419501   3.3573788  33.3179672  21.2775279
   3.9174085  34.5557761  21.4613757   3.7159133  33.9560593  20.9982207
  17.8234672  41.9683402  16.6056735  17.8817795  42.4170051  17.3516712
  17.1901139  42.3782215  16.1686815  17.7385967  42.0957137  16.6509283
  11.4633766  47.5886944  13.0411481  11.2653455  48.0777759  12.3467693
  10.8421477  47.7928186  13.6195615  11.3421331  47.6903482  13.0234704
   5.5241745  39.3571841   7.3821725   6.2683790  39.7446117   7.6204675
   5.6702441  38.5129266   7.5462213   5.6552330  39.2902314   7.4415695
   7.4421320  31.1522100  12.4153587   6.5957365  31.3244908  12.2894937
   7.4392453  30.3471444  12.7519415   7.3168470  31.0583129  12.4464714
   8.5119620  34.9297314  13.2815645   8.0379575  34.4039076  13.7920956
   8.8837756  34.3826787  12.7130506   8.4969509  34.7713311  13.2730792
  14.7756351  39.9899690  14.6922425  14.5354574  39.1506105  14.6964852
  15.2548358  40.0699857  15.4163199  14.8108535  39.8781090  14.7997228
  16.7761538  36.7701147  12.6451684  16.5371308  36.7296981  11.8072469
  16.9395439  37.6172299  12.7717406  16.7651842  36.8893232  12.5405166
  13.3807568  41.1551096  18.5756730  14.1041767  40.7023623  18.3967750
  13.1157531  41.4355762  17.7929057  13.4488842  41.1302065  18.4335445
   2.2494437  35.7511270  15.3109609   1.6247507  35.7629662  14.7035561
   1.9140031  36.2271445  15.9600849   2.1079928  35.8229787  15.3166177
   9.9940203  44.3937432   5.4751056  10.7174402  44.8595545   5.3315629
   9.5540794  44.4611042   4.7248653  10.0355895  44.4721269   5.3435837
   9.1626358  41.2534975  16.7251745   8.5483351  40.7093025  17.0200380
   9.6793643  40.7399211  16.2457561   9.1482020  41.0971384  16.6975973
   8.4022655  42.3239245  14.4596043   7.9750263  41.6988963  14.0261479
   8.3947599  42.0414167  15.2855051   8.3381796  42.1892025  14.5175871
   1.5185182  37.3604418  17.5284477   1.6778669  36.6047742  17.9336199
   1.3378076  37.9095357  18.1825215   1.5150541  37.3298232  17.6847183
   9.4605485  29.5265653  18.0835267   8.9646046  29.7229328  17.3926833
  10.2174547  29.9258322  17.9124068   9.4992310  29.6143387  17.9555403
   6.7308365  33.2007999  14.6738577   6.7550852  32.6668112  13.9851357
   6.9819838  32.6925308  15.3364168   6.7718283  33.0468903  14.6703222
   3.0109687  31.9278818  14.0544322   3.0508058  32.4288024  14.7679029
   2.1859351  32.0189211  13.7850245   2.8949213  32.0160634  14.1194860
   5.1939300  41.4939558  22.1564616   4.3434930  41.6311272  22.2922261
   5.3567427  40.7603336  22.6012318   5.0923163  41.4053659  22.2420215
   4.4324050  38.4439327  16.3518221   3.6015980  38.6113145  16.1453469
   4.3775567  38.0675278  17.1367106   4.3013465  38.4129059  16.4366749
   2.2407833  31.9348220  21.9874631   2.8660537  31.3910353  22.2604064
   1.7858313  31.4543138  21.4182422   2.2656094  31.7837702  21.9436225
  15.8142882  40.1177507  17.0787279  16.4060722  40.7574758  17.1105477
  16.2501877  39.4200544  17.3679346  15.9661313  40.1095858  17.1268112
   7.6436272  44.5394880  17.7045173   7.1361363  45.0930727  18.1485804
   7.3462918  44.6003170  16.8863948   7.5241157  44.6301191  17.6493630
   9.8098454  32.9048199  16.5469836  10.2353526  32.4520726  15.9353363
   9.1955447  32.3508270  16.8234624   9.7827100  32.7562176  16.4974861
  12.8392024  37.3322726   9.3790422  12.1683213  37.8752428   9.2503487
  13.5331774  37.8017581   9.1372117  12.8420891  37.4820997   9.3245950
   6.8878757  49.4719438  14.6102180   6.6644412  48.7138267  14.9786206
   6.3988601  49.5017459  13.8882620   6.7822206  49.3641662  14.5578921
  13.0020151  33.7878610  12.2880795  13.3547761  33.3608332  12.9626594
  12.1434952  33.7029453  12.4181871  12.9269596  33.7123350  12.4075805
   1.7003836  36.4186129  10.3463642   0.9815825  36.8350262  10.6136505
   2.0716198  36.9840368   9.7955280   1.6495768  36.5635411  10.3046449
  11.0003417  37.0513978  16.2365637  10.9801344  36.8697273  17.0900416
  11.0482618  37.9225997  16.2125221  11.0038058  37.1530516  16.3588932
   8.9449747  43.6401170  22.1614114   8.9045602  42.9950847  21.5759270
   9.7573065  43.5837788  22.4739526   9.0592900  43.5360137  22.1211063
   5.5357214  49.6919896  12.0639265   5.1217613  49.0294026  11.6743106
   6.2204588  49.8397755  11.5434959   5.5755586  49.6160554  11.9295762
   8.9022508  48.8509981  12.8162881   8.5038792  48.9612252  12.0483702
   8.2873728  49.0592048  13.3989441   8.7521398  48.8983549  12.7894181
  14.4344211  28.9097021  13.2165108  13.9275076  28.2026161  13.1486285
  15.2311645  28.5790210  13.3466184  14.4771450  28.7570173  13.2264103
  10.3508227  35.4163634   9.1138771  10.1221920  35.4396335   8.2717129
  10.6106303  34.5921101   9.2333782  10.3554415  35.2979714   9.0063969
   4.6327455  37.2698107  18.7163871   4.1206358  36.6619290  19.0748903
   4.4606952  37.9854699  19.1837847   4.5317092  37.2861406  18.8380095
   3.4052989  33.9540180  10.4092967   3.8810356  34.3157260   9.7743148
   2.9041589  34.6096648  10.6893110   3.4018348  34.1034369  10.3569708
  16.6364351  43.4261948   6.2005972  17.0197957  44.1753304   6.4304069
  15.8408464  43.6727768   5.9417961  16.5758133  43.5731642   6.1963546
   8.5096526  35.1922351  21.1566127   9.0667956  34.9636161  20.5244592
   8.1857591  35.9528017  20.8801339   8.5442936  35.2706188  21.0222624
   6.2279643  38.2790005  22.1218134   6.9790970  38.5941681  22.4357688
   6.4202219  38.0769176  21.2952056   6.3671057  38.2957386  22.0461530
  13.0764933  34.4063571   9.3641930  13.0759160  34.2512228  10.2226206
  12.8721113  35.2526558   9.3083315  13.0464711  34.5084192   9.4829869
  10.8005785  39.0861073  13.0178136  11.2959450  38.3684068  12.9782157
   9.9905561  38.7831870  12.9032623  10.7549678  38.9358719  12.9951862
  12.8657604  41.8364760  15.7055265  13.2912676  41.3139182  15.1525690
  12.5014524  42.4345598  15.1843888  12.8744207  41.8474987  15.5464275
   2.5011684  50.1328978  14.4652611   2.8158243  50.9465366  14.4730392
   2.9105097  49.7479196  15.1334770   2.6079782  50.1957680  14.5656702
   9.4536203  45.5499025  12.0356423   9.9247382  46.2639287  12.2046408
   9.7896382  44.9497775  12.5716292   9.5731319  45.5670489  12.1388799
  11.5413188  47.1600338  24.2148495  11.6510154  46.3708898  24.5705242
  11.8704085  47.0706274  23.4122833  11.6065594  47.0306191  24.1490885
   6.3705698  30.3226495  18.9914517   6.5033604  29.5257489  19.3195493
   6.7550851  30.8492898  19.5712793   6.4462027  30.2826412  19.1258020
  10.0910150  45.3416959  18.7984115   9.5431096  44.7174842  18.5304181
  10.5523179  45.5311231  18.0828195  10.0777359  45.2776009  18.6534546
   9.4438054  27.2456821  15.5895611   8.6384017  27.1354551  15.9063449
   9.3144789  27.3469277  14.7325477   9.3058186  27.2440491  15.5103651
  12.9004014  33.4102313  16.1835308  12.3167003  33.9111520  15.7712875
  13.2208308  32.9031869  15.5499631  12.8617189  33.4094148  16.0293815
   4.0294145  30.3185670  17.2392411   4.5738558  29.9776797  17.8296753
   4.0831081  31.1771132  17.3813696   4.1183265  30.3940930  17.3474285
   9.6568476  46.3468031  15.3293457  10.4766850  46.2030997  15.5909752
   9.3762554  46.9714230  15.8709894   9.7365219  46.4178383  15.4481396
  26.1282126  54.0032883   8.2936333  26.0976131  54.8577520   8.4654602
  26.7263475  53.7028176   8.8522477  26.2119284  54.0849380   8.4011135
  19.3281811  53.0908534  13.0489263  18.4719707  53.2517032  13.0998380
  19.3749465  52.2200598  13.0694324  19.2080923  52.9859336  13.0595329
  22.6375528  59.3595060  22.6549719  23.3442295  58.8647090  22.7836654
  22.8263463  59.8004141  21.9252377  22.7703433  59.3513410  22.5658765
  18.7052202  65.0010890  10.1823154  19.0891582  65.5697789   9.6427929
  18.6411343  64.2760400   9.7028970  18.7525629  64.9786354  10.0317016
  22.1733632  55.1500578  15.6920915  22.7189592  55.8285665  15.7514885
  22.1150509  55.0088039  14.8322496  22.2449547  55.2292580  15.5732976
  15.2907707  62.6389644  11.0789267  15.3918070  61.8289998  11.3886395
  14.6949452  62.5446591  10.4488946  15.2180246  62.5054672  11.0315506
  23.9498701  56.5785185   6.5654643  23.8338227  57.3292871   6.9946781
  24.7454588  56.3209138   6.8150730  24.0503290  56.6520032   6.6658734
  15.1308447  67.5567233  12.4804123  15.7745902  67.9980397  12.8700282
  15.4564702  66.7520659  12.3934382  15.2740275  67.5032428  12.5249601
  10.7862839  50.8295661  13.6025909  10.1667871  50.2388309  13.4335924
  10.6846703  51.4207097  12.9690232  10.6800514  50.8299744  13.4830898
  17.8830735  52.5695203   7.9358372  18.5810899  52.7483331   8.4279835
  18.1983067  52.0465542   7.3128761  18.0326072  52.5188975   7.9160382
  10.5131972  54.3747943  15.8469478  10.3890669  54.9610388  16.4819297
  11.1650256  53.8808139  16.1481753  10.5905621  54.3886747  15.9855407
  18.0718670  58.9565648   7.9238163  18.5112305  58.3482749   8.3692936
  17.9223333  58.5773021   7.1523628  18.1140136  58.8104119   7.8757331
  15.5390313  57.5509660  15.1256989  16.1839316  57.0582103  14.8067937
  15.7792090  57.6934447  15.9523067  15.6700898  57.4987102  15.2006522
  18.0776404  60.3964566  14.7763881  18.3599647  59.6015972  14.5550637
  18.8062565  60.8745153  14.7968942  18.2265968  60.3499163  14.7466897
  16.0557598  47.9387600  12.0179646  15.7260928  48.3898743  11.3483345
  15.3802600  47.8603763  12.5652653  15.9068034  47.9938735  12.0002870
  21.6728007  57.3092829   4.8768933  21.5879302  58.1653796   5.0218501
  22.1612390  57.0337153   5.5451092  21.7316904  57.3950151   4.9971014
  23.2634006  43.9273123  10.2629257  22.9487447  44.6176601  10.6949679
  22.7460948  43.8717905   9.5614758  23.1398476  44.0208011  10.2226206
  22.6046440  53.9277624   6.3766668  22.0757911  54.1437257   7.0363974
  23.1271460  54.6213762   6.2967637  22.6034893  54.0620760   6.4622267
  28.0594493  59.5023928  11.7499712  27.2292196  59.7134572  11.9133129
  28.0103745  58.6760983  11.4741996  27.9301228  59.4113534  11.7337078
  16.1204230  62.3327782  14.5847622  15.6031172  61.9735197  13.9808930
  16.8178621  61.8089957  14.5953688  16.1469811  62.2025470  14.4977880
  19.7767822  62.7822596  20.5463795  19.8651168  62.5948737  21.3942005
  20.2057535  62.1360026  20.1468641  19.8529925  62.6585604  20.6135546
  18.9523262  54.0706492   3.6543056  19.1919266  54.2784476   2.8418399
  19.2739103  53.2664001   3.7632001  19.0360420  53.9820594   3.5503609
  14.2613552  45.9999888   7.5002594  15.0159520  46.3678205   7.2619644
  14.0841087  46.3739443   8.2681774  14.3468031  46.1098076   7.5787483
  12.9034273  64.0551777  12.1318087  13.6054853  63.5403766  12.1890844
  12.8231757  64.3825929  12.9364962  12.9958034  64.0266004  12.2590879
  27.5548451  52.1494329  15.5450134  26.7176872  52.2196516  15.7797728
  27.5236682  52.1518824  14.6724436  27.4266733  52.1604556  15.4509681
  13.9513180  54.2927364  21.2598502  14.1233684  54.1833259  22.1083784
  14.4882538  54.9381770  21.0229694  14.0558184  54.3719366  21.3503599
  12.6170617  48.4070207   4.1980707  12.4346190  48.6242088   3.3721700
  13.4796230  48.5209220   4.2539322  12.7175206  48.4560105   4.0835194
  12.2285049  60.2458129  11.6403695  13.0673948  60.4781062  11.6877457
  12.2596818  59.3762441  11.5710730  12.3566766  60.1515076  11.6368340
  12.8537752  60.6659005  15.9417001  13.3935977  60.5230136  16.6120373
  12.1707698  61.0655755  16.3101027  12.8329906  60.7038675  16.0951422
  18.2970336  45.4096618   7.2329731  19.0256497  45.2312573   6.7867887
  18.3865229  46.2514698   7.4436909  18.4176998  45.5080496   7.1983249
  22.2778637  56.3450005  11.1362025  23.0336152  56.7781520  11.1750934
  22.3840961  55.6954775  11.7096661  22.4048807  56.3127489  11.2260051
  25.3158808  60.1723282  11.8864428  24.8794040  60.1760025  12.6423399
  24.9821723  60.8528781  11.4544005  25.2021428  60.2735738  11.9345261
  19.8887881  62.2131615  23.2107578  20.6728298  62.3262463  23.5763320
  19.6884476  61.3872752  23.4066264  19.9753907  62.1078335  23.2941964
   8.2574897  56.8859295  16.0951422   7.9913312  56.0698412  16.2542412
   8.2713461  56.9312451  15.2246938   8.2199619  56.7716200  15.9904904
  25.2356291  47.2137110  14.1293856  25.8782199  47.2835215  14.7155771
  25.4879312  46.5466333  13.6273398  25.3678423  47.1263459  14.1421135
  13.0073503  50.4237674  18.7418430  12.3145300  49.9534653  18.9879161
  13.6233831  50.1975978  19.3160137  12.9958033  50.3204805  18.8627582
  20.0458275  64.1241717  16.8574034  19.2473521  63.8841217  17.1147902
  20.4944286  64.1756110  17.6041082  19.9932886  64.0964108  17.0058958
  28.4503154  56.8904202  10.7784065  29.1119588  56.3294871  10.6779974
  27.8094566  56.3956233  11.1036756  28.4532022  56.7340611  10.8116405
   8.6668311  57.6718075  13.3763166   8.4843884  57.6464961  12.5235459
   9.4017980  58.1417013  13.4152075   8.7482374  57.7379437  13.2561085
  24.7367985  57.9069585  10.5196054  24.9723574  58.0514784   9.6922905
  24.8857548  58.6711993  10.9127568  24.7933788  58.0408639  10.4559658
  11.7314062  54.3903078  19.8845275  12.4554035  54.3756108  20.3710170
  11.8330199  55.0998433  19.3867243  11.8532271  54.4927781  19.8824062
  26.5658442  56.7471251   8.3565658  26.8966659  57.2798891   7.7505753
  27.1391530  56.8010138   9.0127609  26.6992121  56.8340820   8.3643440
  19.1059012  57.8702162  24.7494222  18.3131992  58.1845674  24.9346842
  19.2207939  58.0853631  23.9115007  19.0054422  57.9485999  24.6532557
  21.7790331  54.5936153   9.0389238  21.8737185  55.3325447   9.4928863
  21.1549174  54.1653629   9.4723802  21.6999361  54.6397474   9.1697385
  20.0342805  57.7722366  19.6879519  20.6081666  57.1349610  19.8428083
  19.9557608  57.7726448  18.8189176  20.1076039  57.6787477  19.5825930
   8.6339221  54.5511575  13.5262233   9.2112724  54.4148026  14.1654478
   7.9353283  54.0947360  13.7807817   8.6160242  54.4633842  13.6584523
  22.0313352  56.4384893   2.2726190  21.9493515  56.5087080   3.1381177
  22.6693072  57.0014637   2.0809931  22.1133189  56.5323864   2.3716139
  15.3906523  56.2045631  11.7400716  15.1325767  55.3717366  11.7132016
  15.4455006  56.4303244  10.8993217  15.3606301  56.1143402  11.6120853
  20.4707573  48.3074082  11.8404809  19.7663900  47.8183267  11.9988728
  20.5192548  48.3196556  10.9693253  20.3737625  48.2363730  11.7344149
  14.3641235  53.7583394  12.2265611  13.7890827  53.9175562  12.8629572
  13.9876912  53.1218803  11.7634062  14.2244048  53.6881207  12.2520169
  18.0314524  52.2306743  17.0857989  17.6428957  51.8060961  16.4310181
  17.3669222  52.4788893  17.5935016  17.8761452  52.2045464  17.0645857
  27.6737793  51.9881748   9.8605819  27.4174358  51.1761689   9.6703702
  28.5167107  51.9959315   9.6336007  27.7603818  51.8693745   9.7990637
  21.8540885  45.9281372  14.5981974  22.2351397  45.2459543  14.9849848
  21.0504170  45.6390974  14.4157638  21.7917347  45.7848420  14.6286030
  19.1353462  56.4605347   5.2834796  19.9494101  56.7520240   5.1717568
  19.0712603  55.8065210   4.7093089  19.2456201  56.4070542   5.1823634
  25.3562952  59.1431344  19.6964372  25.1201590  58.3119408  19.5776433
  26.0006181  59.0916951  20.2819216  25.4157623  59.0129032  19.7650266
  15.0061370  59.9326865  10.4107108  15.6435317  59.6938612  10.9558902
  15.4316442  60.1364024   9.6760269  15.1637537  59.9277875  10.3824266
   9.6974013  62.1715201  14.2941412   9.7378158  62.4430052  13.4661192
  10.2568537  62.6957109  14.7099200   9.7857359  62.2890956  14.2333300
  15.8132726  48.4335570  24.4644582  15.4986167  49.2035133  24.2014145
  15.4922658  47.8705826  23.8796809  15.7191645  48.4645839  24.3385932
  26.3799373  58.9275792  15.7592667  26.0745190  59.6603849  16.1205982
  25.6605589  58.5213722  15.4785453  26.2286715  58.9757525  15.7705804
  17.3882842  60.4099288  12.0900895  17.4621851  60.2474459  12.9442745
  18.2052349  60.5989477  11.8461376  17.5199201  60.4136030  12.1798920
  32.0801165  55.5668793  15.0861011  32.0125665  55.5864752  14.2163597
  32.0656828  56.4099120  15.3116681  32.0679922  55.6942528  14.9913488
  13.3664623  46.8226091  10.0790778  12.4987048  46.8948691  10.1448388
  13.6539827  47.6248170  10.2678753  13.2804371  46.9520238  10.1165545
  22.4897512  46.9703951  18.4102100  23.2351104  46.7813761  17.9965526
  22.0734816  47.4962189  17.8515957  22.5382486  47.0206096  18.2666673
  16.5182173  58.1751776  17.9067499  16.0193867  58.8867544  17.9852387
  17.3282398  58.4952443  17.8685661  16.5638280  58.3278625  17.9124067
  12.7810291  57.4374730  12.1530219  12.4923540  56.8112201  12.6875947
  13.6493639  57.3795017  12.2194900  12.8670543  57.3362274  12.2421174
  23.5688189  52.5809513  12.4712201  23.2252955  51.8599848  12.8219451
  23.6681231  52.3723364  11.6290560  23.5330232  52.4433716  12.3983881
  24.0301218  59.0435217   8.0136189  24.5959250  59.7028427   7.9294732
  23.3829121  59.3884915   8.4852592  24.0179974  59.1917158   8.0708946
  15.4449231  51.0332821  23.2029797  14.6349007  51.3390601  23.0919639
  15.9223918  51.7538403  23.3182381  15.3952710  51.1847422  23.2036868
  14.3040791  60.2478542  13.4512700  13.7821544  60.3878834  14.1364565
  14.6914811  59.4889206  13.6414817  14.2844492  60.1564066  13.5813776
  11.2931975  50.2984351   7.5207655  11.0056771  49.9285621   6.7839602
  11.9802443  50.7679206   7.2591360  11.3520872  50.3131320   7.3722730
  20.5007796  61.9874001   7.4373269  20.2594472  61.2541862   7.0300334
  20.6809129  62.5360858   6.7839602  20.4915420  61.9596392   7.2803492
  15.7307116  57.2782561   8.8494191  15.5349899  57.8857295   8.2554494
  15.9541462  56.5850505   8.3685865  15.7341757  57.2660086   8.6910272
  14.1285646  54.1637299   8.9675059  14.8508298  54.3278457   8.5078865
  13.6493639  54.8846964   8.8614399  14.1649377  54.2935528   8.8840673
  22.0879154  50.5001098  14.3471744  21.2490255  50.5262377  14.1110008
  22.1583521  51.1471833  14.9277091  21.9747548  50.5997223  14.3980861
  11.7793263  56.5695371  18.0729199  12.2914360  56.8479625  17.4237959
  11.4929606  57.3084665  18.4392012  11.8128126  56.7197725  18.0319077
  20.5348432  47.3986475   9.0799360  21.2374785  47.1994223   8.6019318
  20.2692621  46.6262417   9.3868204  20.5995065  47.2549441   9.0544802
  25.9636678  55.7069084  11.6332986  25.8770652  55.8624510  12.4867765
  25.5087158  56.3507160  11.2592391  25.8839935  55.8244840  11.7040093
   8.8660170  51.0765563   8.3692936   8.9676306  51.8791725   8.6973911
   9.6616056  50.8752899   8.0716016   8.9988075  51.1651462   8.3728291
  15.2976989  48.6621760  18.1330241  15.1060186  48.6776894  18.9829664
  16.1475585  48.8585434  18.1096896  15.3952711  48.6936111  18.2553536
   9.6823902  51.1912741  16.1114057   9.5409393  50.3396682  16.2358565
   9.9664465  51.2341402  15.2876263   9.7031748  51.0712491  16.0081681
  19.8362494  53.0279832  10.2558546  19.5897208  52.9475582  11.0895334
  20.1647617  52.2433299  10.0621073  19.8483738  52.9006097  10.3506069
  23.7310543  59.7363191  14.0445327  23.5924902  60.4344237  14.5494069
  22.9510541  59.5811847  13.6881509  23.5953770  59.8163358  14.0671601
  22.0688628  56.0359566  20.2967708  22.0636666  55.1639383  20.3010135
  22.7749622  56.2347735  19.8237164  22.1733632  55.9363440  20.2274744
  15.7959521  55.7636550  19.6681529  15.9402897  56.3437758  19.0324639
  16.1435170  56.1412847  20.3731383  15.8686983  55.9057254  19.6780524
  17.9679439  54.9626718  17.4506660  17.2202753  55.1557733  17.0454938
  18.1220964  54.1371938  17.2130781  17.8801866  54.8691830  17.3552066
  14.8687276  63.9539322  16.5342555  15.0176840  63.3942238  15.8815960
  15.6487278  64.0331324  16.9175074  15.0061370  63.8824887  16.4939505
  25.2263916  59.0941445   4.8061826  24.8470724  58.3078583   4.7991115
  24.5630161  59.6428302   4.6633470  25.0722390  59.0586269   4.7842623
  17.3940577  64.1253965  17.8127046  17.3184248  63.4562775  18.3677835
  17.3230436  64.8271753  18.3267712  17.3721184  64.1298872  17.9703894
  18.2081216  48.8577269  18.3402064  18.6653830  49.5901244  18.4674856
  18.2837544  48.4343734  19.0989320  18.2872185  48.9034507  18.4703140
  10.4514207  49.1043089  19.4291508   9.9156396  48.4923447  19.7452275
  10.5131972  49.6791225  20.0825174  10.3809840  49.0990017  19.5726934
  22.6808542  42.0367144  12.2095907  22.7992110  42.4943608  11.4763210
  22.5070717  41.2312406  11.9232124  22.6727713  41.9860917  12.0596841
  18.0510824  62.6454964   8.6450652  18.8160715  62.3764607   8.3233316
  17.9488914  62.1604974   9.3620715  18.1492319  62.5344528   8.7030480
  16.0863594  50.8479373  15.1843888  15.2959668  50.6670833  15.5061224
  16.4824216  50.0706326  15.1674182  16.0280470  50.7066834  15.2296436
  21.4707280  58.4821803  12.9103334  20.7952282  58.2507036  13.4116721
  21.4799656  57.8742986  12.2845439  21.3725784  58.3580728  12.8919486
  18.6001424  53.3239632  19.6667387  18.5360565  54.1849589  19.5387524
  18.7398612  53.0071625  18.8662938  18.6116894  53.4039799  19.5295600
  23.4724014  61.3386936   5.1413512  23.5543852  62.1453922   4.8174963
  23.9573757  61.3582895   5.8654285  23.5561172  61.4607598   5.2000410
  17.2820518  56.0171772  13.8083590  16.8582767  56.2176271  13.0722608
  17.1065373  55.1700620  13.9207890  17.1931398  55.9220553  13.7157280
  16.7832211  67.5322285  16.2705047  17.2728141  66.8333074  16.0880712
  16.2116443  67.2346155  16.8581104  16.7716741  67.3848508  16.3306088
  12.5702963  56.5123823   9.2411562  12.7267582  56.4470626  10.0967554
  12.9103556  57.2872376   9.0290242  12.6436198  56.6173021   9.3366156
  19.1082107  55.8881707   8.1104926  19.6497653  55.3852088   8.5743546
  19.4228666  55.8346901   7.2994411  19.2346504  55.8061128   8.0588738
  22.9799215  60.0984354  25.2231838  23.7934080  59.8269503  25.3836970
  22.8194181  59.7991894  24.4192034  23.0769163  60.0139280  25.1277244
  20.2571377  50.7818011  18.1627226  20.4713346  50.1428925  17.6090580
  19.6405276  51.2263835  17.7335088  20.1976706  50.7528155  18.0177657
  21.6676045  63.7036759   9.6081447  21.2755836  63.4003475   8.8904313
  21.8229117  64.5405849   9.4186401  21.6329634  63.7820596   9.4737944
   9.1437224  53.6958774   9.5572329   9.5236189  54.1143318   8.8932597
   8.5692589  54.2772229   9.8641173   9.1148549  53.8436632   9.5049070
  22.4210465  52.3907076  19.1010533  21.6087146  52.0832967  19.1823706
  22.8800399  51.9106076  19.6653245  22.3690849  52.2743569  19.1965127
  21.8315719  60.2686748   9.5487477  21.4730374  60.4401391  10.3251510
  21.3454430  60.7299954   8.9915476  21.7074416  60.3625719   9.5812746
  19.6486105  43.8917947  13.1514569  18.7779663  43.8656668  13.1047878
  19.9026447  43.7195139  12.3340414  19.5579665  43.8628090  13.0234706
  19.5163972  53.7967148  23.8839235  19.9863603  54.4209264  24.2707109
  19.5625852  53.1284123  24.4432450  19.5931848  53.7901828  24.0239307
  16.6735246  45.9024175  14.6088039  16.1573734  45.2104367  14.7339618
  16.1129175  46.5694952  14.5550638  16.5141759  45.8987433  14.6194105
  18.7427479  46.4417135  16.4380892  18.3559232  46.4666167  17.2194422
  18.2560417  45.8758814  15.9855408  18.6139988  46.3612886  16.4868795
  22.9920459  61.1590644  20.4954678  23.6300179  60.6650840  20.1617134
  22.3494550  61.0868045  19.9106905  22.9914685  61.0749653  20.3597033
  24.7177459  53.0079790  15.0620594  24.2905067  52.9206139  14.3068693
  24.0803512  53.1157566  15.6475438  24.5607066  53.0112450  15.0366035
  18.4084621  43.3284121  18.7291152  19.0377739  43.8644421  18.4512222
  18.5770484  43.2361480  19.5804717  18.5262416  43.3945483  18.8139680
  18.2098536  48.1155315  21.0017563  19.0371965  47.8440464  21.0576178
  18.2306382  48.9116157  21.3581381  18.3351386  48.1935070  21.0632746
  23.0474715  61.8510453  17.1360035  23.8367093  61.4999517  17.2562117
  23.2218313  62.6646841  16.8736669  23.1894997  61.9196310  17.1147903
  12.7868026  55.2619178  14.1887824  11.9456032  55.1623052  14.3966718
  12.9958034  56.0314659  14.5402145  12.6932718  55.3611222  14.2715139
  10.2643593  52.8838715  12.0172575   9.8700290  52.9581727  11.2422684
   9.7083710  53.2696662  12.5680936  10.1246405  52.9520490  11.9840234
  21.9008539  45.8620009  11.6976453  22.1058133  45.7942317  12.5433451
  21.5734963  46.6678830  11.6297631  21.8823787  45.9705950  11.8136109
  16.5984691  53.1900577  13.4385421  16.2947828  52.6356566  14.0395829
  15.8964111  53.3692787  12.9513456  16.4500900  53.1345360  13.4555127
  15.6550788  50.5001097   8.0030123  15.9310522  49.7820010   7.5907691
  16.2549457  51.0986017   7.7951229  15.7844052  50.4821468   7.9110884
  14.6603042  60.4050298  18.1457519  14.5523397  60.4152360  19.0119577
  14.8698823  61.2305079  17.9562473  14.6753153  60.5291373  18.2461611
  25.1542227  46.4151773  11.1779219  24.5416541  46.9022176  11.5632951
  25.2506402  45.7395264  11.7216870  25.0780125  46.3870082  11.3158077
  19.1561308  48.1714615   6.2776718  19.6105055  48.3425175   7.0024563
  19.6301354  47.5582725   5.8774494  19.2929628  48.1065500   6.3250480
  12.6776834  57.6562941  15.6079457  12.0864767  58.2972439  15.5782472
  13.4397857  58.0800558  15.5810756  12.7025094  57.8138779  15.5994604
  13.0737456  48.8164938  16.2747474  13.5338938  48.8903868  17.0122598
  13.1193563  49.6146192  15.9247296  13.1488012  48.9459085  16.3320231
  14.7220806  49.4831633  20.8419501  14.3306371  48.8364980  21.2775279
  14.8906669  50.0743068  21.4613757  14.6891716  49.4745901  20.9982207
  28.7967255  57.4868710  16.6056735  28.8550379  57.9355359  17.3516712
  28.1633723  57.8967523  16.1686815  28.7118550  57.6142445  16.6509283
  22.4366350  63.1072252  13.0411481  22.2386038  63.5963067  12.3467693
  21.8154061  63.3113494  13.6195615  22.3153914  63.2088790  13.0234704
  16.4974328  54.8757149   7.3821725  17.2416373  55.2631425   7.6204675
  16.6435024  54.0314574   7.5462213  16.6284913  54.8087622   7.4415695
  18.4153904  46.6707408  12.4153587  17.5689949  46.8430216  12.2894937
  18.4125036  45.8656752  12.7519415  18.2901054  46.5768437  12.4464714
  19.4852204  50.4482622  13.2815645  19.0112158  49.9224384  13.7920956
  19.8570340  49.9012095  12.7130506  19.4702093  50.2898619  13.2730792
   9.8625234  52.4454129  18.6499191  10.7250847  52.3449838  18.5636520
   9.5317017  51.8648838  18.0884763   9.9410431  52.3445756  18.5544596
  25.7488935  55.5084998  14.6922425  25.5087158  54.6691413  14.6964852
  26.2280942  55.5885165  15.4163199  25.7841118  55.3966398  14.7997228
  21.4135704  51.3419177   6.3441399  20.8858722  51.4247921   5.6547107
  21.8731412  52.0837048   6.3406043  21.4037554  51.4639839   6.2416094
  27.7494122  52.2886455  12.6451684  27.5103892  52.2482289  11.8072469
  27.9128023  53.1357607  12.7717406  27.7384425  52.4078540  12.5405166
  24.3540152  56.6736404  18.5756730  25.0774351  56.2208931  18.3967750
  24.0890114  56.9541070  17.7929057  24.4221425  56.6487373  18.4335445
  13.2227020  51.2696578  15.3109609  12.5980090  51.2814970  14.7035561
  12.8872615  51.7456753  15.9600849  13.0812512  51.3415095  15.3166177
   9.9352696  59.3297038  16.7513373   9.4052620  58.6389477  16.8008348
  10.2077789  59.3207223  15.9226082   9.8977418  59.2264170  16.6360789
  20.9672786  59.9122740   5.4751056  21.6906985  60.3780853   5.3315629
  20.5273377  59.9796350   4.7248653  21.0088478  59.9906577   5.3435837
  20.1358941  56.7720283  16.7251745  19.5215934  56.2278333  17.0200380
  20.6526226  56.2584519  16.2457561  20.1214604  56.6156692  16.6975973
  19.3755238  57.8424553  14.4596043  18.9482846  57.2174271  14.0261479
  19.3680183  57.5599475  15.2855051  19.3114380  57.7077333  14.5175871
  12.4917766  52.8789726  17.5284477  12.6511252  52.1233050  17.9336199
  12.3110659  53.4280665  18.1825215  12.4883125  52.8483540  17.6847183
  20.4338069  45.0450961  18.0835267  19.9378630  45.2414636  17.3926833
  21.1907131  45.4443630  17.9124068  20.4724893  45.1328695  17.9555403
  17.7040948  48.7193307  14.6738577  17.7283435  48.1853420  13.9851357
  17.9552422  48.2110616  15.3364168  17.7450867  48.5654211  14.6703222
  13.9842270  47.4464126  14.0544322  14.0240642  47.9473332  14.7679029
  13.1591935  47.5374519  13.7850245  13.8681796  47.5345942  14.1194860
  16.1671883  57.0124865  22.1564616  15.3167514  57.1496580  22.2922261
  16.3300011  56.2788644  22.6012318  16.0655747  56.9238967  22.2420215
  15.4056634  53.9624635  16.3518221  14.5748563  54.1298453  16.1453469
  15.3508151  53.5860586  17.1367106  15.2746049  53.9314367  16.4366749
  13.2140417  47.4533528  21.9874631  13.8393120  46.9095661  22.2604064
  12.7590897  46.9728446  21.4182422  13.2388678  47.3023010  21.9436225
  13.7792678  52.2380227   6.8808338  13.9195639  52.7352691   7.5836980
  14.2775210  51.5366521   7.0222552  13.8733758  52.2082206   7.0059917
  26.7875466  55.6362815  17.0787279  27.3793306  56.2760066  17.1105477
  27.2234460  54.9385852  17.3679346  26.9393897  55.6281166  17.1268112
  15.3871883  49.0361313   4.1846357  15.7087724  48.5564396   3.5305619
  15.6498827  49.8460959   3.9937169  15.4737908  49.0851211   4.0601849
  18.6168856  60.0580188  17.7045173  18.1093947  60.6116034  18.1485804
  18.3195502  60.1188478  16.8863948  18.4973741  60.1486499  17.6493630
  20.7831038  48.4233507  16.5469836  21.2086109  47.9706034  15.9353363
  20.1688031  47.8693578  16.8234624  20.7559683  48.2747483  16.4974861
  19.2225261  44.8948607   9.9560413  18.5793579  44.7446253  10.5245552
  18.8824668  44.6490952   9.1909518  19.0770338  44.8360730   9.9263428
  23.8124607  52.8508034   9.3790422  23.1415797  53.3937736   9.2503487
  24.5064357  53.3202889   9.1372117  23.8153475  53.0006305   9.3245950
  17.8611341  64.9904746  14.6102180  17.6376995  64.2323575  14.9786206
  17.3721184  65.0202767  13.8882620  17.7554790  64.8826970  14.5578921
  23.9752735  49.3063917  12.2880795  24.3280345  48.8793640  12.9626594
  23.1167536  49.2214761  12.4181871  23.9002179  49.2308658  12.4075805
  12.6736420  51.9371437  10.3463642  11.9548409  52.3535570  10.6136505
  13.0448782  52.5025676   9.7955280  12.6228351  52.0820719  10.3046449
  21.9736000  52.5699286  16.2365637  21.9533928  52.3882581  17.0900416
  22.0215201  53.4411305  16.2125221  21.9770641  52.6715824  16.3588932
  19.9182330  59.1586478  22.1614114  19.8778185  58.5136155  21.5759270
  20.7305648  59.1023095  22.4739526  20.0325484  59.0545445  22.1211063
  16.5089798  65.2105204  12.0639265  16.0950196  64.5479334  11.6743106
  17.1937172  65.3583063  11.5434959  16.5488169  65.1345862  11.9295762
  19.8755092  64.3695289  12.8162881  19.4771375  64.4797560  12.0483702
  19.2606311  64.5777356  13.3989441  19.7253981  64.4168857  12.7894181
  18.4482994  50.9769437   5.6837021  17.8547833  51.2986434   5.1321588
  18.4858272  50.1310533   5.4758127  18.3657383  50.8993765   5.5719792
  25.4076795  44.4282329  13.2165108  24.9007659  43.7211469  13.1486285
  26.2044228  44.0975518  13.3466184  25.4504034  44.2755481  13.2264103
  21.3240811  50.9348942   9.1138771  21.0954504  50.9581643   8.2717129
  21.5838887  50.1106409   9.2333782  21.3286999  50.8165022   9.0063969
  15.6060039  52.7883415  18.7163871  15.0938942  52.1804598  19.0748903
  15.4339535  53.5040007  19.1837847  15.5049676  52.8046714  18.8380095
  10.4525754  51.2320990  21.3666233  10.2828344  51.8922365  20.8214440
  10.0091704  51.4427551  22.0878722  10.3625087  51.3606972  21.3927863
  14.3785573  49.4725488  10.4092967  14.8542939  49.8342568   9.7743148
  13.8774173  50.1281955  10.6893110  14.3750932  49.6219677  10.3569708
  27.6096935  58.9447256   6.2005972  27.9930540  59.6938612   6.4304069
  26.8141048  59.1913076   5.9417961  27.5490717  59.0916950   6.1963546
  19.4829109  50.7107659  21.1566127  20.0400539  50.4821469  20.5244592
  19.1590174  51.4713325  20.8801339  19.5175519  50.7891496  21.0222624
   7.3527818  54.1367856  16.6254723   6.8054538  53.4668501  16.7435591
   8.1420196  53.7697703  16.6898190   7.3880002  53.9832842  16.6523424
  17.2012227  53.7975313  22.1218134  17.9523554  54.1126989  22.4357688
  17.3934803  53.5954483  21.2952056  17.3403641  53.8142694  22.0461530
  16.4212226  51.6166688   3.7766351  16.8011191  51.6346317   2.9917466
  15.6804822  52.0620677   3.6557198  16.3681064  51.6848462   3.6429919
  24.0497517  49.9248879   9.3641930  24.0491743  49.7697535  10.2226206
  23.8453697  50.7711866   9.3083315  24.0197295  50.0269500   9.4829869
   6.1114788  53.3488663  13.7800746   5.9336549  52.8965272  14.5055662
   5.8233810  54.1514825  13.9639224   6.0427741  53.4011221  13.9144249
  21.7738369  54.6046381  13.0178136  22.2692034  53.8869376  12.9782157
  20.9638144  54.3017178  12.9032623  21.7282262  54.4544027  12.9951862
  23.8390188  57.3550068  15.7055265  24.2645259  56.8324490  15.1525690
  23.4747107  57.9530906  15.1843888  23.8476790  57.3660295  15.5464275
  13.4744267  65.6514286  14.4652611  13.7890826  66.4650674  14.4730392
  13.8837681  65.2664504  15.1334770  13.5812365  65.7142988  14.5656702
  20.4268787  61.0684332  12.0356423  20.8979965  61.7824595  12.2046408
  20.7628966  60.4683083  12.5716292  20.5463902  61.0855797  12.1388799
  22.5145772  62.6785646  24.2148495  22.6242737  61.8894206  24.5705242
  22.8436668  62.5891582  23.4122833  22.5798177  62.5491499  24.1490885
  17.3438282  45.8411803  18.9914517  17.4766188  45.0442796  19.3195493
  17.7283435  46.3678206  19.5712793  17.4194611  45.8011720  19.1258020
  21.0642733  60.8602267  18.7984115  20.5163679  60.2360150  18.5304181
  21.5255762  61.0496539  18.0828195  21.0509943  60.7961317  18.6534546
  20.4170637  42.7642129  15.5895611  19.6116601  42.6539859  15.9063449
  20.2877373  42.8654585  14.7325477  20.2790770  42.7625799  15.5103651
  23.8736598  48.9287621  16.1835308  23.2899587  49.4296828  15.7712875
  24.1940892  48.4217177  15.5499631  23.8349773  48.9279456  16.0293815
  16.4131397  47.8428216   6.4593982  17.2347091  48.0126529   6.2175677
  15.9501048  47.9975477   5.7360280  16.4662559  47.8909949   6.3165627
  15.0026729  45.8370978  17.2392411  15.5471142  45.4962105  17.8296753
  15.0563665  46.6956440  17.3813696  15.0915848  45.9126237  17.3474285
  10.8157288  59.5987394  14.1131219  11.4202145  59.5583228  13.4845040
  10.6084600  60.4458546  14.1435275  10.8746185  59.7175397  14.0247336
  20.6301060  61.8653339  15.3293457  21.4499433  61.7216305  15.5909752
  20.3495137  62.4899538  15.8709894  20.7097803  61.9363691  15.4481396
  37.1014710  69.5218191   8.2936333  37.0708714  70.3762828   8.4654602
  37.6996059  69.2213484   8.8522477  37.1851868  69.6034688   8.4011135
  30.3014395  68.6093842  13.0489263  29.4452290  68.7702340  13.0998380
  30.3482049  67.7385906  13.0694324  30.1813506  68.5044644  13.0595329
  33.6108111  74.8780368  22.6549719  34.3174879  74.3832398  22.7836654
  33.7996047  75.3189449  21.9252377  33.7436017  74.8698718  22.5658765
  33.1466216  70.6685886  15.6920915  33.6922176  71.3470973  15.7514885
  33.0883092  70.5273347  14.8322496  33.2182130  70.7477888  15.5732976
  21.7595423  66.3480969  13.6025909  21.1400454  65.7573616  13.4335924
  21.6579286  66.9392404  12.9690232  21.6533098  66.3485052  13.4830898
  28.8563318  68.0880511   7.9358372  29.5543483  68.2668639   8.4279835
  29.1715651  67.5650850   7.3128761  29.0058655  68.0374283   7.9160382
  21.4864556  69.8933251  15.8469478  21.3623252  70.4795696  16.4819297
  22.1382840  69.3993447  16.1481753  21.5638205  69.9072055  15.9855407
  26.5122897  73.0694968  15.1256989  27.1571899  72.5767411  14.8067937
  26.7524674  73.2119754  15.9523067  26.6433482  73.0172410  15.2006522
  29.0508988  75.9149874  14.7763881  29.3332231  75.1201279  14.5550637
  29.7795148  76.3930461  14.7968942  29.1998552  75.8684471  14.7466897
  27.0290182  63.4572908  12.0179646  26.6993512  63.9084051  11.3483345
  26.3535184  63.3789071  12.5652653  26.8800618  63.5124043  12.0002870
  34.2366590  59.4458431  10.2629257  33.9220031  60.1361909  10.6949679
  33.7193531  59.3903213   9.5614758  34.1131060  59.5393319  10.2226206
  25.2346136  61.5185196   7.5002594  25.9892104  61.8863513   7.2619644
  25.0573670  61.8924750   8.2681774  25.3200614  61.6283384   7.5787483
  38.5281035  67.6679637  15.5450134  37.6909456  67.7381824  15.7797728
  38.4969265  67.6704131  14.6724436  38.3999317  67.6789864  15.4509681
  24.9245764  69.8112672  21.2598502  25.0966267  69.7018567  22.1083784
  25.4615121  70.4567078  21.0229694  25.0290768  69.8904674  21.3503599
  23.5903200  63.9255515   4.1980707  23.4078774  64.1427396   3.3721700
  24.4528813  64.0394528   4.2539322  23.6907790  63.9745413   4.0835194
  29.2702920  60.9281926   7.2329731  29.9989080  60.7497881   6.7867887
  29.3597813  61.7700006   7.4436909  29.3909582  61.0265804   7.1983249
  33.2511220  71.8635313  11.1362025  34.0068735  72.2966827  11.1750934
  33.3573545  71.2140083  11.7096661  33.3781391  71.8312797  11.2260051
  36.2891391  75.6908590  11.8864428  35.8526623  75.6945333  12.6423399
  35.9554307  76.3714089  11.4544005  36.1754011  75.7921046  11.9345261
  30.8620465  77.7316923  23.2107578  31.6460882  77.8447771  23.5763320
  30.6617060  76.9058060  23.4066264  30.9486490  77.6263643  23.2941964
  19.2307481  72.4044603  16.0951422  18.9645896  71.5883720  16.2542412
  19.2446045  72.4497759  15.2246938  19.1932203  72.2901508  15.9904904
  36.2088874  62.7322418  14.1293856  36.8514783  62.8020523  14.7155771
  36.4611895  62.0651641  13.6273398  36.3411006  62.6448767  14.1421135
  23.9806087  65.9422982  18.7418430  23.2877884  65.4719961  18.9879161
  24.5966414  65.7161286  19.3160137  23.9690617  65.8390113  18.8627582
  39.4235738  72.4089510  10.7784065  40.0852172  71.8480179  10.6779974
  38.7827150  71.9141541  11.1036756  39.4264605  72.2525919  10.8116405
  19.6400894  73.1903383  13.3763166  19.4576467  73.1650269  12.5235459
  20.3750563  73.6602321  13.4152075  19.7214958  73.2564745  13.2561085
  22.7046646  69.9088386  19.8845275  23.4286618  69.8941416  20.3710170
  22.8062782  70.6183741  19.3867243  22.8264855  70.0113089  19.8824062
  30.0791595  73.3887470  24.7494222  29.2864576  73.7030982  24.9346842
  30.1940522  73.6038939  23.9115007  29.9787006  73.4671307  24.6532557
  32.7522914  70.1121461   9.0389238  32.8469769  70.8510755   9.4928863
  32.1281758  69.6838937   9.4723802  32.6731944  70.1582782   9.1697385
  31.0075388  73.2907674  19.6879519  31.5814250  72.6534918  19.8428083
  30.9290192  73.2911756  18.8189176  31.0808623  73.1972785  19.5825930
  19.6071805  70.0696883  13.5262233  20.1845307  69.9333334  14.1654478
  18.9085866  69.6132668  13.7807817  19.5892826  69.9819150  13.6584523
  26.3639107  71.7230939  11.7400716  26.1058351  70.8902674  11.7132016
  26.4187590  71.9488552  10.8993217  26.3338885  71.6328710  11.6120853
  31.4440157  63.8259390  11.8404809  30.7396484  63.3368575  11.9988728
  31.4925131  63.8381864  10.9693253  31.3470208  63.7549038  11.7344149
  25.3373819  69.2768701  12.2265611  24.7623410  69.4360870  12.8629572
  24.9609495  68.6404111  11.7634062  25.1976631  69.2066514  12.2520169
  29.0047107  67.7492051  17.0857989  28.6161540  67.3246269  16.4310181
  28.3401806  67.9974200  17.5935016  28.8494035  67.7230772  17.0645857
  38.6470377  67.5067055   9.8605819  38.3906941  66.6946997   9.6703702
  39.4899691  67.5144623   9.6336007  38.7336402  67.3879053   9.7990637
  32.8273469  61.4466680  14.5981974  33.2083981  60.7644851  14.9849848
  32.0236753  61.1576282  14.4157638  32.7649931  61.3033728  14.6286030
  36.3295536  74.6616652  19.6964372  36.0934173  73.8304716  19.5776433
  36.9738765  74.6102259  20.2819216  36.3890207  74.5314339  19.7650266
  25.9793954  75.4512173  10.4107108  26.6167901  75.2123920  10.9558902
  26.4049026  75.6549332   9.6760269  26.1370120  75.4463183  10.3824266
  26.7865309  63.9520878  24.4644582  26.4718751  64.7220441  24.2014145
  26.4655242  63.3891134  23.8796809  26.6924229  63.9831146  24.3385932
  37.3531957  74.4461100  15.7592667  37.0477774  75.1789157  16.1205982
  36.6338172  74.0399030  15.4785453  37.2019299  74.4942833  15.7705804
  28.3615426  75.9284595  12.0900895  28.4354434  75.7659767  12.9442745
  29.1784932  76.1174785  11.8461376  28.4931785  75.9321338  12.1798920
  43.0533749  71.0854101  15.0861011  42.9858249  71.1050060  14.2163597
  43.0389411  71.9284428  15.3116681  43.0412505  71.2127836  14.9913488
  24.3397206  62.3411399  10.0790778  23.4719632  62.4133999  10.1448388
  24.6272411  63.1433478  10.2678753  24.2536954  62.4705546  10.1165545
  33.4630095  62.4889259  18.4102100  34.2083687  62.2999069  17.9965526
  33.0467400  63.0147497  17.8515957  33.5115069  62.5391404  18.2666673
  40.8392366  69.8598487  13.3607605  41.3900288  69.2266556  13.6004697
  40.8236481  70.3913880  14.0523109  40.9177562  69.8447435  13.4986463
  27.4914757  73.6937084  17.9067499  26.9926451  74.4052852  17.9852387
  28.3014981  74.0137751  17.8685661  27.5370864  73.8463933  17.9124067
  23.7542874  72.9560037  12.1530219  23.4656123  72.3297509  12.6875947
  24.6226223  72.8980325  12.2194900  23.8403126  72.8547582  12.2421174
  34.5420772  68.0994821  12.4712201  34.1985538  67.3785156  12.8219451
  34.6413815  67.8908672  11.6290560  34.5062815  67.9619024  12.3983881
  26.4181815  66.5518129  23.2029797  25.6081591  66.8575909  23.0919639
  26.8956502  67.2723711  23.3182381  26.3685294  66.7032730  23.2036868
  25.2773374  75.7663850  13.4512700  24.7554128  75.9064142  14.1364565
  25.6647395  75.0074514  13.6414817  25.2577075  75.6749374  13.5813776
  22.2664558  65.8169659   7.5207655  21.9789354  65.4470929   6.7839602
  22.9535027  66.2864514   7.2591360  22.3253456  65.8316628   7.3722730
  26.7039700  72.7967869   8.8494191  26.5082483  73.4042603   8.2554494
  26.9274046  72.1035813   8.3685865  26.7074341  72.7845394   8.6910272
  25.1018230  69.6822607   8.9675059  25.8240882  69.8463765   8.5078865
  24.6226223  70.4032272   8.8614399  25.1381961  69.8120836   8.8840673
  33.0611738  66.0186406  14.3471744  32.2222838  66.0447684  14.1110008
  33.1316105  66.6657141  14.9277091  32.9480131  66.1182531  14.3980861
  22.7525847  72.0880679  18.0729199  23.2646944  72.3664932  17.4237959
  22.4662189  72.8269973  18.4392012  22.7860710  72.2383033  18.0319077
  31.5081016  62.9171783   9.0799360  32.2107369  62.7179531   8.6019318
  31.2425205  62.1447725   9.3868204  31.5727648  62.7734749   9.0544802
  36.9369261  71.2254392  11.6332986  36.8503236  71.3809818  12.4867765
  36.4819741  71.8692468  11.2592391  36.8572518  71.3430147  11.7040093
  19.8392753  66.5950871   8.3692936  19.9408890  67.3977032   8.6973911
  20.6348640  66.3938207   8.0716016  19.9720659  66.6836770   8.3728291
  26.2709572  64.1807068  18.1330241  26.0792769  64.1962202  18.9829664
  27.1208168  64.3770742  18.1096896  26.3685294  64.2121419  18.2553536
  20.6556485  66.7098049  16.1114057  20.5141977  65.8581990  16.2358565
  20.9397049  66.7526710  15.2876263  20.6764331  66.5897799  16.0081681
  30.8095078  68.5465139  10.2558546  30.5629792  68.4660890  11.0895334
  31.1380201  67.7618607  10.0621073  30.8216321  68.4191405  10.3506069
  34.7043126  75.2548499  14.0445327  34.5657486  75.9529545  14.5494069
  33.9243124  75.0997155  13.6881509  34.5686353  75.3348665  14.0671601
  33.0421212  71.5544874  20.2967708  33.0369250  70.6824691  20.3010135
  33.7482205  71.7533043  19.8237164  33.1466216  71.4548748  20.2274744
  26.7692105  71.2821858  19.6681529  26.9135481  71.8623066  19.0324639
  27.1167753  71.6598155  20.3731383  26.8419566  71.4242562  19.6780524
  28.9412022  70.4812026  17.4506660  28.1935336  70.6743041  17.0454938
  29.0953547  69.6557246  17.2130781  28.8534450  70.3877138  17.3552066
  29.1813799  64.3762577  18.3402064  29.6386413  65.1086551  18.4674856
  29.2570128  63.9529042  19.0989320  29.2604769  64.4219815  18.4703140
  21.4246790  64.6228397  19.4291508  20.8888980  64.0108755  19.7452275
  21.4864555  65.1976533  20.0825174  21.3542423  64.6175325  19.5726934
  33.6541125  57.5552452  12.2095907  33.7724693  58.0128916  11.4763210
  33.4803301  56.7497714  11.9232124  33.6460296  57.5046224  12.0596841
  27.0596177  66.3664681  15.1843888  26.2692252  66.1856141  15.5061224
  27.4556800  65.5891634  15.1674182  27.0013053  66.2252142  15.2296436
  32.4439863  74.0007111  12.9103334  31.7684865  73.7692343  13.4116721
  32.4532240  73.3928294  12.2845439  32.3458368  73.8766036  12.8919486
  29.5734007  68.8424940  19.6667387  29.5093149  69.7034897  19.5387524
  29.7131195  68.5256933  18.8662938  29.5849477  68.9225107  19.5295600
  28.2553101  71.5357080  13.8083590  27.8315350  71.7361579  13.0722608
  28.0797956  70.6885927  13.9207890  28.1663982  71.4405861  13.7157280
  23.5435546  72.0309131   9.2411562  23.7000165  71.9655934  10.0967554
  23.8836139  72.8057684   9.0290242  23.6168781  72.1358329   9.3366156
  30.0814691  71.4067015   8.1104926  30.6230236  70.9037396   8.5743546
  30.3961250  71.3532209   7.2994411  30.2079088  71.3246435   8.0588738
  33.9531798  75.6169662  25.2231838  34.7666664  75.3454811  25.3836970
  33.7926765  75.3177202  24.4192034  34.0501747  75.5324588  25.1277244
  31.2303960  66.3003319  18.1627226  31.4445930  65.6614233  17.6090580
  30.6137859  66.7449143  17.7335088  31.1709290  66.2713463  18.0177657
  20.1169808  69.2144081   9.5572329  20.4968773  69.6328626   8.8932597
  19.5425173  69.7957537   9.8641173  20.0881133  69.3621940   9.5049070
  33.3943048  67.9092384  19.1010533  32.5819730  67.6018275  19.1823706
  33.8532983  67.4291384  19.6653245  33.3423433  67.7928877  19.1965127
  30.6218689  59.4103255  13.1514569  29.7512247  59.3841976  13.1047878
  30.8759030  59.2380447  12.3340414  30.5312249  59.3813398  13.0234706
  30.4896556  69.3152456  23.8839235  30.9596187  69.9394572  24.2707109
  30.5358436  68.6469431  24.4432450  30.5664432  69.3087136  24.0239307
  27.6467829  61.4209483  14.6088039  27.1306318  60.7289675  14.7339618
  27.0861758  62.0880260  14.5550638  27.4874343  61.4172741  14.6194105
  29.7160063  61.9602443  16.4380892  29.3291816  61.9851475  17.2194422
  29.2293000  61.3944122  15.9855408  29.5872572  61.8798194  16.4868795
  33.9653042  76.6775952  20.4954678  34.6032763  76.1836148  20.1617134
  33.3227134  76.6053353  19.9106905  33.9647269  76.5934961  20.3597033
  35.6910042  68.5265098  15.0620594  35.2637650  68.4391447  14.3068693
  35.0536095  68.6342874  15.6475438  35.5339650  68.5297758  15.0366035
  29.3817205  58.8469429  18.7291152  30.0110323  59.3829729  18.4512222
  29.5503067  58.7546788  19.5804717  29.4994999  58.9130791  18.8139680
  29.1831119  63.6340623  21.0017563  30.0104549  63.3625772  21.0576178
  29.2038966  64.4301465  21.3581381  29.3083970  63.7120378  21.0632746
  34.0207299  77.3695760  17.1360035  34.8099677  77.0184825  17.2562117
  34.1950897  78.1832149  16.8736669  34.1627581  77.4381618  17.1147903
  23.7600609  70.7804486  14.1887824  22.9188616  70.6808360  14.3966718
  23.9690617  71.5499966  14.5402145  23.6665302  70.8796530  14.2715139
  21.2376176  68.4024023  12.0172575  20.8432874  68.4767035  11.2422684
  20.6816293  68.7881969  12.5680936  21.0978989  68.4705798  11.9840234
  32.8741123  61.3805317  11.6976453  33.0790716  61.3127625  12.5433451
  32.5467547  62.1864138  11.6297631  32.8556371  61.4891258  11.8136109
  27.5717274  68.7085885  13.4385421  27.2680412  68.1541874  14.0395829
  26.8696695  68.8878095  12.9513456  27.4233484  68.6530668  13.4555127
  26.6283371  66.0186405   8.0030123  26.9043106  65.3005318   7.5907691
  27.2282041  66.6171325   7.7951229  26.7576636  66.0006776   7.9110884
  36.1274811  61.9337081  11.1779219  35.5149124  62.4207484  11.5632951
  36.2238986  61.2580572  11.7216870  36.0512708  61.9055390  11.3158077
  30.1293892  63.6899923   6.2776718  30.5837638  63.8610483   7.0024563
  30.6033938  63.0768033   5.8774494  30.2662212  63.6250808   6.3250480
  23.6509417  73.1748248  15.6079457  23.0597350  73.8157747  15.5782472
  24.4130441  73.5985866  15.5810756  23.6757678  73.3324087  15.5994604
  24.0470040  64.3350246  16.2747474  24.5071522  64.4089176  17.0122598
  24.0926147  65.1331500  15.9247296  24.1220595  64.4644393  16.3320231
  25.6953390  65.0016941  20.8419501  25.3038955  64.3550288  21.2775279
  25.8639252  65.5928376  21.4613757  25.6624300  64.9931209  20.9982207
  39.7699839  73.0054018  16.6056735  39.8282962  73.4540667  17.3516712
  39.1366306  73.4152831  16.1686815  39.6851134  73.1327753  16.6509283
  27.4706912  70.3942457   7.3821725  28.2148957  70.7816733   7.6204675
  27.6167608  69.5499882   7.5462213  27.6017497  70.3272930   7.4415695
  29.3886487  62.1892716  12.4153587  28.5422532  62.3615524  12.2894937
  29.3857620  61.3842060  12.7519415  29.2633637  62.0953745  12.4464714
  30.4584788  65.9667930  13.2815645  29.9844742  65.4409692  13.7920956
  30.8302923  65.4197403  12.7130506  30.4434677  65.8083927  13.2730792
  20.8357818  67.9639437  18.6499191  21.6983431  67.8635146  18.5636520
  20.5049601  67.3834146  18.0884763  20.9143014  67.8631064  18.5544596
  36.7221518  71.0270306  14.6922425  36.4819741  70.1876721  14.6964852
  37.2013525  71.1070473  15.4163199  36.7573702  70.9151706  14.7997228
  32.3868287  66.8604485   6.3441399  31.8591306  66.9433229   5.6547107
  32.8463995  67.6022356   6.3406043  32.3770138  66.9825147   6.2416094
  38.7226705  67.8071763  12.6451684  38.4836475  67.7667597  11.8072469
  38.8860606  68.6542915  12.7717406  38.7117009  67.9263848  12.5405166
  35.3272735  72.1921712  18.5756730  36.0506934  71.7394239  18.3967750
  35.0622698  72.4726378  17.7929057  35.3954009  72.1672681  18.4335445
  24.1959604  66.7881886  15.3109609  23.5712674  66.8000278  14.7035561
  23.8605199  67.2642061  15.9600849  24.0545096  66.8600403  15.3166177
  31.1091525  72.2905591  16.7251745  30.4948518  71.7463641  17.0200380
  31.6258810  71.7769827  16.2457561  31.0947187  72.1342000  16.6975973
  30.3487822  73.3609861  14.4596043  29.9215430  72.7359579  14.0261479
  30.3412766  73.0784783  15.2855051  30.2846963  73.2262641  14.5175871
  23.4650349  68.3975034  17.5284477  23.6243836  67.6418358  17.9336199
  23.2843243  68.9465973  18.1825215  23.4615708  68.3668847  17.6847183
  31.4070652  60.5636269  18.0835267  30.9111213  60.7599943  17.3926833
  32.1639714  60.9628938  17.9124068  31.4457477  60.6514003  17.9555403
  28.6773532  64.2378615  14.6738577  28.7016019  63.7038727  13.9851357
  28.9285005  63.7295924  15.3364168  28.7183450  64.0839519  14.6703222
  24.9574854  62.9649433  14.0544322  24.9973226  63.4658640  14.7679029
  24.1324519  63.0559827  13.7850245  24.8414380  63.0531250  14.1194860
  27.1404467  72.5310173  22.1564616  26.2900097  72.6681888  22.2922261
  27.3032595  71.7973952  22.6012318  27.0388330  72.4424275  22.2420215
  26.3789217  69.4809943  16.3518221  25.5481147  69.6483761  16.1453469
  26.3240734  69.1045894  17.1367106  26.2478632  69.4499675  16.4366749
  24.1873001  62.9718836  21.9874631  24.8125704  62.4280969  22.2604064
  23.7323480  62.4913754  21.4182422  24.2121261  62.8208317  21.9436225
  24.7525261  67.7565535   6.8808338  24.8928222  68.2537999   7.5836980
  25.2507794  67.0551829   7.0222552  24.8466342  67.7267514   7.0059917
  37.7608049  71.1548123  17.0787279  38.3525890  71.7945374  17.1105477
  38.1967044  70.4571160  17.3679346  37.9126481  71.1466474  17.1268112
  26.3604466  64.5546621   4.1846357  26.6820307  64.0749704   3.5305619
  26.6231410  65.3646267   3.9937169  26.4470492  64.6036519   4.0601849
  29.5901439  75.5765496  17.7045173  29.0826530  76.1301342  18.1485804
  29.2928085  75.6373785  16.8863948  29.4706324  75.6671807  17.6493630
  31.7563621  63.9418815  16.5469836  32.1818693  63.4891342  15.9353363
  31.1420614  63.3878886  16.8234624  31.7292267  63.7932791  16.4974861
  30.1957844  60.4133915   9.9560413  29.5526162  60.2631561  10.5245552
  29.8557251  60.1676260   9.1909518  30.0502922  60.3546037   9.9263428
  34.7857191  68.3693342   9.3790422  34.1148381  68.9123044   9.2503487
  35.4796941  68.8388197   9.1372117  34.7886058  68.5191613   9.3245950
  34.9485318  64.8249225  12.2880795  35.3012928  64.3978948  12.9626594
  34.0900120  64.7400069  12.4181871  34.8734763  64.7493966  12.4075805
  23.6469003  67.4556745  10.3463642  22.9280992  67.8720878  10.6136505
  24.0181365  68.0210984   9.7955280  23.5960935  67.6006027  10.3046449
  32.9468584  68.0884594  16.2365637  32.9266511  67.9067889  17.0900416
  32.9947785  68.9596613  16.2125221  32.9503225  68.1901132  16.3588932
  30.8914914  74.6771786  22.1614114  30.8510769  74.0321463  21.5759270
  31.7038232  74.6208403  22.4739526  31.0058067  74.5730753  22.1211063
  29.4215578  66.4954745   5.6837021  28.8280417  66.8171742   5.1321588
  29.4590855  65.6495840   5.4758127  29.3389967  66.4179073   5.5719792
  36.3809378  59.9467637  13.2165108  35.8740243  59.2396777  13.1486285
  37.1776812  59.6160826  13.3466184  36.4236617  59.7940789  13.2264103
  32.2973394  66.4534250   9.1138771  32.0687087  66.4766951   8.2717129
  32.5571470  65.6291717   9.2333782  32.3019582  66.3350329   9.0063969
  26.5792623  68.3068723  18.7163871  26.0671526  67.6989906  19.0748903
  26.4072119  69.0225315  19.1837847  26.4782260  68.3232022  18.8380095
  21.4258337  66.7506298  21.3666233  21.2560928  67.4107673  20.8214440
  20.9824287  66.9612859  22.0878722  21.3357671  66.8792280  21.3927863
  25.3518157  64.9910796  10.4092967  25.8275523  65.3527876   9.7743148
  24.8506756  65.6467263  10.6893110  25.3483516  65.1404985  10.3569708
  30.4561693  66.2292967  21.1566127  31.0133123  66.0006777  20.5244592
  30.1322758  66.9898633  20.8801339  30.4908103  66.3076804  21.0222624
  18.3260402  69.6553163  16.6254723  17.7787121  68.9853809  16.7435591
  19.1152780  69.2883011  16.6898190  18.3612585  69.5018150  16.6523424
  28.1744810  69.3160621  22.1218134  28.9256137  69.6312297  22.4357688
  28.3667387  69.1139791  21.2952056  28.3136224  69.3328002  22.0461530
  27.3944810  67.1351996   3.7766351  27.7743775  67.1531625   2.9917466
  26.6537406  67.5805984   3.6557198  27.3413648  67.2033770   3.6429919
  35.0230100  65.4434187   9.3641930  35.0224327  65.2882843  10.2226206
  34.8186280  66.2897174   9.3083315  34.9929878  65.5454808   9.4829869
  17.0847371  68.8673971  13.7800746  16.9069132  68.4150580  14.5055662
  16.7966393  69.6700133  13.9639224  17.0160324  68.9196529  13.9144249
  32.7470952  70.1231689  13.0178136  33.2424618  69.4054684  12.9782157
  31.9370728  69.8202486  12.9032623  32.7014846  69.9729335  12.9951862
  34.8122771  72.8735376  15.7055265  35.2377843  72.3509798  15.1525690
  34.4479691  73.4716214  15.1843888  34.8209374  72.8845603  15.5464275
  31.4001371  76.5869640  12.0356423  31.8712549  77.3009903  12.2046408
  31.7361549  75.9868391  12.5716292  31.5196486  76.6041105  12.1388799
  33.4878355  78.1970954  24.2148495  33.5975321  77.4079514  24.5705242
  33.8169252  78.1076890  23.4122833  33.5530761  78.0676807  24.1490885
  28.3170866  61.3597111  18.9914517  28.4498771  60.5628104  19.3195493
  28.7016018  61.8863514  19.5712793  28.3927194  61.3197028  19.1258020
  32.0375317  76.3787575  18.7984115  31.4896263  75.7545458  18.5304181
  32.4988346  76.5681847  18.0828195  32.0242526  76.3146625  18.6534546
  31.3903221  58.2827437  15.5895611  30.5849184  58.1725167  15.9063449
  31.2609956  58.3839893  14.7325477  31.2523354  58.2811107  15.5103651
  34.8469181  64.4472929  16.1835308  34.2632170  64.9482135  15.7712875
  35.1673475  63.9402485  15.5499631  34.8082357  64.4464764  16.0293815
  27.3863980  63.3613524   6.4593982  28.2079675  63.5311837   6.2175677
  26.9233631  63.5160785   5.7360280  27.4395143  63.4095257   6.3165627
  25.9759312  61.3556286  17.2392411  26.5203725  61.0147413  17.8296753
  26.0296248  62.2141748  17.3813696  26.0648432  61.4311545  17.3474285
  31.6033643  77.3838647  15.3293457  32.4232017  77.2401613  15.5909752
  31.3227721  78.0084846  15.8709894  31.6830387  77.4548999  15.4481396
  37.7597893  79.4706186  24.4644582  37.4451334  80.2405748  24.2014145
  37.4387826  78.9076442  23.8796809  37.6656812  79.5016454  24.3385932
  44.4362679  78.0074567  18.4102100  45.1816271  77.8184377  17.9965526
  44.0199983  78.5332805  17.8515957  44.4847653  78.0576712  18.2666673
  37.2442156  79.6992376  18.1330241  37.0525353  79.7147510  18.9829664
  38.0940752  79.8956050  18.1096896  37.3417878  79.7306727  18.2553536
  40.1546383  79.8947885  18.3402064  40.6118997  80.6271859  18.4674856
  40.2302712  79.4714350  19.0989320  40.2337353  79.9405123  18.4703140
  38.6200413  76.9394791  14.6088039  38.1038902  76.2474983  14.7339618
  38.0594342  77.6065568  14.5550638  38.4606926  76.9358049  14.6194105
  40.6892646  77.4787751  16.4380892  40.3024400  77.5036783  17.2194422
  40.2025584  76.9129430  15.9855408  40.5605155  77.3983502  16.4868795
  40.3549788  74.3654737  18.7291152  40.9842906  74.9015037  18.4512222
  40.5235651  74.2732096  19.5804717  40.4727583  74.4316099  18.8139680
  40.1563703  79.1525931  21.0017563  40.9837132  78.8811080  21.0576178
  40.1771549  79.9486773  21.3581381  40.2816553  79.2305686  21.0632746
  42.3803236  76.0821577  18.0835267  41.8843797  76.2785251  17.3926833
  43.1372298  76.4814245  17.9124068  42.4190060  76.1699311  17.9555403
  35.9307437  78.4834741  14.0544322  35.9705809  78.9843948  14.7679029
  35.1057102  78.5745135  13.7850245  35.8146963  78.5716558  14.1194860
  35.1605584  78.4904144  21.9874631  35.7858288  77.9466277  22.2604064
  34.7056064  78.0099062  21.4182422  35.1853845  78.3393625  21.9436225
  42.7296205  79.4604123  16.5469836  43.1551276  79.0076650  15.9353363
  42.1153198  78.9064194  16.8234624  42.7024850  79.3118099  16.4974861
  39.2903449  76.8782419  18.9914517  39.4231355  76.0813412  19.3195493
  39.6748602  77.4048822  19.5712793  39.3659778  76.8382336  19.1258020
  42.3635804  73.8012745  15.5895611  41.5581768  73.6910475  15.9063449
  42.2342540  73.9025201  14.7325477  42.2255937  73.7996415  15.5103651
  36.9491896  76.8741594  17.2392411  37.4936309  76.5332721  17.8296753
  37.0028832  77.7327056  17.3813696  37.0381015  76.9496853  17.3474285
  22.3326352  36.2973191   9.5889766  23.0393119  35.8025222   9.7176701
  22.5214287  36.7382272   8.8592424  22.4654257  36.2891541   9.4998812
  19.4718646  39.7200727   7.4803842  19.5601992  39.5326868   8.3282052
  19.9008359  39.0738157   7.0808688  19.5480749  39.5963735   7.5475593
  17.0389106  39.0031887   6.4621504  16.4759941  38.5904497   6.9861165
  17.8010129  38.9284793   6.8814647  17.0683555  38.9309288   6.6014504
  13.6464004  31.2305495   8.1938549  13.8184508  31.1211390   9.0423830
  14.1833361  31.8759901   7.9569741  13.7509008  31.3097497   8.2843646
  19.5838705  39.1509746  10.1447625  20.3679122  39.2640594  10.5103367
  19.3835300  38.3250884  10.3406311  19.6704731  39.0456466  10.2282011
  19.7409099  41.0619848   3.7914081  18.9424345  40.8219349   4.0487949
  20.1895110  41.1134241   4.5381128  19.6883710  41.0342240   3.9399005
  18.8009836  34.8080293  11.6834269  18.0082816  35.1223805  11.8686889
  18.9158763  35.0231762  10.8455054  18.7005246  34.8864130  11.5872604
  19.7293628  34.7100497   6.6219566  20.3032490  34.0727741   6.7768130
  19.6508432  34.7104580   5.7529223  19.8026863  34.6165609   6.5165976
  25.0513776  36.0809475   6.6304419  24.8152414  35.2497540   6.5116479
  25.6957005  36.0295082   7.2159263  25.1108447  35.9507163   6.6990312
  15.5083550  25.3713701  11.3984629  15.1936991  26.1413264  11.1354192
  15.1873482  24.8083957  10.8136856  15.4142469  25.4023970  11.2725979
  26.0750197  35.8653924   2.6932713  25.7696014  36.5981980   3.0546029
  25.3556413  35.4591853   2.4125499  25.9237539  35.9135657   2.7045850
  31.7751989  32.5046924   2.0201058  31.7076489  32.5242883   1.1503644
  31.7607651  33.3477251   2.2456728  31.7630745  32.6320659   1.9253534
  16.2132997  35.1129908   4.8407545  15.7144691  35.8245675   4.9192434
  17.0233222  35.4330574   4.8025708  16.2589104  35.2656756   4.8464114
  15.1400055  27.9710952  10.1369844  14.3299831  28.2768732  10.0259686
  15.6174742  28.6916534  10.2522428  15.0903534  28.1225553  10.1376915
  23.4261367  36.6741322   0.9785374  23.2875726  37.3722368   1.4834116
  22.6461365  36.5189979   0.6221555  23.2904594  36.7541489   1.0011648
  21.7639452  32.9737697   7.2307755  21.7587490  32.1017514   7.2350182
  22.4700446  33.1725867   6.7577211  21.8684456  32.8741572   7.1614791
  15.4910345  32.7014681   6.6021575  15.6353721  33.2815889   5.9664685
  15.8385994  33.0790978   7.3071430  15.5637807  32.8435385   6.6120570
  14.5638100  40.8917453   3.4682602  14.7127664  40.3320369   2.8156007
  15.3438102  40.9709455   3.8515121  14.7012194  40.8203019   3.4279551
  17.0891401  41.0632096   4.7467093  17.0135072  40.3940907   5.3017881
  17.0181260  41.7649884   5.2607759  17.0672008  41.0677003   4.9043941
  16.4783035  44.4700416   3.2045094  16.9678965  43.7711205   3.0220758
  15.9067267  44.1724286   3.7921151  16.4667565  44.3226639   3.2646135
  22.6750039  37.0362485  12.1571885  23.4884904  36.7647634  12.3177017
  22.5145005  36.7370025  11.3532080  22.7719987  36.9517411  12.0617290
  22.1161289  29.3285207   6.0350580  21.3037970  29.0211098   6.1163753
  22.5751223  28.8484208   6.5993292  22.0641673  29.2121700   6.1305174
  19.2114796  30.7345279  10.8179282  19.6814427  31.3587395  11.2047156
  19.2576676  30.0662254  11.3772497  19.2882672  30.7279959  10.9579354
  22.6871283  38.0968775   7.4294725  23.3251003  37.6028971   7.0957181
  22.0445374  38.0246176   6.8446952  22.6865509  38.0127784   7.2937080
  22.7425539  38.7888584   4.0700082  23.5317917  38.4377648   4.1902163
  22.9169137  39.6024972   3.8076716  22.8845821  38.8574441   4.0487950
  14.3553866  37.3428429   5.0797566  14.2474220  37.3530491   5.9459624
  14.5649647  38.1683210   4.8902520  14.3703977  37.4669504   5.1801658
  28.4918079  34.4246841   3.5396782  28.5501203  34.8733490   4.2856758
  27.8584547  34.8345654   3.1026862  28.4069374  34.5520576   3.5849330
  22.1317174  40.0450383  -0.0248472  21.9336862  40.5341198  -0.7192261
  21.5104885  40.2491625   0.5535661  22.0104738  40.1466922  -0.0425249
  24.0490976  33.6114536   5.5096776  24.7725175  33.1587062   5.3307796
  23.7840938  33.8919201   4.7269104  24.1172249  33.5865504   5.3675492
  15.8622707  33.9502997   9.0904663  15.0118338  34.0874711   9.2262308
  16.0250835  33.2166775   9.5352365  15.7606571  33.8617098   9.1760262
  26.4826290  32.5740946   4.0127326  27.0744130  33.2138197   4.0445524
  26.9185284  31.8763983   4.3019393  26.6344721  32.5659297   4.0608159
  18.3119680  36.9958319   4.6385220  17.8044771  37.5494166   5.0825851
  18.0146326  37.0566609   3.8203995  18.1924564  37.0864630   4.5833677
  17.5562165  41.9282877   1.5442227  17.3327819  41.1701706   1.9126253
  17.0672008  41.9580898   0.8222667  17.4505614  41.8205102   1.4918968
  19.6133154  36.0964609   9.0954161  19.5729009  35.4514286   8.5099317
  20.4256472  36.0401227   9.4079573  19.7276308  35.9923576   9.0551110
  19.1779933  27.6485790   8.0906174  19.7351363  27.4199600   7.4584639
  18.8540998  28.4091456   7.8141386  19.2126343  27.7269627   7.9562671
  16.8963051  30.7353444   9.0558181  17.6474377  31.0505121   9.3697735
  17.0885627  30.5332615   8.2292103  17.0354465  30.7520826   8.9801577
  23.5341012  34.2928199   2.6395312  23.9596083  33.7702621   2.0865737
  23.1697931  34.8909037   2.1183935  23.5427614  34.3038426   2.4804322
  13.1695091  42.5892417   1.3992658  13.4841650  43.4028805   1.4070439
  13.5788505  42.2042636   2.0674817  13.2763189  42.6521119   1.4996749
  22.2096596  39.6163777  11.1488542  22.3193561  38.8272338  11.5045289
  22.5387492  39.5269713  10.3462880  22.2749001  39.4869630  11.0830932
  20.7593557  37.7980398   5.7324162  20.2114503  37.1738281   5.4644227
  21.2206586  37.9874670   5.0168242  20.7460767  37.7339448   5.5874593
  20.3251884  38.8031470   2.2633503  21.1450257  38.6594437   2.5249799
  20.0445961  39.4277669   2.8049941  20.4048627  38.8741823   2.3821443
  36.7965534  46.4596322  -4.7723620  36.7659538  47.3140959  -4.6005351
  37.3946883  46.1591615  -4.2137477  36.8802692  46.5412819  -4.6648818
  29.9965219  45.5471973  -0.0170690  29.1403114  45.7080471   0.0338427
  30.0432873  44.6764037   0.0034371  29.8764330  45.4422775  -0.0064624
  33.3058935  51.8158499   9.5889766  34.0125703  51.3210530   9.7176701
  33.4946871  52.2567580   8.8592424  33.4386841  51.8076849   9.4998812
  32.8417040  47.6064017   2.6260962  33.3873000  48.2849104   2.6854931
  32.7833916  47.4651478   1.7662543  32.9132954  47.6856019   2.5073022
  25.9591115  55.0953083  -1.9870686  26.0601478  54.2853437  -1.6773558
  25.3632860  55.0010030  -2.6171007  25.8863653  54.9618111  -2.0344447
  25.7991854  60.0130672  -0.5855830  26.4429310  60.4543836  -0.1959671
  26.1248110  59.2084099  -0.6725571  25.9423683  59.9595867  -0.5410352
  21.4546246  43.2859100   0.5365956  20.8351278  42.6951748   0.3675970
  21.3530110  43.8770536  -0.0969721  21.3483922  43.2863183   0.4170945
  28.5514142  45.0258642  -5.1301581  29.2494307  45.2046770  -4.6380118
  28.8666475  44.5028982  -5.7531192  28.7009479  44.9752414  -5.1499571
  21.1815379  46.8311382   2.7809525  21.0574076  47.4173828   3.4159343
  21.8333664  46.3371578   3.0821800  21.2589029  46.8450187   2.9195454
  28.7402077  51.4129087  -5.1421790  29.1795713  50.8046188  -4.6967017
  28.5906740  51.0336461  -5.9136325  28.7823543  51.2667558  -5.1902622
  26.2073720  50.0073099   2.0597036  26.8522723  49.5145542   1.7407984
  26.4475498  50.1497886   2.8863114  26.3384306  49.9550541   2.1346569
  28.7459812  52.8528005   1.7103928  29.0283055  52.0579411   1.4890684
  29.4745972  53.3308592   1.7308989  28.8949376  52.8062602   1.6806943
  26.7241006  40.3951039  -1.0480307  26.3944336  40.8462182  -1.7176608
  26.0486007  40.3167202  -0.5007300  26.5751442  40.4502174  -1.0657083
  33.9317413  36.3836562  -2.8030696  33.6170854  37.0740040  -2.3710274
  33.4144355  36.3281344  -3.5045195  33.8081884  36.4771450  -2.8433747
  38.7277900  51.9587367  -1.3160241  37.8975603  52.1698011  -1.1526824
  38.6787152  51.1324422  -1.5917957  38.5984636  51.8676973  -1.3322876
  26.7887638  54.7891221   1.5187668  26.2714579  54.4298636   0.9148977
  27.4862029  54.2653396   1.5293735  26.8153219  54.6588909   1.4317927
  30.4451230  55.2386035   7.4803842  30.5334576  55.0512176   8.3282052
  30.8740942  54.5923465   7.0808688  30.5213332  55.1149043   7.5475593
  28.0121689  54.5217195   6.4621504  27.4492524  54.1089805   6.9861165
  28.7742713  54.4470101   6.8814647  28.0416138  54.4494596   6.6014504
  23.5717681  56.5115216  -0.9341866  24.2738260  55.9967206  -0.8769110
  23.4915164  56.8389368  -0.1294991  23.6641441  56.4829443  -0.8069074
  38.2231858  44.6057768   2.4790180  37.3860280  44.6759955   2.7137775
  38.1920089  44.6082263   1.6064483  38.0950141  44.6167995   2.3849728
  24.6196588  46.7490803   8.1938549  24.7917091  46.6396698   9.0423830
  25.1565945  47.3945209   7.9569741  24.7241591  46.8282805   8.2843646
  22.8968456  52.7021568  -1.4256258  23.7357356  52.9344501  -1.3782497
  22.9280226  51.8325880  -1.4949223  23.0250174  52.6078515  -1.4291613
  23.5221159  53.1222444   2.8757047  24.0619384  52.9793575   3.5460420
  22.8391106  53.5219194   3.2441074  23.5013313  53.1602115   3.0291469
  32.9462044  48.8013444  -1.9297928  33.7019559  49.2344959  -1.8909019
  33.0524369  48.1518214  -1.3563292  33.0732215  48.7690928  -1.8399903
  35.9842215  52.6286722  -1.1795525  35.5477447  52.6323464  -0.4236554
  35.6505131  53.3092221  -1.6115948  35.8704835  52.7299177  -1.1314693
  18.9258304  49.3422734   3.0291469  18.6596720  48.5261851   3.1882459
  18.9396869  49.3875890   2.1586984  18.8883027  49.2279639   2.9244951
  35.9039698  39.6700549   1.0633903  36.5465607  39.7398654   1.6495818
  36.1562719  39.0029772   0.5613445  36.0361830  39.5826898   1.0761182
  23.6756911  42.8801113   5.6758477  22.9828708  42.4098092   5.9219208
  24.2917238  42.6539417   6.2500184  23.6641441  42.7768245   5.7967629
  30.7141682  56.5805156   3.7914081  29.9156928  56.3404656   4.0487949
  31.1627694  56.6319549   4.5381128  30.6616294  56.5527548   3.9399005
  39.1186562  49.3467641  -2.2875888  39.7802996  48.7858310  -2.3879980
  38.4777974  48.8519672  -1.9623197  39.1215429  49.1904050  -2.2543548
  19.3351718  50.1281514   0.3103213  19.1527291  50.1028400  -0.5424495
  20.0701387  50.5980452   0.3492122  19.4165782  50.1942876   0.1901132
  35.4051392  50.3633024  -2.5463899  35.6406981  50.5078223  -3.3737049
  35.5540956  51.1275432  -2.1532386  35.4617196  50.4972078  -2.6100295
  22.3997470  46.8466517   6.8185322  23.1237442  46.8319547   7.3050217
  22.5013606  47.5561872   6.3207290  22.5215679  46.9491220   6.8164109
  29.7742419  50.3265601  11.6834269  28.9815400  50.6409113  11.8686889
  29.8891346  50.5417070  10.8455054  29.6737830  50.4049438  11.5872604
  32.4473738  47.0499592  -4.0270715  32.5420593  47.7888887  -3.5731090
  31.8232582  46.6217068  -3.5936151  32.3682768  47.0960913  -3.8962568
  30.7026212  50.2285805   6.6219566  31.2765074  49.5913049   6.7768130
  30.6241016  50.2289888   5.7529223  30.7759447  50.1350916   6.5165976
  19.3022628  47.0075015   0.4602280  19.8796131  46.8711465   1.0994525
  18.6036690  46.5510799   0.7147864  19.2843650  46.9197281   0.5924569
  26.0589931  48.6609070  -1.3259237  25.8009175  47.8280805  -1.3527938
  26.1138413  48.8866683  -2.1666737  26.0289708  48.5706841  -1.4539100
  31.1390981  40.7637521  -1.2255144  30.4347308  40.2746706  -1.0671225
  31.1875955  40.7759995  -2.0966700  31.0421032  40.6927169  -1.3315805
  25.0324643  46.2146833  -0.8394342  24.4574234  46.3739001  -0.2030381
  24.6560319  45.5782242  -1.3025892  24.8927455  46.1444646  -0.8139784
  28.6997931  44.6870182   4.0198036  28.3112364  44.2624400   3.3650227
  28.0352630  44.9352332   4.5275063  28.5444859  44.6608903   3.9985904
  38.3421201  44.4445187  -3.2054134  38.0857765  43.6325128  -3.3956251
  39.1850515  44.4522754  -3.4323946  38.4287226  44.3257184  -3.2669317
  32.5224293  38.3844811   1.5322020  32.9034805  37.7022982   1.9189895
  31.7187577  38.0954413   1.3497685  32.4600755  38.2411859   1.5626076
  36.0246360  51.5994783   6.6304419  35.7884997  50.7682847   6.5116479
  36.6689589  51.5480390   7.2159263  36.0841031  51.4692471   6.6990312
  25.6744778  52.3890304  -2.6552845  26.3118725  52.1502052  -2.1101051
  26.0999850  52.5927463  -3.3899684  25.8320944  52.3841314  -2.6835687
  20.3657420  54.6278641   1.2281459  20.4061566  54.8993492   0.4001239
  20.9251944  55.1520549   1.6439247  20.4540766  54.7454396   1.1673347
  26.4816133  40.8899009  11.3984629  26.1669574  41.6598572  11.1354192
  26.1606066  40.3269265  10.8136856  26.3875052  40.9209278  11.2725979
  37.0482780  51.3839231   2.6932713  36.7428598  52.1167288   3.0546029
  36.3288996  50.9777161   2.4125499  36.8970123  51.4320964   2.7045850
  28.0566250  52.8662727  -0.9759059  28.1305258  52.7037898  -0.1217209
  28.8735756  53.0552916  -1.2198577  28.1882609  52.8699469  -0.8861033
  42.7484573  48.0232232   2.0201058  42.6809073  48.0428191   1.1503644
  42.7340235  48.8662559   2.2456728  42.7363329  48.1505967   1.9253534
  33.1580919  39.4267390   5.3442147  33.9034511  39.2377200   4.9305572
  32.7418224  39.9525628   4.7856003  33.2065893  39.4769535   5.2006720
  40.5343190  46.7976618   0.2947652  41.0851112  46.1644687   0.5344744
  40.5187305  47.3292011   0.9863156  40.6128386  46.7825566   0.4326510
  27.1865581  50.6315216   4.8407545  26.6877274  51.3430983   4.9192434
  27.9965805  50.9515882   4.8025708  27.2321688  50.7842064   4.8464114
  23.4493698  49.8938169  -0.9129734  23.1606947  49.2675640  -0.3784006
  24.3177046  49.8358456  -0.8465053  23.5353950  49.7925713  -0.8238779
  34.2371596  45.0372952  -0.5947752  33.8936362  44.3163287  -0.2440502
  34.3364639  44.8286803  -1.4369394  34.2013639  44.8997155  -0.6676072
  26.1132639  43.4896260  10.1369844  25.3032415  43.7954040  10.0259686
  26.5907326  44.2101842  10.2522428  26.0636118  43.6410861  10.1376915
  24.9724198  52.7041981   0.3852747  24.4504952  52.8442273   1.0704611
  25.3598219  51.9452645   0.5754864  24.9527899  52.6127505   0.5153823
  26.3990524  49.7346000  -4.2165762  26.2033307  50.3420735  -4.8105459
  26.6224870  49.0413944  -4.6974088  26.4025165  49.7223526  -4.3749681
  24.7969054  46.6200738  -4.0984894  25.5191706  46.7841896  -4.5581088
  24.3177047  47.3410403  -4.2045554  24.8332785  46.7498968  -4.1819280
  32.7562562  42.9564537   1.2811791  31.9173662  42.9825816   1.0450054
  32.8266929  43.6035272   1.8617138  32.6430955  43.0560663   1.3320908
  22.4476671  49.0258810   5.0069246  22.9597768  49.3043064   4.3578006
  22.1613013  49.7648104   5.3732059  22.4811534  49.1761164   4.9659124
  31.2031840  39.8549914  -3.9860593  31.9058193  39.6557662  -4.4640635
  30.9376029  39.0825856  -3.6791750  31.2678472  39.7112880  -4.0115151
  36.6320085  48.1632524  -1.4326967  36.5454060  48.3187950  -0.5792188
  36.1770565  48.8070599  -1.8067562  36.5523342  48.2808279  -1.3619860
  25.9660396  41.1185199   5.0670288  25.7743593  41.1340333   5.9169711
  26.8158992  41.3148873   5.0436942  26.0636118  41.1499550   5.1893582
  20.3507309  43.6476180   3.0454104  20.2092801  42.7960121   3.1698612
  20.6347872  43.6904841   2.2216310  20.3715155  43.5275930   2.9421728
  30.5045901  45.4843271  -2.8101408  30.2580616  45.4039022  -1.9764619
  30.8331025  44.6996738  -3.0038880  30.5167145  45.3569536  -2.7153885
  34.3993950  52.1926630   0.9785374  34.2608310  52.8907676   1.4834116
  33.6193948  52.0375286   0.6221555  34.2637177  52.2726797   1.0011648
  32.7372035  48.4923005   7.2307755  32.7320074  47.6202822   7.2350182
  33.4433029  48.6911174   6.7577211  32.8417039  48.3926880   7.1614791
  26.4642929  48.2199989   6.6021575  26.6086304  48.8001197   5.9664685
  26.8118577  48.5976286   7.3071430  26.5370390  48.3620693   6.6120570
  28.6362846  47.4190158   4.3846707  27.8886160  47.6121172   3.9794985
  28.7904371  46.5935377   4.1470828  28.5485274  47.3255269   4.2892113
  25.5370684  56.4102761   3.4682602  25.6860247  55.8505677   2.8156007
  26.3170686  56.4894763   3.8515121  25.6744777  56.3388327   3.4279551
  28.0623984  56.5817404   4.7467093  27.9867655  55.9126214   5.3017881
  27.9913844  57.2835192   5.2607759  28.0404591  56.5862311   4.9043941
  28.8764623  41.3140708   5.2742111  29.3337237  42.0464683   5.4014903
  28.9520952  40.8907174   6.0329367  28.9555593  41.3597946   5.4043187
  21.1197614  41.5606528   6.3631554  20.5839804  40.9486886   6.6792322
  21.1815379  42.1354664   7.0165221  21.0493247  41.5553456   6.5066981
  33.3491949  34.4930584  -0.8564046  33.4675517  34.9507047  -1.5896744
  33.1754125  33.6875845  -1.1427829  33.3411120  34.4424356  -1.0063113
  26.7547001  43.3042812   2.1183935  25.9643076  43.1234272   2.4401271
  27.1507624  42.5269765   2.1014229  26.6963877  43.1630273   2.1636483
  32.1390687  50.9385242  -0.1556619  31.4635689  50.7070475   0.3456768
  32.1483063  50.3306425  -0.7814514  32.0409192  50.8144168  -0.1740467
  29.2684831  45.7803071   6.6007434  29.2043973  46.6413028   6.4727570
  29.4082019  45.4635065   5.8002985  29.2800301  45.8603238   6.4635647
  27.9503925  48.4735211   0.7423637  27.5266174  48.6739710   0.0062655
  27.7748780  47.6264059   0.8547936  27.8614806  48.3783992   0.6497327
  27.4515619  59.9885724   3.2045094  27.9411549  59.2896513   3.0220758
  26.8799851  59.6909594   3.7921151  27.4400149  59.8411947   3.2646135
  23.2386370  48.9687262  -3.8248391  23.3950989  48.9034065  -2.9692399
  23.5786963  49.7435815  -4.0369711  23.3119605  49.0736460  -3.7293797
  29.7765515  48.3445146  -4.9555028  30.3181060  47.8415527  -4.4916407
  30.0912074  48.2910340  -5.7665542  29.9029912  48.2624567  -5.0071216
  33.6482622  52.5547793  12.1571885  34.4617488  52.2832942  12.3177017
  33.4877589  52.2555333  11.3532080  33.7452571  52.4702719  12.0617290
  30.9254784  43.2381450   5.0967273  31.1396754  42.5992364   4.5430627
  30.3088683  43.6827274   4.6675135  30.8660113  43.2091594   4.9517704
  19.8120632  46.1522213  -3.5087624  20.1919597  46.5706758  -4.1727356
  19.2375996  46.7335668  -3.2018780  19.7831957  46.3000071  -3.5610883
  33.0893872  44.8470515   6.0350580  32.2770554  44.5396406   6.1163753
  33.5483807  44.3669516   6.5993292  33.0374257  44.7307008   6.1305174
  30.3169513  36.3481386   0.0854616  29.4463071  36.3220107   0.0387925
  30.5709854  36.1758578  -0.7319539  30.2263073  36.3191530  -0.0425248
  30.1847380  46.2530587  10.8179282  30.6547011  46.8772703  11.2047156
  30.2309260  45.5847562  11.3772497  30.2615256  46.2465267  10.9579354
  27.3418653  38.3587614   1.5428086  26.8257142  37.6667806   1.6679665
  26.7812582  39.0258391   1.4890685  27.1825167  38.3550872   1.5534152
  29.4110887  38.8980574   3.3720939  29.0242640  38.9229606   4.1534468
  28.9243824  38.3322253   2.9195455  29.2823396  38.8176325   3.4208842
  33.6603866  53.6154083   7.4294725  34.2983587  53.1214279   7.0957181
  33.0177958  53.5431484   6.8446952  33.6598093  53.5313092   7.2937080
  35.3860866  45.4643229   1.9960641  34.9588474  45.3769578   1.2408740
  34.7486919  45.5721005   2.5815485  35.2290474  45.4675889   1.9706082
  29.0768029  35.7847560   5.6631198  29.7061146  36.3207860   5.3852269
  29.2453891  35.6924919   6.5144764  29.1945823  35.8508922   5.7479727
  28.8781943  40.5718755   7.9357610  29.7055373  40.3003903   7.9916224
  28.8989789  41.3679596   8.2921428  29.0034793  40.6498509   7.9972793
  33.7158123  54.3073892   4.0700082  34.5050501  53.9562956   4.1902163
  33.8901721  55.1210280   3.8076716  33.8578404  54.3759749   4.0487950
  23.4551433  47.7182617   1.1227871  22.6139440  47.6186492   1.3306765
  23.6641441  48.4878098   1.4742191  23.3616126  47.8174661   1.2055186
  20.9327000  45.3402154  -1.0487379  20.5383698  45.4145166  -1.8237269
  20.3767117  45.7260101  -0.4979017  20.7929813  45.4083929  -1.0819719
  32.5691947  38.3183448  -1.3683500  32.7741540  38.2505756  -0.5226503
  32.2418371  39.1242270  -1.4362322  32.5507195  38.4269389  -1.2523845
  27.2668098  45.6464017   0.3725468  26.9631236  45.0920005   0.9735876
  26.5647519  45.8256227  -0.1146498  27.1184308  45.5908799   0.3895174
  25.3286449  52.8613737   5.0797566  25.2206804  52.8715799   5.9459624
  25.5382231  53.6868518   4.8902520  25.3436560  52.9854812   5.1801658
  35.8225635  38.8715213  -1.8880734  35.2099948  39.3585615  -1.5027002
  35.9189810  38.1958703  -1.3443083  35.7463532  38.8433521  -1.7501876
  23.3460241  50.1126380   2.5419504  22.7548174  50.7535878   2.5122519
  24.1081265  50.5363997   2.5150803  23.3708502  50.2702218   2.5334651
  23.7420864  41.2728377   3.2087521  24.2022345  41.3467307   3.9462645
  23.7876971  42.0709631   2.8587343  23.8171419  41.4022524   3.2660278
  25.3904214  41.9395072   7.7759548  24.9989779  41.2928419   8.2115326
  25.5590076  42.5306508   8.3953804  25.3575124  41.9309340   7.9322254
  39.4650663  49.9432149   3.5396782  39.5233786  50.3918798   4.2856758
  38.8317130  50.3530962   3.1026862  39.3801958  50.0705884   3.5849330
  33.1049757  55.5635691  -0.0248472  32.9069446  56.0526506  -0.7192261
  32.4837468  55.7676933   0.5535661  32.9837322  55.6652229  -0.0425249
  27.1657736  47.3320588  -5.6838228  27.9099781  47.7194864  -5.4455278
  27.3118432  46.4878013  -5.5197740  27.2968321  47.2651061  -5.6244258
  29.0837311  39.1270847  -0.6506366  28.2373356  39.2993655  -0.7765016
  29.0808444  38.3220191  -0.3140538  28.9584461  39.0331876  -0.6195239
  30.1535612  42.9046061   0.2155692  29.6795566  42.3787823   0.7261003
  30.5253747  42.3575534  -0.3529447  30.1385500  42.7462058   0.2070839
  20.5308642  44.9017568   5.5839237  21.3934255  44.8013277   5.4976567
  20.2000425  44.3212277   5.0224810  20.6093838  44.8009195   5.4884643
  36.4172342  47.9648437   1.6262472  36.1770565  47.1254852   1.6304899
  36.8964349  48.0448604   2.3503246  36.4524526  47.8529837   1.7337274
  38.4177529  44.7449894  -0.4208269  38.1787299  44.7045728  -1.2587484
  38.5811430  45.5921046  -0.2942548  38.4067833  44.8641979  -0.5254787
  35.0223559  49.1299844   5.5096776  35.7457758  48.6772370   5.3307796
  34.7573522  49.4104509   4.7269104  35.0904833  49.1050812   5.3675492
  23.8910428  43.7260017   2.2449656  23.2663498  43.7378409   1.6375608
  23.5556023  44.2020192   2.8940896  23.7495920  43.7978534   2.2506224
  20.6036103  51.7860477   3.6853420  20.0736028  51.0952916   3.7348395
  20.8761197  51.7770662   2.8566128  20.5660826  51.6827609   3.5700836
  30.8042349  49.2283722   3.6591792  30.1899342  48.6841772   3.9540427
  31.3209634  48.7147958   3.1797608  30.7898011  49.0720131   3.6316020
  30.0438646  50.2987992   1.3936090  29.6166254  49.6737710   0.9601526
  30.0363590  50.0162914   2.2195097  29.9797787  50.1640772   1.4515918
  23.1601173  45.3353165   4.4624524  23.3194660  44.5796489   4.8676246
  22.9794067  45.8844104   5.1165262  23.1566532  45.3046979   4.6187230
  31.1021476  37.5014400   5.0175314  30.6062037  37.6978075   4.3266880
  31.8590538  37.9007069   4.8464115  31.1408301  37.5892134   4.8895450
  28.3724356  41.1756746   1.6078624  28.3966843  40.6416859   0.9191404
  28.6235829  40.6674055   2.2704215  28.4134274  41.0217650   1.6043269
  24.6525678  39.9027565   0.9884368  24.6924049  40.4036771   1.7019076
  23.8275343  39.9937958   0.7190292  24.5365204  39.9909381   1.0534907
  26.8355291  49.4688305   9.0904663  25.9850921  49.6060019   9.2262308
  26.9983418  48.7352083   9.5352365  26.7339154  49.3802406   9.1760262
  26.0740041  46.4188074   3.2858267  25.2431971  46.5861892   3.0793516
  26.0191558  46.0424025   4.0707153  25.9429456  46.3877806   3.3706796
  23.8823825  39.9096967   8.9214678  24.5076528  39.3659100   9.1944110
  23.4274304  39.4291885   8.3522469  23.9072085  39.7586449   8.8776272
  37.4558873  48.0926254   4.0127326  38.0476714  48.7323505   4.0445524
  37.8917868  47.3949291   4.3019393  37.6077304  48.0844605   4.0608159
  29.2852263  52.5143627   4.6385220  28.7777354  53.0679474   5.0825851
  28.9878909  52.5751917   3.8203995  29.1657148  52.6049938   4.5833677
  31.4514445  40.8796946   3.4809883  31.8769517  40.4269473   2.8693409
  30.8371438  40.3257017   3.7574671  31.4243091  40.7310923   3.4314908
  34.4808015  45.3071473  -3.6869531  33.8099204  45.8501175  -3.8156466
  35.1747765  45.7766328  -3.9287837  34.4836882  45.4569744  -3.7414004
  28.5294748  57.4468185   1.5442227  28.3060403  56.6887014   1.9126253
  28.0404592  57.4766206   0.8222667  28.4238197  57.3390409   1.4918968
  34.6436142  41.7627357  -0.7779158  34.9963752  41.3357080  -0.1033359
  33.7850944  41.6778200  -0.6478082  34.5685587  41.6872097  -0.6584148
  23.3419827  44.3934876  -2.7196312  22.6231816  44.8099009  -2.4523448
  23.7132189  44.9589115  -3.2704673  23.2911759  44.5384158  -2.7613505
  32.6419408  45.0262725   3.1705684  32.6217335  44.8446020   4.0240463
  32.6898609  45.8974744   3.1465268  32.6454049  45.1279263   3.2928979
  30.5865738  51.6149917   9.0954161  30.5461593  50.9699594   8.5099317
  31.3989056  51.5586535   9.4079573  30.7008891  51.5108884   9.0551110
  27.1773205  57.6668643  -1.0020688  26.7633604  57.0042773  -1.3916847
  27.8620580  57.8146502  -1.5224994  27.2171577  57.5909301  -1.1364191
  30.5438499  56.8258728  -0.2497072  30.1454783  56.9360999  -1.0176252
  29.9289719  57.0340795   0.3329488  30.3937389  56.8732296  -0.2765772
  36.0760202  36.8845768   0.1505154  35.5691067  36.1774908   0.0826332
  36.8727636  36.5538957   0.2806231  36.1187441  36.7318920   0.1604149
  31.9924218  43.3912381  -3.9521182  31.7637911  43.4145082  -4.7942824
  32.2522294  42.5669848  -3.8326171  31.9970406  43.2728461  -4.0595984
  26.2743446  45.2446854   5.6503918  25.7622350  44.6368037   6.0088950
  26.1022943  45.9603446   6.1177894  26.1733083  45.2610153   5.7720142
  21.1209161  43.6884429   8.3006280  20.9511751  44.3485804   7.7554487
  20.6775111  43.8990990   9.0218769  21.0308495  43.8170411   8.3267910
  25.0468981  41.9288927  -2.6566986  25.5226347  42.2906007  -3.2916805
  24.5457580  42.5845395  -2.3766843  25.0434340  42.0783116  -2.7090245
  30.1512517  43.1671098   8.0906174  30.7083947  42.9384908   7.4584639
  29.8273582  43.9276764   7.8141386  30.1858927  43.2454935   7.9562671
  18.0211226  46.5931295   3.5594770  17.4737945  45.9231940   3.6775638
  18.8103604  46.2261142   3.6238237  18.0563409  46.4396281   3.5863471
  27.8695634  46.2538752   9.0558181  28.6206961  46.5690429   9.3697735
  28.0618211  46.0517923   8.2292103  28.0087048  46.2706133   8.9801577
  34.7180924  42.3812318  -3.7018024  34.7175151  42.2260975  -2.8433747
  34.5137104  43.2275305  -3.7576638  34.6880702  42.4832939  -3.5830084
  16.7798195  45.8052102   0.7140793  16.6019956  45.3528711   1.4395709
  16.4917217  46.6078264   0.8979271  16.7111148  45.8574660   0.8484296
  32.4421776  47.0609820  -0.0481817  32.9375442  46.3432815  -0.0877796
  31.6321552  46.7580617  -0.1627330  32.3965670  46.9107466  -0.0708091
  34.5073595  49.8113507   2.6395312  34.9328667  49.2887929   2.0865737
  34.1430515  50.4094345   2.1183935  34.5160198  49.8223734   2.4804322
  24.1427675  58.1077725   1.3992658  24.4574234  58.9214113   1.4070439
  24.5521088  57.7227943   2.0674817  24.2495773  58.1706427   1.4996749
  31.0952195  53.5247772  -1.0303530  31.5663373  54.2388034  -0.8613545
  31.4312373  52.9246522  -0.4943661  31.2147310  53.5419236  -0.9271155
  33.1829179  55.1349085  11.1488542  33.2926145  54.3457646  11.5045289
  33.5120076  55.0455021  10.3462880  33.2481585  55.0054938  11.0830932
  28.0121690  38.2975242   5.9254564  28.1449595  37.5006236   6.2535540
  28.3966842  38.8241645   6.5052840  28.0878018  38.2575159   6.0598067
  31.7326141  53.3165706   5.7324162  31.1847087  52.6923589   5.4644227
  32.1939170  53.5059978   5.0168242  31.7193350  53.2524756   5.5874593
  31.0854045  35.2205568   2.5235658  30.2800008  35.1103298   2.8403496
  30.9560780  35.3218024   1.6665523  30.9474178  35.2189238   2.4443698
  34.5420005  41.3851060   3.1175354  33.9582994  41.8860267   2.7052922
  34.8624299  40.8780616   2.4839678  34.5033181  41.3842895   2.9633862
  25.6710136  38.2934417   4.1732458  26.2154549  37.9525544   4.7636800
  25.7247072  39.1519879   4.3153743  25.7599256  38.3689677   4.2814331
  21.4840695  52.0550833   1.0471266  22.0885552  52.0146667   0.4185087
  21.2768008  52.9021985   1.0775322  21.5429592  52.1738836   0.9587382
  31.2984467  54.3216778   2.2633503  32.1182841  54.1779744   2.5249799
  31.0178545  54.9462977   2.8049941  31.3781211  54.3927130   2.3821443
  32.1547963  62.3496690   2.7809525  32.0306660  62.9359136   3.4159343
  32.8066248  61.8556886   3.0821800  32.2321612  62.3635494   2.9195454
  35.5929171  62.2676111   8.1938549  35.7649675  62.1582006   9.0423830
  36.1298529  62.9130517   7.9569741  35.6974175  62.3468113   8.2843646
  41.5303873  70.1880362  10.1447625  42.3144289  70.3011210  10.5103367
  41.3300467  69.3621499  10.3406311  41.6169898  70.0827082  10.2282011
  34.6489494  58.3986421   5.6758477  33.9561291  57.9283400   5.9219208
  35.2649822  58.1724725   6.2500184  34.6374024  58.2953553   5.7967629
  33.3730053  62.3651825   6.8185322  34.0970026  62.3504855   7.3050217
  33.4746190  63.0747180   6.3207290  33.4948262  62.4676528   6.8164109
  40.7475003  65.8450909  11.6834269  39.9547984  66.1594421  11.8686889
  40.8623930  66.0602378  10.8455054  40.6470413  65.9234746  11.5872604
  39.6730515  60.2055490   4.0198036  39.2844948  59.7809708   3.3650227
  39.0085213  60.4537640   4.5275063  39.5177443  60.1794211   3.9985904
  43.4956877  53.9030119   1.5322020  43.8767388  53.2208290   1.9189895
  42.6920161  53.6139721   1.3497685  43.4333338  53.7597167   1.5626076
  37.4548717  56.4084317  11.3984629  37.1402158  57.1783880  11.1354192
  37.1338650  55.8454573  10.8136856  37.3607636  56.4394586  11.2725979
  44.1313503  54.9452698   5.3442147  44.8767095  54.7562508   4.9305572
  43.7150807  55.4710936   4.7856003  44.1798477  54.9954843   5.2006720
  37.0865222  59.0081568  10.1369844  36.2764998  59.3139348  10.0259686
  37.5639909  59.7287150  10.2522428  37.0368701  59.1596169  10.1376915
  33.4209254  64.5444118   5.0069246  33.9330351  64.8228372   4.3578006
  33.1345597  65.2833412   5.3732059  33.4544117  64.6946472   4.9659124
  36.9392980  56.6370507   5.0670288  36.7476177  56.6525641   5.9169711
  37.7891576  56.8334181   5.0436942  37.0368702  56.6684858   5.1893582
  31.3239893  59.1661488   3.0454104  31.1825384  58.3145429   3.1698612
  31.6080456  59.2090149   2.2216310  31.3447739  59.0461238   2.9421728
  37.4375512  63.7385297   6.6021575  37.5818888  64.3186505   5.9664685
  37.7851161  64.1161594   7.3071430  37.5102974  63.8806001   6.6120570
  39.8497207  56.8326016   5.2742111  40.3069821  57.5649991   5.4014903
  39.9253535  56.4092482   6.0329367  39.9288177  56.8783254   5.4043187
  32.0930198  57.0791836   6.3631554  31.5572387  56.4672194   6.6792322
  32.1547963  57.6539972   7.0165221  32.0225831  57.0738764   6.5066981
  37.7279585  58.8228120   2.1183935  36.9375659  58.6419580   2.4401271
  38.1240207  58.0455073   2.1014229  37.6696461  58.6815581   2.1636483
  40.2417415  61.2988379   6.6007434  40.1776556  62.1598336   6.4727570
  40.3814603  60.9820373   5.8002985  40.2532885  61.3788546   6.4635647
  44.6215206  68.0733101  12.1571885  45.4350071  67.8018250  12.3177017
  44.4610172  67.7740641  11.3532080  44.7185154  67.9888027  12.0617290
  41.8987368  58.7566758   5.0967273  42.1129337  58.1177672   4.5430627
  41.2821267  59.2012582   4.6675135  41.8392697  58.7276902   4.9517704
  44.0626456  60.3655823   6.0350580  43.2503137  60.0581714   6.1163753
  44.5216390  59.8854823   6.5993292  44.0106841  60.2492316   6.1305174
  38.3151237  53.8772922   1.5428086  37.7989725  53.1853114   1.6679665
  37.7545166  54.5443699   1.4890685  38.1557750  53.8736180   1.5534152
  40.3843470  54.4165882   3.3720939  39.9975224  54.4414914   4.1534468
  39.8976408  53.8507561   2.9195455  40.2555979  54.3361633   3.4208842
  40.0500612  51.3032868   5.6631198  40.6793730  51.8393168   5.3852269
  40.2186475  51.2110227   6.5144764  40.1678407  51.3694230   5.7479727
  39.8514527  56.0904062   7.9357610  40.6787956  55.8189211   7.9916224
  39.8722373  56.8864904   8.2921428  39.9767377  56.1683817   7.9972793
  34.7153447  56.7913685   3.2087521  35.1754929  56.8652615   3.9462645
  34.7609554  57.5894939   2.8587343  34.7904003  56.9207832   3.2660278
  36.3636797  57.4580380   7.7759548  35.9722362  56.8113727   8.2115326
  36.5322660  58.0491815   8.3953804  36.3307708  57.4494648   7.9322254
  31.5041225  60.4202876   5.5839237  32.3666838  60.3198585   5.4976567
  31.1733008  59.8397585   5.0224810  31.5826422  60.3194503   5.4884643
  34.8643011  59.2445325   2.2449656  34.2396081  59.2563717   1.6375608
  34.5288606  59.7205500   2.8940896  34.7228503  59.3163842   2.2506224
  34.1333757  60.8538473   4.4624524  34.2927243  60.0981797   4.8676246
  33.9526650  61.4029412   5.1165262  34.1299116  60.8232287   4.6187230
  42.0754060  53.0199708   5.0175314  41.5794621  53.2163383   4.3266880
  42.8323122  53.4192377   4.8464115  42.1140884  53.1077442   4.8895450
  35.6258261  55.4212873   0.9884368  35.6656633  55.9222079   1.7019076
  34.8007926  55.5123266   0.7190292  35.5097787  55.5094689   1.0534907
  37.8087874  64.9873612   9.0904663  36.9583505  65.1245327   9.2262308
  37.9716002  64.2537391   9.5352365  37.7071738  64.8987714   9.1760262
  34.8556408  55.4282275   8.9214678  35.4809111  54.8844408   9.1944110
  34.4006888  54.9477193   8.3522469  34.8804669  55.2771757   8.8776272
  42.4247029  56.3982254   3.4809883  42.8502100  55.9454781   2.8693409
  41.8104022  55.8442325   3.7574671  42.3975674  56.2496231   3.4314908
  41.5598321  67.1335225   9.0954161  41.5194176  66.4884902   8.5099317
  42.3721640  67.0771843   9.4079573  41.6741475  67.0294192   9.0551110
  37.2476030  60.7632162   5.6503918  36.7354933  60.1553345   6.0088950
  37.0755526  61.4788754   6.1177894  37.1465667  60.7795461   5.7720142
  32.0941745  59.2069737   8.3006280  31.9244335  59.8671112   7.7554487
  31.6507695  59.4176298   9.0218769  32.0041078  59.3355719   8.3267910
  41.1245100  58.6856406   8.0906174  41.6816531  58.4570216   7.4584639
  40.8006165  59.4462072   7.8141386  41.1591511  58.7640243   7.9562671
  28.9943809  62.1116603   3.5594770  28.4470529  61.4417248   3.6775638
  29.7836187  61.7446450   3.6238237  29.0295993  61.9581589   3.5863471
  38.8428218  61.7724060   9.0558181  39.5939545  62.0875736   9.3697735
  39.0350794  61.5703231   8.2292103  38.9819632  61.7891441   8.9801577
  27.7530779  61.3237410   0.7140793  27.5752540  60.8714019   1.4395709
  27.4649801  62.1263572   0.8979271  27.6843732  61.3759968   0.8484296
  38.9854273  53.8160550   5.9254564  39.1182179  53.0191543   6.2535540
  39.3699426  54.3426953   6.5052840  39.0610602  53.7760467   6.0598067
  42.0586628  50.7390876   2.5235658  41.2532592  50.6288606   2.8403496
  41.9293364  50.8403332   1.6665523  41.9206761  50.7374546   2.4443698
  36.6442720  53.8119725   4.1732458  37.1887133  53.4710852   4.7636800
  36.6979656  54.6705187   4.3153743  36.7331839  53.8874984   4.2814331
  35.2879995  39.2054243  -4.8721404  35.4600499  39.0960137  -4.0236123
  35.8249353  39.8508648  -5.1090212  35.3924999  39.2846244  -4.7816308
  41.2254697  47.1258493  -2.9212328  42.0095113  47.2389341  -2.5556586
  41.0251291  46.2999631  -2.7253642  41.3120722  47.0205213  -2.8377942
  40.4425827  42.7829040  -1.3825684  39.6498808  43.0972552  -1.1973065
  40.5574754  42.9980509  -2.2204900  40.3421237  42.8612877  -1.4787350
  37.1499541  33.3462448  -1.6675324  36.8352982  34.1162011  -1.9305762
  36.8289473  32.7832704  -2.2523097  37.0558460  33.3772717  -1.7933974
  36.7816046  35.9459699  -2.9290110  35.9715822  36.2517479  -3.0400267
  37.2590733  36.6665281  -2.8137525  36.7319525  36.0974300  -2.9283038
  37.1326336  40.6763428  -6.4638378  37.2769712  41.2564636  -7.0995268
  37.4801985  41.0539725  -5.7588523  37.2053798  40.8184132  -6.4539383
  39.9368239  38.2366510  -6.4652519  39.8727380  39.0976467  -6.5932383
  40.0765427  37.9198504  -7.2656968  39.9483709  38.3166677  -6.6024307
  44.3166030  45.0111232  -0.9088069  45.1300895  44.7396381  -0.7482936
  44.1560996  44.7118772  -1.7127873  44.4135978  44.9266158  -1.0042663
  43.7577280  37.3033955  -7.0309373  42.9453961  36.9959845  -6.9496201
  44.2167214  36.8232955  -6.4666661  43.7057664  37.1870447  -6.9354779
  40.8530787  38.7094026  -2.2480671  41.3230418  39.3336142  -1.8612797
  40.8992667  38.0411001  -1.6887456  40.9298663  38.7028706  -2.1080600
  37.5038698  41.9251744  -3.9755290  36.6534329  42.0623458  -3.8397645
  37.6666826  41.1915522  -3.5307588  37.4022562  41.8365845  -3.8899691
  41.2549145  44.0713356  -3.9705793  41.2145000  43.4263033  -4.5560637
  42.0672464  44.0149974  -3.6580380  41.3692299  43.9672323  -4.0108843
  40.8195924  35.6234537  -4.9753779  41.3767354  35.3948347  -5.6075314
  40.4956989  36.3840203  -5.2518567  40.8542335  35.7018374  -5.1097282
  38.5379042  38.7102191  -4.0101772  39.2890369  39.0253868  -3.6962218
  38.7301618  38.5081362  -4.8367850  38.6770456  38.7269573  -4.0858376
  79.2004242  79.2004242  79.2004242 109.4712190 109.4712190 109.4712190
