default_name
 44044
  38.5453519  30.1448861  23.9775756  39.0315156  30.5903918  24.7426054
  38.2615302  30.8538210  23.3165485  39.0879277  29.3520532  23.6659236
  37.2536264  29.5595586  24.5169847  36.4118893  30.0182619  23.9981697
  37.1827884  28.0434823  24.3190563  37.1022676  27.8655514  23.2466962
  38.1222321  27.6300003  24.6859052  36.0020764  27.3605278  25.0440482
  36.2646588  27.3416435  26.1017791  35.1384264  28.0088601  24.8961426
  35.5737120  25.6313595  24.4872539  34.6587323  25.9772971  22.9768978
  35.3001281  26.5138416  22.2777337  34.3341242  25.0398430  22.5253338
  33.7869152  26.5880542  23.2114438  37.1159642  29.8521177  26.0347549
  36.0097140  30.0624852  26.5359336  37.9107131  32.3279018  27.5643025
  38.6946035  31.9375419  28.0675264  37.5874882  33.7476424  27.7699003
  37.7368422  34.0195094  28.8148313  38.5173911  34.6326827  26.8874597
  38.5564070  34.2258232  25.8769933  38.1279788  35.6502017  26.8540960
  39.7854659  34.6438991  27.4271202  40.3595039  35.1890666  26.8840986
  36.1711428  34.0958027  27.3655697  35.7478986  35.2529604  27.4583784
  35.4514429  33.1120401  26.8115986  35.7925087  32.1617546  26.8386352
  34.1516334  33.3653246  26.1880263  33.9852751  34.4391444  26.1023814
  34.1018360  32.7419506  24.7703627  34.8490561  33.2851245  24.1918099
  34.4239677  31.7087285  24.8999130  32.7417125  32.7699485  24.0161835
  32.8450101  32.1385973  23.1336723  31.9926848  32.3422414  24.6826093
  32.3086975  34.1571084  23.5955348  33.0900353  35.1086386  23.7816841
  31.1788848  34.2622552  23.0792021  33.0687890  32.6903368  27.0606782
  32.9819507  31.4278829  27.1266355  32.2940986  33.4886584  27.7753609
  32.4890955  34.4763908  27.8557366  31.1236322  32.9336752  28.5235126
  31.4699951  32.2229469  29.2738440  30.3466229  34.0637203  29.2353319
  30.0464819  34.7583184  28.4507633  29.4584658  33.6372581  29.7016012
  31.1743484  34.8155392  30.2982604  32.0364766  35.2814280  29.8209939
  30.2930567  35.9188906  30.9744338  29.4309161  35.4536858  31.4523426
  30.8825825  36.4466275  31.7241365  29.9512470  36.6255993  30.2182399
  31.7079881  33.8570804  31.3541304  32.3451389  33.1108853  30.8794395
  32.2876149  34.4133472  32.0908129  30.8737792  33.3598847  31.8490960
  30.1542647  32.1667017  27.6188998  29.8661403  32.6028203  26.5012890
  29.6615831  31.0300994  28.1343307  30.0902621  30.6283606  28.9558778
  28.5293655  30.3077775  27.5082769  28.6565566  30.2787969  26.4261116
  28.3944778  28.8486401  28.0324043  27.6092988  28.3445310  27.4689612
  29.7351347  28.0712431  27.8642105  30.5207425  28.5745313  28.4277893
  29.6153405  27.0542534  28.2376812  30.0080911  28.0405894  26.8093855
  28.0108431  28.8454905  29.4128830  27.9319051  27.9397092  29.7209891
  27.2245407  31.0507286  27.7541466  27.1586488  31.9211224  28.6456779
  26.1880460  30.7735250  26.9367661  26.1190080  30.0130921  25.6685738
  25.9570133  28.9556697  25.8776572  27.0479336  30.1346071  25.1114111
  24.9271033  30.6616082  24.9634014  24.4742507  29.9733597  24.2497224
  25.2284419  31.5731450  24.4472647  23.9751333  30.9767107  26.1153291
  23.4082012  30.1013785  26.4323159  23.2863662  31.7810428  25.8569699
  24.9132622  31.4320520  27.2496516  25.0672049  32.5074246  27.1603562
  24.3883718  31.1032637  28.6659532  23.8803616  32.0131240  29.3228618
  24.6031911  29.8833441  29.1758335  25.0171550  29.1571713  28.6089065
  24.2032656  29.5506185  30.5548086  23.1598555  29.8327534  30.6955015
  24.3521378  28.0648388  30.8634841  25.3149179  27.7382817  30.4704011
  24.3441275  27.9478100  31.9471538  23.2318971  27.2114903  30.2481353
  22.2958520  27.4437464  30.7560502  23.1649566  27.5203110  29.2049440
  23.4892228  25.7069052  30.3180510  24.3303844  25.2620984  31.1337440
  22.8049692  24.9533201  29.5629435  25.0115087  30.3365985  31.5916131
  24.4751546  30.7944604  32.6153298  26.3118699  30.4737472  31.3436801
  26.7654166  30.0478252  30.5480764  27.1277395  31.2343053  32.2768624
  26.9519461  30.8760435  33.2911820  28.6228574  31.0799664  31.9535253
  28.7368362  31.2514627  30.8831529  29.1500900  31.8591510  32.5039770
  29.2103800  29.7114036  32.3168367  29.3265447  29.6495226  33.3988613
  28.5092608  28.9465492  31.9828774  30.5722336  29.4868504  31.6422780
  30.9510383  30.2639410  30.7275310  31.2773179  28.5540489  32.0204677
  26.7014138  32.7109811  32.1998692  26.5879961  33.3591503  33.2311380
  26.4405517  33.2554847  31.0056394  26.4493443  32.7186444  30.1501720
  26.1046305  34.6788593  30.9286799  26.9187437  35.2345724  31.3939776
  25.8917071  35.2206222  29.4979013  25.0954893  34.6293476  29.0456503
  25.5658060  36.2565153  29.5917843  27.0917047  35.1592465  28.6473604
  27.8746268  35.7788616  29.0846372  27.4372175  34.1272375  28.5866937
  26.7601454  35.6732306  27.2337828  25.8740421  35.1821661  26.8315693
  26.6098393  36.7528110  27.2300799  27.9006761  35.3563581  26.3768309
  27.8836232  34.4680339  25.8965303  28.9486088  36.1581160  26.1934232
  29.0062638  37.3810582  26.7895332  28.2462197  37.6882034  27.3795288
  29.8088113  37.9754975  26.6390037  29.9449064  35.7297268  25.4062340
  29.8855299  34.8199041  24.9717261  30.7506402  36.3186286  25.2510358
  24.8233573  34.9636230  31.6466838  24.7012321  36.0013661  32.2906408
  23.8539264  34.0455679  31.5414197  23.9579197  33.2437757  30.9360983
  22.5858351  34.2283418  32.2332447  22.1721277  35.2089845  31.9981163
  21.5847344  33.1572638  31.7945155  21.3547019  33.2692249  30.7349641
  21.9949413  32.1634176  31.9736806  20.4029620  33.3228501  32.5531433
  19.7600445  32.6591161  32.2929241  22.7352598  34.2280582  33.7557250
  22.1692572  35.0807275  34.4548603  23.4748619  33.2549858  34.2509650
  23.7966184  32.5318298  33.6235755  23.8054631  33.1444944  35.6433132
  22.8977510  33.0788787  36.2431904  24.6176224  31.9073829  35.8678268
  23.9697281  31.0600497  35.6434193  25.4391406  31.9355286  35.1519945
  25.1681490  31.7614898  37.2540492  26.0334427  31.1013801  37.1938588
  25.4896480  32.7529226  37.5731083  24.1782377  31.2054473  38.2560743
  23.0058747  30.8822600  37.8885952  24.6082923  31.0926982  39.4289028
  24.5726891  34.3562725  36.1954979  24.3701439  34.6807523  37.3599335
  25.4487654  34.9645311  35.3832043  25.5672371  34.6036210  34.4473584
  26.3180624  36.0666837  35.8204554  26.3810742  36.0681801  36.9086312
  27.7509860  35.9191499  35.2406548  27.5348068  35.8527349  34.1743739
  28.3962456  36.7775917  35.4272498  28.4666252  34.6251762  35.7037989
  27.7627799  33.7962369  35.6292182  29.6970030  34.3268326  34.8479392
  30.4015612  35.1551771  34.9223836  30.1733178  33.4124776  35.2017469
  29.3949657  34.1997426  33.8083614  28.7634981  34.6261366  37.2062920
  27.8293913  34.7102592  37.7616904  29.2651763  33.6975656  37.4786452
  29.4075116  35.4712698  37.4493878  25.8184403  37.4831765  35.5206044
  26.4875274  38.4542993  35.9231536  24.6528363  37.5949471  34.8779345
  24.1120635  36.7628999  34.6898881  24.1103396  38.8847595  34.4539351
  24.7032470  39.3080588  33.6431467  22.6817284  38.6632482  33.9511272
  22.6413374  37.6864948  33.4690269  22.0155494  38.6698665  34.8138332
  22.2488452  39.7197648  32.9771278  22.0724458  40.6654986  33.4895453
  23.0035997  39.8615012  32.2035914  20.9517130  39.2388360  32.3385633
  21.1634184  38.8761524  31.3327103  20.5398267  38.4268400  32.9378224
  19.9352440  40.3862978  32.2648659  19.0404599  40.0161400  31.7644208
  19.6845581  40.6842383  33.2829460  20.4710565  41.5647468  31.5191187
  20.7030071  41.2889829  30.5755865  19.7724321  42.2937383  31.4947179
  21.2999443  41.9081599  31.9829198  24.0626086  39.8691880  35.6241278
  24.5333321  41.0069183  35.5316551  23.4995759  39.3940458  36.7545420
  22.9962638  38.5184248  36.7625536  23.3951709  40.2681882  37.9306548
  23.0935366  41.2618365  37.5993257  22.3669739  39.7600441  38.9696252
  22.5971324  38.7271507  39.2308867  22.4416426  40.3847056  39.8597503
  20.9395175  39.8232512  38.4500810  20.6340994  40.5500614  37.5005634
  20.0336699  39.0332372  39.0743117  19.0707386  39.0360586  38.7695903
  20.3251728  38.4448432  39.8417226  24.7173818  40.6484361  38.5502346
  24.8832685  41.8071319  38.9367920  25.6571966  39.7026062  38.6570190
  25.4373329  38.7387869  38.4501090  26.9947354  40.0174724  39.1385976
  26.9244592  40.4913121  40.1176974  27.8541549  38.7526932  39.2664986
  27.9756024  38.2881585  38.2879501  28.8334192  39.0107712  39.6696577
  27.2056871  37.8440109  40.1443204  27.7363831  37.0487199  40.2307717
  27.7249512  41.0241188  38.2672033  28.4772931  41.8353661  38.7541000
  27.5115287  40.9399662  36.9566895  26.9585648  40.1902204  36.5665467
  28.1630371  41.8621135  36.0434495  29.2217260  41.9765432  36.2762216
  28.0064927  41.3547086  34.5874423  26.9921223  40.9769173  34.4592745
  28.2748869  42.5147339  33.5387379  29.2892920  42.8927409  33.6659925
  28.1569510  42.1254652  32.5274706  27.5630631  43.3240446  33.7012871
  28.9738166  40.1710585  34.3654809  29.9844664  40.5793019  34.3604754
  28.8583427  39.4986441  35.2155539  28.7285725  39.3943962  33.0609426
  28.8443352  40.0660933  32.2103417  29.4491045  38.5804143  32.9811545
  27.7182100  38.9854371  33.0654194  27.6182631  43.2922807  36.2429414
  28.3984452  44.2690936  36.2829489  26.3045050  43.3925143  36.4288330
  25.7203297  42.5753435  36.3236166  25.6517375  44.6908974  36.6829906
  25.9729904  45.4094710  35.9289696  24.1069199  44.5288626  36.5892238
  23.7690254  43.8190743  37.3442919  23.6289268  45.4937186  36.7585631
  23.8391847  44.1601339  35.5990439  26.1141387  45.2521137  38.0315269
  26.3889221  46.4582878  38.1775135  26.2912939  44.3641922  39.0142377
  26.2265008  43.3690232  38.8544260  26.5708090  44.8272703  40.3583549
  25.9200485  45.6627780  40.6163022  26.3131140  43.6695660  41.3610034
  25.2665670  43.3793327  41.2682493  26.9487157  42.8332353  41.0700370
  26.6110217  44.0565250  42.8231104  27.6534564  44.3690257  42.8845447
  25.9645392  44.8997587  43.0662491  26.3581211  42.9086968  43.8250689
  26.1914340  41.7248094  43.3970176  26.3414145  43.2005276  45.0525923
  28.0363292  45.3001083  40.4830614  28.2856242  46.3617175  41.0682272
  28.9876878  44.4776578  39.9853376  28.7053163  43.6883344  39.4220132
  30.4352515  44.6580457  40.2703734  30.5772937  45.4259594  41.0307889
  31.0224234  43.3466563  40.7858034  30.6980382  42.5044355  40.1746262
  32.1110162  43.4016428  40.7793134  30.6195042  43.0369713  42.1868049
  31.1074593  43.8101295  43.2551884  31.7889411  44.6365725  43.0535093
  30.7259310  43.5261794  44.5630334  31.1062334  44.1347377  45.3834770
  29.8635395  42.4712635  44.8237293  29.5692714  42.2527089  45.8502477
  29.3734458  41.6915461  43.7770346  28.7063489  40.8525850  43.9750909
  29.7480858  41.9965601  42.4532565  29.3502164  41.4097986  41.6253007
  31.2653105  45.1166957  39.0969833  32.3496557  45.6789497  39.2790602
  30.7480012  44.9297131  37.8987673  29.7973433  44.6108379  37.7776583
  31.5980091  45.0925570  36.6865736  32.5645762  45.5240955  36.9466154
  31.8309489  43.7022675  36.0636208  30.9041414  43.2355201  35.7300430
  32.5087819  43.8088801  35.2166993  32.4828624  42.7331355  37.0189751
  33.7948512  42.8574652  37.4117787  34.0950512  41.8802895  38.2704950
  35.0735770  41.8487875  38.7496545  33.0478031  41.0729834  38.3763543
  33.0012047  40.2167678  38.9100427  32.0095291  41.5987143  37.6261442
  31.0410189  41.0988739  37.6103738  31.0403615  46.0520684  35.6760525
  31.4768706  46.0404029  34.4813338  30.1706133  46.9519352  36.1271776
  29.8644128  46.9468911  37.0896302  29.6178023  48.0083171  35.2077977
  30.0816016  47.8619800  34.2323108  28.0763702  47.8550071  35.0537448
  27.6066406  48.0847423  36.0101318  27.5147282  48.8240431  33.9474566
  27.9836852  48.5945908  32.9906230  26.4358324  48.6936926  33.8632449
  27.7352455  49.8557440  34.2214383  27.8165571  46.5239495  34.6156196
  26.8702477  46.4002546  34.5117044  29.9441284  49.3453600  35.8227200
  29.9220201  49.4711315  37.0257249  30.2058732  50.3610632  34.9997609
  30.0059981  50.3051801  34.0113145  30.7805220  51.6078546  35.5251483
  30.7024775  51.6271622  36.6121789  32.2718660  51.7048719  35.1356312
  32.4271122  51.6942082  34.0567966  32.5969230  52.6636881  35.5394994
  33.0742197  50.5933359  35.7705282  33.5263374  50.7185547  37.0737504
  33.3257054  51.6502186  37.6027576  34.2158854  49.7000883  37.7047842
  34.6052395  49.8250292  38.7151777  34.4577601  48.5047471  36.9994765
  35.1282333  47.4996454  37.6544798  35.3666415  47.7324896  38.5547824
  33.9924011  48.3325241  35.7169733  34.1676419  47.3991718  35.1819550
  33.2831244  49.3774395  35.0955432  32.8927470  49.2463771  34.0863216
  30.0967337  52.8195480  34.9693950  29.7529203  52.8491097  33.7790364
  29.9388563  53.8136937  35.8322014  30.0253077  53.6710519  36.8283333
  29.6362859  55.1614295  35.3478508  28.9515589  55.1042251  34.5016973
  28.9855937  55.9881711  36.4439110  28.1680029  55.3956107  36.8544191
  29.7377492  56.1523283  37.2155421  28.4464175  57.3360923  35.9631196
  28.0477515  57.2385082  34.9533456  27.6486324  57.6413093  36.6402338
  29.5127307  58.4063944  35.9598402  30.3468100  58.4779363  36.8734508
  29.5126651  59.2354379  34.9185065  30.2026038  59.9709240  34.8624169
  28.8226784  59.1252240  34.1892104  30.9749507  55.7374970  34.9542154
  31.9093233  55.7843922  35.7887451  31.1036628  56.1249472  33.6885209
  30.3422537  56.0191069  33.0334229  32.3771796  56.6567368  33.1939687
  33.1129844  56.6224204  33.9974069  32.9114668  55.8533420  32.0073171
  32.1101715  55.9654231  31.2769317  33.8124786  56.3409214  31.6351021
  33.1941079  54.3567655  32.2329666  32.3500462  53.9250572  32.7708222
  33.3878592  53.6223757  30.9287116  34.2320972  54.0532492  30.3904654
  33.5850705  52.5694044  31.1298578  32.4865347  53.7133474  30.3225444
  34.3929322  54.1605596  33.1500743  34.1935547  54.6276993  34.1145061
  34.5710613  53.0947639  33.2930809  35.2739036  54.6185095  32.7003296
  32.2363472  58.1169649  32.8029739  31.3490653  58.5028531  32.0481373
  33.1360374  58.9059829  33.3549422  33.5812877  58.6213057  34.2156456
  33.4092861  60.2205481  32.8504389  32.4883272  60.7162018  32.5434190
  34.0621941  61.0470678  33.9707752  34.9663010  60.5326850  34.2965057
  34.3276004  62.0190271  33.5548971  33.1199864  61.2439625  35.1768565
  31.8716494  61.2139042  35.0031747  33.6269815  61.4226051  36.3130236
  34.2384364  60.2181220  31.5350280  34.8786129  59.2000840  31.1625569
  34.2000955  61.3576410  30.7904668  33.2568881  62.4895327  30.9522164
  33.5703952  63.0988017  31.7999221  32.2562914  62.0985686  31.1367490
  33.3520630  63.2234263  29.6498985  33.1945075  64.2898939  29.8109026
  32.6019355  62.8467626  28.9545321  34.7498758  62.9416973  29.1415953
  35.5115549  63.5753081  29.5959974  34.7999272  63.0353644  28.0567815
  34.9752795  61.4752653  29.5531619  34.5157225  60.7923349  28.8386609
  36.4806785  61.1579717  29.6717186  37.0720325  60.7139833  28.7142403
  37.1271522  61.3612355  30.8033579  36.7361764  61.7322655  31.6575090
  38.5633211  61.0005051  30.7872839  38.9307468  61.2896807  29.8026646
  39.0341566  61.6236267  31.5476343  38.9328657  59.5250282  31.0477558
  40.1059935  59.2237415  31.2258075  37.9612144  58.6152923  31.0664185
  36.9932462  58.8595554  30.9132111  38.2734414  57.2482579  31.5314996
  39.3246313  57.0308028  31.3422580  38.0073026  57.1025588  33.0242608
  38.2272486  56.0781578  33.3248029  38.6573195  57.7877952  33.5683463
  36.6683296  57.3977420  33.3166037  36.5179556  57.3012062  34.2598260
  37.6348784  56.1435953  30.7021560  36.8363955  56.4002923  29.8021528
  38.0465620  54.8956066  30.9578916  38.6838500  54.7021274  31.7171867
  37.5973595  53.7866166  30.1374280  36.5859605  53.9913661  29.7863598
  38.5109775  53.5649502  28.9100164  38.1106796  52.7564639  28.2982886
  38.5558930  54.4794004  28.3185239  40.2563631  53.1095982  29.2794262
  40.6487892  53.0230865  28.0115871  37.6008276  52.5332758  31.0250048
  38.2230700  52.5365691  32.0956227  36.8921274  51.5153857  30.5763728
  36.3665493  51.5963253  29.7177019  36.7727286  50.2651339  31.3558978
  37.6799029  50.1206287  31.9426280  35.5639174  50.3043138  32.3173516
  35.5811675  49.4005803  32.9265046  35.6663705  51.1778454  32.9612041
  34.3177231  50.3779604  31.6052715  33.5915068  50.4005268  32.2327270
  36.6898140  49.0693543  30.4441010  36.3477868  49.1853455  29.2336736
  36.9918377  47.8965546  31.0097047  37.2546682  47.8584995  31.9841642
  36.8567319  46.6203341  30.2679382  36.1111454  46.7326038  29.4807943
  38.1891214  46.2153616  29.6265567  38.9696096  46.4352710  30.3549641
  38.1436159  45.1395633  29.4571831  38.4860656  46.8796176  28.3946784
  39.3318663  46.5717039  28.0608966  36.5327174  45.5533841  31.2971648
  36.9226813  45.6928156  32.4676130  35.8373673  44.5185207  30.8302385
  35.4876698  44.5772601  29.8845320  35.5173190  43.3439945  31.6067011
  35.9411440  43.4286729  32.6073514  33.9839500  43.1998078  31.7305380
  33.7804717  43.9471935  32.4974216  33.5038701  43.4967408  30.7980928
  33.4307949  41.8437304  32.1800396  33.7850261  41.0676096  31.5016168
  33.9194431  41.5237249  33.6456403  33.5651819  42.2992197  34.3247615
  33.5224447  40.5581210  33.9588529  35.0087790  41.4924364  33.6672942
  31.8947270  41.7542264  32.0258019  31.6251455  41.8975869  30.9794401
  31.5522157  40.7741118  32.3577094  31.4225514  42.5278026  32.6313836
  36.1394113  42.0957962  30.9388993  35.9981795  41.9116320  29.7144390
  36.7906874  41.2415628  31.7416532  36.9544429  41.4717326  32.7113466
  37.3165500  39.9542196  31.2260701  36.9978312  39.8063457  30.1942510
  38.8506098  39.9600993  31.2694298  39.1366072  40.1745968  32.2991363
  39.3265935  39.0343920  30.9460019  39.4275569  41.0548829  30.4279275
  39.4855294  40.9627257  29.0581629  39.9393242  42.1094082  28.5675352
  40.0318846  42.2535816  27.4910848  40.2114460  42.9167435  29.5761449
  40.5981303  43.8473468  29.5086708  39.8810345  42.2829091  30.7514947
  40.0123055  42.7971264  31.7035712  36.8102077  38.7474358  32.0159495
  36.6362752  38.8684015  33.2024838  36.5298870  37.6339685  31.3048427
  36.6291410  37.6433339  30.2997754  36.0873771  36.3857959  31.9516543
  35.9047803  36.5136746  33.0186148  34.8001970  35.8747553  31.2918241
  34.9699352  35.7331025  30.2244800  34.5125495  34.9249579  31.7426500
  34.0022280  36.6025802  31.4388464  37.1692103  35.3611690  31.7884317
  37.9123944  35.3399765  30.7838754  37.2552828  34.4531205  32.7559818
  36.7115137  34.4948629  33.6060831  38.1782972  33.3702221  32.5928570
  38.3504583  33.1703631  31.5352578  39.5378877  33.7574816  33.2551286
  39.9690957  34.5649233  32.6633543  39.3183145  34.1207599  34.2590791
  40.5637013  32.5641336  33.3413213  41.3521267  32.8391383  34.0419343
  40.0439093  31.6794395  33.7090641  41.1906545  32.2365224  32.0186991
  41.7166450  33.1272706  31.3070660  41.1500874  30.9389881  31.6403182
  41.5568664  30.6602217  30.7588867  40.7131925  30.2544400  32.2408331
  37.5952176  32.1218281  33.2496237  37.3746830  32.1253573  34.4517440
  37.4088531  31.0497946  32.4612289  37.5943213  31.1324028  31.4718468
  36.9244607  29.7464697  32.9798021  36.1652437  29.9092945  33.7447707
  36.2981284  28.9106353  31.8281934  35.6774126  29.5779157  31.2302402
  37.1120118  28.5249178  31.2142586  35.4144897  27.6987109  32.3591537
  36.0857166  26.9519120  32.7832371  34.7547684  28.0783590  33.1393698
  34.5690817  27.0537846  31.2395746  35.2284878  26.6535887  30.4694279
  33.9666399  26.2467831  31.6566021  33.6790603  28.0336214  30.6293290
  32.8148825  28.2336592  31.1123207  33.9075750  28.6313859  29.4644678
  35.0123905  28.3427798  28.7697208  35.6720897  27.6696405  29.1327366
  35.1824732  28.7991602  27.8849110  33.0579821  29.5490885  29.0399825
  32.2513833  29.7840244  29.6006103  33.2187741  30.0117291  28.1566885
  38.1131049  29.0160958  33.5848812  39.2273927  29.0163821  33.0083141
  37.9008074  28.4068384  34.7587931  36.9916253  28.4622033  35.1951669
  38.9471930  27.6627819  35.4389806  39.7678267  27.4763526  34.7462297
  39.4840242  28.4384281  36.6854678  38.6739606  28.5607657  37.4044468
  40.6306215  27.6684364  37.3371246  41.4413082  27.5460996  36.6188480
  40.9938900  28.2210420  38.2035909  40.2762061  26.6878099  37.6547102
  39.9620482  29.8401121  36.2087385  40.6513015  29.7024274  35.3756277
  39.0918066  30.4025813  35.8704967  40.6901957  30.6405236  37.3709242
  41.5608684  30.0788555  37.7093881  41.0088751  31.6139114  36.9980182
  40.0013736  30.7790074  38.2042586  38.3549520  26.3294113  35.8839336
  37.2993371  26.2833671  36.5422179  39.0612631  25.2499372  35.5264226
  39.9108956  25.3688044  34.9934172  38.5824757  23.8758626  35.7843503
  37.4974352  23.8718623  35.8881295  38.9690539  22.9520171  34.6096419
  40.0253708  23.1687935  34.4505769  38.8325443  21.8766379  34.7237684
  38.2545089  23.3446050  33.3466331  36.9041710  23.1460208  33.1940889
  36.4995452  23.6738774  32.0467196  35.4578726  23.6079460  31.7326015
  37.5477174  24.2262633  31.4623586  37.5487125  24.6998253  30.5702611
  38.6509161  24.0549760  32.2659022  39.6132857  24.4697109  31.9660006
  39.1414052  23.4516763  37.1398922  40.0175063  22.6042205  37.2308618
  38.6409387  24.1208767  38.1697859  37.9602857  24.8409128  37.9739315
  39.0576062  23.9182624  39.5604195  39.1921974  22.8559260  39.7639529
  40.3559709  24.6357888  39.8578182  40.2342749  25.7021123  39.6674392
  40.6254680  24.4822342  40.9027549  41.1448982  24.2406931  39.2178241
  37.9340053  24.4022619  40.4633599  37.0758350  25.1596646  40.0167529
  37.8969424  23.9267995  41.7394613  38.8528357  22.9892536  42.3808417
  39.6821088  23.5387101  42.8263796  39.2390552  22.2809294  41.6478955
  37.9803747  22.3308472  43.4077072  38.5761731  21.9052580  44.2151707
  37.3668490  21.5496578  42.9588969  37.0962525  23.5109582  43.9136280
  37.7211162  24.0791400  44.6026953  36.1530044  23.2623823  44.4000359
  36.8303750  24.3385906  42.6457373  35.8641623  24.1771464  42.1677551
  36.9900433  25.8176935  42.9809470  38.1341960  26.2894054  43.1072818
  35.8603161  26.5173163  43.1653229  34.4676437  26.1093635  42.8827649
  34.2756825  25.1369268  43.3362160  34.3211980  26.0422587  41.8047344
  33.6680845  27.1849619  43.4919340  33.4814723  26.9611312  44.5422552
  32.7175953  27.2847749  42.9678072  34.5140899  28.4471717  43.3322419
  34.3101348  29.1109980  44.1723823  34.3268933  28.9764033  42.3979127
  35.9677602  27.9764897  43.3828489  36.5577347  28.4025272  42.5713563
  36.6325260  28.3011502  44.7197278  37.2845562  29.3411295  44.8299214
  36.5055572  27.4123223  45.7284720  35.8635958  26.6331806  45.6980882
  37.2078629  27.6793054  46.9745649  36.9999175  28.7009132  47.2926457
  36.7580464  26.7004117  48.1103228  37.3175867  26.9577623  49.0096474
  35.6946458  26.8634132  48.2855646  37.0021534  25.2037396  47.7582059
  37.9011435  25.1816258  47.1422281  37.1901141  24.6764376  48.6934719
  35.8400178  24.5127650  47.0005000  35.0337462  25.1905810  46.3174095
  35.7324696  23.2514051  47.1135731  38.7120121  27.6896487  46.7493665
  39.4357260  28.4925766  47.3747776  39.2205618  26.8126556  45.8869477
  38.6593367  26.0826148  45.4720186  40.6502555  26.8453292  45.5828713
  41.2264263  26.8840219  46.5073329  41.0536263  25.5904141  44.8078790
  40.7701066  24.7862210  45.4868409  40.3946405  25.5815026  43.9396865
  42.4864415  25.3884071  44.3563229  42.6505739  26.0163483  43.4806224
  43.5169922  25.7484955  45.4477140  43.3537743  25.1206027  46.3236189
  44.5243750  25.5833992  45.0655831  43.4015563  26.7961133  45.7256922
  42.6420707  23.9219379  43.9637649  41.9513432  23.6867590  43.1540206
  43.6645793  23.7404545  43.6326438  42.4216066  23.2896725  44.8238434
  41.0682998  28.1167581  44.7989482  42.0765741  28.7749310  45.1224563
  40.3097998  28.4534935  43.7658577  39.5554440  27.8679907  43.4368697
  40.6041660  29.7080433  43.0230056  41.5978527  29.6905176  42.5753687
  39.5625621  29.9461182  41.9048663  38.5620721  29.8689188  42.3304943
  39.7492894  31.3474731  41.2791129  40.7494589  31.4252732  40.8528393
  39.0077757  31.4972819  40.4943739  39.6224705  32.1092675  42.0483254
  39.6547059  28.8493938  40.8055123  39.4688189  27.8718033  41.2503323
  38.9100751  29.0443565  40.0337519  40.6498833  28.8624544  40.3610440
  40.6304794  30.9042342  43.9923275  41.5540506  31.7496493  43.9522839
  39.6087415  30.9871529  44.8362080  38.8262305  30.3596623  44.7177532
  39.4884205  32.0826235  45.8319836  39.5503493  33.0444212  45.3228577
  38.1295244  32.0074502  46.5906570  37.2734438  32.1234145  45.9259936
  38.0656257  31.0460034  47.1002030  37.9971159  33.0694978  47.6544825
  37.9339594  32.8676410  49.0045781  37.9497338  31.8286708  49.3338073
  37.8618402  34.0595212  49.6761056  37.8175295  34.1713676  50.6789149
  37.8664831  35.0832096  48.7578216  37.8032410  36.4544132  48.9722558
  37.7421498  36.8189234  49.9976820  37.8223865  37.2867932  47.8440555
  37.7787452  38.3686387  47.9697767  37.8986103  36.7433989  46.5192568
  37.9053746  37.3879119  45.6402479  37.9674801  35.3464966  46.3181231
  38.0003963  34.9638262  45.2980346  37.9583270  34.5017883  47.4624842
  40.7164711  32.1764962  46.7896285  41.2329228  33.2497271  47.0858700
  41.1629192  31.0127096  47.2892071  40.6624677  30.1578242  47.0921827
  42.3406996  30.9442513  48.1639390  42.1591208  31.4756967  49.0981200
  42.6285206  29.4602183  48.4877202  43.1405789  29.3931114  49.4476119
  41.6871897  28.9131346  48.5396381  43.4554550  28.8914173  47.4647310
  43.6310570  27.9703300  47.6705516  43.5767387  31.6008829  47.5321137
  44.4492480  32.0960941  48.2333629  43.6583048  31.6368845  46.1939822
  42.9421032  31.2075895  45.6257742  44.7757006  32.2706632  45.5266253
  45.6912981  32.2572303  46.1178951  45.0431130  31.6013254  44.1348701
  44.1163865  31.6121169  43.5611436  46.1426560  32.3527768  43.3509396
  47.0698765  32.3420075  43.9238678  46.3038993  31.8631852  42.3905223
  45.8308324  33.3839098  43.1847169  45.3689318  30.1102564  44.3335687
  46.4245974  30.0517463  44.5986110  44.7645570  29.7654939  45.1725975
  45.0953164  29.2112571  43.0938974  45.6997278  29.5551450  42.2545358
  45.3545375  28.1789087  43.3287600  44.0396871  29.2688946  42.8285210
  44.5205900  33.7708610  45.3049701  45.3878734  34.6283140  45.6011642
  43.3605793  34.0571572  44.7151257  42.7579513  33.2947150  44.4401333
  42.9266912  35.4546277  44.3982986  43.6085413  36.0028062  43.7481602
  41.5413254  35.4289937  43.7445506  40.9695600  34.6294384  44.2156078
  40.7632053  36.7836776  43.8900899  41.3341735  37.5836850  43.4188316
  39.7904194  36.6983620  43.4058283  40.6236933  37.0114278  44.9468623
  41.7056445  35.0119024  42.2976546  42.1577166  34.0210432  42.2537114
  40.7296253  34.9872133  41.8130137  42.3480060  35.7268884  41.7835850
  42.8969627  36.3405540  45.6633977  43.1695267  37.5528478  45.5960662
  42.5709668  35.7517127  46.8090808  42.3017661  34.7784783  46.8301765
  42.4241819  36.5517302  48.0558366  41.9768279  37.5185114  47.8249519
  41.5207787  35.8200573  49.0567095  41.1967915  36.5226924  49.8244566
  40.6493013  35.4295964  48.5311931  42.2886343  34.6534774  49.7176649
  42.5809896  33.9390382  48.9481157  43.1805892  35.0462549  50.2057676
  41.3924615  33.9425999  50.7707706  40.4905948  33.5580221  50.2944983
  41.9389702  33.1194007  51.2309561  41.0030674  34.8896923  51.8166316
  40.1180319  35.3580101  51.6843822  41.7156648  35.1768973  52.8975999
  42.9003851  34.5807558  53.1010918  43.2480915  33.9123867  52.4284231
  43.4390619  34.8031018  53.9260095  41.2381766  36.0524198  53.7750857
  40.3420420  36.4887871  53.6119094  41.7734540  36.2777221  54.6014123
  43.7307763  37.0107278  48.7129077  43.7256647  37.8959047  49.5789399
  44.8368746  36.3877557  48.3122095  44.7416889  35.6503831  47.6286009
  46.1593329  36.6495294  48.8667522  46.1012780  36.7706799  49.9484413
  47.0776235  35.4682091  48.5562848  47.0400582  35.2778550  47.4836929
  48.0939520  35.7403466  48.8410963  46.6612876  34.2201054  49.3047818
  45.5970855  34.0389038  49.1539820  47.2302538  33.3652928  48.9391662
  46.9357275  34.4144590  50.7818026  46.4743574  35.3372210  51.1335795
  46.5443149  33.5725153  51.3527898  48.3811840  34.4990761  51.0017037
  48.9779945  34.2754688  50.2181756  48.9479002  34.8525258  52.1490899
  48.1825733  35.1740957  53.1919100  47.1767983  35.1471559  53.1036437
  48.6119309  35.4432323  54.0655902  50.2775476  34.8779983  52.2554473
  50.8494894  34.6279042  51.4614476  50.7061160  35.1472574  53.1294767
  46.7314551  37.9840704  48.3393439  47.6294025  38.0184973  47.4917266
  46.2335992  39.0644031  48.9184190  45.4849821  38.9650963  49.5890977
  46.6656075  40.4182784  48.5535909  46.5120050  40.5945042  47.4889548
  45.8399352  41.4333947  49.3402453  44.7797271  41.3212193  49.1133646
  46.0005473  41.2819404  50.4076559  46.1934094  42.8702268  49.0504411
  45.7307130  43.4826103  47.8804443  45.1153964  42.9181224  47.1798453
  46.0600980  44.8328350  47.6053666  45.6935557  45.3002209  46.6914204
  46.8452379  45.5611112  48.4919596  47.1051630  46.5970018  48.2740844
  47.3000613  44.9606465  49.6633553  47.9112048  45.5206550  50.3711648
  46.9604917  43.6029566  49.9332806  47.3077575  43.1261980  50.8499090
  48.1727528  40.6296777  48.7646177  48.8117215  41.3263156  47.9915430
  48.7655407  39.9571464  49.7617000  48.2144449  39.4119971  50.4091605
  50.2057186  40.0607347  49.9932729  50.5261098  41.0915472  49.8420305
  50.5680469  39.6366309  51.4390033  51.6569156  39.6453841  51.4878651
  50.1668446  40.3507665  52.1581326  50.0594258  38.2488477  51.7687783
  48.9245065  37.8661701  51.3418613  50.7700441  37.5476058  52.5070020
  51.0905407  39.2839955  49.0397154  52.3052750  39.4850457  49.0621536
  50.5174255  38.4107920  48.2186327  49.5122320  38.3126626  48.2111535
  51.3024247  37.5866173  47.2968598  52.3248804  37.9583925  47.2300260
  51.3384835  36.1421551  47.8173843  50.3073006  35.8186264  47.9591250
  51.8090268  35.5282769  47.0493722  52.0921677  35.9927010  49.1091859
  51.9499954  36.8819394  49.7233055  51.7289372  35.1176765  49.6481645
  53.5852311  35.8188260  48.7991951  53.8740330  36.5305991  48.0258443
  54.1619943  36.0119601  49.7037077  53.8669577  34.3777289  48.3053913
  54.1627210  33.7932429  49.1765977  52.9303557  33.9872134  47.9074294
  54.9385205  34.2835218  47.2505036  55.8065867  34.6449353  47.6192054
  55.0628224  33.3177755  46.9822068  54.6644599  34.8247048  46.4429698
  50.7322336  37.5303455  45.8847205  50.4654896  36.4520451  45.3828790
  50.5250994  38.6946074  45.2446512  51.0203448  40.0182013  45.6538470
  52.0351888  39.9258989  46.0407217  50.3725319  40.4280337  46.4287502
  50.9584522  40.8154700  44.3687167  51.9450543  40.8078451  43.9054055
  50.6775623  41.8412855  44.6072638  49.9692629  40.1944356  43.5152299
  50.2443091  40.3328849  42.4696294  48.9665308  40.5879892  43.6817941
  50.0126399  38.6901854  43.8757861  49.0289529  38.2212675  43.8997466
  50.9101225  37.9438233  42.8797792  50.4138357  37.4098647  41.8960549
  52.2052933  37.8852521  43.1407330  52.5831743  38.3955794  43.9261445
  53.1419413  37.2617697  42.2017492  52.9415264  37.6161007  41.1906198
  54.6027847  37.6218046  42.5721173  55.2362030  37.3199899  41.7379780
  54.6530360  38.7039331  42.6928352  55.0904601  36.9421996  43.8549605
  54.5707785  35.9875428  43.9365840  56.1623804  36.7653728  43.7665232
  54.8333663  37.7447721  45.1196447  53.8116708  38.4166775  45.2767825
  55.7896174  37.6833330  46.0352855  55.6879038  38.1915466  46.9021619
  56.6156378  37.1285814  45.8619579  52.8809568  35.7415208  42.0243369
  53.3543154  35.1299587  41.0499138  52.0704071  35.1395276  42.8975485
  51.6757587  35.6165857  43.6955256  51.7368863  33.7127033  42.6982661
  52.6619662  33.1364880  42.6808775  50.8251324  33.1268899  43.7418740
  50.5718539  32.1084543  43.4473588  51.4803598  33.1088077  45.0994763
  51.7335248  34.1270106  45.3948911  50.7938407  32.6794044  45.8291361
  52.3881346  32.5069165  45.0573751  49.6208127  33.9098266  43.7845151
  49.0273753  33.5482506  44.4468558  51.0400674  33.5237582  41.3478614
  51.1440407  32.4468962  40.7613345  50.3796460  34.5603465  40.8278601
  50.1296620  35.3560322  41.3975017  49.8456770  34.4891165  39.4475046
  50.3887773  33.7305937  38.8837808  48.3715076  34.1247479  39.4558153
  48.0996055  33.7470242  38.4701717  48.2825247  33.3229738  40.1888504
  47.4582046  35.2418855  39.8286503  46.8116108  35.9726738  38.8451718
  47.0007043  35.7343850  37.7984810  45.9513459  36.9750351  39.1698060
  45.4272260  37.5275102  38.3899525  45.7315498  37.2883088  40.5206332
  44.8978352  38.3210290  40.8425431  44.5235607  38.7550082  40.0723612
  46.3503309  36.5804533  41.5260558  46.1819047  36.8257978  42.5746449
  47.1894697  35.5528154  41.1899420  47.6633431  34.9584165  41.9711169
  50.0637979  35.6899861  38.4877121  49.8336505  35.5900508  37.2597162
  50.4978099  36.8086550  39.0165500  50.5652310  36.9396863  40.0157419
  50.8232315  37.9243067  38.1550350  50.3096660  37.8347608  37.1977832
  50.3659098  39.2218568  38.8378723  51.0456772  39.4000539  39.6710957
  50.4723109  40.0219574  38.1053302  48.9309219  39.1907667  39.3510000
  48.2349875  39.0270014  38.5282259  48.8079760  38.4015707  40.0927250
  48.6429546  40.5567082  40.0025210  49.1583957  40.5539347  40.9629437
  49.0912272  41.3079903  39.3523469  47.2131776  40.8754575  40.2113818
  46.6303752  40.5655879  39.3439587  46.8418821  40.3640273  41.0994572
  47.0758522  42.4341969  40.4068963  47.4194509  42.9082744  39.5839198
  46.1046846  42.6711271  40.5511097  47.6154727  42.7214732  41.2108746
  52.3139337  37.9572907  37.8242403  53.1700211  38.4077085  38.6760314
  52.6363557  37.6391932  36.5638213  51.9268005  37.5632532  35.8490739
  54.0400746  37.3158853  36.1999664  54.5411443  36.8712759  37.0598215
  54.1067149  36.3136131  35.0130091  53.2955861  36.4118470  34.2915388
  55.0548374  36.5423604  34.5263487  54.1623337  34.8628644  35.4026639
  54.9635678  34.3838215  36.4204452  54.8420998  33.0693379  36.4996196
  55.3818236  32.5061951  37.2609785  54.0131907  32.6700775  35.5500672
  53.7227121  31.7189464  35.3737952  53.6008000  33.7702340  34.8271228
  52.9412593  33.6423548  33.9687789  54.9278816  38.5320608  35.8399609
  56.1582930  38.3497949  35.5500835  54.3136478  39.7265401  35.8616423
  53.3183297  39.7656828  36.0287022  55.0355624  40.9833275  35.6824029
  55.8553464  40.8512358  34.9762831  54.0818899  42.0454821  35.1313039
  53.1443847  42.1404949  35.6791686  54.6182841  42.9938408  35.1628783
  53.7115517  41.8018788  33.6714285  54.7229025  41.8322388  32.6767699
  55.7503579  42.0544496  32.9649669  54.4090553  41.5784058  31.3267540
  55.1778906  41.6423616  30.5567523  53.1062836  41.2442095  30.9810782
  52.8698437  41.0347890  29.9378433  52.0835173  41.1733600  31.9719564
  51.0625899  40.9093529  31.6960804  52.4010815  41.4477711  33.3162516
  51.6283880  41.3852263  34.0824976  55.5706215  41.4834629  37.0223979
  56.1593785  42.5373579  37.0703913  55.2871884  40.7650388  38.1148765
  54.7044981  39.9415228  38.0659600  55.7677673  41.2043542  39.4391283
  56.0867202  42.2465618  39.4522214  54.6739568  40.9847325  40.5185419
  54.3295500  39.9524376  40.4564806  55.2384099  41.2730337  41.9959532
  55.5826014  42.3053452  42.0589284  54.4461279  41.1095390  42.7264732
  56.0697550  40.5999698  42.2055944  53.4630543  41.8474857  40.1579077
  53.7971720  42.8847036  40.1833073  53.1801669  41.5822808  39.1392122
  52.2426753  41.6762638  41.0926740  52.5246855  41.9417488  42.1115399
  51.4344299  42.3268830  40.7587078  51.9076817  40.6393247  41.0674464
  57.0491934  40.4910179  39.8429134  57.1003975  39.2415597  39.9395534
  58.0657266  41.2726126  40.1628352  57.9899370  42.2752814  40.0679119
  59.3160273  40.7220518  40.6265647  59.5237241  39.7744532  40.1295555
  60.4345967  41.6933782  40.3045281  60.4016761  41.9079923  39.2363725
  60.2592789  42.6118379  40.8647026  61.8354397  41.1179511  40.6757606
  61.8791668  41.0792965  41.7641974  61.8736427  40.1050500  40.2749191
  63.0287563  41.9232486  40.1445297  63.9299979  41.4036831  40.4699745
  62.9677782  41.8971388  39.0565502  63.0790296  43.3508617  40.6087143
  62.2754974  43.8892210  40.1061152  62.9007906  43.3541441  41.6840372
  64.4034635  44.0293431  40.3139468  64.5686102  44.0267903  39.3175434
  64.3753920  44.9820399  40.6481338  65.1481183  43.5308918  40.7799237
  59.2691226  40.4546774  42.1431064  59.6885551  39.3930953  42.6120519
  58.7607399  41.4128406  42.8974864  58.4933185  42.3001904  42.4959949
  58.6182055  41.2322005  44.3663718  58.3831611  40.1929879  44.5963511
  59.9483714  41.6076090  45.0719532  59.8974198  41.3023933  46.1171071
  60.7720776  41.0883423  44.5820857  60.1647881  43.0246785  44.9976639
  60.9893750  43.2458866  45.4366666  57.4650651  42.0849001  44.8732647
  56.9893945  43.0181386  44.2055475  56.9764018  41.7664052  46.0683456
  57.3434959  41.0050368  46.6212102  55.8804755  42.5386284  46.6078590
  55.8876003  43.5472671  46.1947047  54.5553218  41.8671172  46.2365755
  54.3988709  41.8813705  45.1579564  54.5253438  40.8378095  46.5939646
  53.1172686  42.6930633  46.9634525  52.2086320  41.8710770  46.4461361
  56.0550976  42.5706444  48.1199076  56.3549437  41.5394600  48.7190879
  55.9571768  43.7332154  48.7129416  55.9506413  44.6210154  48.2314152
  56.0330610  43.7371429  50.1716719  55.9123362  42.7234354  50.5536691
  57.3746136  44.2656022  50.6209571  57.5571317  43.9591587  51.6509468
  58.1561670  43.8607084  49.9780455  57.3832118  45.6665575  50.5415890
  58.2374421  45.9980389  50.8279638  54.8546486  44.4565256  50.8193979
  54.2693393  45.4082043  50.2624972  54.4964472  43.9606242  52.0049052
  54.9727797  43.1396888  52.3502626  53.4558318  44.5374012  52.8153106
  53.1116571  45.4677260  52.3634936  52.2699754  43.5634839  52.8979652
  52.6204545  42.5886497  53.2370255  51.2952175  44.0768482  53.8336847
  50.9439070  45.0515248  53.4950296  50.4522165  43.3886102  53.8951522
  51.7534180  44.1780910  54.8175057  51.5854876  43.4082360  51.5271536
  52.3036687  43.0228440  50.8034195  50.7499225  42.7137267  51.6142604
  51.2177244  44.3781033  51.1921785  54.0346502  44.8008117  54.2217846
  55.1249355  44.3531589  54.5437254  53.2812840  45.5056537  55.0437325
  52.5057945  46.0171561  54.6473986  53.5568753  45.6576494  56.4963917
  54.4431114  46.2688096  56.6671782  52.3535511  46.3560057  57.1265880
  51.4540589  45.8789913  56.7373961  52.4091335  46.2011152  58.2040942
  52.3042507  47.8588977  56.8286183  52.9466841  48.0806692  55.9764461
  51.2722976  48.1054981  56.5788981  52.7457191  48.6828724  58.0216239
  52.0422558  49.6744868  58.3645558  53.7878191  48.3137242  58.6280382
  53.8822613  44.3631288  57.2719460  53.1871066  43.3453755  57.1121210
  50.7266161  42.2355415  59.9345571  51.0250935  41.4721972  60.5247401
  49.3011281  42.5896797  59.9217960  48.9040509  42.4958955  60.9325549
  49.0628623  44.0364594  59.4294312  49.5421949  44.1641894  58.4588517
  47.9954890  44.2367203  59.3361056  49.6293172  45.1135954  60.3391035
  49.8920048  44.8593194  61.6957482  49.6855088  43.8707681  62.1059014
  50.4208644  45.8752306  62.5287452  50.6281121  45.6636309  63.5777327
  50.6794886  47.1588994  62.0035892  51.0859075  47.9404603  62.6455286
  50.4126059  47.4288396  60.6521440  50.6088645  48.4156031  60.2327629
  49.8824643  46.4023187  59.8308428  49.6620216  46.6024987  58.7823044
  48.5156559  41.6191787  59.0397896  49.0313112  41.1629781  58.0105231
  47.2796411  41.3001834  59.4406977  46.9616220  41.5309659  60.3711292
  46.3796086  40.5392554  58.5666971  46.9305126  39.7520277  58.0520356
  45.2262226  39.8955433  59.3591821  45.6327906  39.1984555  60.0918964
  44.6596873  40.6722935  59.8727936  44.3160232  39.1534745  58.4099871
  43.9086810  39.8500414  57.6772063  44.8817829  38.3762025  57.8963108
  43.1726366  38.5153460  59.1955995  42.1286064  39.2027549  59.3539385
  43.3541555  37.3465665  59.6298867  45.8705525  41.5039491  57.4766837
  45.5842925  42.6729654  57.7504501  45.7800079  41.0332231  56.2390264
  46.0969975  40.1080951  55.9865287  45.4068667  41.9508833  55.1709218
  45.8840471  42.9158772  55.3417572  45.8490939  41.4184515  53.7852928
  45.5134139  40.3834409  53.7207083  45.3305039  42.0155399  53.0351929
  47.4204910  41.4845023  53.5232653  47.8688302  40.8686216  54.3028702
  47.5712822  41.0093677  52.5539298  48.2287423  43.1380742  53.5188287
  49.0523595  43.2547216  55.1458726  49.7796436  42.4488060  55.2441424
  49.5615749  44.2149667  55.2279077  48.3078368  43.1700699  55.9374667
  43.9171925  42.3172551  55.3003067  43.0346308  41.4451405  55.3532868
  43.6649049  43.6187370  55.4351316  44.4413526  44.2626776  55.3844487
  42.3283436  44.1625506  55.6464181  41.5313530  43.4368294  55.4844490
  42.2203482  44.6986001  57.0844493  42.3310902  43.8745102  57.7892268
  43.0064130  45.4332942  57.2588816  40.8582494  45.3556050  57.2810597
  40.7469545  46.1801408  56.5768900  40.0716310  44.6213574  57.1072380
  40.7512008  45.8869569  58.7064827  40.8619445  45.0628682  59.4112611
  41.5372647  46.6216520  58.8809132  39.4393007  46.5329310  58.9345981
  38.7768254  46.5607234  58.1727231  39.0928791  47.0785095  60.0970252
  39.9106374  47.0810952  61.1459127  40.8251834  46.6591901  61.0704028
  39.6133376  47.5049500  62.0131264  37.8877008  47.6329618  60.1920440
  37.2691354  47.6292983  59.3936308  37.5965937  48.0551291  61.0621763
  42.1247902  45.3113717  54.6276448  43.0997235  45.8865084  54.1556735
  40.8732864  45.6290245  54.2972436  40.1283573  44.9706032  54.4751802
  40.5645041  46.8396751  53.5090738  40.9657165  46.7693539  52.4980433
  39.0192000  47.1209719  53.4182985  38.6180358  47.1066171  54.4316891
  38.6976343  48.4652921  52.7617838  39.0981092  48.4802256  51.7481281
  37.6170568  48.6040250  52.7270562  39.1483587  49.2705630  53.3418596
  38.3123879  45.9955869  52.6630539  38.4696505  45.0519829  53.1855308
  37.2444892  46.2075022  52.6102930  38.7182867  45.9236263  51.6540105
  41.3701063  48.0387388  53.9995526  41.3923188  48.3726375  55.2213666
  42.0512053  48.6746954  53.0434374  42.0488220  48.2702280  52.1179646
  42.7962251  49.9153479  53.2560868  42.6678542  50.5740909  52.3972051
  42.4319586  50.4146443  54.1539244  44.2742530  49.6076840  53.4266347
  45.0815811  50.5294689  53.3719901  44.6620469  48.3390973  53.6476426
  43.9962095  47.5895216  53.7696929  46.1091065  48.0053213  53.6655075
  46.6054706  48.6229375  54.4140208  46.3554135  46.5556441  53.9969222
  45.7325308  45.9029752  53.3852526  47.4039897  46.2942556  53.8545704
  45.9612131  46.1462015  55.7422178  46.2856923  44.8590301  55.6597480
  46.7021189  48.2345127  52.2737996  45.9769251  48.1587400  51.2634623
  48.0021702  48.4741126  52.2277841  48.5514524  48.5803557  53.0686769
  48.6640921  48.7108565  50.9200789  47.9869693  48.4965254  50.0932379
  49.1793690  50.1861983  50.7767394  49.7440585  50.2615281  49.8474647
  48.0087682  51.2126798  50.7569787  47.4438606  51.1382585  51.6861937
  48.4105992  52.2209056  50.6564218  47.3512004  50.9984823  49.9144678
  50.0828887  50.4702924  51.8557211  50.4033097  51.3717077  51.7758386
  49.8011763  47.7113638  50.6599409  50.3823645  47.1062970  51.6159746
  50.1410138  47.5001628  49.3781009  49.6098413  47.8989860  48.6172493
  51.2948952  46.6536935  49.0524747  51.8279239  46.3903401  49.9660526
  50.8418992  45.3700647  48.3654160  51.7325546  44.7561909  48.2312850
  50.1581590  44.8720517  49.0528623  50.1498532  45.5690726  47.0111792
  49.3238641  46.2710357  47.1255933  50.8666122  45.9662499  46.2924242
  49.6002960  44.1965754  46.4956646  50.4277754  43.5464317  46.2116044
  49.0110118  43.7141243  47.2754623  48.7438508  44.4082026  45.3217598
  48.8438165  45.2835186  44.8278690  47.8357169  43.5279764  44.8838913
  47.6609340  42.3569374  45.5181857  48.2185412  42.1384956  46.3314861
  46.9726993  41.7001668  45.1789438  47.0965605  43.8090522  43.7769509
  47.2358708  44.6821863  43.2887607  46.4117967  43.1433367  43.4482867
  52.2473539  47.4165055  48.1381519  51.7747823  48.2760404  47.3616773
  53.5508648  47.1630061  48.2539730  53.9054560  46.5754668  48.9950277
  54.5020717  47.7900713  47.3604409  53.9861985  48.5505081  46.7741732
  55.6636784  48.4562267  48.1157527  56.0870980  47.6518719  48.7172745
  56.4159393  48.8207661  47.4162424  55.2240853  49.5963224  49.0289458
  54.3312308  50.4001482  48.7014476  55.8607068  49.7289299  50.0895103
  55.0252423  46.7761146  46.3754651  55.7849963  45.8974261  46.7210970
  54.6718916  46.9663870  45.1046384  54.1535487  47.7906637  44.8363328
  55.0393703  46.0017278  44.0565138  55.3267505  45.0209174  44.4353577
  53.8407721  45.8250014  43.0741339  53.4586526  46.8155978  42.8275519
  54.2461259  45.0901978  41.7733753  54.6279387  44.0992772  42.0191320
  53.3759974  44.9930014  41.1241221  55.0202793  45.6601690  41.2596429
  52.6314209  45.0950348  43.7489793  52.2869133  45.6762293  44.6043328
  51.8196896  44.9935738  43.0286339  52.9444373  44.1063293  44.0845131
  56.2410015  46.5786711  43.3102383  56.2829113  47.8143099  43.0497575
  57.2142624  45.7259673  43.0026776  57.2037536  44.7961972  43.3970333
  58.3224855  46.0930276  42.1221185  58.2378129  47.1303492  41.7982458
  59.7149240  45.8625065  42.7528104  59.7624504  44.8462402  43.1440192
  60.8496485  46.0649425  41.6783659  60.8030491  47.0811947  41.2870084
  61.8225320  45.8985138  42.1408592  60.7094054  45.3553511  40.8629452
  59.9239478  46.7744794  43.9887911  60.0838991  47.7837486  43.6094602
  58.9962451  46.7444497  44.5602502  61.1225201  46.3687206  44.9163628
  62.0506949  46.3989698  44.3456822  61.1876953  47.0652254  45.7522650
  60.9630418  45.3596692  45.2964705  58.1512466  45.2194055  40.8628244
  57.9853476  44.0112001  40.9573561  58.1255843  45.8460054  39.6895043
  58.1557780  46.8486352  39.5715163  57.8633157  45.0152194  38.5108182
  57.4024451  44.0697330  38.7967431  56.9734257  45.6967470  37.4505975
  56.8722419  45.0507672  36.5784902  55.5478241  45.9552482  38.0826152
  55.6481507  46.6015754  38.9545651  54.9051247  46.4371145  37.3458365
  55.1057475  45.0055610  38.3838858  57.6031825  46.9428606  36.9608698
  58.5691483  46.7105054  36.5125137  56.9588794  47.4070676  36.2142207
  57.7461153  47.6303074  37.7945892  59.1527526  44.4689634  37.8849942
  60.2462270  44.9369088  38.1835339  58.9892060  43.5000381  37.0063274
  58.0696483  43.1226979  36.8270866  60.1151984  42.9383169  36.2858002
  60.9406006  42.7206562  36.9636160  59.7310444  41.6366230  35.4938825
  60.6028296  41.2702901  34.9517651  59.2465500  40.5491805  36.4886382
  58.3744451  40.9146340  37.0308351  58.9800877  39.6462555  35.9392522
  60.0442273  40.3215318  37.1957352  58.6605069  41.9096544  34.4040255
  57.7620709  42.2898143  34.8902269  59.0492511  42.6635786  33.7194996
  58.2950297  40.5525398  33.5689252  57.9057604  39.7982607  34.2527617
  57.5423683  40.7812187  32.8144015  59.1929419  40.1720236  33.0820360
  60.6566436  43.9513116  35.2979825  59.9603471  44.9242794  34.9630067
  61.8707298  43.7125389  34.8293694  62.4105948  42.9230744  35.1540093
  62.4858849  44.6232200  33.8371043  62.4622704  45.6483708  34.2067088
  63.9439302  44.2250984  33.5914887  64.3838963  44.9335230  32.8895886
  64.4810529  44.2718769  34.5388065  64.0377524  42.9046213  33.0562030
  64.9605716  42.6823536  32.9126698  61.7721553  44.6497368  32.4922832
  61.0757653  43.6899586  32.1189205  62.0012259  45.7317699  31.7395077
  62.4858769  46.5391231  32.1047385  61.5465230  45.7660672  30.3507932
  62.3019501  46.2970917  29.7716195  61.4801592  44.7354713  30.0021282
  60.2076185  46.4409711  30.1496929  59.7599186  46.6140260  28.9942386
  59.5578994  46.8353059  31.2517847  59.9711510  46.7053915  32.1641688
  58.2302417  47.4439796  31.1721590  57.7603151  47.2104081  30.2167991
  57.3447525  46.8801474  32.3099794  57.9250208  47.0000756  33.2248592
  56.4915515  47.5581946  32.3299830  56.8457949  45.4345999  32.2076769
  57.6820219  44.7710859  31.9872812  56.1998488  45.0229834  33.5683189
  55.3631967  45.6858040  33.7891825  55.8417602  43.9954304  33.5050096
  56.9430240  45.0999649  34.3619592  55.8149379  45.2905304  31.1683988
  56.2288213  45.5807020  30.2026864  55.4849683  44.2525975  31.1246205
  54.9660241  45.9313780  31.4066395  58.3124789  48.9715758  31.2953455
  59.3404894  49.4931950  31.7753641  57.2321258  49.6817732  30.9147724
  56.0763733  49.1822129  30.1440729  55.5939191  48.3714061  30.6899031
  56.4124927  48.8167343  29.1737389  55.1568378  50.4624024  30.0204835
  54.4467153  50.5065348  30.8462422  54.6141210  50.4553461  29.0752269
  56.1307793  51.6074874  30.0718391  55.5866012  52.4761171  30.4425836
  56.6177702  51.8593845  29.1297736  57.1697660  51.1742600  31.0930318
  58.1548866  51.6009337  30.9043915  56.7311956  51.5129117  32.5289987
  55.8519922  52.3641646  32.7606511  57.4199702  50.8717703  33.4814579
  58.1785562  50.2570315  33.2231118  57.0819742  50.9990541  34.9010421
  57.0120658  52.0477238  35.1900125  55.7660221  50.3253792  35.2075976
  55.8234657  49.2723425  34.9320726  55.5532371  50.4105021  36.2732321
  54.9699708  50.8062456  34.6391179  58.1986758  50.3889367  35.7071899
  58.9200459  49.5186920  35.2244340  58.3444189  50.8845575  36.9368866
  57.8419241  51.7206225  37.1987907  59.2554033  50.2955600  37.9057717
  59.7448242  49.4319846  37.4554341  60.3509823  51.3060945  38.3648312
  59.8935200  52.1573763  38.8689608  60.9902923  50.7698020  39.0660966
  61.2171263  51.8269370  37.2120560  61.5214864  53.0279092  37.1456346
  61.6476851  50.9443789  36.3527125  62.2218871  51.2388791  35.5757560
  61.4047229  49.9709056  36.4685572  58.5528050  49.7605697  39.1373422
  58.9350615  48.7181277  39.6378726  57.5624296  50.4974226  39.6300911
  57.1871538  51.2666058  39.0937847  56.9456446  50.1871615  40.9339378
  57.1368049  49.1427928  41.1806175  57.5188174  51.0730944  42.0607834
  56.9948947  50.8279737  42.9846455  59.0322160  50.8586652  42.2565147
  59.5568890  51.1040464  41.3331481  59.3901616  51.5030813  43.0594481
  59.2216004  49.8169773  42.5155908  57.2997181  52.4536320  41.7317055
  57.6545125  53.0091518  42.4296446  55.4722615  50.4884265  40.8533426
  55.0305727  51.3101040  40.0235100  54.7051368  49.9167708  41.7625111
  55.0867037  49.1948877  42.3569780  53.3187309  50.2588762  41.9113849
  53.1631337  51.2907180  41.5964385  52.4184828  49.3356604  41.0478068
  52.6620307  49.4882254  39.9963756  52.6140496  48.2981245  41.3186813
  51.0074297  49.6383900  41.2690688  50.4670135  49.0584840  40.7275348
  52.9236075  50.1530410  43.3915415  53.3494498  49.2120712  44.0777347
  52.1503582  51.1286487  43.8769785  51.8806504  51.9069933  43.2925670
  51.6080373  51.0622687  45.2483685  52.0958165  50.2470627  45.7827933
  51.8454055  52.3806341  46.0314534  51.2736961  53.1841695  45.5671480
  51.3858620  52.2048434  47.5163300  51.9574929  51.4017330  47.9814658
  51.5546559  53.1333242  48.0617941  50.3247663  51.9568037  47.5418793
  53.2403659  52.6784931  45.9874719  53.4090118  53.4926249  46.4674180
  50.1369691  50.8962845  45.1308024  49.4693252  51.6936431  44.4538712
  49.6110887  49.8694099  45.7933477  50.1828538  49.3466149  46.4413210
  48.2342306  49.4583969  45.6058504  47.6842263  50.2043280  45.0321072
  48.2180850  48.1432582  44.8365186  48.7405288  47.3711709  45.4013486
  47.1909503  47.8271730  44.6543525  48.9414805  48.3690951  43.4737587
  48.3224363  49.0798066  42.9262423  49.8980016  48.8323027  43.7158441
  49.1800546  47.1281496  42.6087282  48.9503030  45.9621000  43.0455547
  49.6179076  47.3860641  41.4572631  47.5052651  49.2707332  46.9458554
  48.0917337  48.7699431  47.9224192  46.2539034  49.6858370  46.9547318
  45.8756296  50.0719589  46.1015506  45.3746146  49.6309924  48.1556649
  45.9631347  49.4150130  49.0473465  44.6835464  50.9871253  48.3413023
  45.4753670  51.6979975  48.5774806  44.2480347  51.2373177  47.3739175
  43.5857016  51.0542844  49.4351215  42.8857641  50.2359173  49.2664098
  44.0639696  50.9282229  50.4064456  42.8128830  52.4157305  49.4070544
  43.5174455  53.2465970  49.3702916  42.1571994  52.4572876  48.5373122
  41.9886418  52.5468337  50.6288004  42.4169616  53.0574776  51.3876708
  40.7547948  52.0730800  50.7978160  40.1350770  51.3791696  49.8467286
  40.6030656  51.2010302  48.9696009  39.1994857  51.0337268  50.0062208
  40.1196525  52.2854713  51.9709012  40.5830234  52.7991874  52.7067567
  39.1842552  51.9295999  52.1068652  44.3197342  48.5360423  48.0000961
  43.6235577  48.4417750  46.9875340  44.2243175  47.6650571  48.9965074
  44.9234324  47.6380714  49.7249368  43.1535822  46.6798801  49.0309504
  43.0548555  46.1734766  48.0707902  43.5132497  45.6236015  50.1155590
  44.4380792  45.1445715  49.7941249  43.6863608  46.1557000  51.0509754
  42.4285948  44.5532217  50.3279451  41.5049150  45.0558677  50.6147612
  42.1870587  43.7253721  49.0657873  43.1102393  43.2220241  48.7785989
  41.4140008  42.9820489  49.2606022  41.8644629  44.3809015  48.2568907
  42.9475592  43.6461094  51.4892341  43.0890243  44.2488582  52.3863299
  42.2190170  42.8608343  51.6909033  43.8972285  43.1948518  51.2018427
  41.7690697  47.3271996  49.3021467  41.6000141  47.9627833  50.3362490
  40.8342859  47.2603778  48.3505710  41.0146390  46.6748615  47.5476123
  39.5458644  47.9822764  48.4163471  39.6589078  48.8725070  49.0350635
  39.0783677  48.4150221  47.0099350  39.1781777  47.5200073  46.3958620
  38.0361957  48.7342233  47.0193128  39.9428630  49.5247309  46.4322039
  40.5066450  50.3363135  47.2325317  40.0141538  49.6584922  45.1726502
  38.4350725  47.1168745  48.9998288  37.5310084  47.6036134  49.7210385
  38.5114630  45.8257938  48.7250253  39.2299658  45.4572460  48.1183741
  37.4748385  44.8679538  49.2746781  37.2105797  45.1120378  50.3036045
  36.1772311  44.8497316  48.3918854  35.6980708  45.8252300  48.4750033
  36.4763340  44.5572303  46.9372653  36.9551182  43.5816202  46.8532942
  35.5468590  44.5554483  46.3679027  37.1427296  45.3236780  46.5415711
  35.1521973  43.8578406  48.9173063  35.5769892  42.8633732  48.7806054
  35.0356049  44.0593292  49.9821575  33.8507185  43.9234583  48.2655847
  33.9664495  43.7216035  47.2007087  33.1856130  43.1803719  48.7055353
  33.4250660  44.9175609  48.4022591  38.0759381  43.4990733  49.3596865
  38.8460482  43.1356703  48.4600206  37.7741735  42.7478538  50.4582827
  37.2676385  43.1479860  51.2350811  38.2126553  41.3661441  50.5601691
  38.3826598  40.9726958  49.5579734  39.5330646  41.2290844  51.3802673
  40.2090770  41.9714309  50.9559701  39.2888066  41.5050954  52.4060626
  40.2127609  39.8530983  51.3691192  39.4948354  39.1152010  51.7271575
  40.6981169  39.4556694  49.9473774  41.4164707  40.1929025  49.5888333
  41.1729429  38.4752807  49.9858343  39.8458601  39.4196638  49.2688036
  41.4346276  39.8510048  52.3247036  41.1040682  40.0769614  53.3384953
  41.9080857  38.8693469  52.3077847  42.1515542  40.6052335  52.0002744
  37.0657634  40.5946009  51.2144909  37.0534431  40.3842121  52.4580225
  36.0807418  40.2205098  50.4085714  36.1812295  40.3257105  49.4091044
  34.8406258  39.6659663  50.9211138  34.7020471  39.9830736  51.9547182
  33.6393171  40.1382749  50.0995263  33.7445270  41.2224358  50.0592125
  33.6873336  39.7312896  49.0894978  32.2921506  39.7801079  50.7297396
  32.1829675  38.6775304  51.3214937  31.3117333  40.5772099  50.5714825
  34.9633247  38.1533195  50.8474621  34.6758396  37.5621379  49.8143674
  35.3469498  37.5328442  51.9609234  35.6833317  38.0457129  52.7633648
  35.4500442  36.0676203  51.9776471  35.9801373  35.7358074  51.0848981
  36.2165493  35.5596310  53.2267399  35.8106694  36.0847687  54.0913734
  36.0360218  34.4900707  53.3342146  37.6959915  35.8112621  53.1370876
  38.2986082  35.5915129  52.0616647  38.2946544  36.2217577  54.1505106
  34.1320642  35.3134736  51.8110925  34.1475584  34.1011114  51.4500276
  32.9959763  35.9661211  52.0310755  32.9725229  36.9361453  52.3114364
  31.7416340  35.2572199  51.9093771  31.8843719  34.2153749  52.1962293
  30.6709076  35.8694535  52.8108053  31.0412518  35.7756732  53.8316626
  30.6118980  36.9240641  52.5417059  29.2811584  35.2406525  52.7135807
  28.6133241  35.7815604  53.3840408  28.9532221  35.3812701  51.6836372
  29.2519203  33.7279017  53.0638524  30.1498154  33.2369589  53.8177492
  28.3152613  33.0760402  52.5935199  31.2551916  35.2603251  50.4855533
  30.7982349  34.2262852  49.9607743  31.3726705  36.3931809  49.8312020
  31.7458505  37.2196962  50.2758461  30.8790794  36.5068119  48.4498278
  30.1188173  35.7505809  48.2543402  30.2655722  37.8688537  48.2517474
  31.0605973  38.6061443  48.3632684  29.8745958  37.9078531  47.2350289
  29.1202743  38.1836839  49.2608245  28.4651792  37.3146856  49.3224119
  29.5633688  38.3740186  50.2383429  28.3173198  39.3903299  48.8279937
  27.6876030  39.7043483  49.6604288  29.0087623  40.1934461  48.5730214
  27.4575502  39.1190735  47.6613985  27.0119405  38.2142930  47.6075148
  27.2256704  40.0047781  46.6841016  27.8284389  41.1858017  46.7142902
  28.4571573  41.4092216  47.4725097  27.6559619  41.8563131  45.9789224
  26.4037565  39.7243475  45.6564625  25.9449302  38.8257064  45.6114886
  26.2493228  40.4137470  44.9346750  31.9821378  36.2377496  47.3849552
  31.6535860  36.0665480  46.2053295  33.2314967  36.1575213  47.8320869
  33.3688363  36.3358653  48.8166835  34.4216304  35.8893532  46.9951707
  35.3066458  35.8875753  47.6314440  34.3342324  34.5284150  46.2665145
  33.3995300  34.4985150  45.7065710  35.1737866  34.4548818  45.5752537
  34.3775511  33.3687581  47.2371170  35.3252087  33.3842717  47.7754526
  33.5555292  33.4616403  47.9468740  34.2476753  32.0655485  46.4845227
  33.3031261  32.0542109  45.9406502  35.0734923  31.9708858  45.7794236
  34.2770180  30.9198803  47.3988225  34.9490759  30.9241622  48.1527583
  33.4864309  29.8558824  47.2574666  32.5626725  29.8071669  46.2865881
  32.4609310  30.5855123  45.6510354  31.9728818  28.9923543  46.1953362
  33.5885167  28.8532563  48.1130183  34.2620322  28.9009573  48.8641518
  32.9925249  28.0441820  48.0115720  34.5531325  37.0283038  46.0168252
  34.4999988  36.8348313  44.7741692  34.7115483  38.2172838  46.5994134
  34.7460357  38.2779596  47.6069989  34.9058681  39.4585866  45.8138269
  35.0667592  39.2788922  44.7508484  33.7257794  40.4168952  45.9740925
  33.5988851  40.6604625  47.0289252  33.9958620  41.7281498  45.1654462
  34.1224121  41.4854229  44.1103776  33.1521169  42.4081972  45.2826223
  34.9015510  42.2059571  45.5389822  32.4111222  39.7386713  45.5811119
  32.2449087  38.8703227  46.2186430  31.5877277  40.4421868  45.7043475
  32.4631819  39.4198245  44.5400897  36.1339027  40.1424982  46.3921130
  36.2669457  40.3282034  47.6295568  37.0623870  40.5430758  45.5032753
  37.0439617  40.1981262  44.5541865  38.1860483  41.3375978  45.9178039
  37.8965373  41.8759924  46.8202528  39.4982116  40.5054180  46.2239907
  39.2330210  39.6596142  46.8583330  40.1513897  39.9875583  44.9213881
  40.4172956  40.8328722  44.2866927  41.0496335  39.4203320  45.1653381
  39.4482712  39.3439508  44.3927159  40.4601793  41.3115734  46.9032415
  41.2469198  40.7905243  47.0797281  38.4278429  42.4611910  44.8946955
  37.7722967  42.5128544  43.8560873  39.2914957  43.3950654  45.2377573
  39.8266173  43.3459863  46.0929388  39.4949395  44.5647993  44.3462668
  39.8228643  44.2393053  43.3590393  38.5721148  45.1371076  44.2516251
  40.5559631  45.4434020  44.9493052  40.7865675  45.4176442  46.1799535
  41.2633315  46.1941552  44.1101244  41.1100403  46.1221984  43.1144219
  42.2889329  47.1071168  44.5849218  42.0429714  47.4410245  45.5929435
  43.6820824  46.4098929  44.6173914  44.4142799  47.0191629  45.1472746
  43.5778304  45.4485680  45.1204679  44.2645135  46.1229864  43.2535392
  45.1986837  47.0056165  42.6908642  45.4865373  47.8917777  43.2565129
  45.7639277  46.7652435  41.4185556  46.4920609  47.4484448  40.9813386
  45.3644639  45.6051533  40.7079275  45.7715663  45.4141065  39.7150183
  44.4354587  44.6908810  41.2854719  44.1333539  43.7878301  40.7550646
  43.9043476  44.9698470  42.5661783  43.2019713  44.2758822  43.0278929
  42.3683938  48.3336371  43.7056181  41.8427454  48.3367426  42.5615315
  43.0313632  49.3577019  44.2553024  43.4078009  49.2839004  45.1896189
  43.2462234  50.6012103  43.5179157  42.8236269  50.5349363  42.5153594
  42.5441319  51.7414117  44.2724689  42.7241853  51.6184740  45.3404419
  42.9628778  52.6915951  43.9409520  41.1370657  51.7280806  44.0222611
  40.7198538  52.4470874  44.5024311  44.7371924  50.8691254  43.4544735
  45.4468044  50.6991819  44.4554955  45.2198087  51.3739565  42.3076339
  44.6332481  51.4890945  41.4935153  46.5993268  51.7291112  42.2039805
  47.1289816  51.0527729  42.8748988  47.1039404  51.5119331  40.7409498
  46.4897538  52.0982982  40.0575384  48.5344073  51.9462713  40.6246791
  49.1493247  51.3599921  41.3075069  48.8795297  51.7920737  39.6023218
  48.6156900  53.0029279  40.8795694  47.0862108  50.0031477  40.4352422
  47.7979721  49.5037810  41.0926078  46.0843834  49.6184347  40.6261278
  47.4972462  49.7140039  38.8542622  48.4992057  50.0980517  38.6627309
  47.4773697  48.6410030  38.6635443  46.7856177  50.2127077  38.1962506
  46.7094873  53.1823300  42.6304973  46.1370637  54.0664801  41.9458632
  47.3630026  53.4215278  43.7543796  47.8005119  52.6652926  44.2611274
  47.3758875  54.7761548  44.3619243  46.6291992  55.4072347  43.8799555
  47.0949243  54.7118287  45.8685656  47.0514292  55.7197117  46.2813373
  45.7255884  54.0001437  46.0905847  45.7684654  52.9919704  45.6784575
  45.5120576  53.9469242  47.1581394  44.9375627  54.5632804  45.5905931
  48.1799668  53.9789495  46.6381998  48.1560148  52.9313729  46.3380160
  49.1404827  54.4137355  46.3616679  47.9805953  54.0856651  48.2483234
  47.0204313  53.6506312  48.5256869  48.7826091  53.5450141  48.7508864
  48.0048970  55.1329946  48.5493385  48.6477803  55.5695777  44.1110303
  48.7095226  56.7467262  44.4583650  49.6702144  54.8959549  43.5880955
  49.5842159  53.9010366  43.4369624  50.9042224  55.5353912  43.2264502
  50.6859242  56.3351846  42.5187952  51.3519145  55.9586961  44.1256076
  51.8887297  54.5696457  42.5921111  51.5416470  53.4381937  42.2074985
  53.1131014  55.0524852  42.4496223  53.3151063  56.0027697  42.7257613
  54.2076478  54.2393942  41.8938326  55.0065474  54.1653472  42.6316507
  53.8305964  53.2423768  41.6660434  54.7614012  54.8569834  40.6291323
  54.1944206  55.8178527  40.0977970  55.8608396  54.2784726  40.1373910
  56.2955292  53.5067892  40.6228279  56.5011259  54.7804008  38.9068751
  56.2764260  55.8388935  38.7757178  58.0076781  54.6113061  38.9937813
  58.2137448  53.5540357  39.1605599  58.4315308  54.9170750  38.0372489
  58.6467730  55.4488556  40.1339806  58.5086812  56.5032927  39.8948282
  58.0799691  55.2032602  41.0320427  60.1309560  55.1716954  40.3766509
  60.8369005  54.5903385  39.5260038  60.6167593  55.5792674  41.4553359
  55.9416523  54.0461505  37.7028108  56.4363679  52.9887077  37.3599606
  54.8858315  54.5980319  37.1064131  54.5450264  55.4756851  37.4720305
  54.2072350  54.0195242  35.9472933  54.9528075  53.7773776  35.1899387
  53.4237929  52.7345833  36.2974851  52.8917179  52.2993865  35.4515541
  54.1475690  52.0149011  36.6799843  52.4230215  52.9378571  37.3676709
  51.1732301  53.4874607  37.1401379  50.5377893  53.5893620  38.3050453
  49.5154859  53.9653233  38.3456409  51.3497277  53.1760168  39.2650926
  51.1501087  53.1830100  40.2551447  52.5173975  52.7316121  38.7017271
  53.3002624  52.3092519  39.3316760  53.2223852  55.0743676  35.4517238
  53.0355669  56.1272032  36.0955258  52.5607762  54.7997029  34.3364199
  52.7433705  53.9483157  33.8246597  51.6927311  55.8066426  33.7218760
  51.9229317  56.7925884  34.1256304  51.9135562  55.8367428  32.1698143
  51.5344020  54.9049610  31.7501432  51.3514760  56.6751597  31.7584470
  53.3427152  55.9860426  31.8255253  53.7531917  56.8355186  32.3714194
  53.8744084  55.0789343  32.1128562  53.5092844  56.2217102  30.3025724
  54.5744444  56.3426055  30.1052972  53.1446789  55.3302262  29.7922603
  52.7993326  57.3876005  29.7746497  53.0076640  58.2690058  30.2216642
  51.9179549  57.3731952  28.7849912  51.5448865  56.2340165  28.2034444
  51.9374462  55.3580473  28.5175701  50.8712280  56.2516339  27.4511323
  51.3885681  58.5347472  28.3423529  51.6669892  59.4075296  28.7675971
  50.7167938  58.5250379  27.5882152  50.1927295  55.7897353  34.0413543
  49.4430148  56.6735387  33.5778282  49.7208333  54.8273620  34.8398934
  50.3633341  54.1560032  35.2355819  48.2892890  54.6580000  35.1036479
  47.7334467  54.9823297  34.2239043  47.9053606  53.2005428  35.4185150
  48.4591061  53.0253293  36.3408845  46.8364088  53.1215184  35.6164978
  48.3136304  52.1446376  34.3637387  49.3744171  52.2587115  34.1405357
  48.0461638  50.6973151  34.9024337  46.9854348  50.5823262  35.1254369
  48.3392776  49.9680408  34.1472225  48.6275025  50.5335957  35.8098155
  47.6420306  52.3941859  33.0227915  47.9285284  53.3774804  32.6497628
  47.9557390  51.6305783  32.3110390  46.5596421  52.3536656  33.1448256
  47.7820731  55.5347702  36.2199489  48.3503608  55.5752053  37.3038101
  46.6992990  56.2270922  35.9608937  46.3146745  56.2861843  35.0288683
  46.1028000  57.0454969  37.0069380  46.6079431  56.8135158  37.9445490
  46.2204757  58.6373981  36.7359381  45.7668657  59.1638618  37.5756846
  47.6632918  59.0735811  36.5869551  48.1174668  58.5478482  35.7470565
  47.7018458  60.1478055  36.4062488  48.2103452  58.8394276  37.5001940
  45.5357905  58.9425031  35.5499755  45.5981679  59.8848870  35.3778653
  44.6693325  56.6316445  37.2477412  43.8929523  56.3378643  36.3091721
  44.3260756  56.5752488  38.5263745  45.0414371  56.7181175  39.2249058
  42.9941799  56.1638244  38.9714380  42.9961399  55.9711536  40.0442723
  41.9738304  57.3011475  38.6720568  42.0471791  57.5187383  37.6065178
  40.9488501  57.0214348  38.9155240  42.3329973  58.5584827  39.4510924
  42.7299156  59.6075485  38.8651650  42.2756453  58.4602150  40.7618995
  42.5024167  59.2599250  41.3356053  42.0051137  57.5855280  41.1883218
  42.5362613  54.8221492  38.4352746  41.3343483  54.6113858  38.1803063
  43.4992201  53.9059459  38.3283920  44.4654561  54.1602881  38.4760314
  43.1865113  52.5005074  38.0218552  42.5155608  52.4376267  37.1651343
  44.4996697  51.7496792  37.6791221  45.0083421  52.2990504  36.8869462
  45.1253205  51.7374436  38.5715970  44.2436863  50.3295736  37.2234810
  44.1336547  50.0163423  35.8481657  44.2476954  50.8131977  35.1132401
  43.8771459  48.6794493  35.4175924  43.8144302  48.4395705  34.3561656
  43.7553394  47.6622746  36.3744286  43.4986233  46.3345023  35.9700616
  43.4257440  46.2399247  35.0175159  43.8389695  47.9662621  37.7528287
  43.6923232  47.1761134  38.4892119  44.1090805  49.2766902  38.1744804
  44.2176482  49.4959745  39.2366610  42.5439663  51.8040513  39.2407620
  43.0582686  51.8711967  40.3608051  41.4261772  51.1254644  38.9930943
  41.0181769  51.1387885  38.0692666  40.7421082  50.3554179  40.0484369
  41.4540492  50.0815831  40.8270598  39.6077290  51.2024438  40.6885283
  40.0623032  52.1253859  41.0485833  38.8956661  51.4337182  39.8963297
  38.8925547  50.5215611  41.8213453  38.5356481  49.5550772  41.4654980
  39.6064575  50.3690834  42.6307868  37.6760381  51.3676414  42.3482045
  37.9896613  52.4031780  42.4801267  36.8663406  51.3237650  41.6198061
  37.1701419  50.7870436  43.7372081  38.0678085  50.6344440  44.3363814
  36.5660512  51.5770270  44.1834142  36.3637038  49.4950258  43.6930206
  36.9234394  48.7627721  43.2799827  36.1014946  49.2295803  44.6315753
  35.5316458  49.6363357  43.1382142  40.1846620  49.1147102  39.4064774
  39.5445573  49.2029299  38.3534749  40.3915269  47.9490820  40.0323670
  40.9977567  47.8693630  40.8362512  39.8195530  46.7258477  39.4714422
  39.0830287  47.0037705  38.7175257  40.8853877  45.7958129  38.8089858
  40.3765065  44.9645315  38.3210202  41.4418194  46.3670916  38.0659350
  41.7763938  45.2957995  39.7808190  42.4242012  44.7269516  39.3584950
  39.0173735  45.9690516  40.5261999  39.2521954  46.1261059  41.7520591
  38.0948124  45.1410992  40.0449921  37.9036825  45.0977707  39.0541887
  37.3306304  44.2795686  40.9328100  37.7688181  44.2093156  41.9283778
  35.8818408  44.8221515  41.0655262  35.5352136  45.0654456  40.0611574
  34.8887082  43.8196726  41.7291652  35.2344481  43.5762462  42.7338086
  33.8986409  44.2720585  41.7858597  34.8378567  42.9089884  41.1323654
  35.8883606  46.1129831  41.8533919  36.5033724  46.8507146  41.3380137
  34.8693901  46.4893734  41.9435532  36.2970290  45.9305671  42.8472810
  37.3485912  42.8825293  40.2890611  37.1339138  42.7386682  39.0949059
  37.5752434  41.8633487  41.1224731  37.6336851  42.0505933  42.1132422
  37.6699804  40.4868823  40.6762063  37.5156558  40.4114066  39.5998297
  39.0574438  39.9406508  41.0100410  39.2425687  40.0688320  42.0765299
  39.1510158  38.3879240  40.6357180  38.9664486  38.2589911  39.5692233
  40.1454461  38.0141360  40.8796239  38.4049892  37.8313107  41.2029273
  40.0100255  40.6885112  40.2724084  40.8920624  40.3627880  40.4660981
  36.6218016  39.6484836  41.4913761  36.6203314  39.6957489  42.7459836
  35.7649460  38.9169658  40.8020909  35.7791157  38.9697044  39.7935686
  34.7313227  38.1123337  41.4365041  34.8968856  38.1228907  42.5138048
  33.3284282  38.6274164  41.1554011  32.6101702  37.9790528  41.6572282
  33.1598993  40.0641421  41.6615810  33.8775612  40.7132236  41.1598298
  32.1480438  40.4087321  41.4482615  33.3340638  40.0937512  42.7371695
  33.0564264  38.6212672  39.7413020  32.1678297  38.9492139  39.5849462
  34.8648255  36.6669001  41.0304210  35.1930331  36.3810098  39.8784281
  34.6293317  35.7570803  41.9875352  34.3796780  36.0498171  42.9213861
  34.8077222  34.2931839  41.7261767  35.1463005  34.1092447  40.7065541
  35.8473662  33.7035253  42.7056581  35.4889243  33.8685767  43.7217175
  36.0648842  32.2194897  42.4815347  36.4237968  32.0536797  41.4657642
  36.8033118  31.8485542  43.1923315  35.1241030  31.6880811  42.6251916
  37.1834849  34.4429250  42.5495140  37.0413652  35.5012775  42.7681324
  37.9140301  34.0243643  43.2417641  37.5451673  34.3289200  41.5276092
  33.4585079  33.5687037  41.8266170  32.7259663  33.7589726  42.8265983
  33.1049879  32.7922454  40.8045186  33.7624854  32.6440961  40.0522898
  31.7881367  32.1728849  40.7040125  31.2016184  32.3599448  41.6035146
  31.0538038  32.7891095  39.5015682  31.6230801  32.5221968  38.6111855
  30.0186875  32.4701419  39.3795275  31.0364052  34.2768285  39.5660306
  30.0666162  34.9653253  40.2806847  29.2893852  34.5409771  40.7664215
  30.3320961  36.2653040  40.2177331  29.6832096  36.9852920  40.7163938
  31.4362899  36.4392537  39.4929563  31.9072811  35.2139561  39.0885193
  32.8216054  35.1491417  38.4986792  31.8283707  30.6748904  40.5468033
  32.5759728  30.1411576  39.7078429  31.0143381  29.9883085  41.3662411
  30.5377421  30.4936951  42.0994122  30.7804154  28.5152752  41.2526672
  31.7101198  27.9971652  41.0174842  30.2517168  27.9893653  42.5935328
  30.9399031  28.3242296  43.3696544  29.2728010  28.4397978  42.7576502
  30.1291126  26.4938796  42.6451045  29.3617250  26.1592472  41.9470800
  31.0821037  26.0332987  42.3847676  29.7444111  26.0933490  44.0419602
  30.4081577  26.5825049  44.7548879  28.7159225  26.3978238  44.2358827
  29.8462947  24.6515217  44.2228184  30.7145802  24.2995268  44.6000177
  28.8855431  23.7862135  43.9343047  27.7282283  24.2045803  43.4274549
  27.5800252  25.1896763  43.2609564  27.0034794  23.5350552  43.2116432
  29.0891849  22.4889902  44.1499331  29.9708506  22.1757138  44.5302272
  28.3611499  21.8236304  43.9323094  29.7778362  28.1180109  40.1829452
  28.6937958  28.7471615  40.0239388  30.1429989  27.0821730  39.4158495
  31.0972268  26.7533770  39.4538192  29.2218845  26.4302152  38.4869667
  28.2082197  26.7858772  38.6715945  29.5893536  26.7362906  37.0401584
  30.6569702  26.6340836  36.8456136  29.0360931  26.0532017  36.3956489
  29.2068381  28.1289554  36.6202063  27.9779697  28.3616368  36.0395862
  27.3008706  27.5246820  35.8688723  27.5971653  29.6552870  35.6708218
  26.6370438  29.8442625  35.1906595  28.4810407  30.7279276  35.9304511
  28.1768806  31.7450220  35.6832557  29.7315597  30.4932921  36.4973077
  30.4382760  31.3092664  36.6484307  30.0712172  29.2086893  36.8690849
  31.0233415  29.0184120  37.3644169  29.2343614  24.9177348  38.7237229
  30.2711028  24.3563520  39.0356356  28.0755957  24.2943478  38.5857634
  27.2372999  24.8219769  38.3883626  27.9634741  22.8381814  38.7294714
  28.9149061  22.3762443  38.4658612  27.6074001  22.4404343  40.1650791
  28.4394408  22.7612406  40.7918891  26.7138129  23.0049464  40.4314026
  27.3432258  20.9020273  40.3896297  26.3813394  20.6499037  39.9431894
  28.1352364  20.3554751  39.8776734  27.3339857  20.5144736  41.8839602
  27.1124147  21.4091400  42.7412002  27.5384910  19.3079171  42.2062131
  26.8953143  22.3577211  37.7886199  25.8203809  22.9671686  37.7036261
  27.2009152  21.2845687  37.0735724  28.1050474  20.8572436  37.2151262
  26.3078695  20.7033781  36.0685770  25.2806290  20.7078070  36.4330720
  26.3726596  21.5273868  34.7710590  26.1373244  22.5515523  35.0605440
  27.4095328  21.4732798  34.4392962  25.4552859  21.0980748  33.6375721
  25.7101477  20.0850400  33.3262733  24.4198599  21.1235943  33.9771952
  25.6272684  22.0525787  32.4555609  25.2893060  23.0391810  32.7725723
  26.6890548  22.0935265  32.2125953  24.8427892  21.6189341  31.2269463
  25.2644493  20.6911126  30.8403578  23.8013543  21.4562261  31.5045046
  24.9180784  22.6791344  30.1714290  25.8829799  22.8297512  29.9137869
  24.3949991  22.3836218  29.3595421  24.5270189  23.5388419  30.5293038
  26.8039471  19.2701904  35.8802449  27.9657292  19.0577072  35.5244819
  25.9229674  18.2936012  36.1517303  24.9533731  18.5635845  36.2359630
  26.2728676  16.8694666  36.3395727  25.3521582  16.2870966  36.3043809
  27.2404479  16.3222747  35.2799533  28.1450319  16.9271409  35.3429132
  27.4692840  15.2962490  35.5680599  26.7135886  16.3427307  33.8468330
  25.6963131  15.9514569  33.8593273  26.7000871  17.3776342  33.5049386
  27.5750109  15.4993426  32.8926663  28.8324887  15.4602584  33.0735419
  26.9827778  14.8815733  31.9615067  26.9179268  16.7457517  37.6942878
  26.4750102  17.3631490  38.6666537  27.9699266  15.9484188  37.7727145
  28.2057515  15.2836471  37.0498283  28.7641382  15.9593351  38.9777701
  28.2147937  16.4775304  39.7637684  29.0688872  14.5249722  39.4532889
  28.1338209  14.0001832  39.6491120  29.6267103  13.9962204  38.6804015
  29.8973579  14.5353865  40.7300090  30.2349255  15.5985694  41.2458884
  30.2249540  13.3458127  41.2397332  30.7739732  13.2963347  42.0860367
  29.9222781  12.5007583  40.7767309  30.0446378  16.7736983  38.7284327
  31.0627334  16.5544001  39.4027423  29.9850976  17.7306866  37.7877513
  29.1889602  17.7900904  37.1690950  31.1913788  18.5165984  37.4546217
  32.0152589  18.1909120  38.0896407  31.6039661  18.3400245  35.9869581
  32.6873245  18.4601540  35.9886309  31.3540329  17.3052361  35.7527651
  30.9939209  19.2583502  34.9388042  30.0084866  18.8946257  34.6477292
  30.9053186  20.2711720  35.3317975  31.9346520  19.2643623  33.6933827
  31.9886598  18.2708141  33.2483611  31.5805746  19.9768599  32.9483486
  33.2844122  19.6626807  34.1224696  33.7632619  19.0315120  34.7489107
  33.9064977  20.7857468  33.7501066  33.3080303  21.6089300  32.8829080
  32.3953275  21.3764545  32.5181770  33.7714060  22.4594476  32.5965474
  35.1262935  21.0752834  34.2437672  35.5676415  20.4416955  34.8948266
  35.5937744  21.9245957  33.9605200  31.1421663  19.9833331  37.9541629
  30.1844232  20.6934890  37.7307196  32.1738267  20.3817172  38.6854857
  32.9755029  19.7769476  38.7935054  32.2005493  21.6904808  39.3356223
  31.2668254  22.2459165  39.2475875  32.5505715  21.5116937  40.8172594
  33.4532357  20.9058523  40.8963418  32.7877512  22.8697962  41.4837513
  31.8853068  23.4760695  41.4054732  33.0348606  22.7210427  42.5348984
  33.6121519  23.3803632  40.9859723  31.4453683  20.6768602  41.5220232
  30.5546224  21.3010042  41.5935543  31.2328999  19.8120561  40.8934767
  31.8633431  20.1882671  42.9661402  32.0755337  21.0525909  43.5954409
  31.0493009  19.6111890  43.4047919  32.7538131  19.5636443  42.8953634
  33.2819424  22.5260612  38.6413238  34.3920720  22.0575907  38.4988716
  32.9731247  23.7446898  38.1931575  32.0271576  24.0920076  38.1252164
  34.0690736  24.5877486  37.6678950  35.0196535  24.2419665  38.0740131
  34.1364387  24.5192409  36.1323399  35.0518299  24.9771227  35.7575035
  34.1237589  23.4624774  35.8655248  32.9903602  25.1682354  35.3857703
  32.9861068  26.4246582  34.8034915  33.8883865  27.0220509  34.9343088
  31.7902573  26.6564740  34.1573046  31.5404413  27.5024846  33.6654127
  30.9889970  25.5620633  34.3093582  29.6820986  25.3371534  33.8499835
  29.1872198  26.1198849  33.2750704  29.1017114  24.1229194  34.1608025
  28.0883217  23.9076688  33.8219685  29.7912299  23.1519051  34.9084952
  29.3179146  22.2001109  35.1496588  31.0929320  23.3705316  35.3635669
  31.5911464  22.5686339  35.9084001  31.7081310  24.6000393  35.0813634
  33.8839748  26.0210346  38.1937626  32.9199808  26.3165376  38.9396148
  34.8346249  26.8806071  37.8430869  35.5816781  26.5782326  37.2343337
  34.8222071  28.2695096  38.2842647  33.9326613  28.4741683  38.8800182
  36.0655719  28.5469102  39.1462176  36.9507241  28.3195899  38.5521373
  36.1227094  29.9617498  39.5984557  35.2380497  30.1896946  40.1930296
  37.0160668  30.1143760  40.2040271  36.1559672  30.6201388  38.7304014
  36.0704068  27.7030031  40.3238756  36.8523707  27.8901027  40.8484008
  34.8702169  29.2131076  37.0543176  35.5159189  28.9135340  36.0429627
  34.1842351  30.3493016  37.1852375  33.4843105  30.4329781  37.9085652
  34.3812153  31.4864998  36.2686541  35.1541765  31.2259644  35.5456386
  33.0993314  31.8567956  35.5053247  32.2918146  31.9988176  36.2235487
  33.3020652  33.1798258  34.6755247  34.1091718  33.0384143  33.9567183
  32.3812691  33.4208830  34.1443690  33.5562767  33.9972070  35.3503329
  32.7244628  30.7090436  34.5306212  32.5573286  29.7919646  35.0955409
  31.8154469  30.9730048  33.9901453  33.5369201  30.5547895  33.8205369
  34.8700651  32.6364786  37.1324419  34.3021790  32.9488488  38.2082245
  35.9729005  33.2300466  36.7042922  36.5102312  32.8527647  35.9368070
  36.4248089  34.4487655  37.3184981  35.9380390  34.5937352  38.2829348
  37.9357298  34.4181910  37.5343620  38.4189280  34.1987656  36.5822742
  38.4635120  35.8040024  38.0862439  37.9810734  36.0239045  39.0386079
  39.5427184  35.7512263  38.2298715  38.2308389  36.5928962  37.3709737
  38.3110113  33.2974280  38.5392714  37.9875043  32.3334255  38.1466589
  39.3911972  33.2859180  38.6847555  37.8183766  33.4843711  39.4934538
  36.0773224  35.6221094  36.3680102  36.3097534  35.5221907  35.1312269
  35.5689680  36.7101485  36.9438623  35.3517901  36.7005652  37.9301894
  35.3482651  37.9727819  36.1842022  35.5709606  37.8046517  35.1305238
  33.9138325  38.4462027  36.3064547  33.7974138  38.5829981  37.3815514
  33.8001853  39.4068268  35.8040745  32.8517378  37.4805179  35.8002644
  32.9974421  36.5115803  36.2777903  31.4272324  38.0129527  36.1318104
  31.2806088  38.9817156  35.6542136  30.6808480  37.3096783  35.7624650
  31.3212423  38.1208591  37.2112653  33.0496870  37.2271327  34.2765873
  34.0368638  36.7983043  34.1042865  32.2863805  36.5352118  33.9206238
  32.9645707  38.1702706  33.7368234  36.2411355  39.0226858  36.7982594
  36.2867872  39.1375457  38.0188007  36.9688680  39.7790298  35.9588583
  37.0023400  39.5631390  34.9727700  37.7733262  40.8883885  36.4501742
  37.4526295  41.1391357  37.4613016  39.2791325  40.5445076  36.4808733
  39.4281245  39.7057460  37.1608582  39.5882122  40.2563447  35.4761186
  40.1050007  41.7189040  36.9431597  40.1330450  42.4718805  36.1555427
  39.6016218  42.1284907  37.8189152  41.5356136  41.3184904  37.3175564
  41.6907939  40.2608578  37.9083511  42.4917032  42.0328850  36.9991728
  37.4971270  42.0781057  35.5598030  37.5469823  41.9512914  34.3259758
  37.1323929  43.2146775  36.1630191  36.8993512  43.2586419  37.1447818
  36.9974964  44.4423155  35.3566515  37.3504314  44.2674154  34.3403119
  35.5186217  44.8590803  35.2983188  35.4299930  45.7297431  34.6485569
  34.9429180  44.0337006  34.8794947  35.0217574  45.1760387  36.5781696
  34.0989963  45.4316091  36.5089190  37.8712051  45.5460978  35.9435250
  38.2702907  45.4690094  37.1014460  38.1491292  46.5884634  35.1638827
  37.8609245  46.6058105  34.1960312  38.8563802  47.7468898  35.6951249
  38.7435659  47.7500592  36.7792661  40.3867246  47.7545904  35.3503572
  40.7904299  48.6738854  35.7746425  40.8650842  46.8964501  35.8224454
  40.6597244  47.7254471  33.8403907  40.6735126  48.9161125  33.0799674
  40.5237173  49.8671821  33.5909738  40.8703955  48.8904007  31.7249991
  40.8389675  49.8193690  31.1556731  41.0609855  47.6952771  31.0780509
  41.2789380  47.7211886  29.7170736  41.2737120  48.6095405  29.3532011
  41.0802838  46.4941338  31.7894182  41.2611589  45.5467067  31.2817111
  40.8653093  46.5168061  33.1606793  40.8544993  45.5850028  33.7261224
  38.2530822  49.0053130  35.0819988  37.5675570  48.9328429  34.0365973
  38.5514375  50.1206724  35.7469518  38.8715748  50.0519237  36.7024020
  38.3668034  51.4546538  35.1707107  38.2030908  51.4114042  34.0939438
  37.1622405  52.2112830  35.8307186  36.2450573  51.6511264  35.6487876
  37.3882844  52.3471051  37.3496309  38.3051086  52.9075894  37.5323645
  36.5456000  52.8740319  37.7972151  37.4741962  51.3558605  37.7947769
  36.9594924  53.6139349  35.1593447  36.7550051  53.4825838  34.0967846
  36.1194204  54.1246147  35.6300726  37.8629319  54.2109211  35.2838648
  39.6757593  52.1796013  35.3508288  40.3934719  51.9557722  36.3368603
  40.0434207  53.0359765  34.3876795  39.4745193  53.1959563  33.5686209
  41.3102509  53.7653256  34.5076641  41.5171309  54.1546048  35.5045400
  42.5171176  52.8520868  34.0626378  42.5494758  51.9777419  34.7126942
  42.3632206  52.3956348  32.5920089  42.3312506  53.2694796  31.9412600
  43.2103324  51.7679951  32.3152951  41.4395233  51.8274666  32.4821471
  43.8470264  53.5108503  34.3048016  43.9587940  53.7250519  35.3676881
  44.6471964  52.8443599  33.9829039  43.9004489  54.4413293  33.7395975
  41.2145773  54.9982853  33.6036325  40.4499664  54.9931942  32.6499291
  41.9790861  56.0235167  33.9320875  42.5117122  55.9975680  34.7898378
  42.1172573  57.1926669  33.0656595  41.1340828  57.5570873  32.7678929
  42.8460546  58.3088457  33.8129108  43.8386451  57.9330954  34.0612551
  42.9383161  59.1551170  33.1321665  42.1400971  58.7562662  35.0855023
  40.9240186  58.5153117  35.2289280  42.8551924  59.3671430  35.9369224
  42.9601040  56.8831250  31.8133616  43.8870239  56.0732120  31.8397327
  42.6945601  57.5595051  30.6915656  41.8936930  58.1684353  30.6025979
  43.6016387  57.4385465  29.5543658  43.9145727  56.3998682  29.4479750
  42.9091222  57.8879153  28.2325040  42.4179743  58.8379810  28.4428568
  43.7014766  58.0433926  27.5003146  41.8824623  56.8949259  27.6715704
  41.8126135  57.1128513  26.6058638  42.3203350  55.9066510  27.8118639
  40.2225206  56.9183974  28.3938746  39.5613499  58.4639191  27.6517131
  39.5672311  58.3772807  26.5651781  38.5403026  58.6256516  27.9972643
  40.1837659  59.3069057  27.9518352  44.7748909  58.3559950  29.8468664
  44.5405210  59.5606244  30.1242554  46.0253387  57.8328241  29.7935526
  46.4607761  56.4290058  29.6520628  46.0329762  56.0044552  28.7438535
  46.1240422  55.8542138  30.5148046  47.9640311  56.5413831  29.5868715
  48.2636534  56.4035920  28.5479590  48.3851680  55.7409196  30.1951504
  48.3766125  57.8601766  30.0949997  49.1486574  58.2297272  29.4201086
  48.7630740  57.8437147  31.1140563  47.1470343  58.7604938  30.0190498
  46.9508514  59.3296616  30.9277074  47.3163867  59.7289398  28.8342642
  46.7635105  59.4936404  27.7567564  48.0846276  60.7837055  29.0679099
  48.5712838  60.8350379  29.9514427  48.2455384  61.9113284  28.1056832
  47.2786881  62.3564339  27.8707773  49.1410962  62.9892033  28.7474605
  48.7056578  63.1942381  29.7254449  50.1192369  62.5256576  28.8757809
  49.2997020  64.3325682  27.9542696  49.2045395  64.1300548  26.8874832
  48.4920363  64.9920599  28.2718320  50.6618693  65.0153922  28.2301748
  51.0508817  65.1958820  29.4150211  51.3598059  65.3546280  27.2512710
  48.8567977  61.3670466  26.8423193  49.8312571  60.6226111  26.9057675
  48.2664651  61.6922217  25.6818278  47.4454307  62.2799676  25.6582364
  48.7989039  61.2025054  24.4228135  48.5862537  61.9565729  23.6650132
  49.8776815  61.1031681  24.5431062  48.2299980  59.8763283  23.9706240
  48.5048519  59.4463534  22.8638530  47.4197299  59.2202869  24.8055248
  47.2020960  59.5973917  25.7168572  46.8794907  57.9166215  24.4515414
  47.2288192  57.6226465  23.4617700  47.3428295  56.8684094  25.4647134
  47.1224667  57.2537174  26.4602421  46.8135283  55.9274669  25.3144884
  48.7927439  56.6143358  25.3678595  49.5367395  57.0319781  26.2383373
  49.2314931  55.9528726  24.2764020  50.2167621  55.7578787  24.1699964
  48.5725929  55.6558271  23.5709126  45.3665067  57.8995557  24.3611851
  44.6527914  58.5560768  25.1481772  44.8765780  57.1158857  23.4155762
  45.5154294  56.6269059  22.8049479  43.4713500  56.9484758  23.2017602
  42.9442853  57.8907724  23.3513566  43.2473081  56.4886642  21.7710112
  42.1756811  56.4615756  21.5735756  43.7230534  57.1985811  21.0944135
  43.8067412  55.1784179  21.5622954  43.6549762  54.9066391  20.6541635
  42.8408094  55.9312306  24.1618480  43.5824069  55.1968399  24.8843413
  41.4998119  55.8757128  24.1639639  40.9475810  56.5913408  23.7133898
  40.7895794  54.7674638  24.8532963  41.0442098  54.8211594  25.9117760
  39.2665683  54.7950478  24.7149623  39.0183713  54.8401442  23.6545550
  38.8657487  53.8760591  25.1426346  38.6677738  55.9764453  25.4189424
  39.0400589  55.9664558  26.4433471  39.0445502  56.8605159  24.9045905
  37.1520579  56.0077747  25.4327228  36.5024681  54.9226900  25.4474953
  36.6216421  57.1533268  25.4422934  41.2569731  53.4277887  24.3229911
  41.5446845  52.5240171  25.1093549  41.3499936  53.3020680  22.9989554
  41.0340475  54.0261215  22.3696510  41.8275619  52.0459818  22.4256345
  41.2003894  51.2195692  22.7599936  41.7711289  52.1159123  20.8852975
  42.1415269  53.1043190  20.6133474  42.4279163  51.3541201  20.4652940
  40.3315347  51.9280593  20.3212729  39.4099389  51.4009838  21.0242079
  40.1339610  52.2893244  19.1150759  43.2354336  51.6615460  22.9054851
  43.4895571  50.4615082  23.2498635  44.1510046  52.6308769  22.9284089
  43.9049223  53.5877488  22.7187926  45.5323919  52.3430324  23.3705407
  45.9865903  51.6324449  22.6799841  46.3842502  53.5899670  23.4096762
  45.7866199  54.3351094  23.9347478  47.2893466  53.3828270  23.9806347
  46.7693190  54.1301965  22.0105661  46.6823781  53.3868152  20.9910076
  47.1991986  55.3181677  22.0186151  45.4859384  51.8561984  24.8200651
  46.2108487  50.8997119  25.2042508  44.6488167  52.5340832  25.6133371
  44.0420489  53.2464439  25.2332392  44.6379453  52.3076547  27.0967574
  45.6702969  52.3299697  27.4458296  43.8623413  53.4521654  27.7790172
  42.8128607  53.4074498  27.4879993  43.9786740  53.3012844  29.3203746
  45.0279095  53.3463703  29.6122166  43.4316324  54.1085891  29.8073075
  43.5582432  52.3428486  29.6249058  44.5088871  54.7018520  27.3976563
  44.0487928  55.4381545  27.8072564  44.0475465  50.9745386  27.4233823
  44.6589644  50.1748513  28.2183228  42.8957109  50.6944939  26.8117161
  42.3363702  51.4052610  26.3622192  42.3339196  49.3456107  26.9404396
  42.2768707  49.0873417  27.9978618  40.9282151  49.2368421  26.3322544
  40.9811392  49.5787228  25.2986124  40.6326718  48.1878743  26.3527687
  39.8825288  50.0832797  27.1033734  39.8007160  49.6619859  28.1053310
  40.2725155  51.0990955  27.1676436  38.4880266  50.1086337  26.4405840
  37.8682891  50.8668497  26.9192624  38.5901532  50.3399065  25.3803093
  37.8348819  48.8236778  26.5741920  38.2690093  48.1571326  27.1965668
  36.7214039  48.4679681  25.9402437  36.1287947  49.3040233  25.0878436
  36.5278189  50.2166731  24.9206609  35.2834570  49.0210344  24.6130582
  36.1956393  47.2684459  26.1629211  36.6439666  46.6362578  26.8105636
  35.3500114  46.9941956  25.6835475  43.2655785  48.2585140  26.4121002
  43.3614668  47.1895318  27.0125196  43.9618470  48.4867743  25.3042133
  43.8826109  49.3412270  24.7715487  44.8608290  47.4395072  24.8087651
  44.2913817  46.5218264  24.6614868  45.5203295  47.8308636  23.4697056
  45.8888387  48.8517211  23.5704532  46.3608232  47.1560978  23.3073433
  44.5669710  47.7497798  22.2820503  43.9922866  46.8236762  22.2951165
  43.8849174  48.5997332  22.2600482  45.6101514  47.7835370  20.7977997
  47.2753362  48.0989144  21.4748749  47.5475023  47.2961746  22.1601730
  47.9976981  48.1405392  20.6596686  47.2767549  49.0486591  22.0097432
  45.9713799  47.1081056  25.7919175  46.3286738  45.9425553  25.9627433
  46.5845038  48.1543470  26.3503556  46.3313130  49.0840307  26.0475654
  47.6431160  48.0145261  27.3625806  48.4762222  47.4484260  26.9459706
  48.1685722  49.4182992  27.8148183  48.6043660  49.8981878  26.9385250
  47.3906549  50.0589863  28.2301069  49.2692852  49.3383489  28.8591219
  50.5890787  49.2075324  28.4730947  50.8225674  49.2025850  27.4084076
  51.6294507  49.0814270  29.4273612  52.6653773  48.9902301  29.1008036
  51.3282358  49.0743721  30.7695552  52.1280090  48.9986457  31.5062562
  49.9922241  49.1645889  31.1907625  49.7534222  49.1185759  32.2532862
  48.9602714  49.3144524  30.2422981  47.9261670  49.4117866  30.5728341
  47.1052003  47.2280597  28.5926161  47.6373062  46.1541074  28.9268297
  46.0400755  47.7317164  29.2354217  45.6229171  48.6069896  28.9526233
  45.5110674  47.0595195  30.4484240  46.3447862  46.9436172  31.1409403
  44.4098023  47.9285000  31.1342915  43.5643245  48.0458615  30.4564319
  44.0762991  47.4379184  32.0487343  44.8189615  48.9091666  31.3771518
  44.9818364  45.6417565  30.1320246  45.2121976  44.6775184  30.9413834
  44.3039967  45.4870856  28.9910095  44.1033036  46.2797254  28.3980983
  43.7871643  44.1445495  28.5795354  43.1200211  43.7579509  29.3499643
  43.0028316  44.2384116  27.2471971  43.6208156  44.7845870  26.5345349
  42.8614328  43.2162337  26.8961149  41.6461903  44.9244699  27.3737888
  41.1728967  45.2866660  28.4852176  41.0625786  45.1037498  26.2732089
  44.9010858  43.1007259  28.4123342  44.7664633  41.9180241  28.8587613
  46.0382762  43.5107822  27.8281486  46.1260600  44.4443843  27.4529414
  47.1604887  42.6017628  27.6813703  46.8810517  41.7435334  27.0702595
  48.3443281  43.3278729  27.0015980  48.5886644  44.2115772  27.5910611
  49.5878359  42.4204676  26.8960852  49.3443869  41.5367152  26.3063277
  50.3974273  42.9674131  26.4128549  49.9013795  42.1153525  27.8944317
  47.9040918  43.7136765  25.6982068  48.6151664  44.1698770  25.2422965
  47.5806766  42.0586345  29.0400063  47.7825244  40.8174206  29.2129647
  47.6953440  42.9580607  30.0234095  47.5556041  43.9446473  29.8584274
  48.1326335  42.5237289  31.3798415  48.9948126  41.8622271  31.2952145
  48.5214700  43.7429984  32.3013365  47.6964281  44.4553191  32.2992767
  48.8106928  43.2778091  33.7814700  49.6359793  42.5657736  33.7843896
  49.0756282  44.1427849  34.3895214  47.9205033  42.8031296  34.1941972
  49.7523726  44.4209943  31.7323617  49.5387203  44.7766183  30.7244003
  50.0275234  45.2654081  32.3643087  50.5770969  43.7090961  31.6987241
  47.0567408  41.6605812  32.0554641  47.3645033  40.5592234  32.5951041
  45.8250663  42.1738057  32.0983074  45.6269603  43.0802279  31.6992434
  44.7389437  41.4734110  32.8265684  45.0857903  41.2845073  33.8424975
  43.4219017  42.3251136  32.8963191  43.1165383  42.6011128  31.8870239
  42.2959085  41.4965723  33.5684304  42.6003744  41.2205786  34.5779991
  41.3840479  42.0919636  33.6144739  42.1109383  40.5941245  32.9857850
  43.6569241  43.5920032  33.7495021  44.4483195  44.1917614  33.2999631
  42.7383135  44.1771412  33.7927199  43.9501478  43.3019575  34.7584591
  44.4708085  40.0994012  32.2086019  44.3207167  39.0831772  32.9216595
  44.4854758  40.0160351  30.8854995  44.6392529  40.8011747  30.2690519
  44.1725623  38.7132715  30.2877535  43.2705507  38.3146041  30.7520148
  43.9358310  38.8222345  28.7547670  44.7864287  39.3628889  28.3397060
  43.9254661  37.8055249  28.3619639  42.6310764  39.5379028  28.3599452
  41.8063538  38.9665879  28.7860119  42.6563361  40.5299332  28.8108773
  42.4249617  39.6749081  26.7917985  42.1351373  38.6995919  26.4008266
  41.6210594  40.3897198  26.6160584  43.6836334  40.1472231  26.0892188
  43.7985058  41.2135121  26.2839819  44.5297977  39.6075122  26.5144450
  43.6337034  39.9099644  24.5942960  42.8499498  40.4103352  24.2000129
  44.4901707  40.2394068  24.1723582  43.5276921  38.9219311  24.4136005
  45.2609753  37.6686992  30.5716862  44.9429772  36.4934833  30.7801062
  46.5346944  38.0799999  30.5379771  46.7784020  39.0289651  30.2926795
  47.5991283  37.1588754  30.8439692  47.5336330  36.2765300  30.2073562
  48.9502932  37.8461760  30.5930501  48.8393646  38.2304695  29.5790912
  49.0934740  38.6780403  31.2826884  50.1799270  36.9052897  30.6568285
  50.2105327  36.4487458  31.6461373  50.1141572  35.8111939  29.5935079
  50.0839899  36.2669892  28.6038415  50.9946433  35.1735502  29.6725987
  49.2168255  35.2109954  29.7440336  51.4689306  37.7229538  30.5601895
  51.5146489  38.4294528  31.3889647  52.3283758  37.0540919  30.6057840
  51.4836688  38.2688461  29.6168532  47.4865051  36.7279290  32.3206074
  47.7133050  35.5445878  32.6691852  47.1880701  37.6826059  33.1925663
  47.0141649  38.6349184  32.9045432  47.1167730  37.3576348  34.6558105
  48.0621238  36.9290796  34.9886041  46.8451803  38.6211491  35.4608292
  46.0449643  39.1604406  34.9539581  46.5244667  38.3597548  36.4692516
  48.0861437  39.5517473  35.5598685  49.1787226  39.1548209  35.2702313
  47.8687460  40.7781819  36.0122018  48.6391766  41.4257147  36.0972769
  46.9336209  41.0597584  36.2697992  45.9921916  36.3400862  34.8831879
  46.1578534  35.3968173  35.6866068  44.8399047  36.5496873  34.2275240
  44.6594033  37.3836758  33.6871706  43.7329314  35.5753526  34.4102750
  43.6157803  35.4012784  35.4798884  42.3783285  36.0324229  33.8344000
  42.5728647  36.2636138  32.7871151  41.6514488  35.2226882  33.8982412
  41.8150511  37.2883982  34.5439191  42.5672414  38.0760743  34.5872425
  40.6245805  37.7683593  33.7245619  39.8717158  36.9813327  33.6811743
  40.1957709  38.6553322  34.1909333  40.9529216  38.0124504  32.7142590
  41.4337921  36.9708398  36.0088100  42.3171333  36.6303336  36.5490537
  41.0408203  37.8689261  36.4853761  40.6743480  36.1891409  36.0258531
  44.1181065  34.2069000  33.8518632  43.7525214  33.1405691  34.4402695
  44.8539683  34.1960862  32.7333962  45.0785305  35.0474023  32.2384901
  45.2999402  32.9092565  32.1541169  44.4407321  32.2481754  32.0408363
  45.9494334  33.1066436  30.7822434  46.4948273  34.0503513  30.7900159
  46.6458910  32.2865219  30.6077520  44.9271131  33.1316334  29.6930851
  44.7585524  32.0874023  29.4298942  43.9877213  33.5807176  30.0155267
  45.4246440  33.8766287  28.4482775  46.6237345  34.2026321  28.3345688
  44.4936439  34.2229364  27.5637371  44.7586812  34.7159641  26.7230347
  43.5259239  33.9912871  27.7368209  46.2614168  32.2226150  33.1153720
  46.1795233  30.9817272  33.3142106  47.1406574  32.9963651  33.7545338
  47.2424285  33.9767354  33.5340437  48.0908075  32.3898386  34.7214725
  48.4791301  31.4618436  34.3017938  49.2851610  33.3295272  35.0368885
  49.8583569  33.4826032  34.1224961  48.8934008  34.2856801  35.3838691
  50.2099198  32.7184580  36.1333827  49.5678478  32.4081061  36.9577164
  50.6889192  31.8420763  35.6967859  51.2948810  33.6900899  36.6618386
  51.9948989  33.8686363  35.8456308  50.7950109  34.6231867  36.9217609
  52.0785224  33.1476054  37.9159748  51.3703146  33.0883844  38.7424342
  52.4341229  32.1469157  37.6704801  53.2752967  34.0323244  38.3266300
  52.9459510  34.9595116  38.5545665  53.7309444  33.6292188  39.1328502
  53.9318634  34.0869820  37.5611029  47.3587526  31.9425850  35.9969131
  47.6488601  30.8695823  36.5501652  46.3563341  32.6938903  36.4331370
  46.1674901  33.6049993  36.0403040  45.5115860  32.2242893  37.5549683
  46.1254206  32.1071277  38.4480413  44.3907933  33.2242943  37.8588249
  44.9417255  34.1078259  38.1812298  43.8286989  33.4572057  36.9544455
  43.4152016  32.7918763  38.9732819  42.8975110  31.8876588  38.6531446
  44.1850764  32.5075403  40.3223438  44.7026724  33.4114934  40.6433765
  43.4734973  32.2046947  41.0904847  44.9112393  31.7098845  40.1657133
  42.3110360  33.8314432  39.1444457  41.7597290  33.9339352  38.2097504
  41.6304905  33.5127682  39.9340059  42.7531622  34.7911503  39.4120008
  44.9166702  30.8448935  37.2153854  44.9073328  29.9457725  38.0738702
  44.3799105  30.7034545  36.0150546  44.3120181  31.4739109  35.3655265
  43.7863301  29.4193346  35.6339661  42.9988237  29.1990471  36.3546647
  43.1689814  29.4947416  34.2484701  43.9467691  29.7057440  33.5145597
  42.6933779  28.5434622  34.0097882  42.4230808  30.2892174  34.2252405
  44.8157432  28.2633752  35.7035115  44.5046531  27.1720175  36.2456905
  46.0193012  28.5120592  35.1707100  46.1743305  29.3869277  34.6904285
  47.1073399  27.5003615  35.1602889  46.7758459  26.5847830  34.6704656
  48.3266931  28.0658807  34.3823366  48.5763452  29.0381980  34.8070402
  49.5777093  27.1226249  34.4651198  49.3289479  26.1501956  34.0401508
  50.4029630  27.5628067  33.9053918  49.8715694  26.9986315  35.5074117
  47.9141004  28.2052709  33.0121751  48.6421475  28.5540678  32.4926672
  47.4658485  27.0568476  36.5683276  47.5030439  25.8367938  36.8652977
  47.6919508  28.0429421  37.4418952  47.6249034  29.0010872  37.1295461
  48.1006188  27.7943961  38.8021266  48.9440816  27.1128051  38.9121419
  48.4351352  29.1204728  39.5372764  47.6368004  29.8326987  39.3287218
  48.5697521  28.9251159  41.0908233  49.3682593  28.2133213  41.3001932
  48.8040750  29.8812395  41.5588201  47.6304210  28.5450961  41.4924993
  49.6600317  29.7758086  38.9138274  49.4625132  29.9914496  37.8637857
  49.8829235  30.7044461  39.4392332  50.5127465  29.1013158  38.9915306
  47.0163236  27.0179911  39.5406388  47.3231772  25.9612101  40.1743112
  45.7608416  27.4824675  39.4638041  45.5649359  28.3493726  38.9840168
  44.6597308  26.8143122  40.1740101  44.9895493  26.7301567  41.2094988
  43.3695049  27.6408500  40.1365759  43.0218479  27.7262516  39.1070414
  42.6049085  27.1492786  40.7381157  43.5629072  28.6356493  40.5379102
  44.4075189  25.3732648  39.6535291  44.1645198  24.4423199  40.4474429
  44.4845770  25.2058415  38.3376232  44.5966845  26.0101237  37.7370723
  44.2719908  23.8888200  37.7097254  43.3586361  23.4418520  38.1022835
  44.1396477  24.0174747  36.1897141  44.9105926  24.6899415  35.8135071
  44.2584484  23.0361818  35.7303118  42.7569143  24.5802561  35.8415711
  42.0182696  23.8124493  36.0717396  42.6143830  25.4318594  36.5068198
  42.5931596  25.0140934  34.4511472  43.5673232  24.8630442  33.6812391
  41.4888878  25.4864946  34.0862542  45.3867188  22.9026916  38.1463467
  45.1125316  21.7472091  38.5068332  46.6210523  23.3685623  38.1809083
  46.8553214  24.2754297  37.8030076  47.7007472  22.5303875  38.6845477
  47.6676550  21.5863704  38.1406397  49.0261233  23.1795210  38.4356803
  49.0779161  24.1217919  38.9811553  49.8241314  22.5193060  38.7753853
  49.1429641  23.3709011  37.3689933  47.5129414  22.1969010  40.1786822
  47.7226114  21.0450738  40.5969769  47.1338828  23.1874921  40.9914466
  47.1124771  24.1435661  40.6665410  46.8316255  22.9265014  42.3975513
  47.6892039  22.4363048  42.8583828  46.5292288  24.2026613  43.1680851
  45.8081047  24.7850795  42.5946148  46.0917580  23.9267206  44.1275516
  47.7586449  25.0200440  43.3982843  48.4382598  24.4643540  44.0443748
  48.2427924  25.2100886  42.4403770  47.3520170  26.5932773  44.1792688
  46.8717797  26.1204311  45.8540262  47.7059723  25.6178376  46.3435377
  46.6022473  27.0117508  46.4205966  46.0167445  25.4457992  45.8105766
  45.6903914  21.9411438  42.5743280  45.7566151  21.1038917  43.4810596
  44.6853743  22.0130637  41.6973917  44.6882088  22.7597244  41.0172526
  43.5290968  21.1222176  41.7427064  43.1333866  21.1909858  42.7560097
  42.4409298  21.5680003  40.7609429  42.8192149  21.4959916  39.7412296
  41.5671507  20.9255675  40.8699860  42.1610497  22.6000845  40.9720553
  43.9113715  19.6442989  41.4973038  43.3335222  18.7529677  42.1257725
  44.8526322  19.4003587  40.5895057  45.2057028  20.1627148  40.0289224
  45.3602045  18.0232143  40.3121960  44.4963194  17.3641469  40.2259872
  46.1311535  17.9983103  38.9836948  45.4839866  18.3513075  38.1807831
  47.0042828  18.6466145  39.0574973  46.5810918  16.5724004  38.6837599
  47.2287143  16.2188572  39.4860647  45.7084191  15.9235497  38.6093478
  47.3464238  16.5476774  37.3649420  46.6992584  16.9006762  36.5620299
  48.2195536  17.1959804  37.4387462  47.7998404  15.1767187  37.0404627
  47.5747268  14.4300908  37.6823116  48.4901981  14.8829769  35.9422721
  48.8242155  15.8113296  35.0503673  48.5513679  16.7722195  35.1998492
  49.3491785  15.5511633  34.2276724  48.8474278  13.6164497  35.7494083
  48.5921735  12.9139182  36.4286688  49.3723214  13.3630020  34.9245752
  46.2505967  17.4783284  41.4548715  46.3467538  16.2558263  41.6656236
  46.9054896  18.3887722  42.1830104  46.7639732  19.3608942  41.9483801
  47.9377638  18.0538040  43.1799118  48.4696364  17.1493946  42.8845236
  48.9563517  19.2170285  43.2793783  49.8546131  18.9389155  42.7281261
  48.5072628  20.0978951  42.8205829  49.3539317  19.5639927  44.7239107
  49.7720802  18.6988225  45.4923002  49.2252799  20.8525471  45.0878230
  49.4720717  21.1364466  46.0251568  48.8824741  21.5303188  44.4220824
  47.3902085  17.6190771  44.5470474  46.2895748  18.0164319  44.9564048
  48.0001606  16.8007871  45.2317368  52.4013879  44.9173886  38.5837145
  51.3344881  44.4519392  37.5592324  52.0180139  44.1124913  36.2269439
  52.5645505  45.3693978  35.5221653  51.5091524  46.4939827  35.3592368
  52.0258286  47.7759034  34.7079058  53.0275418  47.7377277  33.7203866
  53.4754258  48.9033780  33.0920735  52.9142454  50.1223245  33.4369154
  53.3212085  51.2864386  32.8544513  51.9086474  50.1904742  34.3902371
  51.4438349  49.0236550  35.0218758  50.3608870  49.1712802  36.0622414
  49.7150106  47.8530522  36.4773456  50.7955881  46.7955148  36.7111234
  50.2295921  45.4904283  37.2722496  49.4296704  45.5305605  38.5695790
  49.4827188  44.0835317  39.0975036  50.4977548  43.3313361  38.2116065
  49.7886079  42.5844453  37.2271946  54.0204786  51.0792879  32.2135090
  49.2576286  41.9161451  37.6939276  51.9672432  45.1894250  39.5506145
  53.1196101  44.1104442  38.7720191  52.9750282  45.7814040  38.2393482
  52.8322487  43.3949617  36.3839342  51.3085814  43.6276641  35.5436708
  53.4380774  45.7531594  36.0628313  52.9329582  45.0491177  34.5398642
  50.7496244  46.1071387  34.6607742  53.4745761  46.7964841  33.4123104
  54.2541662  48.8334424  32.3397827  51.4816679  51.1589242  34.6415717
  50.8065992  49.6440675  36.9465410  49.5773794  49.8431946  35.6905091
  49.1207550  48.0213613  37.3833016  49.0202478  47.5152565  35.6976074
  51.5186639  47.2156790  37.4230766  49.5499983  45.0826865  36.5054511
  49.8734310  46.2204960  39.2962465  48.3959136  45.8511925  38.4020378
  49.8153955  44.0950438  40.1418693  48.4893776  43.6235493  39.0652025
  51.1058518  42.6269652  38.7898035  38.9559351  61.7167497  35.3231416
  46.3282394  19.3860349  50.3998521  32.5409963  58.7487846  26.8039190
  53.3559599  48.8162583  52.4305759  27.5863227  28.8737056  55.1517961
  31.6827479  16.9384784  20.9538382  41.1090689   2.6989454  17.2662002
  15.5037656  56.1489069  38.0073951  26.0180441  54.1055162   8.1555022
  30.7336741  20.1203019  18.2980554  67.0747367  63.4544708  27.6635745
  54.3727526  33.5939807  15.7474111  23.5502821  18.1549946  16.4100803
  27.9464564  52.9685006  -1.1140370  30.8802451  56.6123325  52.4230709
  40.6373317  65.9473188  11.5452958  62.5454238  65.0784825  29.5699343
  29.9265391  75.3630092  70.3772954  19.3245929  30.6788717  37.0852517
  48.7645252  71.7134221  64.0712409  32.8602085  70.0675126  39.2851371
  60.4038159  33.7372318  18.2215014  39.0985406  69.9845941  32.7294738
  43.8864298  47.9642568  13.1764809  36.2820734  68.0091885  53.0580527
  65.7513108  55.7812474  26.5159402  54.3029557  19.9102703   7.9295622
  29.6434082  38.7556602  78.4275960  70.0355842  37.6029393  71.9360931
  28.1806312  18.0578315  14.8091906  69.3612527  23.4572394  35.1078847
   7.1093016  23.8512383  48.2518480  37.3873931  17.2427314  59.5483996
  77.1721342  23.6034562  57.2897142  71.5187204  25.8778074  57.9664153
  46.4150571   3.5658533  10.8180935  36.9913024  69.6240470   8.1555022
   6.8439497  33.1451437  40.9411812  32.0625052   9.8221057  23.0829368
  22.5212153  42.3833545  73.5330028  56.6004419  29.6905265  75.6647435
  49.9001102  41.7474518  10.9137393  55.4029746  60.4739978  25.3585166
  42.8189857  68.7794451  31.9997397   9.8639164  46.2553289  60.1101049
  36.4636469  39.2986304  80.1416229  42.3848184  69.7845524  28.5306738
  13.4945242  57.4128877  48.6975117  48.9320329  65.5860828  12.1992593
  49.5716611  79.2284565  41.6955539  23.8014301  68.1839630  70.2012258
  15.9859718  20.2272820  61.6167630  62.1366599  64.0741916  24.3670426
  36.2389810  29.1950608  64.8326848   6.5390321  10.0829568  27.8751859
  14.2211647  11.4861699  31.7182010  22.1444485  56.3828331  28.5399425
   2.9659782  45.1353322  27.9899236  10.9228527  11.8637359  27.5485026
  70.2255324  40.5782528  72.8878588  70.4998499  15.1003528  27.1867982
  44.7242844  38.3111415  85.7283634  44.1954316  38.5271049  86.3880940
  45.2467864  39.0047554  85.6484603  44.7231297  38.4454552  85.8139233
  36.6142452  42.2074632  84.5291102  36.0299667  42.7124664  84.9356966
  36.2112547  41.9817019  83.7887694  36.4681756  42.2482880  84.4796127
  41.0719666  38.4540284  83.0060022  41.3115670  38.6618268  82.1935365
  41.3935507  37.6497793  83.1148967  41.1556824  38.3654385  82.9020575
  34.2829048  36.0678172  82.0620146  33.5687225  35.7816351  82.4742579
  34.7673017  36.4074797  82.7026534  34.2488412  36.0759821  82.2175781
  41.4576366  44.5708126  82.4381954  41.8727515  44.2393149  81.7466450
  40.6268296  44.3377028  82.3102091  41.3964375  44.4879381  82.3172802
  44.1509756  40.8218685  81.6243156  44.0689919  40.8920872  82.4898143
  44.7889477  41.3848429  81.4326897  44.2329594  40.9157656  81.7233105
  41.2549867  40.8439139  84.6351762  42.0690505  41.1354032  84.5234534
  41.1909008  40.1899002  84.0610055  41.3652606  40.7904334  84.5340600
  37.7660590  39.5362946  84.0998964  38.1505743  39.3170653  84.8515509
  37.5172210  40.3625892  84.2300040  37.7862662  39.6261093  84.2300040
  42.6925889  44.0600939  79.9767568  43.4598874  44.1201064  79.5673419
  42.2457198  43.4881381  79.4923886  42.7399316  43.9837515  79.8445278
  38.7400489  40.3319705  81.4404678  39.0293014  41.1084588  81.7148252
  38.8272288  39.8208437  82.1419177  38.7954745  40.3711624  81.5847176
  43.5332108  35.7252969  85.6958365  43.0055127  35.8081713  85.0064074
  43.9927816  36.4670840  85.6923009  43.5233959  35.8473631  85.5933060
  35.5265173  33.9955488  80.7199260  35.1777978  34.6475213  81.1830809
  35.0461619  33.9812601  79.9923131  35.4035417  34.0898542  80.6810351
  35.9289304  37.4881130  83.5617881  36.5634384  38.0841555  83.4967343
  36.0114915  37.1884587  84.3763751  36.0345855  37.5322038  83.6720968
  40.5679398  35.3603229  85.0353987  39.9744238  35.6820225  84.4838554
  40.6054676  34.5144324  84.8275093  40.4853788  35.2827557  84.9236758
  38.5408631  36.0000479  83.1283317  38.9207595  36.0180109  82.3434432
  37.8001227  36.4454468  83.0074164  38.4877468  36.0682254  82.9946885
  39.3393385  42.8377986  84.5192107  38.5304707  42.5144659  84.4725416
  39.8468294  42.1311208  84.4520356  39.2943051  42.6859302  84.5022401
  47.9429355  15.3244806  74.5793346  47.9123359  16.1789443  74.7511615
  48.5410704  15.0240099  75.1379489  48.0266513  15.4061303  74.6868148
  35.5270179  23.9483175  75.0983508  34.7753079  23.5698713  74.8699553
  35.9756191  23.9801609  74.3502318  35.4819846  23.8968782  74.9541010
  40.9795139  24.3708544  70.5269055  40.6446508  25.0485466  70.0913277
  41.4922010  23.9813856  69.9385926  41.0060720  24.4133123  70.3755846
  40.5199431  26.3222813  76.4680166  40.9038810  26.8909712  75.9284942
  40.4558572  25.5972323  75.9885982  40.5672858  26.2998277  76.3174029
  45.7645929  17.8997108  72.8511656  45.6485455  18.6504794  73.2803794
  46.5601816  17.6421061  73.1007743  45.8650519  17.9731955  72.9515747
  36.9455675  28.8779156  78.7661136  37.5893131  29.3192320  79.1557295
  37.2711931  28.0732582  78.6791395  37.0887504  28.8244351  78.8106614
  37.6476255  21.8891131  74.1380998  37.9692096  22.4296338  73.5342306
  38.2948351  21.3187902  74.2703288  37.7902310  21.8850306  74.0688033
  39.8865898  20.2777571  74.2095176  40.3259534  19.6694672  74.6549949
  39.7370561  19.8984944  73.4380641  39.9287364  20.1316042  74.1614344
  43.4875235  18.6304752  71.1625945  43.4026530  19.4865719  71.3075514
  43.9759618  18.3549076  71.8308105  43.5464132  18.7162074  71.2828027
  44.4193668  15.2489547  72.6623681  43.8905140  15.4649180  73.3220987
  44.9418688  15.9425685  72.5824650  44.4182121  15.3832683  72.7479280
  49.8741721  20.8235851  78.0356725  49.0439424  21.0346495  78.1990142
  49.8250973  19.9972906  77.7599009  49.7448456  20.7325457  78.0194090
  36.3093276  19.1452763  71.4631149  35.7250491  19.6502795  71.8697012
  35.9063371  18.9195150  70.7227741  36.1632580  19.1861012  71.4136174
  40.7670490  15.3918415  69.9400069  41.0066494  15.5996399  69.1275412
  41.0886331  14.5875924  70.0489014  40.8507648  15.3032517  69.8360622
  47.1306036  21.4935205  78.1721441  46.6941268  21.4971948  78.9280412
  46.7968952  22.1740704  77.7401018  47.0168656  21.5947661  78.2202273
  50.2650382  18.2116125  77.0641078  50.9266817  17.6506794  76.9636987
  49.6241794  17.7168156  77.3893769  50.2679250  18.0552534  77.0973418
  41.1527190  21.5086257  69.3722001  41.5678339  21.1771281  68.6806497
  40.3219120  21.2755159  69.2442138  41.0915199  21.4257513  69.2512849
  46.5515213  19.2281508  76.8053067  46.7870802  19.3726707  75.9779917
  46.7004777  19.9923916  77.1984580  46.6081016  19.3620562  76.7416671
  48.3805670  18.0683174  74.6422671  48.7113887  18.6010814  74.0362766
  48.9538758  18.1222061  75.2984622  48.5139349  18.1552742  74.6500452
  43.8460580  17.7596816  68.5583203  43.7640743  17.8299003  69.4238190
  44.4840301  18.3226560  68.3666943  43.9280418  17.8535787  68.6573152
  40.9500691  17.7817270  71.5691809  41.7641329  18.0732163  71.4574581
  40.8859832  17.1277133  70.9950102  41.0603430  17.7282465  71.4680647
  37.4611414  16.4741078  71.0339011  37.8456567  16.2548784  71.7855556
  37.2123034  17.3004023  71.1640087  37.4813486  16.5639224  71.1640087
  37.7434656  24.6945954  73.1071381  38.0332955  24.3034935  72.3830608
  38.4738137  24.8762658  73.5476656  37.8941541  24.6639767  73.0654188
  35.6840572  26.6713336  76.1731531  35.4640867  26.3810691  76.9658198
  35.4635094  26.0128291  75.6449443  35.6188166  26.5313044  76.2120439
  37.8508528  28.0442726  74.9562223  38.5032586  27.5119168  75.1853249
  37.1534137  27.6911378  75.3430097  37.8439246  27.9132249  75.0474391
  45.8448446  20.3647140  74.2993202  46.4106479  21.0240350  74.2151745
  45.1976350  20.7096838  74.7709604  45.8327203  20.5129081  74.3565959
  42.3155024  23.3085924  73.7230282  42.0741700  22.5753785  73.3157347
  42.4956357  23.8572781  73.0696615  42.3062648  23.2808315  73.5660504
  47.0411144  20.4153368  71.0918839  46.6617953  19.6290506  71.0848128
  46.3777389  20.9640225  70.9490483  46.8869619  20.3798192  71.0699636
  39.8658052  23.9666887  74.9307665  40.6307943  23.6976530  74.6090329
  39.7636142  23.4816897  75.6477728  39.9639548  23.8556451  74.9887493
  42.3876713  20.9979070  66.9107614  43.1549698  21.0579195  66.5013466
  41.9408022  20.4259512  66.4263933  42.4350140  20.9215646  66.7785325
  45.2871243  22.6598859  71.4270525  45.3691080  23.4665845  71.1031976
  45.7720985  22.6794818  72.1511298  45.3708401  22.7819521  71.4857423
  40.9229336  17.2093630  74.3961938  41.4644881  16.7064011  74.8600559
  41.2375895  17.1558824  73.5851424  41.0493733  17.1273051  74.3445750
  39.0915785  22.6010981  71.6801966  39.1608606  21.7425520  71.8194967
  39.8704241  22.8182862  71.3520991  39.2168635  22.5063845  71.6519124
  43.4823273  25.0248682  75.8938460  43.0903065  24.7215398  75.1761326
  43.6376345  25.8617772  75.7043414  43.4476863  25.1032519  75.7594957
  43.6462948  21.5898671  75.8344490  43.2877602  21.7613314  76.6108523
  43.1601659  22.0511877  75.2772489  43.5221645  21.6837642  75.8669759
  38.4351313  17.2697837  68.3744725  38.7243838  18.0462719  68.6488299
  38.5223112  16.7586568  69.0759224  38.4905569  17.3089755  68.5187222
  44.2513578  24.4284175  79.3268494  44.0533267  24.9174990  78.6324705
  43.6301289  24.6325417  79.9052627  44.1301143  24.5300713  79.3091717
  43.2282932  12.6631100  72.6298412  42.7005951  12.7459844  71.9404120
  43.6878640  13.4048971  72.6263056  43.2184783  12.7851762  72.5273107
  35.2215997  10.9333619  67.6539307  34.8728802  11.5853345  68.1170856
  34.7412443  10.9190732  66.9263178  35.0986241  11.0276673  67.6150398
  42.7820015  21.2334663  71.7608069  43.5054213  21.6992776  71.6172642
  42.3420606  21.3008273  71.0105666  42.8235707  21.3118500  71.6292850
  43.0423864  25.2955368  71.9206130  42.3253174  25.1216231  71.4553367
  43.6930602  25.0607941  71.3881616  43.0325715  25.2351161  71.7735348
  38.3237026  26.5317127  78.3496278  37.9097425  25.8691257  77.9600119
  39.0084400  26.6794986  77.8291972  38.3635398  26.4557785  78.2152775
  41.6902320  25.6907212  79.1019894  41.2918604  25.8009483  78.3340714
  41.0753540  25.8989279  79.6846454  41.5401210  25.7380780  79.0751194
  49.4244163  20.2659179  72.4862985  49.8077769  21.0150535  72.7161082
  48.6288276  20.5124999  72.2274974  49.3637945  20.4128873  72.4820558
  38.2359455  12.9378611  70.0623364  38.6158419  12.9558240  69.2774479
  37.4952051  13.3832599  69.9414211  38.1828292  13.0060385  69.9286932
  39.0344209  19.7756117  71.4532154  38.2255531  19.4522790  71.4065463
  39.5419118  19.0689339  71.3860402  38.9893875  19.6237433  71.4362448
  58.9161938  30.8430114  74.5793346  58.8855943  31.6974751  74.7511615
  59.5143287  30.5425407  75.1379489  58.9999096  30.9246611  74.6868148
  52.1161623  29.9305765  79.3346276  51.2599519  30.0914263  79.3855393
  52.1629277  29.0597829  79.3551337  51.9960735  29.8256567  79.3452342
  46.5002763  39.4668483  75.0983508  45.7485663  39.0884021  74.8699553
  46.9488775  39.4986916  74.3502318  46.4552430  39.4154090  74.9541010
  51.9527723  39.8893852  70.5269055  51.6179091  40.5670774  70.0913277
  52.4654593  39.4999164  69.9385926  51.9793304  39.9318431  70.3755846
  51.4932014  41.8408121  76.4680166  51.8771394  42.4095020  75.9284942
  51.4291155  41.1157631  75.9885982  51.5405441  41.8183584  76.3174029
  54.9613444  31.9897809  81.9777928  55.5069404  32.6682896  82.0371897
  54.9030321  31.8485270  81.1179509  55.0329359  32.0689811  81.8589988
  48.0787519  39.4786875  77.3646280  48.1797882  38.6687229  77.6743408
  47.4829264  39.3843821  76.7345959  48.0060058  39.3451903  77.3172519
  56.7378513  33.4182416  72.8511656  56.6218039  34.1690102  73.2803794
  57.5334400  33.1606369  73.1007743  56.8383102  33.4917263  72.9515747
  47.9188259  44.3964464  78.7661136  48.5625714  44.8377628  79.1557295
  48.2444514  43.5917890  78.6791395  48.0620087  44.3429659  78.8106614
  41.2752563  35.5007162  76.9898614  41.0402748  34.6674814  76.8830883
  41.4138204  35.7811827  76.1759815  41.2608226  35.4190665  76.8540969
  43.5742651  27.6692892  79.8882922  42.9547683  27.0785539  79.7192936
  43.4726515  28.2604327  79.2547245  43.4680326  27.6696975  79.7687911
  48.6208839  37.4076439  74.1380998  48.9424680  37.9481646  73.5342306
  49.2680935  36.8373210  74.2703288  48.7634894  37.4035614  74.0688033
  50.6710547  29.4092434  74.2215385  51.3690711  29.5880562  74.7136848
  50.9862879  28.8862773  73.5985774  50.8205884  29.3586206  74.2017395
  43.3011784  31.2145174  82.1326491  43.1770481  31.8007619  82.7676309
  43.9530068  30.7205370  82.4338766  43.3785433  31.2283978  82.2712420
  50.8598482  35.7962879  74.2095176  51.2992117  35.1879980  74.6549949
  50.7103145  35.4170252  73.4380641  50.9019948  35.6501350  74.1614344
  48.3270125  34.3906891  81.4114002  48.9719127  33.8979334  81.0924950
  48.5671902  34.5331677  82.2380080  48.4580710  34.3384333  81.4863535
  50.8656216  37.2361797  81.0620894  51.1479459  36.4413202  80.8407650
  51.5942377  37.7142384  81.0825955  51.0145780  37.1896394  81.0323909
  48.8437410  24.7784831  78.3036659  48.5140740  25.2295974  77.6340358
  48.1682412  24.7000994  78.8509666  48.6947846  24.8335966  78.2859883
  54.4607819  34.1490060  71.1625945  54.3759114  35.0051027  71.3075514
  54.9492202  33.8734384  71.8308105  54.5196716  34.2347382  71.2828027
  56.0513818  20.7670354  76.5486270  55.7367259  21.4573832  76.9806692
  55.5340760  20.7115136  75.8471771  55.9278288  20.8605242  76.5083219
  55.3926252  30.7674854  72.6623681  54.8637723  30.9834488  73.3220987
  55.9151272  31.4610993  72.5824650  55.3914705  30.9017991  72.7479280
  60.8474305  36.3421159  78.0356725  60.0172008  36.5531803  78.1990142
  60.7983557  35.5158213  77.7599009  60.7181040  36.2510765  78.0194090
  47.2825860  34.6638071  71.4631149  46.6983075  35.1688103  71.8697012
  46.8795955  34.4380458  70.7227741  47.1365163  34.7046320  71.4136174
  42.8369888  40.3792832  78.2654820  42.3537466  41.1043322  78.2414404
  43.6493206  40.6768962  78.3764978  42.8860636  40.5295186  78.2782099
  48.9084042  39.1725013  80.8704635  48.3910984  38.8132428  80.2665943
  49.6058433  38.6487188  80.8810701  48.9349623  39.0422701  80.7834893
  51.7403074  30.9103723  69.9400069  51.9799078  31.1181707  69.1275412
  52.0618915  30.1061232  70.0489014  51.8240232  30.8217825  69.8360622
  47.0493364  22.8397119  73.7859607  47.8039332  23.2075436  73.5476657
  46.8720899  23.2136673  74.5538787  47.1347843  22.9495307  73.8644496
  45.6914085  40.8949008  78.4175100  46.3934665  40.3800997  78.4747856
  45.6111568  41.2223160  79.2221975  45.7837846  40.8663234  78.5447892
  45.4050429  25.2467438  70.4837720  45.2226002  25.4639319  69.6578713
  46.2676042  25.3606451  70.5396334  45.5055018  25.2957336  70.3692207
  45.0164861  37.0855360  77.9260708  45.8553760  37.3178293  77.9734470
  45.0476630  36.2159672  77.8567743  45.1446578  36.9912307  77.9225353
  45.6417564  37.5056235  82.2274013  46.1815789  37.3627366  82.8977386
  44.9587510  37.9052986  82.5958040  45.6209718  37.5435906  82.3808435
  51.0850148  22.2493849  73.5186744  51.8136308  22.0709804  73.0724900
  51.1745041  23.0911928  73.7293922  51.2056810  22.3477727  73.4840262
  55.0658449  33.1847236  77.4219038  55.8215964  33.6178750  77.4607947
  55.1720773  32.5352006  77.9953674  55.1928619  33.1524720  77.5117063
  58.1038620  37.0120513  78.1721441  57.6673852  37.0157256  78.9280412
  57.7701535  37.6926012  77.7401018  57.9901240  37.1132969  78.2202273
  41.0454709  33.7256526  82.3808435  40.7793124  32.9095643  82.5399425
  41.0593273  33.7709682  81.5103951  41.0079431  33.6113431  82.2761917
  44.9512456  28.5241611  68.9960193  44.2370633  28.2379790  69.4082626
  45.4356425  28.8638236  69.6366581  44.9171819  28.5323260  69.1515828
  61.2382966  33.7301433  77.0641078  61.8999400  33.1692102  76.9636987
  60.5974378  33.2353464  77.3893769  61.2411834  33.5737842  77.0973418
  52.1259774  37.0271565  69.3722001  52.5410922  36.6956588  68.6806497
  51.2951703  36.7940467  69.2442138  52.0647783  36.9442821  69.2512849
  41.4548123  34.5115306  79.6620179  41.2723696  34.4862192  78.8092471
  42.1897791  34.9814243  79.7009088  41.5362186  34.5776668  79.5418098
  57.5247797  34.7466816  76.8053067  57.7603386  34.8912015  75.9779917
  57.6737360  35.5109224  77.1984580  57.5813600  34.8805870  76.7416671
  59.3538253  33.5868482  74.6422671  59.6846471  34.1196122  74.0362766
  59.9271342  33.6407369  75.2984622  59.4871933  33.6738050  74.6500452
  54.5670143  31.4333384  75.3246251  54.6616997  32.1722678  75.7785876
  53.9428986  31.0050860  75.7580815  54.4879173  31.4794705  75.4554398
  41.4219033  31.3908806  79.8119246  41.9992536  31.2545257  80.4511491
  40.7233095  30.9344590  80.0664830  41.4040054  31.3031073  79.9441536
  54.8193164  33.2782124  68.5583203  54.7373326  33.3484311  69.4238190
  55.4572884  33.8411868  68.3666943  54.9013001  33.3721095  68.6573152
  48.1786335  33.0442862  78.0257729  47.9205579  32.2114597  77.9989029
  48.2334818  33.2700475  77.1850229  48.1486113  32.9540633  77.8977866
  53.2587385  25.1471313  78.1261822  52.5543712  24.6580498  78.2845741
  53.3072360  25.1593787  77.2550266  53.1617437  25.0760961  78.0201162
  47.1521047  30.5980624  78.5122624  46.5770638  30.7572793  79.1486585
  46.7756724  29.9616034  78.0491074  47.0123860  30.5278437  78.5377182
  50.8194336  29.0703974  83.3715002  50.4308769  28.6458191  82.7167193
  50.1549034  29.3186123  83.8792029  50.6641264  29.0442695  83.3502870
  60.4617605  28.8278978  76.1462832  60.2054170  28.0158920  75.9560715
  61.3046919  28.8356546  75.9193020  60.5483630  28.7090976  76.0847649
  36.8977866  30.2420699  76.5267064  36.9838118  29.8652568  77.3080594
  37.5253664  29.8681145  76.0487023  37.0034417  30.1306181  76.5712542
  51.9233274  33.3002578  71.5691809  52.7373913  33.5917471  71.4574581
  51.8592415  32.6462441  70.9950102  52.0336013  33.2467773  71.4680647
  47.7941182  36.7724096  76.6964121  48.4315129  36.5335843  77.2415915
  48.2196254  36.9761255  75.9617282  47.9517349  36.7675106  76.6681279
  42.4853825  39.0112432  80.5798425  42.5257970  39.2827283  79.7518205
  43.0448349  39.5354340  80.9956213  42.5737171  39.1288187  80.5190313
  48.4343997  31.9926386  71.0339011  48.8189150  31.7734092  71.7855556
  48.1855618  32.8189331  71.1640087  48.4546070  32.0824532  71.1640087
  50.1762654  37.2496518  78.3757908  50.2501663  37.0871690  79.2299757
  50.9932161  37.4386708  78.1318389  50.3079013  37.2533261  78.4655933
  43.9368411  37.5954381  75.4052351  43.1106529  37.8416118  75.2786630
  43.9980402  37.5166462  76.2714409  43.8242578  37.6199330  75.5141295
  46.1544435  23.6623322  76.3647791  45.2866860  23.7345922  76.4305400
  46.4419639  24.4645401  76.5535766  46.0684183  23.7917469  76.4022558
  48.7167240  40.2131261  73.1071381  49.0065538  39.8220243  72.3830608
  49.4470721  40.3947966  73.5476656  48.8674124  40.1825075  73.0654188
  49.3061985  35.0149007  84.1924511  48.8073679  35.7264775  84.2709400
  50.1162210  35.3349674  84.1542674  49.3518092  35.1675856  84.1981080
  46.6573156  42.1898644  76.1731531  46.4373451  41.8995999  76.9658198
  46.4367678  41.5313599  75.6449443  46.5920750  42.0498352  76.2120439
  45.5690103  34.2771960  78.4387232  45.2803351  33.6509432  78.9732960
  46.4373451  34.2192248  78.5051913  45.6550355  34.1759505  78.5278187
  56.3568001  29.4206744  78.7569214  56.0132766  28.6997079  79.1076464
  56.4561043  29.2120595  77.9147572  56.3210043  29.2830947  78.6840894
  48.8241111  43.5628034  74.9562223  49.4765169  43.0304476  75.1853249
  48.1266720  43.2096686  75.3430097  48.8171829  43.4317557  75.0474391
  45.7722376  35.9167211  74.3629597  46.5268344  36.2980251  74.5765060
  45.1792989  36.3678355  74.8176294  45.7959090  36.0396039  74.4612476
  56.8181030  35.8832448  74.2993202  57.3839062  36.5425658  74.2151745
  56.1708933  36.2282146  74.7709604  56.8059786  36.0314389  74.3565959
  47.0920603  37.0875773  79.7369713  46.5701356  37.2276064  80.4221577
  47.4794623  36.3286437  79.9271830  47.0724304  36.9961297  79.8670789
  44.0811787  27.1381582  73.8064667  43.7936583  26.7682852  73.0696615
  44.7682255  27.6076437  73.5448372  44.1400684  27.1528551  73.6579743
  53.2887608  38.8271232  73.7230282  53.0474284  38.0939093  73.3157347
  53.4688941  39.3758089  73.0696615  53.2795232  38.7993623  73.5660504
  48.5186928  34.1179792  75.1351204  48.3229711  34.7254526  74.5411507
  48.7421274  33.4247736  74.6542878  48.5221569  34.1057317  74.9767285
  46.9165458  31.0034530  75.2532072  47.6388110  31.1675688  74.7935878
  46.4373451  31.7244195  75.1471412  46.9529189  31.1332759  75.1697686
  54.8758966  27.3398329  80.6328757  54.0370067  27.3659607  80.3967020
  54.9463333  27.9869064  81.2134104  54.7627360  27.4394454  80.6837874
  44.5673075  33.4092602  84.3586212  45.0794172  33.6876855  83.7094972
  44.2809418  34.1481896  84.7249025  44.6007938  33.5594956  84.3176090
  53.3228244  24.2383706  75.3656373  54.0254597  24.0391454  74.8876331
  53.0572433  23.4659648  75.6725217  53.3874877  24.0946672  75.3401815
  58.7516490  32.5466315  77.9189999  58.6650464  32.7021741  78.7724778
  58.2966970  33.1904391  77.5449404  58.6719746  32.6642070  77.9897106
  41.6539981  27.9162794  74.6549949  41.7556118  28.7188955  74.9830924
  42.4495868  27.7150130  74.3573029  41.7867887  28.0048693  74.6585304
  52.6242306  29.8677062  76.5415558  52.3777020  29.7872813  77.3752347
  52.9527429  29.0830530  76.3478086  52.6363549  29.7403328  76.6363081
  56.5190355  36.5760422  80.3302340  56.3804714  37.2741468  80.8351082
  55.7390353  36.4209078  79.9738521  56.3833582  36.6560588  80.3528614
  48.5839333  32.6033781  85.9538541  48.7282709  33.1834989  85.3181651
  48.9314982  32.9810078  86.6588396  48.6566795  32.7454485  85.9637536
  50.7559251  31.8023949  83.7363673  50.0082565  31.9954964  83.3311951
  50.9100776  30.9769169  83.4987794  50.6681678  31.7089061  83.6409079
  47.6567088  40.7936553  82.8199568  47.8056652  40.2339469  82.1672973
  48.4367090  40.8728555  83.2032087  47.7941182  40.7222118  82.7796517
  58.0143728  35.9338676  71.0918839  57.6350536  35.1475813  71.0848128
  57.3509973  36.4825533  70.9490483  57.8602202  35.8983500  71.0699636
  50.8390636  39.4852195  74.9307665  51.6040527  39.2161838  74.6090329
  50.7368726  39.0002205  75.6477728  50.9372131  39.3741759  74.9887493
  48.8743405  27.6876604  81.4700901  48.0839480  27.5068064  81.7918237
  49.2704028  26.9103557  81.4531195  48.8160282  27.5464065  81.5153449
  53.3609296  36.5164378  66.9107614  54.1282281  36.5764503  66.5013466
  52.9140605  35.9444820  66.4263933  53.4082724  36.4400954  66.7785325
  54.2587092  35.3219034  79.1960347  53.5832094  35.0904266  79.6973734
  54.2679468  34.7140217  78.5702452  54.1605596  35.1977959  79.1776499
  51.3881236  30.1636863  85.9524400  51.3240377  31.0246820  85.8244536
  51.5278424  29.8468856  85.1519951  51.3996706  30.2437030  85.8152613
  56.2603826  38.1784167  71.4270525  56.3423664  38.9851153  71.1031976
  56.7453569  38.1980126  72.1511298  56.3440984  38.3004829  71.4857423
  50.0700330  32.8569002  80.0940603  49.6462579  33.0573502  79.3579621
  49.8945185  32.0097850  80.2064902  49.9811210  32.7617784  80.0014293
  45.3582775  33.3521054  75.5268575  45.5147394  33.2867857  76.3824567
  45.6983368  34.1269606  75.3147255  45.4316009  33.4570252  75.6223169
  51.8961919  32.7278938  74.3961938  52.4377465  32.2249319  74.8600559
  52.2108478  32.6744132  73.5851424  52.0226316  32.6458358  74.3445750
  50.0648369  38.1196289  71.6801966  50.1341189  37.2610828  71.8194967
  50.8436824  38.3368170  71.3520991  50.1901219  38.0249153  71.6519124
  53.0451189  27.6215242  84.4484239  53.2593158  26.9826156  83.8947593
  52.4285088  28.0661066  84.0192101  52.9856518  27.5925386  84.3034670
  54.4555857  40.5433990  75.8938460  54.0635648  40.2400705  75.1761326
  54.6108929  41.3803080  75.7043414  54.4209446  40.6217827  75.7594957
  41.9317036  30.5356004  75.8429342  42.3116001  30.9540549  75.1789610
  41.3572401  31.1169460  76.1498186  41.9028361  30.6833863  75.7906083
  54.6195531  37.1083979  75.8344490  54.2610186  37.2798622  76.6108523
  54.1334242  37.5697185  75.2772489  54.4954228  37.2022950  75.8669759
  52.4365917  20.7315178  79.4371582  51.5659475  20.7053899  79.3904891
  52.6906259  20.5592370  78.6197427  52.3459477  20.7025321  79.3091718
  49.4083897  32.7883145  68.3744725  49.6976422  33.5648027  68.6488299
  49.4955696  32.2771876  69.0759224  49.4638153  32.8275063  68.5187222
  49.4615058  22.7421406  80.8945052  48.9453546  22.0501598  81.0196631
  48.9008987  23.4092183  80.8407651  49.3021571  22.7384664  80.9051118
  57.5057271  29.8477021  81.3477607  57.0784879  29.7603370  80.5925706
  56.8683324  29.9554797  81.9332451  57.3486878  29.8509681  81.3223048
  45.5747838  32.1016409  80.4744837  44.7335844  32.0020283  80.6823731
  45.7837846  32.8711889  80.8259157  45.4812530  32.2008452  80.5572152
  43.0523405  29.7235946  78.3029587  42.6580102  29.7978958  77.5279697
  42.4963521  30.1093892  78.8537949  42.9126217  29.7917721  78.2697247
  54.6888351  22.7017240  77.9833466  54.8937945  22.6339548  78.8290463
  54.3614775  23.5076061  77.9154644  54.6703599  22.8103181  78.0993121
  49.3864503  30.0297808  79.7242434  49.0827640  29.4753797  80.3252842
  48.6843923  30.2090018  79.2370468  49.2380712  29.9742591  79.7412140
  48.4430600  27.3398328  74.2887136  48.7190334  26.6217241  73.8764704
  49.0429269  27.9383248  74.0808242  48.5723864  27.3218699  74.1967897
  47.4482854  37.2447529  84.4314532  47.3403208  37.2549591  85.2976590
  47.6578635  38.0702309  84.2419486  47.4632965  37.3688604  84.5318624
  57.9422039  23.2549004  77.4636232  57.3296353  23.7419407  77.8489964
  58.0386214  22.5792495  78.0073883  57.8659937  23.2267313  77.6015090
  51.9441120  25.0111846  72.5633731  52.3984867  25.1822406  73.2881576
  52.4181166  24.3979956  72.1631507  52.0809440  24.9462731  72.6107493
  45.4656646  34.4960171  81.8936470  44.8744579  35.1369670  81.8639485
  46.2277669  34.9197789  81.8667769  45.4904906  34.6536010  81.8851617
  55.2246162  39.9469483  79.3268494  55.0265850  40.4360298  78.6324705
  54.6033873  40.1510725  79.9052627  55.1033726  40.0486021  79.3091717
  49.2854140  31.7154380  73.6678738  50.0296185  32.1028656  73.9061688
  49.4314836  30.8711805  73.8319226  49.4164725  31.6484853  73.7272708
  51.2033716  23.5104639  78.7010600  50.3569761  23.6827447  78.5751950
  51.2004848  22.7053983  79.0376428  51.0780866  23.4165668  78.7321727
  52.2732016  27.2879853  79.5672658  51.7991970  26.7621615  80.0777969
  52.6450152  26.7409326  78.9987519  52.2581905  27.1295850  79.5587805
  58.5368747  32.3482229  80.9779438  58.2966969  31.5088644  80.9821865
  59.0160754  32.4282396  81.7020212  58.5720930  32.2363629  81.0854241
  54.2015516  28.1816408  72.6298412  53.6738534  28.2645152  71.9404120
  54.6611224  28.9234279  72.6263056  54.1917366  28.3037070  72.5273107
  60.5373934  29.1283686  78.9308697  60.2983704  29.0879520  78.0929482
  60.7007835  29.9754838  79.0574418  60.5264237  29.2475771  78.8262179
  46.0106832  28.1093809  81.5966622  45.3859902  28.1212201  80.9892574
  45.6752427  28.5853984  82.2457862  45.8692324  28.1812326  81.6023190
  46.1948581  26.4518927  67.6539307  45.8461385  27.1038653  68.1170856
  45.7145027  26.4376040  66.9263178  46.0718825  26.5461981  67.6150398
  42.7232508  36.1694269  83.0370386  42.1932432  35.4786708  83.0865361
  42.9957601  36.1604454  82.2083094  42.6857230  36.0661401  82.9217802
  53.7552598  36.7519971  71.7608069  54.4786797  37.2178084  71.6172642
  53.3153189  36.8193581  71.0105666  53.7968290  36.8303808  71.6292850
  52.9238753  33.6117514  83.0108758  52.3095746  33.0675564  83.3057393
  53.4406038  33.0981750  82.5314574  52.9094416  33.4553923  82.9832986
  52.1635050  34.6821784  80.7453056  51.7362658  34.0571502  80.3118492
  52.1559995  34.3996705  81.5712063  52.0994192  34.5474564  80.8032884
  50.4920760  25.5590538  80.9595590  50.5163247  25.0250650  80.2708370
  50.7432234  25.0507847  81.6221181  50.5330679  25.4051442  80.9560235
  38.0028350  32.8422033  80.3938734  37.8971799  32.7968877  79.5290818
  37.2528570  33.1875814  80.6753019  37.8763953  32.8862941  80.3076064
  46.7722082  24.2861356  80.3401334  46.8120454  24.7870563  81.0536042
  45.9471747  24.3771750  80.0707258  46.6561608  24.3743173  80.4051873
  48.1936446  30.8021866  82.6375233  47.3628375  30.9695684  82.4310482
  48.1387963  30.4257817  83.4224119  48.0625861  30.7711597  82.7223762
  46.5672490  29.0777458  73.1665351  46.7075451  29.5749922  73.8693993
  47.0655022  28.3763752  73.3079565  46.6613570  29.0479437  73.2916930
  46.5972712  29.9444569  70.4957928  47.2317791  30.5404994  70.4307390
  46.6798323  29.6448026  71.3103798  46.7029263  29.9885477  70.6061015
  48.1751695  25.8758544  70.4703370  48.4967536  25.3961627  69.8162632
  48.4378639  26.6858190  70.2794182  48.2617720  25.9248442  70.3458862
  53.5710850  25.2630738  82.8326849  53.9965921  24.8103265  82.2210376
  52.9567843  24.7090809  83.1091637  53.5439495  25.1144714  82.7831874
  43.1025700  32.1412410  73.7647474  43.6117929  32.7376917  74.1458780
  43.5759972  31.8738383  73.0823894  43.2469075  32.1898225  73.7201997
  54.0156448  40.8140676  71.9206130  53.2985758  40.6401538  71.4553367
  54.6663185  40.5793249  71.3881616  54.0058298  40.7536469  71.7735348
  52.0105073  21.7345838  76.2417426  51.3673391  21.5843484  76.8102565
  51.6704480  21.4888183  75.4766531  51.8650150  21.6757960  76.2120441
  50.6491153  41.8301977  80.8959193  50.4256807  41.0720806  81.2643219
  50.1600996  41.8599998  80.1739633  50.5434602  41.7224201  80.8435934
  56.7632547  26.1461148  78.5737808  57.1160157  25.7190871  79.2483607
  55.9047348  26.0611992  78.7038884  56.6881991  26.0705889  78.6932818
  45.4616232  28.7768668  76.6320654  44.7428221  29.1932801  76.8993518
  45.8328594  29.3422907  76.0812293  45.4108163  28.9217950  76.5903461
  54.7615812  29.4096517  82.5222650  54.7413740  29.2279812  83.3757429
  54.8095013  30.2808536  82.4982234  54.7650453  29.5113055  82.6445945
  49.2969610  42.0502435  78.3496278  48.8830008  41.3876565  77.9600119
  49.9816984  42.1980294  77.8291972  49.3367981  41.9743093  78.2152775
  52.6634904  41.2092520  79.1019894  52.2651187  41.3194790  78.3340714
  52.0486123  41.4174586  79.6846454  52.5133793  41.2566088  79.0751194
  51.2362806  27.8166668  71.9694034  50.6427645  28.1383664  71.4178601
  51.2738084  26.9707763  71.7615140  51.1537195  27.7390996  71.8576805
  54.1120622  27.7746172  75.3995784  53.8834315  27.7978874  74.5574142
  54.3718699  26.9503640  75.5190795  54.1166811  27.6562252  75.2920982
  47.1665385  26.3122719  76.6949980  47.6422751  26.6739799  76.0600161
  46.6653985  26.9679186  76.9750123  47.1630744  26.4616908  76.6426721
  60.3976747  35.7844487  72.4862985  60.7810352  36.5335843  72.7161082
  59.6020860  36.0310307  72.2274974  60.3370529  35.9314181  72.4820558
  49.2092038  28.4563919  70.0623364  49.5891003  28.4743548  69.2774479
  48.4684634  28.9017907  69.9414211  49.1560876  28.5245693  69.9286932
  56.8377329  26.7646110  75.6498942  56.8371555  26.6094766  76.5083219
  56.6333509  27.6109097  75.5940328  56.8077107  26.8666731  75.7686882
  38.8994600  30.1885894  80.0657759  38.7216361  29.7362503  80.7912675
  38.6113622  30.9912056  80.2496237  38.8307553  30.2408452  80.2001262
  54.5618181  31.4443612  79.3035149  55.0571846  30.7266607  79.2639170
  53.7517956  31.1414409  79.1889636  54.5162074  31.2941258  79.2808875
  50.0076792  35.2941425  71.4532154  49.1988115  34.9708098  71.4065463
  50.5151701  34.5874647  71.3860402  49.9626459  35.1422741  71.4362448
  40.6367069  32.7213618  77.1779518  39.7712589  32.7099308  77.0662289
  40.7365885  32.5343841  78.0250657  40.5241236  32.6919679  77.2868463
  56.6270000  34.1947299  81.9912278  57.0525071  33.6721721  81.4382703
  56.2626919  34.7928137  81.4700901  56.6356602  34.2057526  81.8321288
  46.2624079  42.4911517  80.7509624  46.5770638  43.3047905  80.7587405
  46.6717493  42.1061735  81.4191783  46.3692177  42.5540219  80.8513715
  53.2148599  37.9081563  78.3213436  53.6859777  38.6221826  78.4903421
  53.5508778  37.3080314  78.8573305  53.3343714  37.9253028  78.4245811
  49.2011209  24.6825447  72.7450995  50.0226903  24.8523760  72.5032690
  48.7380860  24.8372708  72.0217293  49.2542371  24.7307180  72.6022640
  43.6037100  36.4384625  80.3988232  44.2081957  36.3980459  79.7702053
  43.3964412  37.2855777  80.4292288  43.6625997  36.5572628  80.3104349
  53.4180872  38.7050570  81.6150469  54.2379245  38.5613536  81.8766765
  53.1374949  39.3296769  82.1566907  53.4977615  38.7760922  81.7338409
  38.8388382  35.4219243  80.2687155  38.7412660  34.6115514  80.5777212
  39.6217251  35.4011036  79.8833423  38.9404518  35.2986333  80.2574018
  61.6443130  44.9277742  74.2215385  62.3423295  45.1065869  74.7136848
  61.9595463  44.4048081  73.5985774  61.7938467  44.8771514  74.2017395
  59.8169994  40.2970139  78.3036659  59.4873324  40.7481282  77.6340358
  59.1414996  40.2186302  78.8509666  59.6680430  40.3521274  78.2859883
  67.0246401  36.2855661  76.5486270  66.7099842  36.9759140  76.9806692
  66.5073343  36.2300444  75.8471771  66.9010872  36.3790550  76.5083219
  58.2558443  50.1823379  71.4631149  57.6715658  50.6873411  71.8697012
  57.8528538  49.9565766  70.7227741  58.1097747  50.2231627  71.4136174
  62.7135658  46.4289031  69.9400069  62.9531661  46.6367015  69.1275412
  63.0351499  45.6246540  70.0489014  62.7972815  46.3403132  69.8360622
  58.0225948  38.3582427  73.7859607  58.7771916  38.7260744  73.5476657
  57.8453482  38.7321981  74.5538787  58.1080426  38.4680615  73.8644496
  56.3783012  40.7652746  70.4837720  56.1958586  40.9824627  69.6578713
  57.2408625  40.8791759  70.5396334  56.4787602  40.8142644  70.3692207
  62.0582732  37.7679157  73.5186744  62.7868892  37.5895112  73.0724900
  62.1477625  38.6097236  73.7293922  62.1789394  37.8663035  73.4840262
  55.9245039  44.0426919  68.9960193  55.2103217  43.7565098  69.4082626
  56.4089008  44.3823544  69.6366581  55.8904403  44.0508568  69.1515828
  63.0992357  52.5456873  69.3722001  63.5143506  52.2141896  68.6806497
  62.2684287  52.3125775  69.2442138  63.0380366  52.4628129  69.2512849
  65.7925748  48.7967432  68.5583203  65.7105910  48.8669619  69.4238190
  66.4305468  49.3597176  68.3666943  65.8745585  48.8906403  68.6573152
  47.8710450  45.7606007  76.5267064  47.9570702  45.3837875  77.3080594
  48.4986247  45.3866453  76.0487023  47.9767001  45.6491489  76.5712542
  62.8965858  48.8187886  71.5691809  63.7106497  49.1102779  71.4574581
  62.8324999  48.1647749  70.9950102  63.0068597  48.7653081  71.4680647
  59.4076581  47.5111693  71.0339011  59.7921734  47.2919400  71.7855556
  59.1588201  48.3374639  71.1640087  59.4278654  47.6009840  71.1640087
  57.1277018  39.1808630  76.3647791  56.2599444  39.2531230  76.4305400
  57.4152223  39.9830709  76.5535766  57.0416766  39.3102777  76.4022558
  55.0544370  42.6566889  73.8064667  54.7669166  42.2868160  73.0696615
  55.7414839  43.1261745  73.5448372  55.1133268  42.6713859  73.6579743
  57.8898042  46.5219838  75.2532072  58.6120694  46.6860996  74.7935878
  57.4106035  47.2429503  75.1471412  57.9261773  46.6518067  75.1697686
  64.2960828  39.7569013  75.3656373  64.9987181  39.5576762  74.8876331
  64.0305017  38.9844956  75.6725217  64.3607460  39.6131980  75.3401815
  52.6272565  43.4348102  74.6549949  52.7288701  44.2374263  74.9830924
  53.4228452  43.2335438  74.3573029  52.7600471  43.5234001  74.6585304
  64.3341880  52.0349686  66.9107614  65.1014865  52.0949811  66.5013466
  63.8873189  51.4630128  66.4263933  64.3815307  51.9586262  66.7785325
  52.9049620  46.0541312  75.8429342  53.2848585  46.4725857  75.1789610
  52.3304985  46.6354768  76.1498186  52.8760945  46.2019171  75.7906083
  63.4098501  36.2500486  79.4371582  62.5392059  36.2239207  79.3904891
  63.6638842  36.0777678  78.6197427  63.3192061  36.2210629  79.3091718
  60.3816480  48.3068452  68.3744725  60.6709005  49.0833335  68.6488299
  60.4688279  47.7957184  69.0759224  60.4370737  48.3460371  68.5187222
  59.4163183  42.8583636  74.2887136  59.6922918  42.1402549  73.8764704
  60.0161853  43.4568556  74.0808242  59.5456448  42.8404007  74.1967897
  62.9173704  40.5297153  72.5633731  63.3717450  40.7007714  73.2881576
  63.3913749  39.9165264  72.1631507  63.0542024  40.4648039  72.6107493
  60.2586724  47.2339688  73.6678738  61.0028769  47.6213964  73.9061688
  60.4047420  46.3897113  73.8319226  60.3897309  47.1670161  73.7272708
  62.1766299  39.0289947  78.7010600  61.3302344  39.2012754  78.5751950
  62.1737432  38.2239290  79.0376428  62.0513449  38.9350976  78.7321727
  65.1748099  43.7001716  72.6298412  64.6471118  43.7830460  71.9404120
  65.6343807  44.4419587  72.6263056  65.1649950  43.8222378  72.5273107
  57.1681164  41.9704235  67.6539307  56.8193969  42.6223961  68.1170856
  56.6877610  41.9561348  66.9263178  57.0451408  42.0647289  67.6150398
  57.5405073  44.5962766  73.1665351  57.6808034  45.0935230  73.8693993
  58.0387606  43.8949060  73.3079565  57.6346154  44.5664744  73.2916930
  57.5705295  45.4629877  70.4957928  58.2050375  46.0590302  70.4307390
  57.6530906  45.1633334  71.3103798  57.6761846  45.5070785  70.6061015
  59.1484278  41.3943852  70.4703370  59.4700119  40.9146935  69.8162632
  59.4111222  42.2043498  70.2794182  59.2350304  41.4433750  70.3458862
  54.0758283  47.6597717  73.7647474  54.5850513  48.2562225  74.1458780
  54.5492556  47.3923691  73.0823894  54.2201659  47.7083533  73.7201997
  62.9837656  37.2531146  76.2417426  62.3405974  37.1028792  76.8102565
  62.6437063  37.0073491  75.4766531  62.8382734  37.1943268  76.2120441
  56.4348815  44.2953976  76.6320654  55.7160804  44.7118109  76.8993518
  56.8061177  44.8608215  76.0812293  56.3840747  44.4403257  76.5903461
  62.2095389  43.3351976  71.9694034  61.6160229  43.6568972  71.4178601
  62.2470667  42.4893071  71.7615140  62.1269779  43.2576304  71.8576805
  58.1397969  41.8308027  76.6949980  58.6155335  42.1925107  76.0600161
  57.6386568  42.4864494  76.9750123  58.1363328  41.9802215  76.6426721
  60.1824622  43.9749227  70.0623364  60.5623587  43.9928856  69.2774479
  59.4417218  44.4203215  69.9414211  60.1293459  44.0431001  69.9286932
  60.9809376  50.8126733  71.4532154  60.1720699  50.4893406  71.4065463
  61.4884285  50.1059955  71.3860402  60.9359043  50.6608049  71.4362448
  60.1743792  40.2010755  72.7450995  60.9959487  40.3709068  72.5032690
  59.7113443  40.3558016  72.0217293  60.2274955  40.2492488  72.6022640
  35.2221003   0.8861306  62.0323555  34.4703903   0.5076844  61.8039600
  35.6707015   0.9179740  61.2842365  35.1770670   0.8346913  61.8881057
  40.6745963   1.3086676  57.4609102  40.3397332   1.9863597  57.0253324
  41.1872834   0.9191987  56.8725973  40.7011544   1.3511254  57.3095893
  40.2150255   3.2600944  63.4020213  40.5989634   3.8287843  62.8624988
  40.1509396   2.5350455  62.9226029  40.2623682   3.2376408  63.2514076
  36.6406499   5.8157287  65.7001183  37.2843955   6.2570451  66.0897342
  36.9662755   5.0110714  65.6131442  36.7838328   5.7622482  65.7446660
  37.3427079  -1.1730738  61.0721045  37.6642920  -0.6325530  60.4682353
  37.9899175  -1.7433966  61.2043335  37.4853134  -1.1771563  61.0028080
  37.4385480   1.6324085  60.0411428  37.7283779   1.2413066  59.3170654
  38.1688961   1.8140790  60.4816703  37.5892365   1.6017899  59.9994235
  35.3791396   3.6091467  63.1071577  35.1591691   3.3188822  63.8998244
  35.1585918   2.9506422  62.5789490  35.3138990   3.4691176  63.1460486
  37.5459352   4.9820857  61.8902270  38.1983410   4.4497299  62.1193296
  36.8484960   4.6289509  62.2770144  37.5390070   4.8510380  61.9814438
  42.0105848   0.2464055  60.6570328  41.7692524  -0.4868084  60.2497393
  42.1907181   0.7950912  60.0036662  42.0013472   0.2186446  60.5000551
  39.5608876   0.9045018  61.8647712  40.3258767   0.6354662  61.5430376
  39.4586966   0.4195028  62.5817775  39.6590372   0.7934582  61.9227539
  38.7866609  -0.4610888  58.6142013  38.8559430  -1.3196349  58.7535014
  39.5655064  -0.2439007  58.2861038  38.9119459  -0.5558024  58.5859170
  43.1774097   1.9626814  62.8278507  42.7853889   1.6593529  62.1101373
  43.3327169   2.7995904  62.6383460  43.1427687   2.0410650  62.6935004
  43.9464402   1.3662306  66.2608541  43.7484091   1.8553121  65.5664752
  43.3252113   1.5703548  66.8392674  43.8251967   1.4678845  66.2431764
  42.7374688   2.2333499  58.8546176  42.0203998   2.0594362  58.3893414
  43.3881426   1.9986072  58.3221662  42.7276539   2.1729292  58.7075394
  38.0187850   3.4695258  65.2836324  37.6048249   2.8069388  64.8940166
  38.7035224   3.6173117  64.7632019  38.0586222   3.3935916  65.1492822
  41.3853144   2.6285343  66.0359941  40.9869427   2.7387614  65.2680761
  40.7704364   2.8367410  66.6186501  41.2352034   2.6758911  66.0091240
  58.6112762   7.7808245  61.5133393  58.5806767   8.6352882  61.6851662
  59.2094111   7.4803538  62.0719536  58.6949920   7.8624742  61.6208195
  51.8112447   6.8683896  66.2686323  50.9550343   7.0292394  66.3195440
  51.8580101   5.9975960  66.2891384  51.6911559   6.7634698  66.2792389
  46.1953587  16.4046614  62.0323555  45.4436486  16.0262152  61.8039600
  46.6439599  16.4365048  61.2842365  46.1503254  16.3532221  61.8881057
  51.6478547  16.8271984  57.4609102  51.3129915  17.5048905  57.0253324
  52.1605417  16.4377295  56.8725973  51.6744128  16.8696562  57.3095893
  51.1882838  18.7786252  63.4020213  51.5722217  19.3473151  62.8624988
  51.1241979  18.0535763  62.9226029  51.2356265  18.7561716  63.2514076
  54.6564268   8.9275940  68.9117975  55.2020228   9.6061027  68.9711944
  54.5981145   8.7863401  68.0519556  54.7280183   9.0067942  68.7930035
  47.7738343  16.4165006  64.2986327  47.8748706  15.6065360  64.6083455
  47.1780088  16.3221953  63.6686006  47.7010882  16.2830034  64.2512566
  56.4329337  10.3560547  59.7851702  56.3168863  11.1068233  60.2143841
  57.2285224  10.0984500  60.0347789  56.5333926  10.4295394  59.8855794
  47.6139083  21.3342595  65.7001183  48.2576538  21.7755759  66.0897342
  47.9395338  20.5296022  65.6131442  47.7570911  21.2807790  65.7446660
  40.9703387  12.4385293  63.9238661  40.7353572  11.6052945  63.8170930
  41.1089028  12.7189958  63.1099862  40.9559050  12.3568796  63.7881016
  43.2693475   4.6071023  66.8222968  42.6498506   4.0163671  66.6532983
  43.1677338   5.1982459  66.1887292  43.1631150   4.6075106  66.7027958
  48.3159662  14.3454570  61.0721045  48.6375503  14.8859778  60.4682353
  48.9631759  13.7751342  61.2043335  48.4585718  14.3413745  61.0028080
  50.3661370   6.3470565  61.1555432  51.0641535   6.5258693  61.6476895
  50.6813703   5.8240904  60.5325821  50.5156708   6.2964337  61.1357442
  42.9962608   8.1523305  69.0666537  42.8721305   8.7385751  69.7016356
  43.6480892   7.6583501  69.3678812  43.0736257   8.1662109  69.2052467
  50.5549306  12.7341010  61.1435223  50.9942941  12.1258111  61.5889996
  50.4053969  12.3548384  60.3720688  50.5970772  12.5879481  61.0954390
  48.0220949  11.3285022  68.3454048  48.6669951  10.8357465  68.0264997
  48.2622726  11.4709809  69.1720127  48.1531534  11.2762464  68.4203582
  50.5607040  14.1739928  67.9960941  50.8430283  13.3791334  67.7747697
  51.2893201  14.6520515  68.0166002  50.7096604  14.1274525  67.9663956
  48.5388234   1.7162962  65.2376706  48.2091564   2.1674105  64.5680405
  47.8633236   1.6379125  65.7849713  48.3898670   1.7714097  65.2199929
  54.1558642  11.0868191  58.0965992  54.0709938  11.9429158  58.2415561
  54.6443026  10.8112516  58.7648151  54.2147540  11.1725513  58.2168074
  55.0877076   7.7052986  59.5963727  54.5588547   7.9212619  60.2561034
  55.6102096   8.3989124  59.5164697  55.0865529   7.8396123  59.6819327
  60.5425129  13.2799290  64.9696772  59.7122832  13.4909934  65.1330188
  60.4934381  12.4536345  64.6939055  60.4131864  13.1888896  64.9534137
  46.9776683  11.6016202  58.3971195  46.3933899  12.1066234  58.8037059
  46.5746779  11.3758589  57.6567787  46.8315987  11.6424451  58.3476221
  42.5320712  17.3170964  65.1994867  42.0488290  18.0421453  65.1754450
  43.3444030  17.6147094  65.3105025  42.5811460  17.4673317  65.2122146
  48.6034866  16.1103144  67.8044681  48.0861808  15.7510559  67.2005989
  49.3009257  15.5865319  67.8150747  48.6300447  15.9800832  67.7174940
  52.2598458  16.5597958  73.7660854  52.3481804  16.3724099  74.6139065
  52.6888171  15.9135388  73.3665701  52.3360560  16.4360966  73.8332606
  49.8268918  15.8429118  72.7478517  49.2639753  15.4301728  73.2718178
  50.5889941  15.7682024  73.1671660  49.8563367  15.7706519  72.8871517
  51.4353898   7.8481854  56.8740116  51.6749902   8.0559838  56.0615459
  51.7569739   7.0439363  56.9829060  51.5191056   7.7595956  56.7700669
  45.3864909  17.8327139  65.3515147  46.0885489  17.3179129  65.4087903
  45.3062392  18.1601291  66.1562022  45.4788670  17.8041366  65.4787939
  45.1001253   2.1845569  57.4177767  44.9176826   2.4017450  56.5918760
  45.9626866   2.2984582  57.4736381  45.2005842   2.2335467  57.3032254
  44.7115685  14.0233491  64.8600755  45.5504584  14.2556424  64.9074516
  44.7427454  13.1537803  64.7907790  44.8397402  13.9290438  64.8565399
  45.3368388  14.4434367  69.1614060  45.8766613  14.3005498  69.8317433
  44.6538334  14.8431117  69.5298087  45.3160542  14.4814038  69.3148482
  54.7609273  10.1225367  64.3559085  55.5166788  10.5556882  64.3947993
  54.8671597   9.4730137  64.9293721  54.8879443  10.0902851  64.4457110
  57.7989444  13.9498645  65.1061488  57.3624676  13.9535387  65.8620459
  57.4652359  14.6304144  64.6741065  57.6852064  14.0511100  65.1542320
  52.3718517  15.9906977  76.4304638  53.1558934  16.1037825  76.7960380
  52.1715112  15.1648114  76.6263324  52.4584543  15.8853697  76.5139024
  40.7405533  10.6634657  69.3148482  40.4743948   9.8473774  69.4739472
  40.7544097  10.7087813  68.4443997  40.7030255  10.5491562  69.2101964
  44.6463280   5.4619742  55.9300240  43.9321457   5.1757921  56.3422672
  45.1307249   5.8016368  56.5706627  44.6122643   5.4701392  56.0855875
  52.5288911  17.9017079  70.0771094  51.7304156  17.6616579  70.3344962
  52.9774922  17.9531472  70.8238141  52.4763522  17.8739471  70.2256018
  60.9333790  10.6679564  63.9981125  61.5950224  10.1070233  63.8977033
  60.2925202  10.1731595  64.3233816  60.9362658  10.5115973  64.0313465
  51.8210598  13.9649696  56.3062048  52.2361746  13.6334720  55.6146544
  50.9902527  13.7318598  56.1782185  51.7598606  13.8820952  56.1852896
  41.1498947  11.4493437  66.5960226  40.9674520  11.4240323  65.7432518
  41.8848615  11.9192375  66.6349135  41.2313010  11.5154799  66.4758145
  57.2198621  11.6844947  63.7393114  57.4554210  11.8290146  62.9119964
  57.3688184  12.4487355  64.1324627  57.2764424  11.8184001  63.6756718
  59.0489077  10.5246613  61.5762717  59.3797295  11.0574253  60.9702812
  59.6222166  10.5785501  62.2324668  59.1822757  10.6116182  61.5840499
  54.2620967   8.3711515  62.2586298  54.3567821   9.1100810  62.7125923
  53.6379810   7.9428991  62.6920862  54.1829997   8.4172836  62.3894445
  52.5173440  11.5497728  72.9076578  53.0912302  10.9124972  73.0625142
  52.4388244  11.5501810  72.0386236  52.5906675  11.4562839  72.8022989
  41.1169857   8.3286938  66.7459293  41.6943359   8.1923388  67.3851538
  40.4183919   7.8722722  67.0004877  41.0990878   8.2409204  66.8781582
  54.5143988  10.2160255  55.4923250  54.4324150  10.2862442  56.3578237
  55.1523708  10.7789999  55.3006990  54.5963825  10.3099226  55.5913199
  47.8737159   9.9820993  64.9597776  47.6156403   9.1492728  64.9329075
  47.9285642  10.2078606  64.1190276  47.8436937   9.8918764  64.8317913
  46.8471871   7.5358756  65.4462671  46.2721462   7.6950924  66.0826632
  46.4707547   6.8994165  64.9831121  46.7074684   7.4656569  65.4717229
  50.5145160   6.0082105  70.3055049  50.1259593   5.5836323  69.6507240
  49.8499858   6.2564255  70.8132076  50.3592088   5.9820826  70.2842917
  36.5928690   7.1798830  63.4607111  36.6788942   6.8030699  64.2420641
  37.2204488   6.8059276  62.9827069  36.6985241   7.0684313  63.5052589
  51.6184098  10.2380710  58.5031856  52.4324737  10.5295602  58.3914627
  51.5543239   9.5840572  57.9290149  51.7286837  10.1845904  58.4020693
  47.4892006  13.7102227  63.6304168  48.1265953  13.4713975  64.1755961
  47.9147078  13.9139386  62.8957329  47.6468173  13.7053237  63.6021325
  42.1804649  15.9490563  67.5138472  42.2208794  16.2205415  66.6858251
  42.7399173  16.4732472  67.9296260  42.2687995  16.0666319  67.4530360
  48.1294821   8.9304517  57.9679057  48.5139974   8.7112223  58.7195603
  47.8806442   9.7567462  58.0980134  48.1496894   9.0202663  58.0980134
  58.8630009  12.7051154  68.9789726  58.5575826  13.4379211  69.3403042
  58.1436225  12.2989084  68.6982512  58.7117351  12.7532887  68.9902863
  49.8713478  14.1874650  65.3097954  49.9452487  14.0249821  66.1639804
  50.6882985  14.3764839  65.0658436  50.0029837  14.1911392  65.3995980
  43.6319235  14.5332512  62.3392398  42.8057353  14.7794250  62.2126677
  43.6931226  14.4544593  63.2054456  43.5193402  14.5577461  62.4481342
  45.8495259   0.6001453  63.2987838  44.9817684   0.6724053  63.3645447
  46.1370463   1.4023532  63.4875813  45.7635007   0.7295601  63.3362605
  48.4118064  17.1509393  60.0411428  48.7016362  16.7598374  59.3170654
  49.1421545  17.3326098  60.4816703  48.5624948  17.1203206  59.9994235
  49.0012809  11.9527139  71.1264558  48.5024503  12.6642906  71.2049447
  49.8113033  12.2727805  71.0882721  49.0468916  12.1053987  71.1321127
  46.3523980  19.1276775  63.1071577  46.1324275  18.8374130  63.8998244
  46.1318502  18.4691730  62.5789490  46.2871574  18.9876483  63.1460486
  45.2640927  11.2150092  65.3727279  44.9754175  10.5887563  65.9073006
  46.1324275  11.1570379  65.4391960  45.3501179  11.1137636  65.4618234
  56.0518825   6.3584875  65.6909261  55.7083590   5.6375210  66.0416511
  56.1511867   6.1498726  64.8487619  56.0160867   6.2209078  65.6180941
  48.5191935  20.5006165  61.8902270  49.1715993  19.9682607  62.1193296
  47.8217544  20.1474817  62.2770144  48.5122653  20.3695688  61.9814438
  45.4673200  12.8545343  61.2969644  46.2219168  13.2358382  61.5105107
  44.8743813  13.3056486  61.7516341  45.4909914  12.9774170  61.3952523
  56.5131854  12.8210579  61.2333249  57.0789886  13.4803789  61.1491792
  55.8659757  13.1660277  61.7049651  56.5010610  12.9692520  61.2906006
  46.7871427  14.0253904  66.6709760  46.2652180  14.1654196  67.3561624
  47.1745447  13.2664568  66.8611877  46.7675128  13.9339428  66.8010836
  43.7762611   4.0759713  60.7404714  43.4887407   3.7060983  60.0036662
  44.4633079   4.5454568  60.4788419  43.8351508   4.0906682  60.5919790
  52.9838432  15.7649363  60.6570328  52.7425108  15.0317224  60.2497393
  53.1639765  16.3136220  60.0036662  52.9746056  15.7371754  60.5000551
  48.2137752  11.0557923  62.0691251  48.0180535  11.6632658  61.4751554
  48.4372098  10.3625867  61.5882925  48.2172393  11.0435449  61.9107331
  46.6116282   7.9412661  62.1872119  47.3338934   8.1053819  61.7275925
  46.1324275   8.6622326  62.0811459  46.6480013   8.0710891  62.1037733
  54.5709790   4.2776460  67.5668804  53.7320891   4.3037739  67.3307067
  54.6414157   4.9247195  68.1474151  54.4578183   4.3772586  67.6177921
  44.2623899  10.3470733  71.2926259  44.7744996  10.6254987  70.6435019
  43.9760242  11.0860027  71.6589072  44.2958762  10.4973087  71.2516137
  58.4467314   9.4844447  64.8530046  58.3601288   9.6399873  65.7064825
  57.9917794  10.1282522  64.4789451  58.3670570   9.6020202  64.9237152
  41.3490805   4.8540925  61.5889995  41.4506942   5.6567087  61.9170971
  42.1446692   4.6528261  61.2913076  41.4818711   4.9426824  61.5925351
  52.3193130   6.8055194  63.4755605  52.0727844   6.7250945  64.3092394
  52.6478253   6.0208661  63.2818133  52.3314373   6.6781459  63.5703128
  56.2141179  13.5138553  67.2642386  56.0755538  14.2119599  67.7691129
  55.4341177  13.3587209  66.9078568  56.0784406  13.5938720  67.2868661
  48.2790157   9.5411912  72.8878588  48.4233533  10.1213120  72.2521698
  48.6265806   9.9188209  73.5928443  48.3517618   9.6832616  72.8977583
  50.4510074   8.7402081  70.6703720  49.7033389   8.9333095  70.2651998
  50.6051600   7.9147300  70.4327841  50.3632502   8.6467192  70.5749126
  47.3517912  17.7314684  69.7539615  47.5007476  17.1717600  69.1013020
  48.1317914  17.8106686  70.1372134  47.4892006  17.6600249  69.7136564
  57.7094552  12.8716807  58.0258886  57.3301360  12.0853945  58.0188175
  57.0460797  13.4203664  57.8830530  57.5553026  12.8361631  58.0039683
  49.8771213  17.9029327  71.0324106  49.8014884  17.2338137  71.5874894
  49.8061072  18.6047115  71.5464772  49.8551820  17.9074234  71.1900954
  50.5341460  16.4230326  61.8647712  51.2991351  16.1539969  61.5430376
  50.4319550  15.9380336  62.5817775  50.6322955  16.3119890  61.9227539
  48.5694229   4.6254735  68.4040948  47.7790304   4.4446195  68.7258283
  48.9654852   3.8481688  68.3871242  48.5111106   4.4842196  68.4493496
  53.0560120  13.4542510  53.8447661  53.8233105  13.5142634  53.4353513
  52.6091429  12.8822951  53.3603980  53.1033547  13.3779085  53.7125372
  53.9537916  12.2597165  66.1300394  53.2782918  12.0282398  66.6313781
  53.9630292  11.6518348  65.5042499  53.8556420  12.1356091  66.1116546
  51.0832060   7.1014994  72.8864447  51.0191201   7.9624951  72.7584583
  51.2229247   6.7846988  72.0859998  51.0947530   7.1815161  72.7492659
  55.9554650  15.1162298  58.3610571  56.0374488  15.9229284  58.0372022
  56.4404393  15.1358257  59.0851345  56.0391808  15.2382960  58.4197470
  49.7651154   9.7947134  67.0280649  49.3413403   9.9951633  66.2919668
  49.5896009   8.9475982  67.1404949  49.6762034   9.6995915  66.9354340
  49.2662847  21.3097647  69.4902107  49.7558777  20.6108436  69.3077771
  48.6947079  21.0121517  70.0778164  49.2547377  21.1623870  69.5503148
  45.0533599  10.2899185  62.4608622  45.2098218  10.2245988  63.3164614
  45.3934192  11.0647738  62.2487302  45.1266833  10.3948383  62.5563216
  51.5912743   9.6657069  61.3301985  52.1328289   9.1627450  61.7940606
  51.9059302   9.6122263  60.5191470  51.7177140   9.5836490  61.2785797
  49.7599193  15.0574420  58.6142013  49.8292013  14.1988959  58.7535014
  50.5387648  15.2746301  58.2861038  49.8852043  14.9627284  58.5859170
  52.7402013   4.5593373  71.3824286  52.9543982   3.9204287  70.8287640
  52.1235912   5.0039197  70.9532147  52.6807342   4.5303517  71.2374717
  54.1506680  17.4812122  62.8278507  53.7586472  17.1778837  62.1101373
  54.3059753  18.3181211  62.6383460  54.1160270  17.5595958  62.6935004
  41.6267860   7.4734136  62.7769389  42.0066825   7.8918681  62.1129656
  41.0523225   8.0547591  63.0838232  41.5979185   7.6211994  62.7246130
  54.3146355  14.0462110  62.7684537  53.9561010  14.2176753  63.5448569
  53.8285066  14.5075316  62.2112536  54.1905052  14.1401081  62.8009806
  49.1034721   9.7261276  55.3084771  49.3927245  10.5026158  55.5828346
  49.1906519   9.2150007  56.0099271  49.1588977   9.7653194  55.4527269
  55.4751095  14.9366006  73.7151738  56.1130815  14.4426202  73.3814194
  54.8325186  14.8643407  73.1303965  55.4745321  14.8525015  73.5794093
  57.2008095   6.7855152  68.2817654  56.7735703   6.6981501  67.5265753
  56.5634148   6.8932928  68.8672498  57.0437702   6.7887812  68.2563095
  55.5305351  15.6285815  70.3557095  56.3197729  15.2774879  70.4759176
  55.7048949  16.4422203  70.0933729  55.6725633  15.6971672  70.3344963
  45.2698662   9.0394540  67.4084884  44.4286668   8.9398414  67.6163777
  45.4788670   9.8090021  67.7599204  45.1763354   9.1386584  67.4912198
  42.7474229   6.6614077  65.2369634  42.3530926   6.7357089  64.4619744
  42.1914345   7.0472024  65.7877996  42.6077041   6.7295852  65.2037294
  49.0815326   6.9675940  66.6582481  48.7778464   6.4131928  67.2592889
  48.3794747   7.1468149  66.1710515  48.9331536   6.9120722  66.6752187
  48.1381424   4.2776459  61.2227183  48.4141158   3.5595372  60.8104750
  48.7380093   4.8761379  61.0148289  48.2674688   4.2596830  61.1307944
  47.1433677  14.1825660  71.3654579  47.0354032  14.1927722  72.2316637
  47.3529459  15.0080441  71.1759533  47.1583789  14.3066735  71.4658670
  45.1607469  11.4338303  68.8276516  44.5695403  12.0747801  68.7979532
  45.9228493  11.8575920  68.8007816  45.1855730  11.5914141  68.8191664
  54.9196986  16.8847614  66.2608541  54.7216674  17.3738429  65.5664752
  54.2984697  17.0888856  66.8392674  54.7984550  16.9864152  66.2431764
  48.9804964   8.6532511  60.6018785  49.7247009   9.0406787  60.8401735
  49.1265660   7.8089936  60.7659273  49.1115549   8.5862984  60.6612755
  51.9682840   4.2257984  66.5012704  51.4942794   3.6999746  67.0118015
  52.3400976   3.6787457  65.9327566  51.9532729   4.0673981  66.4927852
  58.2319571   9.2860360  67.9119485  57.9917793   8.4466775  67.9161911
  58.7111578   9.3660527  68.6360259  58.2671754   9.1741760  68.0194287
  53.8966340   5.1194539  59.5638458  53.3689358   5.2023283  58.8744167
  54.3562048   5.8612410  59.5603103  53.8868190   5.2415201  59.4613153
  60.2324758   6.0661817  65.8648744  59.9934528   6.0257651  65.0269529
  60.3958659   6.9132969  65.9914465  60.2215061   6.1853902  65.7602226
  56.8370788  10.4511766  71.7953789  57.5604987   9.9984293  71.6164809
  56.5720750  10.7316432  71.0126117  56.9052061  10.4262735  71.6532505
  45.7057656   5.0471940  68.5306668  45.0810726   5.0590332  67.9232621
  45.3703251   5.5232115  69.1797909  45.5643148   5.1190457  68.5363237
  45.8899405   3.3897059  54.5879353  45.5412209   4.0416784  55.0510903
  45.4095851   3.3754172  53.8603225  45.7669649   3.4840112  54.5490445
  42.4183332  13.1072400  69.9710433  41.8883256  12.4164839  70.0205407
  42.6908425  13.0982585  69.1423141  42.3808054  13.0039532  69.8557849
  53.4503422  13.6898102  58.6948115  54.1737621  14.1556215  58.5512689
  53.0104013  13.7571712  57.9445712  53.4919114  13.7681939  58.5632897
  52.6189577  10.5495645  69.9448804  52.0046570  10.0053695  70.2397440
  53.1356862  10.0359881  69.4654620  52.6045240  10.3932054  69.9173033
  51.8585874  11.6199915  67.6793103  51.4313482  10.9949633  67.2458538
  51.8510819  11.3374837  68.5052110  51.7945016  11.4852695  67.7372931
  37.6979174   9.7800164  67.3278781  37.5922623   9.7347009  66.4630865
  36.9479394  10.1253945  67.6093066  37.5714777   9.8241072  67.2416111
  46.4672906   1.2239488  67.2741381  46.5071278   1.7248694  67.9876089
  45.6422571   1.3149881  67.0047304  46.3512432   1.3121304  67.3391920
  47.8887270   7.7399997  69.5715280  47.0579199   7.9073815  69.3650528
  47.8338787   7.3635948  70.3564166  47.7576685   7.7089729  69.6563808
  46.2623313   6.0155589  60.1005398  46.4026275   6.5128053  60.8034039
  46.7605846   5.3141883  60.2419612  46.3564394   5.9857568  60.2256977
  46.2923536   6.8822700  57.4297975  46.9268615   7.4783125  57.3647437
  46.3749147   6.5826158  58.2443845  46.3980087   6.9263608  57.5401061
  47.8702519   2.8136675  57.4043417  48.1918360   2.3339758  56.7502679
  48.1329462   3.6236321  57.2134228  47.9568544   2.8626573  57.2798909
  51.0999491  13.8355550  70.9242233  50.5924583  14.3891397  71.3682863
  50.8026138  13.8963840  70.1061007  50.9804376  13.9261861  70.8690690
  42.7976524   9.0790541  60.6987521  43.3068753   9.6755048  61.0798826
  43.2710796   8.8116514  60.0163940  42.9419899   9.1276356  60.6542044
  53.7107272  17.7518807  58.8546176  52.9936582  17.5779670  58.3893414
  54.3614009  17.5171380  58.3221662  53.7009122  17.6914600  58.7075394
  56.2955243   6.6283396  62.5987481  55.6246433   7.1713098  62.4700547
  56.9894993   7.0978251  62.3569176  56.2984111   6.7781667  62.5443009
  50.3441977  18.7680108  67.8299240  50.1207631  18.0098937  68.1983266
  49.8551820  18.7978129  67.1079680  50.2385426  18.6602332  67.7775981
  45.1567055   5.7146799  63.5660701  44.4379045   6.1310932  63.8333565
  45.5279418   6.2801038  63.0152339  45.1058987   5.8596081  63.5243508
  54.4566636   6.3474648  69.4562697  54.4364564   6.1657943  70.3097476
  54.5045837   7.2186667  69.4322281  54.4601277   6.4491186  69.5785992
  52.4012966  12.9361840  75.3811174  52.3608821  12.2911517  74.7956329
  53.2136284  12.8798458  75.6936586  52.5156120  12.8320807  75.3408123
  48.9920434  18.9880566  65.2836324  48.5780832  18.3254696  64.8940166
  49.6767808  19.1358425  64.7632019  49.0318805  18.9121224  65.1492822
  52.3585728  18.1470651  66.0359941  51.9602011  18.2572922  65.2680761
  51.7436947  18.3552718  66.6186501  52.2084617  18.1944219  66.0091240
  50.9313630   4.7544799  58.9034081  50.3378469   5.0761796  58.3518648
  50.9688908   3.9085895  58.6955187  50.8488019   4.6769127  58.7916852
  53.8071446   4.7124304  62.3335831  53.5785139   4.7357005  61.4914189
  54.0669523   3.8881771  62.4530841  53.8117634   4.5940384  62.2261029
  46.8616209   3.2500850  63.6290027  47.3373575   3.6117930  62.9940208
  46.3604809   3.9057318  63.9090169  46.8581568   3.3995039  63.5766768
  60.0927571  12.7222618  59.4203032  60.4761176  13.4713974  59.6501129
  59.2971684  12.9688438  59.1615021  60.0321353  12.8692312  59.4160605
  48.9042862   5.3942050  56.9963411  49.2841827   5.4121679  56.2114525
  48.1635458   5.8396039  56.8754258  48.8511700   5.4623824  56.8626979
  38.5945424   7.1264025  66.9997806  38.4167185   6.6740634  67.7252721
  38.3064446   7.9290187  67.1836283  38.5258377   7.1786583  67.1341309
  54.2569005   8.3821743  66.2375196  54.7522670   7.6644738  66.1979216
  53.4468780   8.0792540  66.1229683  54.2112898   8.2319389  66.2148922
  49.7027616  12.2319556  58.3872201  48.8938939  11.9086230  58.3405510
  50.2102525  11.5252778  58.3200449  49.6577283  12.0800872  58.3702495
  40.3317893   9.6591749  64.1119565  39.4663413   9.6477440  64.0002336
  40.4316709   9.4721972  64.9590704  40.2192060   9.6297810  64.2208509
  56.3220824  11.1325430  68.9252325  56.7475895  10.6099852  68.3722750
  55.9577743  11.7306268  68.4040948  56.3307426  11.1435657  68.7661335
  45.9574903  19.4289648  67.6849670  46.2721462  20.2426036  67.6927452
  46.3668317  19.0439866  68.3531830  46.0643001  19.4918350  67.7853762
  52.9099423  14.8459695  65.2553482  53.3810601  15.5599957  65.4243468
  53.2459601  14.2458445  65.7913352  53.0294538  14.8631159  65.3585858
  53.5473369  14.6377629  72.0181175  52.9994315  14.0135512  71.7501240
  54.0086398  14.8271901  71.3025254  53.5340579  14.5736679  71.8731606
  43.2987923  13.3762756  67.3328279  43.9032781  13.3358590  66.7042100
  43.0915236  14.2233908  67.3632335  43.3576821  13.4950759  67.2444395
  53.1131696  15.6428701  68.5490516  53.9330069  15.4991667  68.8106811
  52.8325773  16.2674900  69.0906954  53.1928439  15.7139053  68.6678456
  38.5339206  12.3597374  67.2027202  38.4363484  11.5493645  67.5117259
  39.3168075  12.3389167  66.8173470  38.6355342  12.2364464  67.1914065
  69.5845346  23.2993553  61.5133393  69.5539350  24.1538190  61.6851662
  70.1826695  22.9988846  62.0719536  69.6682504  23.3810050  61.6208195
  62.7845031  22.3869204  66.2686323  61.9282926  22.5477702  66.3195440
  62.8312685  21.5161268  66.2891384  62.6644142  22.2820006  66.2792389
  57.1686171  31.9231922  62.0323555  56.4169070  31.5447460  61.8039600
  57.6172182  31.9550356  61.2842365  57.1235837  31.8717529  61.8881057
  62.6211130  32.3457291  57.4609102  62.2862499  33.0234213  57.0253324
  63.1338001  31.9562603  56.8725973  62.6476712  32.3881870  57.3095893
  62.1615422  34.2971560  63.4020213  62.5454801  34.8658459  62.8624988
  62.0974563  33.5721070  62.9226029  62.2088849  34.2747024  63.2514076
  65.6296852  24.4461248  68.9117975  66.1752812  25.1246335  68.9711944
  65.5713728  24.3048709  68.0519556  65.7012766  24.5253250  68.7930035
  58.7470927  31.9350314  64.2986327  58.8481290  31.1250668  64.6083455
  58.1512672  31.8407261  63.6686006  58.6743465  31.8015342  64.2512566
  67.4061920  25.8745855  59.7851702  67.2901446  26.6253541  60.2143841
  68.2017807  25.6169808  60.0347789  67.5066510  25.9480702  59.8855794
  58.5871666  36.8527903  65.7001183  59.2309122  37.2941067  66.0897342
  58.9127922  36.0481329  65.6131442  58.7303495  36.7993098  65.7446660
  51.9435971  27.9570601  63.9238661  51.7086155  27.1238253  63.8170930
  52.0821612  28.2375266  63.1099862  51.9291633  27.8754104  63.7881016
  54.2426058  20.1256331  66.8222968  53.6231090  19.5348979  66.6532983
  54.1409922  20.7167767  66.1887292  54.1363734  20.1260414  66.7027958
  59.2892246  29.8639878  61.0721045  59.6108087  30.4045085  60.4682353
  59.9364343  29.2936650  61.2043335  59.4318301  29.8599053  61.0028080
  61.3393954  21.8655873  61.1555432  62.0374119  22.0444001  61.6476895
  61.6546287  21.3426212  60.5325821  61.4889291  21.8149645  61.1357442
  53.9695191  23.6708613  69.0666537  53.8453888  24.2571058  69.7016356
  54.6213476  23.1768809  69.3678812  54.0468841  23.6847417  69.2052467
  61.5281889  28.2526318  61.1435223  61.9675525  27.6443419  61.5889996
  61.3786552  27.8733691  60.3720688  61.5703355  28.1064789  61.0954390
  58.9953532  26.8470330  68.3454048  59.6402535  26.3542773  68.0264997
  59.2355310  26.9895117  69.1720127  59.1264118  26.7947772  68.4203582
  61.5339624  29.6925236  67.9960941  61.8162867  28.8976642  67.7747697
  62.2625784  30.1705823  68.0166002  61.6829188  29.6459833  67.9663956
  59.5120818  17.2348270  65.2376706  59.1824148  17.6859413  64.5680405
  58.8365819  17.1564433  65.7849713  59.3631254  17.2899405  65.2199929
  65.1291226  26.6053499  58.0965992  65.0442521  27.4614466  58.2415561
  65.6175609  26.3297823  58.7648151  65.1880123  26.6910821  58.2168074
  66.7197225  13.2233793  63.4826317  66.4050666  13.9137271  63.9146739
  66.2024167  13.1678575  62.7811817  66.5961696  13.3168681  63.4423266
  66.0609659  23.2238294  59.5963727  65.5321131  23.4397927  60.2561034
  66.5834679  23.9174432  59.5164697  66.0598112  23.3581430  59.6819327
  71.5157712  28.7984598  64.9696772  70.6855415  29.0095242  65.1330188
  71.4666964  27.9721653  64.6939055  71.3864448  28.7074204  64.9534137
  57.9509267  27.1201510  58.3971195  57.3666482  27.6251542  58.8037059
  57.5479362  26.8943897  57.6567787  57.8048571  27.1609759  58.3476221
  53.5053296  32.8356271  65.1994867  53.0220874  33.5606761  65.1754450
  54.3176614  33.1332402  65.3105025  53.5544043  32.9858625  65.2122146
  59.5767450  31.6288452  67.8044681  59.0594391  31.2695867  67.2005989
  60.2741841  31.1050627  67.8150747  59.6033031  31.4986140  67.7174940
  63.2331042  32.0783266  73.7660854  63.3214388  31.8909407  74.6139065
  63.6620754  31.4320696  73.3665701  63.3093144  31.9546274  73.8332606
  60.8001501  31.3614426  72.7478517  60.2372336  30.9487036  73.2718178
  61.5622525  31.2867332  73.1671660  60.8295950  31.2891827  72.8871517
  62.4086481  23.3667162  56.8740116  62.6482485  23.5745146  56.0615459
  62.7302322  22.5624671  56.9829060  62.4923639  23.2781264  56.7700669
  57.7176772  15.2960558  60.7199654  58.4722740  15.6638875  60.4816704
  57.5404306  15.6700113  61.4878833  57.8031250  15.4058746  60.7984542
  56.3597493  33.3512447  65.3515147  57.0618072  32.8364436  65.4087903
  56.2794976  33.6786599  66.1562022  56.4521253  33.3226674  65.4787939
  57.4076399  23.5888034  74.4795562  57.5796903  23.4793929  75.3280843
  57.9445757  24.2342440  74.2426754  57.5121403  23.6680036  74.5700659
  56.0733836  17.7030877  57.4177767  55.8909410  17.9202758  56.5918760
  56.9359449  17.8169890  57.4736381  56.1738426  17.7520775  57.3032254
  55.6848268  29.5418799  64.8600755  56.5237168  29.7741732  64.9074516
  55.7160038  28.6723111  64.7907790  55.8129986  29.4475746  64.8565399
  56.3100971  29.9619675  69.1614060  56.8499196  29.8190806  69.8317433
  55.6270918  30.3616425  69.5298087  56.2893125  29.9999345  69.3148482
  61.7533556  14.7057288  60.4526791  62.4819716  14.5273243  60.0064947
  61.8428448  15.5475368  60.6633969  61.8740218  14.8041166  60.4180308
  65.7341856  25.6410675  64.3559085  66.4899371  26.0742190  64.3947993
  65.8404181  24.9915445  64.9293721  65.8612027  25.6088159  64.4457110
  68.7722027  29.4683952  65.1061488  68.3357259  29.4720695  65.8620459
  68.4384943  30.1489451  64.6741065  68.6584647  29.5696408  65.1542320
  63.3451101  31.5092285  76.4304638  64.1291518  31.6223133  76.7960380
  63.1447696  30.6833422  76.6263324  63.4317126  31.4039005  76.5139024
  51.7138116  26.1819965  69.3148482  51.4476532  25.3659082  69.4739472
  51.7276681  26.2273121  68.4443997  51.6762839  26.0676870  69.2101964
  55.6195863  20.9805050  55.9300240  54.9054041  20.6943229  56.3422672
  56.1039832  21.3201676  56.5706627  55.5855227  20.9886699  56.0855875
  56.4636723  19.7198344  71.9615490  55.7708520  19.2495323  72.2076221
  57.0797050  19.4936648  72.5357197  56.4521253  19.6165475  72.0824642
  63.5021494  33.4202387  70.0771094  62.7036740  33.1801887  70.3344962
  63.9507506  33.4716780  70.8238141  63.4496106  33.3924778  70.2256018
  71.9066374  26.1864872  63.9981125  72.5682808  25.6255541  63.8977033
  71.2657786  25.6916903  64.3233816  71.9095241  26.0301281  64.0313465
  62.7943181  29.4835004  56.3062048  63.2094330  29.1520028  55.6146544
  61.9635111  29.2503906  56.1782185  62.7331190  29.4006260  56.1852896
  52.1231530  26.9678745  66.5960226  51.9407103  26.9425631  65.7432518
  52.8581199  27.4377683  66.6349135  52.2045594  27.0340107  66.4758145
  68.1931204  27.2030255  63.7393114  68.4286793  27.3475454  62.9119964
  68.3420768  27.9672663  64.1324627  68.2497008  27.3369309  63.6756718
  55.1877282  23.6863748  73.1042335  55.9117254  23.6716778  73.5907229
  55.2893418  24.3959103  72.6064303  55.3095491  23.7888451  73.1021122
  70.0221661  26.0431921  61.5762717  70.3529878  26.5759561  60.9702812
  70.5954749  26.0970808  62.2324668  70.1555340  26.1301490  61.5840499
  65.2353550  23.8896823  62.2586298  65.3300405  24.6286117  62.7125923
  64.6112394  23.4614299  62.6920862  65.1562580  23.9358144  62.3894445
  63.4906024  27.0683036  72.9076578  64.0644886  26.4310280  73.0625142
  63.4120828  27.0687118  72.0386236  63.5639259  26.9748147  72.8022989
  52.0902440  23.8472245  66.7459293  52.6675943  23.7108696  67.3851538
  51.3916502  23.3908030  67.0004877  52.0723462  23.7594512  66.8781582
  65.4876571  25.7345563  55.4923250  65.4056734  25.8047750  56.3578237
  66.1256292  26.2975307  55.3006990  65.5696409  25.8284534  55.5913199
  58.8469743  25.5006301  64.9597776  58.5888987  24.6678036  64.9329075
  58.9018225  25.7263914  64.1190276  58.8169520  25.4104072  64.8317913
  63.9270793  17.6034752  65.0601869  63.2227119  17.1143937  65.2185788
  63.9755767  17.6157226  64.1890313  63.8300844  17.5324400  64.9541208
  57.8204455  23.0544064  65.4462671  57.2454046  23.2136232  66.0826632
  57.4440131  22.4179473  64.9831121  57.6807267  22.9841877  65.4717229
  61.4877743  21.5267413  70.3055049  61.0992176  21.1021631  69.6507240
  60.8232442  21.7749563  70.8132076  61.3324671  21.5006134  70.2842917
  71.1301013  21.2842418  63.0802879  70.8737577  20.4722359  62.8900762
  71.9730326  21.2919985  62.8533066  71.2167038  21.1654415  63.0187696
  47.5661274  22.6984138  63.4607111  47.6521525  22.3216007  64.2420641
  48.1937071  22.3244584  62.9827069  47.6717825  22.5869621  63.5052589
  62.5916682  25.7566017  58.5031856  63.4057320  26.0480910  58.3914627
  62.5275823  25.1025880  57.9290149  62.7019421  25.7031212  58.4020693
  58.4624590  29.2287535  63.6304168  59.0998537  28.9899282  64.1755961
  58.8879661  29.4324694  62.8957329  58.6200756  29.2238545  63.6021325
  53.1537232  31.4675871  67.5138472  53.1941378  31.7390722  66.6858251
  53.7131756  31.9917779  67.9296260  53.2420578  31.5851626  67.4530360
  59.1027405  24.4489825  57.9679057  59.4872558  24.2297531  58.7195603
  58.8539025  25.2752770  58.0980134  59.1229478  24.5387971  58.0980134
  69.8362592  28.2236462  68.9789726  69.5308409  28.9564519  69.3403042
  69.1168808  27.8174392  68.6982512  69.6849935  28.2718195  68.9902863
  60.8446062  29.7059958  65.3097954  60.9185070  29.5435129  66.1639804
  61.6615568  29.8950147  65.0658436  60.9762420  29.7096700  65.3995980
  54.6051819  30.0517820  62.3392398  53.7789936  30.2979558  62.2126677
  54.6663810  29.9729901  63.2054456  54.4925986  30.0762769  62.4481342
  56.8227842  16.1186761  63.2987838  55.9550268  16.1909361  63.3645447
  57.1103047  16.9208840  63.4875813  56.7367590  16.2480908  63.3362605
  59.3850648  32.6694701  60.0411428  59.6748946  32.2783682  59.3170654
  60.1154128  32.8511406  60.4816703  59.5357532  32.6388514  59.9994235
  59.9745393  27.4712446  71.1264558  59.4757086  28.1828214  71.2049447
  60.7845617  27.7913113  71.0882721  60.0201499  27.6239295  71.1321127
  57.3256563  34.6462083  63.1071577  57.1056859  34.3559438  63.8998244
  57.1051085  33.9877038  62.5789490  57.2604157  34.5061791  63.1460486
  56.2373510  26.7335400  65.3727279  55.9486759  26.1072871  65.9073006
  57.1056858  26.6755687  65.4391960  56.3233762  26.6322944  65.4618234
  67.0251408  21.8770183  65.6909261  66.6816174  21.1560518  66.0416511
  67.1244451  21.6684034  64.8487619  66.9893451  21.7394386  65.6180941
  59.4924519  36.0191473  61.8902270  60.1448577  35.4867915  62.1193296
  58.7950128  35.6660125  62.2770144  59.4855237  35.8880996  61.9814438
  56.4405784  28.3730651  61.2969644  57.1951752  28.7543690  61.5105107
  55.8476396  28.8241794  61.7516341  56.4642497  28.4959478  61.3952523
  67.4864437  28.3395887  61.2333249  68.0522470  28.9989097  61.1491792
  66.8392341  28.6845585  61.7049651  67.4743194  28.4877828  61.2906006
  58.9012451  20.3293491  76.4226857  58.0912226  20.6351271  76.3116699
  59.3787137  21.0499073  76.5379441  58.8515930  20.4808092  76.4233928
  57.7604010  29.5439212  66.6709760  57.2384764  29.6839504  67.3561624
  58.1478031  28.7849876  66.8611877  57.7407711  29.4524736  66.8010836
  54.7495194  19.5945021  60.7404714  54.4619990  19.2246291  60.0036662
  55.4365663  20.0639876  60.4788419  54.8084092  19.6091990  60.5919790
  63.9571015  31.2834671  60.6570328  63.7157691  30.5502532  60.2497393
  64.1372348  31.8321528  60.0036662  63.9478639  31.2557062  60.5000551
  59.1870336  26.5743231  62.0691251  58.9913119  27.1817965  61.4751554
  59.4104682  25.8811175  61.5882925  59.1904977  26.5620756  61.9107331
  57.5848866  23.4597969  62.1872119  58.3071518  23.6239127  61.7275925
  57.1056859  24.1807634  62.0811459  57.6212597  23.5896198  62.1037733
  65.5442374  19.7961768  67.5668804  64.7053474  19.8223047  67.3307067
  65.6146741  20.4432503  68.1474151  65.4310767  19.8957893  67.6177921
  55.2356483  25.8656041  71.2926259  55.7477580  26.1440295  70.6435019
  54.9492825  26.6045335  71.6589072  55.2691346  26.0158395  71.2516137
  63.9911652  16.6947145  62.2996420  64.6938005  16.4954893  61.8216378
  63.7255841  15.9223087  62.6065263  64.0558284  16.5510111  62.2741861
  69.4199897  25.0029754  64.8530046  69.3333872  25.1585180  65.7064825
  68.9650377  25.6467830  64.4789451  69.3403154  25.1205510  64.9237152
  52.3223389  20.3726233  61.5889995  52.4239525  21.1752395  61.9170971
  53.1179276  20.1713569  61.2913076  52.4551295  20.4612132  61.5925351
  58.7540208  17.9582430  71.3527300  58.5623405  17.9737564  72.2026724
  59.6038804  18.1546104  71.3293955  58.8515930  17.9896781  71.4750595
  53.1387121  20.4873411  69.3311117  52.9972613  19.6357352  69.4555625
  53.4227684  20.5302072  68.5073323  53.1594967  20.3673161  69.2278741
  63.2925713  22.3240502  63.4755605  63.0460428  22.2436252  64.3092394
  63.6210837  21.5393969  63.2818133  63.3046957  22.1966767  63.5703128
  67.1873762  29.0323861  67.2642386  67.0488122  29.7304907  67.7691129
  66.4073760  28.8772517  66.9078568  67.0516989  29.1124028  67.2868661
  59.2522741  25.0597220  72.8878588  59.3966116  25.6398428  72.2521698
  59.5998389  25.4373517  73.5928443  59.3250202  25.2017924  72.8977583
  61.4242658  24.2587388  70.6703720  60.6765972  24.4518403  70.2651998
  61.5784183  23.4332608  70.4327841  61.3365086  24.1652500  70.5749126
  58.3250496  33.2499992  69.7539615  58.4740059  32.6902908  69.1013020
  59.1050498  33.3291994  70.1372134  58.4624589  33.1785557  69.7136564
  68.6827135  28.3902115  58.0258886  68.3033944  27.6039253  58.0188175
  68.0193381  28.9388972  57.8830530  68.5285610  28.3546939  58.0039683
  60.8503796  33.4214635  71.0324106  60.7747467  32.7523445  71.5874894
  60.7793655  34.1232423  71.5464772  60.8284403  33.4259542  71.1900954
  61.6644435  18.1537939  71.5599124  62.1217049  18.8861914  71.6871916
  61.7400764  17.7304404  72.3186379  61.7435405  18.1995177  71.6900200
  53.9077426  18.4003759  72.6488567  53.3719616  17.7884117  72.9649335
  53.9695191  18.9751895  73.3022234  53.8373059  18.3950687  72.7923994
  61.5074043  31.9415634  61.8647712  62.2723934  31.6725277  61.5430376
  61.4052133  31.4565644  62.5817775  61.6055539  31.8305198  61.9227539
  59.5426813  20.1440043  68.4040948  58.7522888  19.9631503  68.7258283
  59.9387436  19.3666996  68.3871242  59.4843689  20.0027504  68.4493496
  64.0292704  28.9727817  53.8447661  64.7965689  29.0327942  53.4353513
  63.5824013  28.4008259  53.3603980  64.0766131  28.8964393  53.7125372
  64.9270499  27.7782473  66.1300394  64.2515501  27.5467706  66.6313781
  64.9362875  27.1703656  65.5042499  64.8289004  27.6541399  66.1116546
  62.0564643  22.6200302  72.8864447  61.9923785  23.4810259  72.7584583
  62.1961831  22.3032295  72.0859998  62.0680113  22.7000469  72.7492659
  66.9287234  30.6347606  58.3610571  67.0107071  31.4414592  58.0372022
  67.4136976  30.6543565  59.0851345  67.0124392  30.7568268  58.4197470
  60.7383737  25.3132442  67.0280649  60.3145986  25.5136941  66.2919668
  60.5628592  24.4661290  67.1404949  60.6494618  25.2181223  66.9354340
  60.2395431  36.8282955  69.4902107  60.7291361  36.1293744  69.3077771
  59.6679663  36.5306825  70.0778164  60.2279961  36.6809178  69.5503148
  56.0266182  25.8084493  62.4608622  56.1830801  25.7431296  63.3164614
  56.3666775  26.5833046  62.2487302  56.0999417  25.9133691  62.5563216
  62.5645327  25.1842377  61.3301985  63.1060872  24.6812758  61.7940606
  62.8791886  25.1307571  60.5191470  62.6909724  25.1021798  61.2785797
  60.7331776  30.5759728  58.6142013  60.8024597  29.7174267  58.7535014
  61.5120232  30.7931609  58.2861038  60.8584627  30.4812592  58.5859170
  63.7134596  20.0778681  71.3824286  63.9276566  19.4389595  70.8287640
  63.0968495  20.5224505  70.9532147  63.6539925  20.0488825  71.2374717
  65.1239264  32.9997429  62.8278507  64.7319056  32.6964145  62.1101373
  65.2792336  33.8366519  62.6383460  65.0892854  33.0781266  62.6935004
  52.6000444  22.9919444  62.7769389  52.9799409  23.4103988  62.1129656
  52.0255808  23.5732899  63.0838232  52.5711769  23.1397302  62.7246130
  65.2878939  29.5647418  62.7684537  64.9293594  29.7362061  63.5448569
  64.8017650  30.0260624  62.2112536  65.1637636  29.6586389  62.8009806
  63.1049325  13.1878617  66.3711628  62.2342883  13.1617338  66.3244938
  63.3589666  13.0155809  65.5537474  63.0142885  13.1588760  66.2431765
  60.0767304  25.2446584  55.3084771  60.3659829  26.0211466  55.5828346
  60.1639103  24.7335315  56.0099271  60.1321560  25.2838502  55.4527269
  60.1298465  15.1984845  67.8285099  59.6136954  14.5065037  67.9536678
  59.5692394  15.8655622  67.7747698  59.9704979  15.1948103  67.8391165
  62.1990699  15.7377805  69.6577951  61.8122452  15.7626837  70.4391481
  61.7123636  15.1719484  69.2052468  62.0703208  15.6573556  69.7065855
  66.4483678  30.4551314  73.7151738  67.0863399  29.9611510  73.3814194
  65.8057770  30.3828715  73.1303965  66.4477905  30.3710323  73.5794093
  68.1740678  22.3040460  68.2817654  67.7468286  22.2166809  67.5265753
  67.5366731  22.4118236  68.8672498  68.0170286  22.3073120  68.2563095
  66.5037935  31.1471123  70.3557095  67.2930313  30.7960187  70.4759176
  66.6781533  31.9607511  70.0933729  66.6458216  31.2156980  70.3344963
  56.2431245  24.5579848  67.4084884  55.4019252  24.4583722  67.6163777
  56.4521253  25.3275329  67.7599204  56.1495938  24.6571892  67.4912198
  53.7206812  22.1799385  65.2369634  53.3263510  22.2542397  64.4619744
  53.1646929  22.5657332  65.7877996  53.5809625  22.2481160  65.2037294
  65.3571759  15.1580679  64.9173513  65.5621352  15.0902987  65.7630510
  65.0298183  15.9639500  64.8494691  65.3387007  15.2666620  65.0333168
  60.0547910  22.4861247  66.6582481  59.7511048  21.9317236  67.2592889
  59.3527331  22.6653457  66.1710515  59.9064120  22.4306030  66.6752187
  59.1114007  19.7961767  61.2227183  59.3873742  19.0780680  60.8104750
  59.7112676  20.3946687  61.0148289  59.2407272  19.7782138  61.1307944
  58.1166261  29.7010968  71.3654579  58.0086616  29.7113030  72.2316637
  58.3262043  30.5265749  71.1759533  58.1316372  29.8252043  71.4658670
  68.6105447  15.7112443  64.3976279  67.9979760  16.1982846  64.7830010
  68.7069622  15.0355934  64.9413930  68.5343344  15.6830752  64.5355137
  62.6124528  17.4675285  59.4973778  63.0668274  17.6385845  60.2221622
  63.0864573  16.8543395  59.0971554  62.7492848  17.4026170  59.5447540
  56.1340053  26.9523611  68.8276516  55.5427986  27.5933109  68.7979532
  56.8961077  27.3761228  68.8007816  56.1588314  27.1099449  68.8191664
  56.5300676  18.1125608  69.4944534  56.9902157  18.1864538  70.2319658
  56.5756783  18.9106862  69.1444355  56.6051231  18.2419755  69.5517291
  58.1784026  18.7792303  74.0616561  57.7869591  18.1325650  74.4972339
  58.3469888  19.3703738  74.6810817  58.1454936  18.7706571  74.2179267
  65.8929569  32.4032922  66.2608541  65.6949258  32.8923737  65.5664752
  65.2717280  32.6074164  66.8392674  65.7717134  32.5049460  66.2431764
  59.9537548  24.1717819  60.6018785  60.6979593  24.5592095  60.8401735
  60.0998244  23.3275244  60.7659273  60.0848133  24.1048292  60.6612755
  61.8717123  15.9668078  65.6350647  61.0253168  16.1390886  65.5091996
  61.8688256  15.1617422  65.9716475  61.7464273  15.8729107  65.6661774
  62.9415424  19.7443292  66.5012704  62.4675378  19.2185054  67.0118015
  63.3133559  19.1972765  65.9327566  62.9265312  19.5859289  66.4927852
  53.3188454  21.7414799  71.8696250  54.1814067  21.6410508  71.7833580
  52.9880237  21.1609508  71.3081822  53.3973650  21.6406426  71.7741656
  69.2052154  24.8045668  67.9119485  68.9650377  23.9652083  67.9161911
  69.6844161  24.8845835  68.6360259  69.2404338  24.6927068  68.0194287
  64.8698923  20.6379847  59.5638458  64.3421942  20.7208591  58.8744167
  65.3294631  21.3797718  59.5603103  64.8600774  20.7600509  59.4613153
  71.2057341  21.5847125  65.8648744  70.9667111  21.5442959  65.0269529
  71.3691242  22.4318277  65.9914465  71.1947645  21.7039210  65.7602226
  67.8103371  25.9697074  71.7953789  68.5337570  25.5169601  71.6164809
  67.5453334  26.2501740  71.0126117  67.8784645  25.9448043  71.6532505
  56.6790240  20.5657248  68.5306668  56.0543310  20.5775640  67.9232621
  56.3435835  21.0417423  69.1797909  56.5375731  20.6375765  68.5363237
  56.8631988  18.9082366  54.5879353  56.5144793  19.5602092  55.0510903
  56.3828434  18.8939480  53.8603225  56.7402232  19.0025420  54.5490445
  53.3915915  28.6257708  69.9710433  52.8615840  27.9350147  70.0205407
  53.6641009  28.6167893  69.1423141  53.3540638  28.5224840  69.8557849
  64.4236006  29.2083410  58.6948115  65.1470205  29.6741523  58.5512689
  63.9836597  29.2757020  57.9445712  64.4651698  29.2867247  58.5632897
  63.5922161  26.0680953  69.9448804  62.9779154  25.5239003  70.2397440
  64.1089446  25.5545189  69.4654620  63.5777823  25.9117362  69.9173033
  62.8318458  27.1385223  67.6793103  62.4046066  26.5134941  67.2458538
  62.8243402  26.8560145  68.5052110  62.7677599  27.0038003  67.7372931
  55.9480985  22.1750396  70.7481537  56.1074472  21.4193720  71.1533259
  55.7673879  22.7241335  71.4022275  55.9446344  22.1444210  70.9044243
  61.1604168  18.0153977  67.8935637  61.1846655  17.4814090  67.2048417
  61.4115641  17.5071286  68.5561228  61.2014086  17.8614881  67.8900282
  48.6711757  25.2985472  67.3278781  48.5655207  25.2532317  66.4630865
  47.9211977  25.6439253  67.6093066  48.5447360  25.3426380  67.2416111
  57.4405490  16.7424796  67.2741381  57.4803861  17.2434002  67.9876089
  56.6155154  16.8335189  67.0047304  57.3245016  16.8306612  67.3391920
  59.6235103  26.3085535  75.3761676  58.7730733  26.4457250  75.5119321
  59.7863230  25.5749314  75.8209378  59.5218966  26.2199637  75.4617275
  58.8619853  23.2585305  69.5715280  58.0311783  23.4259123  69.3650528
  58.8071370  22.8821256  70.3564166  58.7309268  23.2275037  69.6563808
  57.2355897  21.5340897  60.1005398  57.3758858  22.0313361  60.8034039
  57.7338430  20.8327191  60.2419612  57.3296978  21.5042876  60.2256977
  57.2656119  22.4008008  57.4297975  57.9001199  22.9968433  57.3647437
  57.3481730  22.1011466  58.2443845  57.3712670  22.4448916  57.5401061
  58.8435102  18.3321983  57.4043417  59.1650943  17.8525066  56.7502679
  59.1062046  19.1421629  57.2134228  58.9301128  18.3811881  57.2798909
  62.0732075  29.3540858  70.9242233  61.5657166  29.9076704  71.3682863
  61.7758721  29.4149148  70.1061007  61.9536960  29.4447169  70.8690690
  64.2394257  17.7194177  69.7666896  64.6649329  17.2666704  69.1550422
  63.6251250  17.1654248  70.0431683  64.2122903  17.5708153  69.7171921
  53.7709107  24.5975849  60.6987521  54.2801337  25.1940356  61.0798826
  54.2443380  24.3301822  60.0163940  53.9152483  24.6461664  60.6542044
  64.6839855  33.2704115  58.8546176  63.9669165  33.0964978  58.3893414
  65.3346593  33.0356688  58.3221662  64.6741706  33.2099908  58.7075394
  62.6788480  14.1909277  63.1757473  62.0356798  14.0406923  63.7442611
  62.3387887  13.9451622  62.4106578  62.5333557  14.1321400  63.1460488
  67.2687827  22.1468704  62.5987481  66.5979016  22.6898406  62.4700547
  67.9627577  22.6163559  62.3569176  67.2716694  22.2966975  62.5443009
  61.3174560  34.2865416  67.8299240  61.0940215  33.5284245  68.1983266
  60.8284404  34.3163437  67.1079680  61.2118009  34.1787640  67.7775981
  67.4315954  18.6024587  65.5077855  67.7843564  18.1754310  66.1823653
  66.5730756  18.5175431  65.6378931  67.3565399  18.5269328  65.6272865
  56.1299639  21.2332107  63.5660701  55.4111628  21.6496240  63.8333565
  56.5012001  21.7986346  63.0152339  56.0791571  21.3781389  63.5243508
  65.4299220  21.8659956  69.4562697  65.4097147  21.6843251  70.3097476
  65.4778421  22.7371975  69.4322281  65.4333861  21.9676494  69.5785992
  63.3745550  28.4547148  75.3811174  63.3341405  27.8096825  74.7956329
  64.1868868  28.3983765  75.6936586  63.4888703  28.3506115  75.3408123
  59.9653017  34.5065874  65.2836324  59.5513416  33.8440004  64.8940166
  60.6500392  34.6543733  64.7632019  60.0051389  34.4306532  65.1492822
  63.3318311  33.6655959  66.0359941  62.9334595  33.7758230  65.2680761
  62.7169531  33.8738026  66.6186501  63.1817201  33.7129527  66.0091240
  61.9046213  20.2730107  58.9034081  61.3111053  20.5947104  58.3518648
  61.9421491  19.4271203  58.6955187  61.8220603  20.1954435  58.7916852
  64.7804030  20.2309612  62.3335831  64.5517723  20.2542313  61.4914189
  65.0402106  19.4067079  62.4530841  64.7850218  20.1125692  62.2261029
  59.0623258  22.0844085  71.9360931  58.5502162  21.4765268  72.2945963
  58.8902755  22.8000677  72.4034907  58.9612895  22.1007384  72.0577155
  53.9088973  20.5281660  74.5863293  53.7391563  21.1883035  74.0411500
  53.4654923  20.7388221  75.3075782  53.8188307  20.6567642  74.6124922
  57.8348792  18.7686158  63.6290027  58.3106159  19.1303238  62.9940208
  57.3337392  19.4242625  63.9090169  57.8314151  18.9180347  63.5766768
  71.0660154  28.2407926  59.4203032  71.4493760  28.9899282  59.6501129
  70.2704267  28.4873746  59.1615021  71.0053936  28.3877620  59.4160605
  50.8091038  23.4328526  69.8451783  50.2617757  22.7629171  69.9632651
  51.5983416  23.0658373  69.9095250  50.8443221  23.2793512  69.8720483
  60.6575446  23.0935983  75.3415194  61.4086773  23.4087659  75.6554748
  60.8498023  22.8915153  74.5149116  60.7966860  23.1103364  75.2658590
  59.8775446  20.9127358  56.9963411  60.2574410  20.9306987  56.2114525
  59.1368042  21.3581347  56.8754258  59.8244283  20.9809132  56.8626979
  67.5060736  19.2209549  62.5838989  67.5054963  19.0658205  63.4423266
  67.3016916  20.0672536  62.5280375  67.4760514  19.3230170  62.7026929
  49.5678007  22.6449333  66.9997806  49.3899768  22.1925942  67.7252721
  49.2797029  23.4475495  67.1836283  49.4990960  22.6971891  67.1341309
  65.2301588  23.9007051  66.2375196  65.7255254  23.1830046  66.1979216
  64.4201364  23.5977848  66.1229683  65.1845482  23.7504697  66.2148922
  60.6760200  27.7504864  58.3872201  59.8671522  27.4271537  58.3405510
  61.1835109  27.0438086  58.3200449  60.6309867  27.5986180  58.3702495
  51.3050477  25.1777057  64.1119565  50.4395996  25.1662748  64.0002336
  51.4049293  24.9907280  64.9590704  51.1924644  25.1483118  64.2208509
  67.2953407  26.6510738  68.9252325  67.7208479  26.1285160  68.3722750
  66.9310327  27.2491576  68.4040948  67.3040010  26.6620965  68.7661335
  56.9307487  34.9474956  67.6849670  57.2454046  35.7611344  67.6927452
  57.3400900  34.5625174  68.3531830  57.0375585  35.0103658  67.7853762
  63.8832007  30.3645002  65.2553482  64.3543185  31.0785265  65.4243468
  64.2192185  29.7643753  65.7913352  64.0027122  30.3816467  65.3585858
  64.5205953  30.1562937  72.0181175  63.9726899  29.5320820  71.7501240
  64.9818982  30.3457209  71.3025254  64.5073162  30.0921987  71.8731606
  59.8694616  17.1388886  59.6791042  60.6910311  17.3087199  59.4372737
  59.4064267  17.2936147  58.9557340  59.9225779  17.1870619  59.5362686
  58.4589948  15.1331648  70.4589471  59.0034361  14.7922775  71.0493813
  58.5126884  15.9917110  70.6010756  58.5479068  15.2086907  70.5671344
  54.2720507  28.8948064  67.3328279  54.8765364  28.8543898  66.7042100
  54.0647820  29.7419216  67.3632335  54.3309404  29.0136067  67.2444395
  64.0864279  31.1614009  68.5490516  64.9062653  31.0176975  68.8106811
  63.8058357  31.7860208  69.0906954  64.1661023  31.2324361  68.6678456
  49.5071789  27.8782682  67.2027202  49.4096067  27.0678953  67.5117259
  50.2900659  27.8574475  66.8173470  49.6087926  27.7549772  67.1914065
  73.7577614  37.9054512  66.2686323  72.9015510  38.0663010  66.3195440
  73.8045268  37.0346576  66.2891384  73.6376726  37.8005314  66.2792389
  68.1418754  47.4417230  62.0323555  67.3901654  47.0632768  61.8039600
  68.5904766  47.4735664  61.2842365  68.0968421  47.3902837  61.8881057
  73.5943714  47.8642599  57.4609102  73.2595082  48.5419521  57.0253324
  74.1070584  47.4747911  56.8725973  73.6209295  47.9067178  57.3095893
  73.1348005  49.8156868  63.4020213  73.5187385  50.3843767  62.8624988
  73.0707147  49.0906378  62.9226029  73.1821433  49.7932332  63.2514076
  76.6029435  39.9646556  68.9117975  77.1485395  40.6431643  68.9711944
  76.5446312  39.8234017  68.0519556  76.6745350  40.0438558  68.7930035
  69.7203510  47.4535622  64.2986327  69.8213873  46.6435976  64.6083455
  69.1245256  47.3592568  63.6686006  69.6476049  47.3200650  64.2512566
  69.5604250  52.3713211  65.7001183  70.2041705  52.8126375  66.0897342
  69.8860505  51.5666637  65.6131442  69.7036079  52.3178406  65.7446660
  62.9168555  43.4755909  63.9238661  62.6818739  42.6423561  63.8170930
  63.0554195  43.7560574  63.1099862  62.9024217  43.3939412  63.7881016
  65.2158642  35.6441639  66.8222968  64.5963674  35.0534286  66.6532983
  65.1142506  36.2353074  66.1887292  65.1096318  35.6445722  66.7027958
  70.2624830  45.3825186  61.0721045  70.5840671  45.9230393  60.4682353
  70.9096926  44.8121957  61.2043335  70.4050885  45.3784361  61.0028080
  72.3126538  37.3841181  61.1555432  73.0106702  37.5629309  61.6476895
  72.6278870  36.8611520  60.5325821  72.4621875  37.3334953  61.1357442
  64.9427775  39.1893921  69.0666537  64.8186472  39.7756366  69.7016356
  65.5946060  38.6954117  69.3678812  65.0201424  39.2032725  69.2052467
  72.5014473  43.7711626  61.1435223  72.9408109  43.1628727  61.5889996
  72.3519136  43.3918999  60.3720688  72.5435939  43.6250097  61.0954390
  69.9686116  42.3655638  68.3454048  70.6135119  41.8728081  68.0264997
  70.2087893  42.5080424  69.1720127  70.0996701  42.3133080  68.4203582
  72.5072207  45.2110544  67.9960941  72.7895450  44.4161949  67.7747697
  73.2358368  45.6891131  68.0166002  72.6561771  45.1645141  67.9663956
  70.4853401  32.7533578  65.2376706  70.1556731  33.2044721  64.5680405
  69.8098403  32.6749741  65.7849713  70.3363838  32.8084713  65.2199929
  76.1023810  42.1238807  58.0965992  76.0175105  42.9799774  58.2415561
  76.5908193  41.8483131  58.7648151  76.1612707  42.2096129  58.2168074
  77.6929809  28.7419101  63.4826317  77.3783250  29.4322579  63.9146739
  77.1756751  28.6863883  62.7811817  77.5694279  28.8353989  63.4423266
  77.0342243  38.7423602  59.5963727  76.5053714  38.9583235  60.2561034
  77.5567263  39.4359740  59.5164697  77.0330696  38.8766738  59.6819327
  68.9241851  42.6386818  58.3971195  68.3399066  43.1436850  58.8037059
  68.5211946  42.4129205  57.6567787  68.7781154  42.6795067  58.3476221
  64.4785879  48.3541579  65.1994867  63.9953457  49.0792069  65.1754450
  65.2909198  48.6517709  65.3105025  64.5276627  48.5043933  65.2122146
  70.5500033  47.1473760  67.8044681  70.0326975  46.7881175  67.2005989
  71.2474425  46.6235935  67.8150747  70.5765614  47.0171448  67.7174940
  73.3819065  38.8852470  56.8740116  73.6215069  39.0930454  56.0615459
  73.7034906  38.0809979  56.9829060  73.4656223  38.7966572  56.7700669
  68.6909355  30.8145866  60.7199654  69.4455323  31.1824183  60.4816704
  68.5136890  31.1885420  61.4878833  68.7763834  30.9244054  60.7984542
  67.3330077  48.8697755  65.3515147  68.0350656  48.3549744  65.4087903
  67.2527560  49.1971907  66.1562022  67.4253837  48.8411982  65.4787939
  68.3808983  39.1073342  74.4795562  68.5529487  38.9979237  75.3280843
  68.9178341  39.7527748  74.2426754  68.4853987  39.1865344  74.5700659
  67.0466420  33.2216185  57.4177767  66.8641993  33.4388066  56.5918760
  67.9092033  33.3355198  57.4736381  67.1471009  33.2706083  57.3032254
  66.6580852  45.0604107  64.8600755  67.4969751  45.2927040  64.9074516
  66.6892621  44.1908419  64.7907790  66.7862570  44.9661054  64.8565399
  67.2833555  45.4804982  69.1614060  67.8231780  45.3376114  69.8317433
  66.6003501  45.8801733  69.5298087  67.2625709  45.5184653  69.3148482
  72.7266139  30.2242596  60.4526791  73.4552300  30.0458551  60.0064947
  72.8161032  31.0660676  60.6633969  72.8472801  30.3226474  60.4180308
  76.7074440  41.1595983  64.3559085  77.4631955  41.5927497  64.3947993
  76.8136764  40.5100753  64.9293721  76.8344610  41.1273467  64.4457110
  62.6870700  41.7005273  69.3148482  62.4209115  40.8844390  69.4739472
  62.7009264  41.7458429  68.4443997  62.6495422  41.5862178  69.2101964
  66.5928447  36.4990358  55.9300240  65.8786624  36.2128537  56.3422672
  67.0772416  36.8386984  56.5706627  66.5587810  36.5072007  56.0855875
  67.4369306  35.2383652  71.9615490  66.7441103  34.7680631  72.2076221
  68.0529634  35.0121956  72.5357197  67.4253836  35.1350783  72.0824642
  73.7675765  45.0020312  56.3062048  74.1826913  44.6705336  55.6146544
  72.9367695  44.7689214  56.1782185  73.7063774  44.9191568  56.1852896
  63.0964114  42.4864053  66.5960226  62.9139687  42.4610939  65.7432518
  63.8313783  42.9562991  66.6349135  63.1778178  42.5525415  66.4758145
  66.1609865  39.2049056  73.1042335  66.8849838  39.1902086  73.5907229
  66.2626002  39.9144411  72.6064303  66.2828074  39.3073759  73.1021122
  76.2086134  39.4082131  62.2586298  76.3032988  40.1471425  62.7125923
  75.5844977  38.9799607  62.6920862  76.1295164  39.4543452  62.3894445
  63.0635024  39.3657553  66.7459293  63.6408527  39.2294004  67.3851538
  62.3649086  38.9093338  67.0004877  63.0456045  39.2779820  66.8781582
  76.4609155  41.2530871  55.4923250  76.3789318  41.3233058  56.3578237
  77.0988876  41.8160615  55.3006990  76.5428992  41.3469842  55.5913199
  69.8202326  41.0191609  64.9597776  69.5621570  40.1863344  64.9329075
  69.8750809  41.2449222  64.1190276  69.7902104  40.9289380  64.8317913
  74.9003376  33.1220060  65.0601869  74.1959703  32.6329245  65.2185788
  74.9488351  33.1342534  64.1890313  74.8033428  33.0509708  64.9541208
  68.7937038  38.5729371  65.4462671  68.2186630  38.7321540  66.0826632
  68.4172715  37.9364781  64.9831121  68.6539851  38.5027184  65.4717229
  72.4610327  37.0452721  70.3055049  72.0724760  36.6206939  69.6507240
  71.7965025  37.2934870  70.8132076  72.3057255  37.0191442  70.2842917
  58.5393857  38.2169446  63.4607111  58.6254109  37.8401315  64.2420641
  59.1669655  37.8429892  62.9827069  58.6450408  38.1054928  63.5052589
  73.5649265  41.2751325  58.5031856  74.3789904  41.5666218  58.3914627
  73.5008406  40.6211188  57.9290149  73.6752004  41.2216520  58.4020693
  69.4357173  44.7472843  63.6304168  70.0731120  44.5084590  64.1755961
  69.8612245  44.9510002  62.8957329  69.5933340  44.7423853  63.6021325
  64.1269816  46.9861179  67.5138472  64.1673961  47.2576030  66.6858251
  64.6864340  47.5103087  67.9296260  64.2153162  47.1036934  67.4530360
  70.0759989  39.9675133  57.9679057  70.4605141  39.7482839  58.7195603
  69.8271609  40.7938078  58.0980134  70.0962061  40.0573279  58.0980134
  71.8178645  45.2245265  65.3097954  71.8917654  45.0620437  66.1639804
  72.6348152  45.4135455  65.0658436  71.9495004  45.2282008  65.3995980
  65.5784402  45.5703128  62.3392398  64.7522520  45.8164865  62.2126677
  65.6396393  45.4915209  63.2054456  65.4658569  45.5948077  62.4481342
  67.7960426  31.6372069  63.2987838  66.9282851  31.7094669  63.3645447
  68.0835630  32.4394148  63.4875813  67.7100174  31.7666216  63.3362605
  70.3583231  48.1880009  60.0411428  70.6481530  47.7968990  59.3170654
  71.0886712  48.3696713  60.4816703  70.5090115  48.1573822  59.9994235
  70.9477976  42.9897754  71.1264558  70.4489670  43.7013522  71.2049447
  71.7578201  43.3098421  71.0882721  70.9934083  43.1424603  71.1321127
  68.2989147  50.1647391  63.1071577  68.0789442  49.8744746  63.8998244
  68.0783669  49.5062346  62.5789490  68.2336741  50.0247099  63.1460486
  67.2106094  42.2520707  65.3727279  66.9219343  41.6258179  65.9073006
  68.0789442  42.1940995  65.4391960  67.2966346  42.1508252  65.4618234
  77.9983992  37.3955491  65.6909261  77.6548758  36.6745826  66.0416511
  78.0977034  37.1869342  64.8487619  77.9626035  37.2579694  65.6180941
  70.4657102  51.5376781  61.8902270  71.1181160  51.0053223  62.1193296
  69.7682711  51.1845433  62.2770144  70.4587820  51.4066304  61.9814438
  67.4138367  43.8915959  61.2969644  68.1684335  44.2728998  61.5105107
  66.8208980  44.3427102  61.7516341  67.4375081  44.0144786  61.3952523
  69.8745034  35.8478799  76.4226857  69.0644810  36.1536579  76.3116699
  70.3519721  36.5684381  76.5379441  69.8248513  35.9993400  76.4233928
  68.7336594  45.0624520  66.6709760  68.2117347  45.2024812  67.3561624
  69.1210614  44.3035184  66.8611877  68.7140295  44.9710044  66.8010836
  65.7227778  35.1130329  60.7404714  65.4352574  34.7431599  60.0036662
  66.4098246  35.5825184  60.4788419  65.7816675  35.1277298  60.5919790
  74.9303599  46.8019979  60.6570328  74.6890275  46.0687840  60.2497393
  75.1104932  47.3506836  60.0036662  74.9211223  46.7742370  60.5000551
  70.1602920  42.0928539  62.0691251  69.9645702  42.7003273  61.4751554
  70.3837265  41.3996483  61.5882925  70.1637561  42.0806064  61.9107331
  68.5581450  38.9783277  62.1872119  69.2804101  39.1424435  61.7275925
  68.0789442  39.6992942  62.0811459  68.5945180  39.1081506  62.1037733
  76.5174957  35.3147076  67.5668804  75.6786058  35.3408354  67.3307067
  76.5879324  35.9617811  68.1474151  76.4043351  35.4143201  67.6177921
  66.2089066  41.3841349  71.2926259  66.7210163  41.6625602  70.6435019
  65.9225409  42.1230643  71.6589072  66.2423929  41.5343703  71.2516137
  74.9644235  32.2132453  62.2996420  75.6670588  32.0140201  61.8216378
  74.6988424  31.4408395  62.6065263  75.0290868  32.0695419  62.2741861
  63.2955973  35.8911541  61.5889995  63.3972109  36.6937702  61.9170971
  64.0911859  35.6898877  61.2913076  63.4283878  35.9797440  61.5925351
  69.7272792  33.4767738  71.3527300  69.5355989  33.4922872  72.2026724
  70.5771388  33.6731412  71.3293955  69.8248514  33.5082089  71.4750595
  64.1119705  36.0058719  69.3311117  63.9705196  35.1542660  69.4555625
  64.3960268  36.0487380  68.5073323  64.1327551  35.8858469  69.2278741
  74.2658297  37.8425809  63.4755605  74.0193011  37.7621560  64.3092394
  74.5943420  37.0579277  63.2818133  74.2779541  37.7152075  63.5703128
  78.1606346  44.5509169  67.2642386  78.0220705  45.2490215  67.7691129
  77.3806344  44.3957825  66.9078568  78.0249573  44.6309335  67.2868661
  72.3975242  39.7772696  70.6703720  71.6498556  39.9703711  70.2651998
  72.5516767  38.9517916  70.4327841  72.3097669  39.6837808  70.5749126
  72.6377019  33.6723247  71.5599124  73.0949633  34.4047221  71.6871916
  72.7133347  33.2489712  72.3186379  72.7167989  33.7180485  71.6900200
  64.8810010  33.9189067  72.6488567  64.3452199  33.3069425  72.9649335
  64.9427775  34.4937203  73.3022234  64.8105643  33.9135995  72.7923994
  72.4806627  47.4600942  61.8647712  73.2456518  47.1910585  61.5430376
  72.3784717  46.9750952  62.5817775  72.5788122  47.3490506  61.9227539
  70.5159397  35.6625351  68.4040948  69.7255471  35.4816811  68.7258283
  70.9120019  34.8852304  68.3871242  70.4576273  35.5212812  68.4493496
  75.0025287  44.4913125  53.8447661  75.7698272  44.5513250  53.4353513
  74.5556596  43.9193567  53.3603980  75.0498715  44.4149701  53.7125372
  75.9003083  43.2967781  66.1300394  75.2248085  43.0653013  66.6313781
  75.9095459  42.6888964  65.5042499  75.8021587  43.1726706  66.1116546
  73.0297227  38.1385610  72.8864447  72.9656368  38.9995567  72.7584583
  73.1694415  37.8217603  72.0859998  73.0412697  38.2185777  72.7492659
  77.9019817  46.1532914  58.3610571  77.9839655  46.9599900  58.0372022
  78.3869560  46.1728873  59.0851345  77.9856975  46.2753576  58.4197470
  71.7116321  40.8317750  67.0280649  71.2878570  41.0322249  66.2919668
  71.5361176  39.9846597  67.1404949  71.6227201  40.7366531  66.9354340
  66.9998766  41.3269801  62.4608622  67.1563385  41.2616604  63.3164614
  67.3399359  42.1018354  62.2487302  67.0732001  41.4318999  62.5563216
  73.5377910  40.7027685  61.3301985  74.0793456  40.1998066  61.7940606
  73.8524469  40.6492879  60.5191470  73.6642307  40.6207105  61.2785797
  71.7064360  46.0945036  58.6142013  71.7757180  45.2359575  58.7535014
  72.4852815  46.3116917  58.2861038  71.8317210  45.9997900  58.5859170
  74.6867180  35.5963989  71.3824286  74.9009149  34.9574903  70.8287640
  74.0701079  36.0409813  70.9532147  74.6272509  35.5674133  71.2374717
  76.0971848  48.5182737  62.8278507  75.7051639  48.2149453  62.1101373
  76.2524920  49.3551827  62.6383460  76.0625437  48.5966574  62.6935004
  63.5733027  38.5104751  62.7769389  63.9531992  38.9289296  62.1129656
  62.9988392  39.0918207  63.0838232  63.5444352  38.6582610  62.7246130
  76.2611522  45.0832726  62.7684537  75.9026177  45.2547369  63.5448569
  75.7750233  45.5445932  62.2112536  76.1370219  45.1771697  62.8009806
  74.0781908  28.7063925  66.3711628  73.2075466  28.6802646  66.3244938
  74.3322250  28.5341117  65.5537474  73.9875468  28.6774068  66.2431765
  71.0499888  40.7631892  55.3084771  71.3392413  41.5396774  55.5828346
  71.1371687  40.2520623  56.0099271  71.1054144  40.8023810  55.4527269
  71.1031049  30.7170153  67.8285099  70.5869537  30.0250345  67.9536678
  70.5424978  31.3840930  67.7747698  70.9437562  30.7133411  67.8391165
  73.1723282  31.2563113  69.6577951  72.7855035  31.2812145  70.4391481
  72.6856220  30.6904792  69.2052468  73.0435791  31.1758864  69.7065855
  67.2163829  40.0765156  67.4084884  66.3751835  39.9769030  67.6163777
  67.4253837  40.8460636  67.7599204  67.1228521  40.1757200  67.4912198
  64.6939396  37.6984693  65.2369634  64.2996093  37.7727705  64.4619744
  64.1379513  38.0842639  65.7877996  64.5542208  37.7666468  65.2037294
  76.3304343  30.6765987  64.9173513  76.5353936  30.6088295  65.7630510
  76.0030767  31.4824808  64.8494691  76.3119590  30.7851928  65.0333168
  71.0280494  38.0046555  66.6582481  70.7243631  37.4502544  67.2592889
  70.3259914  38.1838765  66.1710515  70.8796703  37.9491338  66.6752187
  70.0846591  35.3147075  61.2227183  70.3606325  34.5965988  60.8104750
  70.6845260  35.9131995  61.0148289  70.2139855  35.2967446  61.1307944
  69.0898845  45.2196276  71.3654579  68.9819200  45.2298338  72.2316637
  69.2994626  46.0451056  71.1759533  69.1048956  45.3437351  71.4658670
  73.5857111  32.9860593  59.4973778  74.0400858  33.1571153  60.2221622
  74.0597157  32.3728703  59.0971554  73.7225431  32.9211478  59.5447540
  67.1072637  42.4708918  68.8276516  66.5160570  43.1118417  68.7979532
  67.8693660  42.8946536  68.8007816  67.1320897  42.6284757  68.8191664
  67.5033259  33.6310916  69.4944534  67.9634741  33.7049846  70.2319658
  67.5489366  34.4292170  69.1444355  67.5783815  33.7605063  69.5517291
  69.1516609  34.2977611  74.0616561  68.7602174  33.6510958  74.4972339
  69.3202472  34.8889046  74.6810817  69.1187520  34.2891879  74.2179267
  76.8662153  47.9218230  66.2608541  76.6681842  48.4109045  65.5664752
  76.2449864  48.1259472  66.8392674  76.7449717  48.0234768  66.2431764
  70.9270131  39.6903127  60.6018785  71.6712176  40.0777403  60.8401735
  71.0730827  38.8460552  60.7659273  71.0580716  39.6233600  60.6612755
  72.8449707  31.4853386  65.6350647  71.9985752  31.6576194  65.5091996
  72.8420839  30.6802730  65.9716475  72.7196857  31.3914415  65.6661774
  73.9148007  35.2628600  66.5012704  73.4407961  34.7370362  67.0118015
  74.2866143  34.7158073  65.9327566  73.8997896  35.1044597  66.4927852
  64.2921037  37.2600107  71.8696250  65.1546650  37.1595816  71.7833580
  63.9612820  36.6794816  71.3081822  64.3706234  37.1591734  71.7741656
  75.8431507  36.1565155  59.5638458  75.3154525  36.2393899  58.8744167
  76.3027215  36.8983026  59.5603103  75.8333357  36.2785817  59.4613153
  67.6522823  36.0842556  68.5306668  67.0275893  36.0960948  67.9232621
  67.3168418  36.5602731  69.1797909  67.5108315  36.1561073  68.5363237
  67.8364572  34.4267674  54.5879353  67.4877376  35.0787400  55.0510903
  67.3561018  34.4124787  53.8603225  67.7134816  34.5210728  54.5490445
  64.3648499  44.1443016  69.9710433  63.8348423  43.4535455  70.0205407
  64.6373592  44.1353201  69.1423141  64.3273221  44.0410148  69.8557849
  75.3968589  44.7268718  58.6948115  76.1202788  45.1926831  58.5512689
  74.9569180  44.7942328  57.9445712  75.4384281  44.8052555  58.5632897
  74.5654744  41.5866261  69.9448804  73.9511737  41.0424311  70.2397440
  75.0822029  41.0730497  69.4654620  74.5510407  41.4302670  69.9173033
  73.8051041  42.6570531  67.6793103  73.3778650  42.0320249  67.2458538
  73.7975986  42.3745453  68.5052110  73.7410183  42.5223311  67.7372931
  66.9213569  37.6935704  70.7481537  67.0807055  36.9379028  71.1533259
  66.7406462  38.2426643  71.4022275  66.9178928  37.6629517  70.9044243
  72.1336751  33.5339285  67.8935637  72.1579238  32.9999397  67.2048417
  72.3848225  33.0256594  68.5561228  72.1746670  33.3800189  67.8900282
  59.6444341  40.8170780  67.3278781  59.5387790  40.7717624  66.4630865
  58.8944561  41.1624561  67.6093066  59.5179944  40.8611688  67.2416111
  68.4138073  32.2610103  67.2741381  68.4536445  32.7619310  67.9876089
  67.5887738  32.3520497  67.0047304  68.2977599  32.3491920  67.3391920
  69.8352437  38.7770613  69.5715280  69.0044366  38.9444431  69.3650528
  69.7803954  38.4006564  70.3564166  69.7041852  38.7460345  69.6563808
  68.2088481  37.0526205  60.1005398  68.3491442  37.5498669  60.8034039
  68.7071013  36.3512499  60.2419612  68.3029562  37.0228184  60.2256977
  68.2388703  37.9193316  57.4297975  68.8733782  38.5153741  57.3647437
  68.3214314  37.6196773  58.2443845  68.3445254  37.9634224  57.5401061
  69.8167686  33.8507291  57.4043417  70.1383527  33.3710374  56.7502679
  70.0794630  34.6606937  57.2134228  69.9033711  33.8997189  57.2798909
  75.2126841  33.2379485  69.7666896  75.6381912  32.7852012  69.1550422
  74.5983834  32.6839556  70.0431683  75.1855486  33.0893461  69.7171921
  64.7441691  40.1161157  60.6987521  65.2533920  40.7125664  61.0798826
  65.2175963  39.8487130  60.0163940  64.8885067  40.1646972  60.6542044
  75.6572439  48.7889423  58.8546176  74.9401749  48.6150286  58.3893414
  76.3079177  48.5541996  58.3221662  75.6474289  48.7285216  58.7075394
  73.6521064  29.7094585  63.1757473  73.0089382  29.5592231  63.7442611
  73.3120471  29.4636930  62.4106578  73.5066141  29.6506707  63.1460488
  72.2907144  49.8050724  67.8299240  72.0672798  49.0469553  68.1983266
  71.8016987  49.8348745  67.1079680  72.1850593  49.6972948  67.7775981
  78.4048538  34.1209895  65.5077855  78.7576148  33.6939618  66.1823653
  77.5463339  34.0360739  65.6378931  78.3297982  34.0454636  65.6272865
  67.1032223  36.7517415  63.5660701  66.3844212  37.1681548  63.8333565
  67.4744585  37.3171654  63.0152339  67.0524154  36.8966697  63.5243508
  76.4031803  37.3845264  69.4562697  76.3829731  37.2028559  70.3097476
  76.4511004  38.2557283  69.4322281  76.4066444  37.4861802  69.5785992
  70.9385601  50.0251182  65.2836324  70.5245999  49.3625312  64.8940166
  71.6232975  50.1729041  64.7632019  70.9783973  49.9491840  65.1492822
  74.3050895  49.1841267  66.0359941  73.9067178  49.2943538  65.2680761
  73.6902115  49.3923334  66.6186501  74.1549784  49.2314835  66.0091240
  72.8778797  35.7915415  58.9034081  72.2843636  36.1132412  58.3518648
  72.9154075  34.9456510  58.6955187  72.7953186  35.7139743  58.7916852
  75.7536614  35.7494920  62.3335831  75.5250307  35.7727621  61.4914189
  76.0134690  34.9252387  62.4530841  75.7582802  35.6310999  62.2261029
  64.8821557  36.0466968  74.5863293  64.7124147  36.7068343  74.0411500
  64.4387507  36.2573529  75.3075782  64.7920890  36.1752950  74.6124922
  68.8081376  34.2871466  63.6290027  69.2838742  34.6488546  62.9940208
  68.3069976  34.9427933  63.9090169  68.8046735  34.4365655  63.5766768
  61.7823621  38.9513833  69.8451783  61.2350341  38.2814479  69.9632651
  62.5715999  38.5843681  69.9095250  61.8175805  38.7978820  69.8720483
  70.8508029  36.4312666  56.9963411  71.2306994  36.4492295  56.2114525
  70.1100625  36.8766654  56.8754258  70.7976867  36.4994440  56.8626979
  78.4793320  34.7394857  62.5838989  78.4787546  34.5843513  63.4423266
  78.2749500  35.5857844  62.5280375  78.4493098  34.8415478  62.7026929
  60.5410591  38.1634641  66.9997806  60.3632352  37.7111250  67.7252721
  60.2529613  38.9660803  67.1836283  60.4723544  38.2157199  67.1341309
  76.2034172  39.4192359  66.2375196  76.6987837  38.7015354  66.1979216
  75.3933948  39.1163156  66.1229683  76.1578065  39.2690005  66.2148922
  71.6492783  43.2690172  58.3872201  70.8404106  42.9456845  58.3405510
  72.1567692  42.5623394  58.3200449  71.6042450  43.1171488  58.3702495
  62.2783061  40.6962365  64.1119565  61.4128580  40.6848055  64.0002336
  62.3781876  40.5092588  64.9590704  62.1657228  40.6668426  64.2208509
  78.2685991  42.1696046  68.9252325  78.6941062  41.6470468  68.3722750
  77.9042911  42.7676884  68.4040948  78.2772593  42.1806273  68.7661335
  67.9040070  50.4660264  67.6849670  68.2186629  51.2796652  67.6927452
  68.3133484  50.0810482  68.3531830  68.0108168  50.5288966  67.7853762
  74.8564590  45.8830310  65.2553482  75.3275768  46.5970573  65.4243468
  75.1924769  45.2829061  65.7913352  74.9759705  45.9001775  65.3585858
  70.8427200  32.6574194  59.6791042  71.6642894  32.8272507  59.4372737
  70.3796851  32.8121455  58.9557340  70.8958362  32.7055927  59.5362686
  69.4322532  30.6516956  70.4589471  69.9766945  30.3108083  71.0493813
  69.4859468  31.5102418  70.6010756  69.5211651  30.7272215  70.5671344
  65.2453091  44.4133372  67.3328279  65.8497948  44.3729206  66.7042100
  65.0380403  45.2604524  67.3632335  65.3041988  44.5321375  67.2444395
  60.4804373  43.3967990  67.2027202  60.3828651  42.5864261  67.5117259
  61.2633243  43.3759783  66.8173470  60.5820509  43.2735080  67.1914065
  77.5661031  52.0175666  55.9300240  76.8519208  51.7313845  56.3422672
  78.0504999  52.3572291  56.5706627  77.5320394  52.0257315  56.0855875
  69.5126441  53.7354754  63.4607111  69.5986693  53.3586623  64.2420641
  70.1402238  53.3615200  62.9827069  69.6182992  53.6240236  63.5052589
  76.6960362  50.6315636  60.7404714  76.4085157  50.2616907  60.0036662
  77.3830830  51.1010492  60.4788419  76.7549259  50.6462606  60.5919790
  74.2688556  51.4096849  61.5889995  74.3704693  52.2123010  61.9170971
  75.0644443  51.2084185  61.2913076  74.4016462  51.4982748  61.5925351
  74.5465611  54.0290059  62.7769389  74.9264576  54.4474604  62.1129656
  73.9720976  54.6103515  63.0838232  74.5176936  54.1767918  62.7246130
  75.7174274  55.6346464  60.6987521  76.2266504  56.2310972  61.0798826
  76.1908547  55.3672438  60.0163940  75.8617650  55.6832280  60.6542044
  78.0764806  52.2702723  63.5660701  77.3576795  52.6866856  63.8333565
  78.4477168  52.8356962  63.0152339  78.0256738  52.4152004  63.5243508
  56.8636994   8.8610053  48.9663601  56.1119894   8.4825591  48.7379646
  57.3123006   8.8928487  48.2182412  56.8186661   8.8095660  48.8221104
  62.3161954   9.2835423  44.3949148  61.9813323   9.9612344  43.9593371
  62.8288825   8.8940734  43.8066020  62.3427535   9.3260001  44.2435940
  61.8566246  11.2349691  50.3360260  62.2405625  11.8036590  49.7965035
  61.7925387  10.5099202  49.8566076  61.9039673  11.2125155  50.1854123
  58.4421751   8.8728445  51.2326374  58.5432114   8.0628799  51.5423502
  57.8463496   8.7785392  50.6026052  58.3694289   8.7393473  51.1852612
  58.2822490  13.7906034  52.6341230  58.9259946  14.2319199  53.0237388
  58.6078746  12.9859461  52.5471489  58.4254319  13.7371229  52.6786707
  51.6386795   4.8948732  50.8578708  51.4036979   4.0616384  50.7510976
  51.7772436   5.1753398  50.0439908  51.6242457   4.8132235  50.7221063
  58.9843070   6.8018009  48.0061092  59.3058911   7.3423217  47.4022400
  59.6315166   6.2314781  48.1383381  59.1269125   6.7977184  47.9368127
  53.2004120   9.7734403  52.1334914  52.7171698  10.4984892  52.1094497
  54.0127438  10.0710533  52.2445071  53.2494867   9.9236756  52.1462193
  59.2718274   8.5666583  54.7384728  58.7545215   8.2073998  54.1346036
  59.9692665   8.0428758  54.7490794  59.2983855   8.4364271  54.6514987
  62.9281866   9.0161397  60.7000901  63.0165211   8.8287538  61.5479112
  63.3571578   8.3698827  60.3005748  63.0043968   8.8924405  60.7672653
  60.4952325   8.2992557  59.6818563  59.9323160   7.8865167  60.2058225
  61.2573349   8.2245463  60.1011707  60.5246774   8.2269958  59.8211564
  56.0548317  10.2890579  52.2855194  56.7568896   9.7742568  52.3427950
  55.9745800  10.6164730  53.0902069  56.1472077  10.2604805  52.4127986
  55.3799092   6.4796931  51.7940802  56.2187992   6.7119863  51.8414563
  55.4110861   5.6101242  51.7247837  55.5080810   6.3853877  51.7905446
  56.0051795   6.8997806  56.0954107  56.5450020   6.7568937  56.7657479
  55.3221742   7.2994557  56.4638133  55.9843949   6.9377477  56.2488529
  63.0401925   8.4470416  63.3644685  63.8242342   8.5601264  63.7300427
  62.8398519   7.6211554  63.5603371  63.1267950   8.3417136  63.4479071
  63.1972318  10.3580518  57.0111140  62.3987564  10.1180019  57.2685009
  63.6458330  10.4094911  57.7578188  63.1446929  10.3302910  57.1596065
  51.8182354   3.9056876  53.5300273  51.6357927   3.8803762  52.6772565
  52.5532023   4.3755814  53.5689182  51.8996418   3.9718238  53.4098191
  58.1575414   6.1665666  50.5644215  58.7949361   5.9277414  51.1096008
  58.5830485   6.3702825  49.8297376  58.3151580   6.1616676  50.5361372
  52.8488056   8.4054003  54.4478519  52.8892202   8.6768854  53.6198298
  53.4082580   8.9295911  54.8636307  52.9371402   8.5229758  54.3870407
  60.5396886   6.6438089  52.2438001  60.6135894   6.4813261  53.0979851
  61.3566392   6.8328278  51.9998483  60.6713244   6.6474831  52.3336027
  54.3002642   6.9895952  49.2732445  53.4740760   7.2357689  49.1466723
  54.3614634   6.9108032  50.1394503  54.1876809   7.0140901  49.3821389
  59.0801472   9.6072832  46.9751475  59.3699770   9.2161813  46.2510701
  59.8104952   9.7889537  47.4156750  59.2308356   9.5766646  46.9334282
  57.0207387  11.5840214  50.0411624  56.8007683  11.2937569  50.8338291
  56.8001909  10.9255169  49.5129537  56.9554981  11.4439923  50.0800533
  59.1875343  12.9569604  48.8242317  59.8399401  12.4246046  49.0533343
  58.4900952  12.6038256  49.2110191  59.1806061  12.8259127  48.9154484
  56.1356608   5.3108782  48.2309691  56.8902576   5.6921821  48.4445154
  55.5427220   5.7619925  48.6856388  56.1593321   5.4337609  48.3292569
  57.4554834   6.4817343  53.6049806  56.9335588   6.6217635  54.2901671
  57.8428855   5.7228007  53.7951924  57.4358535   6.3902867  53.7350883
  63.6521839   8.2212802  47.5910375  63.4108515   7.4880663  47.1837440
  63.8323172   8.7699659  46.9376708  63.6429463   8.1935193  47.4340598
  58.0201320  10.1878123  56.6879662  58.1690883   9.6281039  56.0353066
  58.8001322  10.2670125  57.0712181  58.1575413  10.1163689  56.6476611
  60.5454620  10.3592766  57.9664153  60.4698291   9.6901577  58.5214941
  60.4744479  11.0610554  58.4804819  60.5235227  10.3637673  58.1241001
  61.2024867   8.8793765  48.7987759  61.9674758   8.6103409  48.4770423
  61.1002957   8.3943775  49.5157821  61.3006363   8.7683330  48.8567586
  59.9346255  13.7661086  56.4242154  60.4242185  13.0671875  56.2417818
  59.3630487  13.4684956  57.0118211  59.9230785  13.6187309  56.4843194
  60.4282600   7.5137859  45.5482060  60.4975421   6.6552398  45.6875060
  61.2071056   7.7309740  45.2201085  60.5535451   7.4190723  45.5199217
  64.8190088   9.9375561  49.7618553  64.4269880   9.6342276  49.0441419
  64.9743160  10.7744651  49.5723507  64.7843678  10.0159397  49.6275050
  57.8117085   6.6389099  58.2994626  57.7037440   6.6491161  59.1656684
  58.0212867   7.4643880  58.1099579  57.8267196   6.7630174  58.3998717
  65.5880393   9.3411053  53.1948588  65.3900082   9.8301868  52.5004799
  64.9668104   9.5452295  53.7732721  65.4667958   9.4427592  53.1771811
  53.0866739   5.5635839  56.9050480  52.5566664   4.8728278  56.9545454
  53.3591832   5.5546025  56.0763188  53.0491461   5.4602971  56.7897896
  48.3662581   2.2363603  54.2618828  48.2606030   2.1910448  53.3970912
  47.6162801   2.5817384  54.5433113  48.2398184   2.2804512  54.1756158
  61.7682899   6.2918989  57.8582280  61.2607990   6.8454836  58.3022910
  61.4709545   6.3527279  57.0401054  61.6487784   6.3825300  57.8030736
  64.3790679  10.2082247  45.7886223  63.6619989  10.0343109  45.3233461
  65.0297417   9.9734819  45.2561709  64.3692530  10.1478039  45.6415441
  61.0125384  11.2243547  54.7639287  60.7891039  10.4662376  55.1323313
  60.5235228  11.2541568  54.0419726  60.9068833  11.1165772  54.7116028
  59.6603841  11.4444005  52.2176371  59.2464240  10.7818135  51.8280213
  60.3451215  11.5921864  51.6972065  59.7002213  11.3684663  52.0832868
  63.0269135  10.6034090  52.9699988  62.6285419  10.7136361  52.2020808
  62.4120355  10.8116157  53.5526548  62.8768025  10.6507658  52.9431287
  56.6258311  11.8853087  54.6189717  56.9404870  12.6989475  54.6267499
  57.0351724  11.5003306  55.2871876  56.7326409  11.9481789  54.7193809
  53.9671331   5.8326195  54.2668326  54.5716188   5.7922029  53.6382146
  53.7598644   6.6797347  54.2972381  54.0260228   5.9514198  54.1784442
  63.7815103   8.0992140  55.4830563  64.6013477   7.9555107  55.7446858
  63.5009181   8.7238339  56.0247001  63.8611846   8.1702493  55.6018502
  49.2022613   4.8160813  54.1367249  49.1046891   4.0057084  54.4457305
  49.9851483   4.7952606  53.7513517  49.3038750   4.6927903  54.1254112
  73.4528438  14.8432643  53.2026370  72.5966334  15.0041141  53.2535487
  73.4996092  13.9724707  53.2231431  73.3327550  14.7383445  53.2132436
  67.8369578  24.3795361  48.9663601  67.0852478  24.0010899  48.7379646
  68.2855590  24.4113795  48.2182412  67.7919245  24.3280968  48.8221104
  73.2894538  24.8020731  44.3949148  72.9545906  25.4797652  43.9593371
  73.8021408  24.4126042  43.8066020  73.3160119  24.8445309  44.2435940
  72.8298829  26.7534999  50.3360260  73.2138209  27.3221898  49.7965035
  72.7657970  26.0284510  49.8566076  72.8772256  26.7310463  50.1854123
  76.2980259  16.9024687  55.8458021  76.8436219  17.5809774  55.9051991
  76.2397136  16.7612148  54.9859603  76.3696174  16.9816689  55.7270082
  69.4154334  24.3913753  51.2326374  69.5164697  23.5814107  51.5423502
  68.8196079  24.2970700  50.6026052  69.3426873  24.2578781  51.1852612
  69.2555074  29.3091342  52.6341230  69.8992529  29.7504506  53.0237388
  69.5811329  28.5044769  52.5471489  69.3986902  29.2556537  52.6786707
  62.6119379  20.4134040  50.8578708  62.3769563  19.5801692  50.7510976
  62.7505019  20.6938705  50.0439908  62.5975041  20.3317543  50.7221063
  64.9109466  12.5819770  53.7563015  64.2914498  11.9912418  53.5873030
  64.8093330  13.1731206  53.1227338  64.8047141  12.5823853  53.6368005
  69.9575654  22.3203317  48.0061092  70.2791495  22.8608525  47.4022400
  70.6047750  21.7500089  48.1383381  70.1001709  22.3162492  47.9368127
  72.0077362  14.3219312  48.0895478  72.7057526  14.5007440  48.5816942
  72.3229694  13.7989652  47.4665868  72.1572699  14.2713084  48.0697488
  64.6378599  16.1272052  56.0006584  64.5137296  16.7134498  56.6356403
  65.2896883  15.6332248  56.3018859  64.7152248  16.1410857  56.1392514
  72.1965297  20.7089757  48.0775270  72.6358932  20.1006858  48.5230043
  72.0469960  20.3297131  47.3060735  72.2386763  20.5628228  48.0294437
  69.6636940  19.3033769  55.2794095  70.3085943  18.8106212  54.9605044
  69.9038717  19.4458556  56.1060174  69.7947525  19.2511211  55.3543629
  72.2023031  22.1488675  54.9300988  72.4846274  21.3540081  54.7087744
  72.9309192  22.6269262  54.9506049  72.3512595  22.1023272  54.9004003
  70.1804225   9.6911709  52.1716753  69.8507555  10.1422852  51.5020452
  69.5049227   9.6127872  52.7189759  70.0314661   9.7462844  52.1539976
  75.7974634  19.0616938  45.0306039  75.7125929  19.9177905  45.1755608
  76.2859017  18.7861263  45.6988198  75.8563531  19.1474260  45.1508121
  76.7293067  15.6801733  46.5303774  76.2004538  15.8961366  47.1901080
  77.2518087  16.3737871  46.4504744  76.7281520  15.8144870  46.6159373
  68.6192675  19.5764949  45.3311242  68.0349890  20.0814981  45.7377106
  68.2162770  19.3507336  44.5907834  68.4731978  19.6173198  45.2816267
  64.1736703  25.2919711  52.1334914  63.6904281  26.0170200  52.1094497
  64.9860021  25.5895841  52.2445071  64.2227451  25.4422064  52.1462193
  70.2450857  24.0851891  54.7384728  69.7277799  23.7259306  54.1346036
  70.9425248  23.5614066  54.7490794  70.2716438  23.9549579  54.6514987
  73.9014449  24.5346705  60.7000901  73.9897795  24.3472846  61.5479112
  74.3304162  23.8884135  60.3005748  73.9776552  24.4109713  60.7672653
  71.4684909  23.8177865  59.6818563  70.9055744  23.4050475  60.2058225
  72.2305932  23.7430771  60.1011707  71.4979358  23.7455266  59.8211564
  73.0769889  15.8230602  43.8080163  73.3165893  16.0308585  42.9955506
  73.3985730  15.0188110  43.9169107  73.1607047  15.7344703  43.7040716
  67.0280900  25.8075886  52.2855194  67.7301480  25.2927876  52.3427950
  66.9478384  26.1350038  53.0902069  67.1204661  25.7790113  52.4127986
  68.0759807  16.0451473  61.4135609  68.2480311  15.9357368  62.2620890
  68.6129165  16.6905879  61.1766801  68.1804811  16.1243475  61.5040705
  66.7417244  10.1594316  44.3517814  66.5592817  10.3766197  43.5258806
  67.6042857  10.2733329  44.4076428  66.8421833  10.2084214  44.2372301
  66.3531676  21.9982238  51.7940802  67.1920575  22.2305171  51.8414563
  66.3843445  21.1286550  51.7247837  66.4813393  21.9039185  51.7905446
  66.9784379  22.4183114  56.0954107  67.5182604  22.2754245  56.7657479
  66.2954325  22.8179864  56.4638133  66.9576533  22.4562785  56.2488529
  76.4025264  18.0974114  51.2899131  77.1582779  18.5305629  51.3288040
  76.5087588  17.4478884  51.8633767  76.5295434  18.0651598  51.3797157
  74.0134508  23.9655724  63.3644685  74.7974925  24.0786572  63.7300427
  73.8131103  23.1396861  63.5603371  74.1000534  23.8602444  63.4479071
  62.3821524  18.6383404  56.2488529  62.1159939  17.8222521  56.4079519
  62.3960088  18.6836560  55.3784044  62.3446246  18.5240309  56.1442011
  66.2879271  13.4368489  42.8640287  65.5737448  13.1506668  43.2762719
  66.7723240  13.7765115  43.5046674  66.2538634  13.4450139  43.0195922
  67.1320130  12.1761783  58.8955536  66.4391927  11.7058762  59.1416268
  67.7480458  11.9500087  59.4697243  67.1204660  12.0728915  59.0164689
  74.1704902  25.8765826  57.0111140  73.3720148  25.6365326  57.2685009
  74.6190913  25.9280219  57.7578188  74.1179513  25.8488218  57.1596065
  73.4626589  21.9398443  43.2402095  73.8777737  21.6083467  42.5486591
  72.6318518  21.7067345  43.1122232  73.4014598  21.8569699  43.1192942
  62.7914938  19.4242184  53.5300273  62.6090511  19.3989070  52.6772565
  63.5264607  19.8941122  53.5689182  62.8729001  19.4903546  53.4098191
  65.8560689  16.1427187  60.0382382  66.5800662  16.1280217  60.5247276
  65.9576826  16.8522542  59.5404350  65.9778898  16.2451890  60.0361168
  75.9036958  16.3460262  49.1926344  75.9983812  17.0849557  49.6465970
  75.2795801  15.9177738  49.6260909  75.8245988  16.3921583  49.3234492
  74.1589432  19.5246475  59.8416625  74.7328293  18.8873719  59.9965189
  74.0804235  19.5250558  58.9726283  74.2322666  19.4311587  59.7363036
  62.7585848  16.3035685  53.6799339  63.3359351  16.1672135  54.3191585
  62.0599910  15.8471469  53.9344924  62.7406869  16.2157951  53.8121629
  76.1559979  18.1909002  42.4263296  76.0740141  18.2611189  43.2918283
  76.7939699  18.7538746  42.2347037  76.2379816  18.2847973  42.5253246
  69.5153150  17.9569740  51.8937823  69.2572394  17.1241475  51.8669122
  69.5701633  18.1827353  51.0530323  69.4852928  17.8667511  51.7657959
  68.4887862  15.5107503  52.3802717  67.9137454  15.6699671  53.0166678
  68.1123539  14.8742912  51.9171168  68.3490675  15.4405316  52.4057276
  72.1561151  13.9830852  57.2395096  71.7675584  13.5585070  56.5847287
  71.4915849  14.2313002  57.7472122  72.0008079  13.9569573  57.2182964
  58.2344681  15.1547577  50.3947158  58.3204933  14.7779446  51.1760688
  58.8620479  14.7808023  49.9167116  58.3401232  15.0433060  50.4392635
  73.2600089  18.2129457  45.4371903  74.0740728  18.5044349  45.3254674
  73.1959230  17.5589319  44.8630196  73.3702828  18.1594651  45.3360740
  69.1307997  21.6850974  50.5644215  69.7681944  21.4462722  51.1096008
  69.5563069  21.8888133  49.8297376  69.2884164  21.6801984  50.5361372
  63.8220640  23.9239311  54.4478519  63.8624785  24.1954162  53.6198298
  64.3815164  24.4481219  54.8636307  63.9103986  24.0415066  54.3870407
  69.7710812  16.9053264  44.9019104  70.1555965  16.6860971  45.6535649
  69.5222433  17.7316209  45.0320181  69.7912885  16.9951410  45.0320181
  71.5129469  22.1623397  52.2438001  71.5868478  21.9998568  53.0979851
  72.3298976  22.3513586  51.9998483  71.6445828  22.1660139  52.3336027
  65.2735226  22.5081259  49.2732445  64.4473344  22.7542997  49.1466723
  65.3347217  22.4293340  50.1394503  65.1609393  22.5326208  49.3821389
  67.4911250   8.5750200  50.2327885  66.6233675   8.6472800  50.2985494
  67.7786454   9.3772279  50.4215860  67.4050998   8.7044348  50.2702651
  70.0534055  25.1258140  46.9751475  70.3432353  24.7347121  46.2510701
  70.7837536  25.3074845  47.4156750  70.2040939  25.0951953  46.9334282
  70.6428800  19.9275886  58.0604605  70.1440494  20.6391653  58.1389493
  71.4529025  20.2476552  58.0222767  70.6884907  20.0802734  58.0661174
  67.9939971  27.1025522  50.0411624  67.7740266  26.8122877  50.8338291
  67.7734493  26.4440477  49.5129537  67.9287565  26.9625230  50.0800533
  66.9056918  19.1898839  52.3067326  66.6170167  18.5636310  52.8413053
  67.7740266  19.1319126  52.3732006  66.9917170  19.0886383  52.3958281
  77.6934816  14.3333622  52.6249308  77.3499582  13.6123957  52.9756557
  77.7927858  14.1247473  51.7827666  77.6576859  14.1957825  52.5520988
  70.1607926  28.4754912  48.8242317  70.8131984  27.9431354  49.0533343
  69.4633535  28.1223564  49.2110191  70.1538644  28.3444435  48.9154484
  67.1089191  20.8294090  48.2309691  67.8635159  21.2107129  48.4445154
  66.5159804  21.2805233  48.6856388  67.1325905  20.9522917  48.3292569
  78.1547845  20.7959326  48.1673296  78.7205877  21.4552536  48.0831839
  77.5075748  21.1409024  48.6389698  78.1426601  20.9441267  48.2246052
  69.5695858  12.7856930  63.3566903  68.7595634  13.0914710  63.2456746
  70.0470545  13.5062512  63.4719487  69.5199337  12.9371531  63.3573974
  68.4287418  22.0002651  53.6049806  67.9068171  22.1402943  54.2901671
  68.8161438  21.2413315  53.7951924  68.4091119  21.9088175  53.7350883
  65.4178602  12.0508460  47.6744761  65.1303398  11.6809730  46.9376708
  66.1049070  12.5203315  47.4128466  65.4767499  12.0655429  47.5259837
  74.6254423  23.7398110  47.5910375  74.3841099  23.0065971  47.1837440
  74.8055756  24.2884967  46.9376708  74.6162047  23.7120501  47.4340598
  69.8553743  19.0306670  49.0031297  69.6596526  19.6381405  48.4091600
  70.0788089  18.3374614  48.5222971  69.8588384  19.0184196  48.8447378
  68.2532273  15.9161408  49.1212166  68.9754925  16.0802566  48.6615972
  67.7740266  16.6371073  49.0151506  68.2896004  16.0459638  49.0377780
  76.2125781  12.2525207  54.5008851  75.3736882  12.2786486  54.2647114
  76.2830148  12.8995942  55.0814197  76.0994175  12.3521333  54.5517968
  65.9039890  18.3219480  58.2266306  66.4160987  18.6003734  57.5775065
  65.6176233  19.0608774  58.5929119  65.9374753  18.4721834  58.1856184
  62.9906797  12.8289672  48.5230042  63.0922933  13.6315834  48.8511018
  63.7862683  12.6277008  48.2253123  63.1234702  12.9175571  48.5265398
  69.4223616  10.4145869  58.2867347  69.2306813  10.4301003  59.1366771
  70.2722212  10.6109543  58.2634002  69.5199338  10.4460220  58.4090642
  63.8070529  12.9436850  56.2651164  63.6656020  12.0920791  56.3895672
  64.0911092  12.9865511  55.4413370  63.8278375  12.8236600  56.1618788
  73.9609121  14.7803941  50.4095652  73.7143835  14.6999692  51.2432441
  74.2894244  13.9957408  50.2158180  73.9730365  14.6530206  50.5043175
  77.8557170  21.4887300  54.1982433  77.7171529  22.1868346  54.7031176
  77.0757168  21.3335956  53.8418615  77.7200397  21.5687467  54.2208707
  69.9206148  17.5160659  59.8218635  70.0649524  18.0961867  59.1861745
  70.2681797  17.8936956  60.5268490  69.9933610  17.6581363  59.8317630
  72.0926066  16.7150828  57.6043767  71.3449380  16.9081842  57.1992045
  72.2467591  15.8896047  57.3667888  72.0048493  16.6215939  57.5089173
  68.9933903  25.7063431  56.6879662  69.1423467  25.1466347  56.0353066
  69.7733905  25.7855433  57.0712181  69.1307997  25.6348997  56.6476611
  72.3327843  10.6101378  58.4939170  72.7900457  11.3425353  58.6211963
  72.4084171  10.1867844  59.2526426  72.4118812  10.6558616  58.6240247
  64.5760834  10.8567198  59.5828614  64.0403023  10.2447556  59.8989381
  64.6378599  11.4315334  60.2362281  64.5056467  10.8514126  59.7264041
  72.1757451  24.3979073  48.7987759  72.9407342  24.1288717  48.4770423
  72.0735541  23.9129083  49.5157821  72.2738946  24.2868637  48.8567586
  70.2110221  12.6003482  55.3380994  69.4206295  12.4194942  55.6598330
  70.6070843  11.8230435  55.3211289  70.1527097  12.4590943  55.3833543
  74.6976111  21.4291257  40.7787708  75.4649096  21.4891382  40.3693560
  74.2507420  20.8571698  40.2944027  74.7449539  21.3527832  40.6465418
  75.5953907  20.2345912  53.0640440  74.9198909  20.0031145  53.5653827
  75.6046283  19.6267095  52.4382545  75.4972411  20.1104838  53.0456593
  72.7248051  15.0763741  59.8204493  72.6607192  15.9373698  59.6924630
  72.8645239  14.7595735  59.0200045  72.7363521  15.1563908  59.6832706
  77.5970641  23.0911045  45.2950618  77.6790479  23.8978031  44.9712069
  78.0820384  23.1107004  46.0191392  77.6807799  23.2131707  45.3537517
  71.4067145  17.7695881  53.9620696  70.9829394  17.9700380  53.2259715
  71.2312000  16.9224729  54.0744996  71.3178025  17.6744662  53.8694386
  70.9078838  29.2846394  56.4242154  71.3974768  28.5857183  56.2417818
  70.3363070  28.9870264  57.0118211  70.8963368  29.1372617  56.4843194
  66.6949590  18.2647932  49.3948669  66.8514209  18.1994735  50.2504661
  67.0350183  19.0396485  49.1827348  66.7682825  18.3697130  49.4903263
  73.2328734  17.6405816  48.2642032  73.7744280  17.1376197  48.7280653
  73.5475293  17.5871010  47.4531517  73.3593131  17.5585237  48.2125844
  71.4015184  23.0323167  45.5482060  71.4708004  22.1737706  45.6875060
  72.1803639  23.2495048  45.2201085  71.5268034  22.9376031  45.5199217
  74.3818004  12.5342120  58.3164332  74.5959973  11.8953034  57.7627686
  73.7651903  12.9787944  57.8872194  74.3223333  12.5052264  58.1714764
  75.7922672  25.4560869  49.7618553  75.4002463  25.1527584  49.0441419
  75.9475744  26.2929958  49.5723507  75.7576261  25.5344705  49.6275050
  63.2683851  15.4482883  49.7109436  63.6482816  15.8667428  49.0469703
  62.6939216  16.0296338  50.0178279  63.2395176  15.5960741  49.6586177
  75.9562346  22.0210857  49.7024584  75.5977001  22.1925500  50.4788616
  75.4701057  22.4824063  49.1452582  75.8321043  22.1149828  49.7349853
  70.7450712  17.7010023  42.2424818  71.0343237  18.4774905  42.5168393
  70.8322511  17.1898754  42.9439318  70.8004968  17.7401941  42.3867316
  77.1167086  22.9114753  60.6491785  77.7546806  22.4174949  60.3154241
  76.4741177  22.8392154  60.0644012  77.1161312  22.8273762  60.5134140
  66.9114653  17.0143287  54.3424930  66.0702659  16.9147162  54.5503824
  67.1204661  17.7838768  54.6939251  66.8179345  17.1135331  54.4252245
  64.3890220  14.6362824  52.1709681  63.9946917  14.7105836  51.3959791
  63.8330337  15.0220771  52.7218043  64.2493032  14.7044599  52.1377341
  70.7231318  14.9424687  53.5922528  70.4194455  14.3880675  54.1932936
  70.0210738  15.1216897  53.1050562  70.5747527  14.8869469  53.6092234
  69.7797415  12.2525206  48.1567230  70.0557149  11.5344119  47.7444797
  70.3796084  12.8510126  47.9488336  69.9090679  12.2345577  48.0647991
  68.7849669  22.1574407  58.2994626  68.6770024  22.1676469  59.1656684
  68.9945450  22.9829188  58.1099579  68.7999780  22.2815482  58.3998717
  66.8023461  19.4087050  55.7616563  66.2111394  20.0496548  55.7319578
  67.5644484  19.8324667  55.7347863  66.8271721  19.5662888  55.7531710
  67.1984083  10.5689047  56.4284581  67.6585565  10.6427977  57.1659705
  67.2440190  11.3670301  56.0784402  67.2734639  10.6983194  56.4857337
  68.8467433  11.2355742  60.9956608  68.4552998  10.5889089  61.4312386
  69.0153296  11.8267178  61.6150863  68.8138343  11.2270010  61.1519314
  76.5612977  24.8596361  53.1948588  76.3632665  25.3487176  52.5004799
  75.9400688  25.0637603  53.7732721  76.4400541  24.9612899  53.1771811
  70.6220955  16.6281258  47.5358832  71.3663000  17.0155534  47.7741782
  70.7681651  15.7838683  47.6999320  70.7531540  16.5611731  47.5952802
  73.6098831  12.2006731  53.4352751  73.1358785  11.6748493  53.9458062
  73.9816967  11.6536204  52.8667613  73.5948720  12.0422728  53.4267899
  63.9871861  14.1978238  58.8036297  64.8497474  14.0973947  58.7173627
  63.6563644  13.6172947  58.2421869  64.0657058  14.0969865  58.7081703
  75.5382331  13.0943286  46.4978505  75.0105349  13.1772030  45.8084214
  75.9978039  13.8361157  46.4943150  75.5284181  13.2163948  46.3953200
  67.3473647  13.0220687  55.4646715  66.7226717  13.0339079  54.8572668
  67.0119242  13.4980862  56.1137955  67.2059139  13.0939204  55.4703284
  67.5315396  11.3645806  41.5219400  67.1828200  12.0165531  41.9850950
  67.0511842  11.3502919  40.7943271  67.4085640  11.4588859  41.4830492
  64.0599323  21.0821147  56.9050480  63.5299247  20.3913586  56.9545454
  64.3324416  21.0731332  56.0763188  64.0224045  20.9788279  56.7897896
  75.0919413  21.6646850  45.6288162  75.8153612  22.1304963  45.4852735
  74.6520004  21.7320459  44.8785759  75.1335105  21.7430686  45.4972944
  74.2605568  18.5244392  56.8788851  73.6462561  17.9802442  57.1737486
  74.7772853  18.0108628  56.3994667  74.2461231  18.3680801  56.8513080
  73.5001865  19.5948662  54.6133150  73.0729473  18.9698380  54.1798585
  73.4926810  19.3123584  55.4392157  73.4361007  19.4601442  54.6712977
  66.6164393  14.6313835  57.6821584  66.7757879  13.8757159  58.0873306
  66.4357286  15.1804774  58.3362321  66.6129752  14.6007649  57.8384290
  71.8287575  10.4717416  54.8275684  71.8530062   9.9377529  54.1388464
  72.0799049   9.9634725  55.4901274  71.8697494  10.3178320  54.8240328
  59.3395165  17.7548911  54.2618828  59.2338614  17.7095756  53.3970912
  58.5895385  18.1002692  54.5433113  59.2130768  17.7989819  54.1756158
  68.1088897   9.1988235  54.2081428  68.1487269   9.6997441  54.9216135
  67.2838562   9.2898628  53.9387351  67.9928423   9.2870051  54.2731966
  70.2918510  18.7648975  62.3101723  69.4414141  18.9020689  62.4459368
  70.4546638  18.0312753  62.7549424  70.1902374  18.6763076  62.3957322
  69.5303261  15.7148744  56.5055327  68.6995190  15.8822562  56.2990575
  69.4754778  15.3384695  57.2904212  69.3992676  15.6838476  56.5903855
  67.9039305  13.9904336  47.0345445  68.0442266  14.4876800  47.7374086
  68.4021837  13.2890630  47.1759658  67.9980385  13.9606315  47.1597024
  67.9339527  14.8571447  44.3638022  68.5684606  15.4531872  44.2987483
  68.0165138  14.5574905  45.1783892  68.0396078  14.9012355  44.4741108
  69.5118510  10.7885422  44.3383464  69.8334351  10.3088505  43.6842726
  69.7745454  11.5985068  44.1474275  69.5984535  10.8375320  44.2138956
  72.7415483  21.8104297  57.8582280  72.2340574  22.3640144  58.3022910
  72.4442129  21.8712587  57.0401054  72.6220368  21.9010608  57.8030736
  64.4392515  17.0539288  47.6327568  64.9484744  17.6503795  48.0138873
  64.9126787  16.7865261  46.9503987  64.5835891  17.1025103  47.5882090
  75.3523263  25.7267554  45.7886223  74.6352573  25.5528417  45.3233461
  76.0030000  25.4920127  45.2561709  75.3425113  25.6663347  45.6415441
  77.9371234  14.6032143  49.5327528  77.2662424  15.1461845  49.4040594
  78.6310984  15.0726998  49.2909223  77.9400102  14.7530414  49.4783056
  71.9857968  26.7428855  54.7639287  71.7623622  25.9847684  55.1323313
  71.4967811  26.7726876  54.0419726  71.8801417  26.6351079  54.7116028
  66.7983047  13.6895546  50.5000748  66.0795036  14.1059679  50.7673612
  67.1695409  14.2549785  49.9492386  66.7474978  13.8344828  50.4583555
  76.0982627  14.3223395  56.3902744  76.0780555  14.1406690  57.2437523
  76.1461828  15.1935414  56.3662327  76.1017268  14.4239933  56.5126039
  74.0428957  20.9110587  62.3151220  74.0024812  20.2660264  61.7296376
  74.8552275  20.8547205  62.6276632  74.1572111  20.8069554  62.2748169
  70.6336425  26.9629313  52.2176371  70.2196823  26.3003443  51.8280213
  71.3183799  27.1107172  51.6972065  70.6734796  26.8869971  52.0832868
  74.0001719  26.1219398  52.9699988  73.6018002  26.2321669  52.2020808
  73.3852938  26.3301465  53.5526548  73.8500608  26.1692966  52.9431287
  72.5729621  12.7293546  45.8374128  71.9794460  13.0510543  45.2858695
  72.6104899  11.8834642  45.6295234  72.4904010  12.6517874  45.7256899
  75.4487438  12.6873051  49.2675878  75.2201131  12.7105752  48.4254236
  75.7085514  11.8630518  49.3870888  75.4533626  12.5689131  49.1601075
  69.7306666  14.5407524  58.8700978  69.2185569  13.9328707  59.2286009
  69.5586162  15.2564116  59.3374954  69.6296303  14.5570823  58.9917202
  64.5772381  12.9845099  61.5203340  64.4074971  13.6446474  60.9751546
  64.1338331  13.1951660  62.2415829  64.4871714  13.1131081  61.5464969
  68.5032200  11.2249597  50.5630073  68.9789566  11.5866677  49.9280255
  68.0020800  11.8806065  50.8430216  68.4997559  11.3743786  50.5106814
  61.4774445  15.8891965  56.7791830  60.9301165  15.2192610  56.8972698
  62.2666823  15.5221812  56.8435297  61.5126629  15.7356951  56.8060530
  71.3258854  15.5499422  62.2755241  72.0770181  15.8651099  62.5894795
  71.5181430  15.3478593  61.4489162  71.4650268  15.5666803  62.1998636
  70.5458853  13.3690797  43.9303457  70.9257818  13.3870426  43.1454572
  69.8051449  13.8144786  43.8094305  70.4927691  13.4372571  43.7967026
  60.2361415  15.1012772  53.9337853  60.0583176  14.6489381  54.6592768
  59.9480437  15.9038934  54.1176330  60.1674368  15.1535330  54.0681356
  75.8984996  16.3570490  53.1715243  76.3938661  15.6393485  53.1319263
  75.0884771  16.0541287  53.0569730  75.8528889  16.2068136  53.1488969
  71.3443607  20.2068303  45.3212247  70.5354930  19.8834977  45.2745557
  71.8518516  19.5001525  45.2540496  71.2993274  20.0549619  45.3042542
  61.9733885  17.6340496  51.0459612  61.1079404  17.6226187  50.9342383
  62.0732700  17.4470719  51.8930751  61.8608051  17.6046557  51.1548556
  77.9636815  19.1074177  55.8592372  78.3891886  18.5848599  55.3062797
  77.5993734  19.7055015  55.3380995  77.9723417  19.1184404  55.7001381
  67.5990894  27.4038395  54.6189717  67.9137453  28.2174783  54.6267499
  68.0084308  27.0188613  55.2871876  67.7058992  27.4667097  54.7193809
  74.5515414  22.8208442  52.1893529  75.0226592  23.5348704  52.3583514
  74.8875593  22.2207192  52.7253399  74.6710529  22.8379906  52.2925905
  75.1889360  22.6126376  58.9521222  74.6410306  21.9884259  58.6841287
  75.6502389  22.8020648  58.2365301  75.1756570  22.5485426  58.8071653
  70.5378024   9.5952325  46.6131089  71.3593718   9.7650638  46.3712784
  70.0747675   9.7499586  45.8897387  70.5909186   9.6434058  46.4702733
  64.9403915  21.3511503  54.2668326  65.5448772  21.3107337  53.6382146
  64.7331227  22.1982655  54.2972381  64.9992812  21.4699506  54.1784442
  74.7547687  23.6177448  55.4830563  75.5746060  23.4740414  55.7446858
  74.4741764  24.2423647  56.0247001  74.8344430  23.6887800  55.6018502
  60.1755197  20.3346121  54.1367249  60.0779475  19.5242392  54.4457305
  60.9584067  20.3137914  53.7513517  60.2771333  20.2113211  54.1254112
  73.5851962  35.9319348  50.8578708  73.3502147  35.0987000  50.7510976
  73.7237603  36.2124013  50.0439908  73.5707625  35.8502851  50.7221063
  75.8842050  28.1005078  53.7563015  75.2647081  27.5097726  53.5873030
  75.7825913  28.6916514  53.1227338  75.7779725  28.1009161  53.6368005
  75.6111183  31.6457360  56.0006584  75.4869879  32.2319806  56.6356403
  76.2629467  31.1517556  56.3018859  75.6884832  31.6596164  56.1392514
  75.1469287  40.8105018  52.1334914  74.6636865  41.5355508  52.1094497
  75.9592605  41.1081149  52.2445071  75.1960034  40.9607372  52.1462193
  78.0013484  41.3261194  52.2855194  78.7034063  40.8113183  52.3427950
  77.9210967  41.6535346  53.0902069  78.0937244  41.2975421  52.4127986
  77.7149827  25.6779624  44.3517814  77.5325401  25.8951505  43.5258806
  78.5775440  25.7918637  44.4076428  77.8154417  25.7269522  44.2372301
  77.3264259  37.5167546  51.7940802  78.1653159  37.7490479  51.8414563
  77.3576029  36.6471858  51.7247837  77.4545977  37.4224493  51.7905446
  77.9516962  37.9368422  56.0954107  78.4915187  37.7939553  56.7657479
  77.2686909  38.3365172  56.4638133  77.9309116  37.9748093  56.2488529
  73.3554108  34.1568712  56.2488529  73.0892523  33.3407829  56.4079519
  73.3692672  34.2021868  55.3784044  73.3178830  34.0425617  56.1442011
  77.2611854  28.9553797  42.8640287  76.5470032  28.6691976  43.2762719
  77.7455823  29.2950423  43.5046674  77.2271218  28.9635446  43.0195922
  78.1052714  27.6947091  58.8955536  77.4124511  27.2244070  59.1416268
  78.7213041  27.4685395  59.4697243  78.0937244  27.5914223  59.0164689
  73.7647521  34.9427492  53.5300273  73.5823094  34.9174378  52.6772565
  74.4997190  35.4126430  53.5689182  73.8461585  35.0088854  53.4098191
  76.8293273  31.6612495  60.0382382  77.5533245  31.6465525  60.5247276
  76.9309409  32.3707850  59.5404350  76.9511482  31.7637198  60.0361168
  73.7318432  31.8220992  53.6799339  74.3091934  31.6857443  54.3191585
  73.0332493  31.3656777  53.9344924  73.7139453  31.7343259  53.8121629
  69.2077265  30.6732885  50.3947158  69.2937517  30.2964754  51.1760688
  69.8353062  30.2993331  49.9167116  69.3133816  30.5618368  50.4392635
  74.7953223  39.4424618  54.4478519  74.8357369  39.7139470  53.6198298
  75.3547747  39.9666527  54.8636307  74.8836569  39.5600374  54.3870407
  76.2467810  38.0266567  49.2732445  75.4205927  38.2728305  49.1466723
  76.3079801  37.9478648  50.1394503  76.1341977  38.0511516  49.3821389
  78.4643833  24.0935508  50.2327885  77.5966259  24.1658108  50.2985494
  78.7519038  24.8957587  50.4215860  78.3783581  24.2229655  50.2702651
  77.8789501  34.7084147  52.3067326  77.5902750  34.0821618  52.8413053
  78.7472850  34.6504434  52.3732006  77.9649753  34.6071691  52.3958281
  76.3911185  27.5693768  47.6744761  76.1035981  27.1995038  46.9376708
  77.0781654  28.0388623  47.4128466  76.4500083  27.5840737  47.5259837
  76.8772474  33.8404788  58.2266306  77.3893571  34.1189042  57.5775065
  76.5908816  34.5794082  58.5929119  76.9107337  33.9907142  58.1856184
  73.9639380  28.3474980  48.5230042  74.0655517  29.1501142  48.8511018
  74.7595267  28.1462316  48.2253123  74.0967286  28.4360879  48.5265398
  74.7803112  28.4622158  56.2651164  74.6388604  27.6106099  56.3895672
  75.0643676  28.5050819  55.4413370  74.8010958  28.3421908  56.1618788
  75.5493417  26.3752506  59.5828614  75.0135607  25.7632864  59.8989381
  75.6111182  26.9500642  60.2362281  75.4789050  26.3699434  59.7264041
  77.6682173  33.7833240  49.3948669  77.8246792  33.7180043  50.2504661
  78.0082766  34.5581793  49.1827348  77.7415408  33.8882438  49.4903263
  74.2416435  30.9668191  49.7109436  74.6215400  31.3852735  49.0469703
  73.6671800  31.5481646  50.0178279  74.2127760  31.1146049  49.6586177
  77.8847236  32.5328595  54.3424930  77.0435243  32.4332469  54.5503824
  78.0937244  33.3024076  54.6939251  77.7911929  32.6320639  54.4252245
  75.3622803  30.1548132  52.1709681  74.9679501  30.2291144  51.3959791
  74.8062920  30.5406079  52.7218043  75.2225616  30.2229907  52.1377341
  77.7756044  34.9272358  55.7616563  77.1843977  35.5681856  55.7319578
  78.5377068  35.3509975  55.7347863  77.8004305  35.0848196  55.7531710
  78.1716667  26.0874355  56.4284581  78.6318149  26.1613285  57.1659705
  78.2172774  26.8855609  56.0784402  78.2467222  26.2168502  56.4857337
  74.9604445  29.7163546  58.8036297  75.8230058  29.6159255  58.7173627
  74.6296228  29.1358255  58.2421869  75.0389641  29.6155173  58.7081703
  78.3206231  28.5405995  55.4646715  77.6959301  28.5524387  54.8572668
  77.9851826  29.0166170  56.1137955  78.1791723  28.6124512  55.4703284
  78.5047979  26.8831113  41.5219400  78.1560784  27.5350839  41.9850950
  78.0244425  26.8688227  40.7943271  78.3818223  26.9774167  41.4830492
  75.0331906  36.6006455  56.9050480  74.5031831  35.9098894  56.9545454
  75.3057000  36.5916640  56.0763188  74.9956629  36.4973587  56.7897896
  77.5896976  30.1499143  57.6821584  77.7490463  29.3942467  58.0873306
  77.4089870  30.6990082  58.3362321  77.5862335  30.1192957  57.8384290
  70.3127749  33.2734219  54.2618828  70.2071198  33.2281064  53.3970912
  69.5627968  33.6188000  54.5433113  70.1863351  33.3175127  54.1756158
  75.4125098  32.5724596  47.6327568  75.9217328  33.1689103  48.0138873
  75.8859371  32.3050569  46.9503987  75.5568474  32.6210411  47.5882090
  77.7715630  29.2080854  50.5000748  77.0527619  29.6244987  50.7673612
  78.1427992  29.7735093  49.9492386  77.7207562  29.3530136  50.4583555
  75.5504964  28.5030407  61.5203340  75.3807555  29.1631782  60.9751546
  75.1070914  28.7136968  62.2415829  75.4604298  28.6316389  61.5464969
  72.4507029  31.4077273  56.7791830  71.9033748  30.7377918  56.8972698
  73.2399407  31.0407120  56.8435297  72.4859212  31.2542259  56.8060530
  71.2093998  30.6198080  53.9337853  71.0315759  30.1674689  54.6592768
  70.9213020  31.4224242  54.1176330  71.1406951  30.6720638  54.0681356
  72.9466468  33.1525804  51.0459612  72.0811988  33.1411495  50.9342383
  73.0465284  32.9656027  51.8930751  72.8340635  33.1231865  51.1548556
  75.9136498  36.8696811  54.2668326  76.5181356  36.8292645  53.6382146
  75.7063811  37.7167963  54.2972381  75.9725395  36.9884814  54.1784442
  71.1487780  35.8531429  54.1367249  71.0512058  35.0427700  54.4457305
  71.9316650  35.8323222  53.7513517  71.2503917  35.7298519  54.1254112
  73.2802786  12.8697479  37.7918754  73.0452970  12.0365131  37.6851023
  73.4188427  13.1502145  36.9779955  73.2658448  12.7880982  37.6561109
  74.8420111  17.7483150  39.0674961  74.3587689  18.4733639  39.0434544
  75.6543429  18.0459280  39.1785118  74.8910858  17.8985503  39.0802240
  77.6964308  18.2639326  39.2195240  78.3984887  17.7491315  39.2767997
  77.6161791  18.5913477  40.0242115  77.7888068  18.2353552  39.3468033
  77.0215083  14.4545678  38.7280848  77.8603983  14.6868610  38.7754610
  77.0526853  13.5849989  38.6587884  77.1496801  14.3602624  38.7245493
  77.6467786  14.8746553  43.0294154  78.1866011  14.7317684  43.6997526
  76.9637733  15.2743304  43.3978180  77.6259940  14.9126224  43.1828576
  73.0504931  11.0946844  43.1828575  72.7843347  10.2785960  43.3419566
  73.0643496  11.1399999  42.3124091  73.0129654  10.9803748  43.0782057
  73.4598345  11.8805623  40.4640320  73.2773918  11.8552509  39.6112612
  74.1948014  12.3504561  40.5029228  73.5412409  11.9466985  40.3438238
  74.4904047  16.3802750  41.3818566  74.5308193  16.6517601  40.5538345
  75.0498571  16.9044658  41.7976353  74.5787393  16.4978505  41.3210454
  75.9418634  14.9644699  36.2072492  75.1156751  15.2106436  36.0806770
  76.0030625  14.8856779  37.0734550  75.8292801  14.9889648  36.3161436
  78.6623378  19.5588961  36.9751671  78.4423674  19.2686316  37.7678338
  78.4417900  18.9003916  36.4469583  78.5970972  19.4188670  37.0140580
  77.7772599  13.2857529  35.1649738  78.5318567  13.6670568  35.3785200
  77.1843211  13.7368672  35.6196434  77.8009312  13.4086356  35.2632616
  77.4706868  11.8650489  42.6956610  76.8794801  12.5059987  42.6659625
  78.2327892  12.2888106  42.6687910  77.4955129  12.0226327  42.6871757
  74.7282730  13.5384586  43.8390526  74.1982655  12.8477025  43.8885501
  75.0007824  13.5294772  43.0103235  74.6907453  13.4351718  43.7237942
  70.0078572  10.2112350  41.1958875  69.9022022  10.1659195  40.3310959
  69.2578792  10.5566131  41.4773160  69.8814175  10.2553259  41.1096204
  78.2674302  19.8601834  41.5529764  78.5820861  20.6738222  41.5607546
  78.6767715  19.4752053  42.2211923  78.3742400  19.9230536  41.6533856
  75.6087322  13.8074942  41.2008372  76.2132179  13.7670776  40.5722193
  75.4014635  14.6546094  41.2312428  75.6676219  13.9262945  41.1124489
  70.8438604  12.7909560  41.0707296  70.7462882  11.9805831  41.3797352
  71.6267474  12.7701353  40.6853564  70.9454741  12.6676650  41.0594159
  26.3829721  30.5696769  74.3058706  26.3523725  31.4241406  74.4776976
  26.9811070  30.2692062  74.8644850  26.4666879  30.6513266  74.4133508
  13.9670546  39.1935138  74.8248868  13.2153445  38.8150676  74.5964913
  14.4156557  39.2253572  74.0767678  13.9220212  39.1420745  74.6806370
  19.4195505  39.6160508  70.2534415  19.0846874  40.2937429  69.8178637
  19.9322376  39.2265819  69.6651287  19.4461087  39.6585086  70.1021207
  18.9599797  41.5674776  76.1945527  19.3439176  42.1361675  75.6550302
  18.8958938  40.8424287  75.7151343  19.0073224  41.5450240  76.0439389
  24.2046296  33.1449071  72.5777016  24.0885821  33.8956757  73.0069154
  25.0002182  32.8873024  72.8273103  24.3050885  33.2183918  72.6781108
  15.3856041  44.1231119  78.4926497  16.0293497  44.5644283  78.8822655
  15.7112297  43.3184546  78.4056755  15.5287870  44.0696314  78.5371974
  16.0876621  37.1343094  73.8646358  16.4092462  37.6748302  73.2607667
  16.7348718  36.5639866  73.9968648  16.2302676  37.1302269  73.7953394
  18.3266264  35.5229534  73.9360537  18.7659900  34.9146635  74.3815309
  18.1770927  35.1436908  73.1646002  18.3687730  35.3768005  73.8879704
  21.9275601  33.8756715  70.8891306  21.8426896  34.7317682  71.0340875
  22.4159984  33.6001040  71.5573465  21.9864498  33.9614037  71.0093387
  22.8594034  30.4941510  72.3889041  22.3305506  30.7101143  73.0486347
  23.3819054  31.1877648  72.3090010  22.8582487  30.6284647  72.4744640
  28.3142087  36.0687814  77.7622085  27.4839790  36.2798458  77.9255502
  28.2651339  35.2424869  77.4864369  28.1848823  35.9777420  77.7459451
  14.7493642  34.3904726  71.1896509  14.1650857  34.8954758  71.5962373
  14.3463737  34.1647113  70.4493101  14.6032946  34.4312975  71.1401534
  19.2070856  30.6370379  69.6665430  19.4466860  30.8448362  68.8540773
  19.5286697  29.8327887  69.7754374  19.2908014  30.5484480  69.5625983
  25.5706402  36.7387169  77.8986801  25.1341634  36.7423911  78.6545773
  25.2369318  37.4192668  77.4666379  25.4569022  36.8399624  77.9467634
  12.4180238  28.2508266  68.7225554  11.7038416  27.9646445  69.1347986
  12.9024207  28.5904892  69.3631941  12.3839602  28.2589916  68.8781188
  28.7050749  33.4568088  76.7906439  29.3667183  32.8958757  76.6902347
  28.0642161  32.9620119  77.1159130  28.7079616  33.3004497  76.8238779
  19.5927556  36.7538220  69.0987362  20.0078705  36.4223244  68.4071858
  18.7619486  36.5207122  68.9707498  19.5315565  36.6709476  68.9778209
  24.9915579  34.4733471  76.5318427  25.2271168  34.6178670  75.7045278
  25.1405143  35.2375879  76.9249941  25.0481383  34.6072525  76.4682031
  26.8206036  33.3135137  74.3688031  27.1514253  33.8462777  73.7628126
  27.3939124  33.3674025  75.0249982  26.9539715  33.4004706  74.3765813
  22.2860946  33.0048779  68.2848563  22.2041109  33.0750966  69.1503550
  22.9240667  33.5678523  68.0932304  22.3680784  33.0987750  68.3838513
  27.9285388  28.5545634  75.8728193  27.6721952  27.7425575  75.6826076
  28.7714702  28.5623201  75.6458380  28.0151413  28.4357631  75.8113010
  19.3901057  33.0269234  71.2957170  20.2041696  33.3184126  71.1839941
  19.3260198  32.3729096  70.7215463  19.5003796  32.9734428  71.1946007
  15.9011780  31.7193041  70.7604371  16.2856933  31.5000748  71.5120916
  15.6523400  32.5455986  70.8905448  15.9213853  31.8091187  70.8905448
  16.1835023  39.9397917  72.8336741  16.4733321  39.5486898  72.1095968
  16.9138503  40.1214622  73.2742017  16.3341907  39.9091730  72.7919548
  14.1240938  41.9165299  75.8996891  13.9041234  41.6262654  76.6923558
  13.9035460  41.2580254  75.3714803  14.0588532  41.7765007  75.9385800
  16.2908894  43.2894689  74.6827584  16.9432952  42.7571131  74.9118610
  15.5934503  42.9363341  75.0695458  16.2839612  43.1584212  74.7739751
  24.2848812  35.6099103  74.0258563  24.8506845  36.2692313  73.9417106
  23.6376716  35.9548801  74.4974965  24.2727569  35.7581044  74.0831319
  20.7555390  38.5537887  73.4495642  20.5142066  37.8205748  73.0422707
  20.9356723  39.1024744  72.7961975  20.7463014  38.5260278  73.2925865
  25.4811510  35.6605331  70.8184199  25.1018319  34.8742469  70.8113489
  24.8177756  36.2092188  70.6755844  25.3269985  35.6250155  70.7964996
  18.3058418  39.2118850  74.6573026  19.0708309  38.9428494  74.3355690
  18.2036508  38.7268860  75.3743088  18.4039914  39.1008414  74.7152853
  20.8277079  36.2431034  66.6372975  21.5950064  36.3031159  66.2278827
  20.3808388  35.6711475  66.1529293  20.8750506  36.1667609  66.5050685
  23.7271609  37.9050822  71.1535885  23.8091446  38.7117808  70.8297336
  24.2121351  37.9246781  71.8776659  23.8108767  38.0271484  71.2122784
  19.3629702  32.4545593  74.1227299  19.9045247  31.9515974  74.5865919
  19.6776261  32.4010787  73.3116784  19.4894099  32.3725014  74.0711111
  17.5316152  37.8462944  71.4067327  17.6008972  36.9877483  71.5460327
  18.3104607  38.0634825  71.0786351  17.6569002  37.7515808  71.3784484
  21.9223639  40.2700646  75.6203820  21.5303431  39.9667361  74.9026686
  22.0776711  41.1069735  75.4308774  21.8877229  40.3484482  75.4860317
  22.0863314  36.8350634  75.5609851  21.7277969  37.0065277  76.3373883
  21.6002025  37.2963840  75.0037849  21.9622011  36.9289605  75.5935120
  16.8751679  32.5149800  68.1010085  17.1644204  33.2914682  68.3753659
  16.9623478  32.0038531  68.8024584  16.9305936  32.5541718  68.2452583
  22.6913944  39.6736138  79.0533855  22.4933633  40.1626953  78.3590066
  22.0701655  39.8777380  79.6317988  22.5701509  39.7752676  79.0357078
  21.6683298  27.9083063  72.3563772  21.1406317  27.9911807  71.6669481
  22.1279006  28.6500934  72.3528417  21.6585149  28.0303725  72.2538467
  13.6616363  26.1785583  67.3804667  13.3129168  26.8305308  67.8436216
  13.1812809  26.1642696  66.6528538  13.5386607  26.2728636  67.3415758
  21.2220381  36.4786627  71.4873429  21.9454580  36.9444740  71.3438002
  20.7820972  36.5460236  70.7371026  21.2636073  36.5570463  71.3558210
  14.0640494  29.6711224  70.2223288  14.6985574  30.2671649  70.1572750
  14.1466105  29.3714682  71.0369159  14.1697045  29.7152132  70.3326375
  21.4824230  40.5407331  71.6471490  20.7653540  40.3668194  71.1818727
  22.1330968  40.3059904  71.1146976  21.4726081  40.4803124  71.5000708
  16.7637392  41.7769090  78.0761638  16.3497791  41.1143220  77.6865480
  17.4484767  41.9246949  77.5557332  16.8035764  41.7009748  77.9418135
  20.1302686  40.9359175  78.8285255  19.7318970  41.0461446  78.0606075
  19.5153906  41.1441242  79.4111814  19.9801576  40.9832743  78.8016554
  27.8644529  35.5111142  72.2128345  28.2478135  36.2602498  72.4426442
  27.0688642  35.7576962  71.9540334  27.8038311  35.6580836  72.2085919
  16.6759821  28.1830574  69.7888724  17.0558786  28.2010203  69.0039839
  15.9352417  28.6284563  69.6679572  16.6228658  28.2512348  69.6552292
  17.4744575  35.0208080  71.1797514  16.6655898  34.6974754  71.1330824
  17.9819484  34.3141302  71.1125763  17.4294242  34.8689396  71.1627809
  37.3562305  46.0882077  74.3058706  37.3256309  46.9426714  74.4776976
  37.9543653  45.7877370  74.8644850  37.4399462  46.1698574  74.4133508
  30.5561989  45.1757728  79.0611637  29.6999885  45.3366226  79.1120753
  30.6029643  44.3049792  79.0816698  30.4361101  45.0708530  79.0717703
  24.9403129  54.7120446  74.8248868  24.1886029  54.3335984  74.5964913
  25.3889141  54.7438880  74.0767678  24.8952796  54.6606053  74.6806370
  30.3928089  55.1345815  70.2534415  30.0579457  55.8122737  69.8178637
  30.9054959  54.7451127  69.6651287  30.4193670  55.1770394  70.1021207
  29.9332380  57.0860084  76.1945527  30.3171760  57.6546983  75.6550302
  29.8691522  56.3609594  75.7151343  29.9805808  57.0635548  76.0439389
  33.4013810  47.2349772  81.7043288  33.9469770  47.9134859  81.7637258
  33.3430687  47.0937233  80.8444870  33.4729725  47.3141774  81.5855349
  26.5187885  54.7238838  77.0911641  26.6198248  53.9139192  77.4008768
  25.9229631  54.6295785  76.4611319  26.4460424  54.5903866  77.0437879
  35.1778879  48.6634379  72.5777016  35.0618405  49.4142065  73.0069154
  35.9734766  48.4058332  72.8273103  35.2783469  48.7369226  72.6781108
  26.3588625  59.6416427  78.4926497  27.0026080  60.0829591  78.8822655
  26.6844880  58.8369853  78.4056755  26.5020454  59.5881622  78.5371974
  19.7152930  50.7459125  76.7163974  19.4803114  49.9126777  76.6096243
  19.8538570  51.0263790  75.9025175  19.7008592  50.6642628  76.5806329
  22.0143017  42.9144855  79.6148282  21.3948049  42.3237503  79.4458297
  21.9126881  43.5056291  78.9812605  21.9080693  42.9148938  79.4953272
  27.0609205  52.6528402  73.8646358  27.3825046  53.1933609  73.2607667
  27.7081301  52.0825174  73.9968648  27.2035260  52.6487577  73.7953394
  29.1110913  44.6544397  73.9480745  29.8091077  44.8332525  74.4402208
  29.4263245  44.1314736  73.3251135  29.2606250  44.6038169  73.9282755
  21.7412150  46.4597137  81.8591851  21.6170847  47.0459583  82.4941670
  22.3930435  45.9657333  82.1604126  21.8185799  46.4735941  81.9977780
  29.2998848  51.0414842  73.9360537  29.7392484  50.4331943  74.3815309
  29.1503511  50.6622215  73.1646002  29.3420314  50.8953313  73.8879704
  26.7670491  49.6358854  81.1379362  27.4119494  49.1431297  80.8190311
  27.0072268  49.7783641  81.9645440  26.8981076  49.5836296  81.2128895
  29.3056582  52.4813760  80.7886255  29.5879825  51.6865166  80.5673011
  30.0342743  52.9594347  80.8091316  29.4546146  52.4348357  80.7589270
  27.2837776  40.0236794  78.0302020  26.9541106  40.4747937  77.3605719
  26.6082778  39.9452957  78.5775026  27.1348213  40.0787929  78.0125243
  32.9008185  49.3942023  70.8891306  32.8159480  50.2502990  71.0340875
  33.3892568  49.1186347  71.5573465  32.9597082  49.4799345  71.0093387
  34.4914184  36.0122317  76.2751630  34.1767625  36.7025795  76.7072053
  33.9741126  35.9567099  75.5737131  34.3678654  36.1057205  76.2348580
  33.8326618  46.0126818  72.3889041  33.3038089  46.2286451  73.0486347
  34.3551638  46.7062956  72.3090010  33.8315071  46.1469954  72.4744640
  39.2874671  51.5873122  77.7622085  38.4572374  51.7983766  77.9255502
  39.2383923  50.7610177  77.4864369  39.1581406  51.4962728  77.7459451
  25.7226226  49.9090034  71.1896509  25.1383441  50.4140066  71.5962373
  25.3196321  49.6832421  70.4493101  25.5765529  49.9498283  71.1401534
  21.2770254  55.6244795  77.9920181  20.7937833  56.3495285  77.9679764
  22.0893573  55.9220926  78.1030338  21.3261002  55.7747149  78.0047460
  27.3484408  54.4176976  80.5969995  26.8311350  54.0584391  79.9931303
  28.0458800  53.8939151  80.6076061  27.3749989  54.2874664  80.5100254
  30.1803440  46.1555686  69.6665430  30.4199444  46.3633670  68.8540773
  30.5019281  45.3513195  69.7754374  30.2640598  46.0669788  69.5625983
  25.4893730  38.0849082  73.5124968  26.2439698  38.4527399  73.2742018
  25.3121265  38.4588637  74.2804147  25.5748209  38.1947270  73.5909856
  24.1314452  56.1400971  78.1440460  24.8335031  55.6252960  78.2013217
  24.0511935  56.4675123  78.9487335  24.2238212  56.1115198  78.2713253
  38.7828629  44.2343523  81.5572507  37.9457050  44.3045710  81.7920101
  38.7516860  44.2368018  80.6846809  38.6546911  44.2453750  81.4632055
  23.8450795  40.4919401  70.2103081  23.6626368  40.7091282  69.3844073
  24.7076408  40.6058414  70.2661695  23.9455384  40.5409299  70.0957568
  23.4565227  52.3307323  77.6526068  24.2954126  52.5630256  77.6999830
  23.4876996  51.4611635  77.5833104  23.5846945  52.2364270  77.6490713
  24.0817930  52.7508199  81.9539374  24.6216155  52.6079330  82.6242746
  23.3987876  53.1504949  82.3223400  24.0610084  52.7887870  82.1073796
  29.5250514  37.4945812  73.2452104  30.2536675  37.3161767  72.7990261
  29.6145407  38.3363892  73.4559282  29.6457176  37.5929690  73.2105622
  33.5058815  48.4299199  77.1484398  34.2616330  48.8630714  77.1873307
  33.6121139  47.7803969  77.7219034  33.6328985  48.3976683  77.2382424
  36.5438986  52.2572476  77.8986801  36.1074218  52.2609219  78.6545773
  36.2101901  52.9377975  77.4666379  36.4301606  52.3584932  77.9467634
  23.3912822  43.7693574  68.7225554  22.6770999  43.4831753  69.1347986
  23.8756791  44.1090200  69.3631941  23.3572185  43.7775223  68.8781188
  39.6783332  48.9753396  76.7906439  40.3399766  48.4144065  76.6902347
  39.0374744  48.4805427  77.1159130  39.6812200  48.8189805  76.8238779
  30.5660140  52.2723528  69.0987362  30.9811288  51.9408552  68.4071858
  29.7352070  52.0392430  68.9707498  30.5048149  52.1894784  68.9778209
  19.8948489  49.7567269  79.3885540  19.7124062  49.7314155  78.5357832
  20.6298158  50.2266207  79.4274448  19.9762553  49.8228631  79.2683458
  35.9648163  49.9918779  76.5318427  36.2003752  50.1363978  75.7045278
  36.1137727  50.7561187  76.9249941  36.0213966  50.1257833  76.4682031
  37.7938620  48.8320445  74.3688031  38.1246837  49.3648085  73.7628126
  38.3671708  48.8859332  75.0249982  37.9272299  48.9190014  74.3765813
  33.0070509  46.6785347  75.0511611  33.1017363  47.4174641  75.5051237
  32.3829352  46.2502823  75.4846176  32.9279539  46.7246668  75.1819759
  19.8619399  46.6360769  79.5384606  20.4392902  46.4997220  80.1776852
  19.1633461  46.1796554  79.7930191  19.8440420  46.5483036  79.6706896
  33.2593530  48.5234087  68.2848563  33.1773693  48.5936274  69.1503550
  33.8973251  49.0863831  68.0932304  33.3413367  48.6173058  68.3838513
  26.6186701  48.2894825  77.7523090  26.3605946  47.4566560  77.7254389
  26.6735184  48.5152438  76.9115590  26.5886479  48.1992596  77.6243226
  31.6987751  40.3923276  77.8527182  30.9944078  39.9032461  78.0111101
  31.7472726  40.4045750  76.9815627  31.6017803  40.3212924  77.7466522
  25.5921413  45.8432588  78.2387984  25.0171005  46.0024756  78.8751945
  25.2157090  45.2067997  77.7756435  25.4524226  45.7730401  78.2642543
  29.2594702  44.3155937  83.0980363  28.8709135  43.8910155  82.4432554
  28.5949400  44.5638087  83.6057389  29.1041630  44.2894658  83.0768231
  38.9017971  44.0730942  75.8728193  38.6454536  43.2610883  75.6826076
  39.7447285  44.0808509  75.6458380  38.9883997  43.9542939  75.8113010
  15.3378232  45.4872662  76.2532425  15.4238484  45.1104531  77.0345955
  15.9654030  45.1133108  75.7752383  15.4434783  45.3758145  76.2977902
  33.0821064  38.0130566  80.6104347  33.4631575  37.3308737  80.9972221
  32.2784348  37.7240168  80.4280011  33.0197525  37.8697614  80.6408403
  30.3633640  48.5454541  71.2957170  31.1774279  48.8369434  71.1839941
  30.2992782  47.8914404  70.7215463  30.4736379  48.4919736  71.1946007
  26.2341549  52.0176059  76.4229482  26.8715495  51.7787806  76.9681275
  26.6596620  52.2213218  75.6882642  26.3917715  52.0127069  76.3946639
  26.8744364  47.2378349  70.7604371  27.2589516  47.0186055  71.5120916
  26.6255984  48.0641294  70.8905448  26.8946436  47.3276495  70.8905448
  28.6163020  52.4948482  78.1023268  28.6902029  52.3323653  78.9565118
  29.4332527  52.6838671  77.8583750  28.7479379  52.4985224  78.1921294
  22.3768777  52.8406344  75.1317712  21.5506895  53.0868082  75.0051990
  22.4380768  52.7618425  75.9979770  22.2642944  52.8651293  75.2406656
  24.5944801  38.9075285  76.0913152  23.7267226  38.9797885  76.1570761
  24.8820005  39.7097364  76.2801127  24.5084549  39.0369432  76.1287918
  33.7177690  39.0553145  84.4224473  34.4631282  38.8662955  84.0087899
  33.3014994  39.5811383  83.8638330  33.7662664  39.1055290  84.2789047
  27.1567606  55.4583225  72.8336741  27.4465905  55.0672206  72.1095968
  27.8871087  55.6399930  73.2742017  27.3074490  55.4277038  72.7919548
  41.0939961  46.4262373  79.3729978  41.6447882  45.7930442  79.6127071
  41.0784076  46.9577766  80.0645483  41.1725157  46.4111321  79.5108837
  27.7462351  50.2600971  83.9189872  27.2474045  50.9716738  83.9974760
  28.5562576  50.5801637  83.8808034  27.7918458  50.4127819  83.9246440
  25.0973522  57.4350607  75.8996891  24.8773817  57.1447962  76.6923558
  24.8768044  56.7765562  75.3714803  25.0321116  57.2950315  75.9385800
  24.0090469  49.5223924  78.1652593  23.7203718  48.8961395  78.6998320
  24.8773817  49.4644211  78.2317273  24.0950721  49.4211468  78.2543547
  34.7968367  44.6658707  78.4834575  34.4533133  43.9449042  78.8341824
  34.8961409  44.4572558  77.6412933  34.7610410  44.5282910  78.4106255
  27.2641478  58.8079997  74.6827584  27.9165536  58.2756439  74.9118610
  26.5667086  58.4548649  75.0695458  27.2572195  58.6769520  74.7739751
  24.2122742  51.1619175  74.0894958  24.9668710  51.5432214  74.3030420
  23.6193355  51.6130318  74.5441654  24.2359456  51.2848002  74.1877836
  35.2581396  51.1284411  74.0258563  35.8239428  51.7877621  73.9417106
  34.6109299  51.4734109  74.4974965  35.2460152  51.2766352  74.0831319
  25.5320969  52.3327736  79.4635073  25.0101722  52.4728028  80.1486938
  25.9194989  51.5738400  79.6537191  25.5124670  52.2413260  79.5936150
  31.7287974  54.0723195  73.4495642  31.4874650  53.3391056  73.0422707
  31.9089307  54.6210052  72.7961975  31.7195598  54.0445586  73.2925865
  26.9587295  49.3631755  74.8616564  26.7630077  49.9706489  74.2676867
  27.1821640  48.6699699  74.3808238  26.9621936  49.3509280  74.7032645
  25.3565825  46.2486493  74.9797433  26.0788476  46.4127651  74.5201239
  24.8773817  46.9696158  74.8736772  25.3929555  46.3784722  74.8963047
  33.3159332  42.5850292  80.3594118  32.4770433  42.6111571  80.1232381
  33.3863699  43.2321027  80.9399464  33.2027726  42.6846418  80.4103234
  31.7628610  39.4835669  75.0921734  32.4654963  39.2843417  74.6141692
  31.4972799  38.7111611  75.3990577  31.8275243  39.3398635  75.0667175
  37.1916856  47.7918278  77.6455359  37.1050831  47.9473705  78.4990138
  36.7367336  48.4356354  77.2714764  37.1120113  47.9094034  77.7162466
  20.0940348  43.1614757  74.3815309  20.1956484  43.9640919  74.7096284
  20.8896234  42.9602093  74.0838390  20.2268253  43.2500656  74.3850664
  31.0642672  45.1129026  76.2680919  30.8177386  45.0324776  77.1017708
  31.3927795  44.3282493  76.0743446  31.0763916  44.9855291  76.3628442
  34.9590721  51.8212385  80.0567700  34.8205080  52.5193431  80.5616442
  34.1790719  51.6661041  79.7003882  34.8233948  51.9012552  80.0793974
  27.0239699  47.8485744  85.6803902  27.1683075  48.4286952  85.0447012
  27.3715348  48.2262041  86.3853757  27.0967161  47.9906448  85.6902897
  29.1959617  47.0475913  83.4629034  28.4482931  47.2406927  83.0577312
  29.3501142  46.2221132  83.2253155  29.1082044  46.9541024  83.3674439
  26.0967454  56.0388516  82.5464929  26.2457018  55.4791432  81.8938333
  26.8767456  56.1180518  82.9297448  26.2341548  55.9674081  82.5061878
  36.4544094  51.1790639  70.8184199  36.0750902  50.3927777  70.8113489
  35.7910339  51.7277496  70.6755844  36.3002569  51.1435463  70.7964996
  33.9088720  34.1216338  78.2218280  34.0272288  34.5792802  77.4885583
  33.7350895  33.3161600  77.9354498  33.9007891  34.0710111  78.0719214
  29.2791002  54.7304158  74.6573026  30.0440893  54.4613801  74.3355690
  29.1769092  54.2454168  75.3743088  29.3772497  54.6193722  74.7152853
  27.3143772  42.9328567  81.1966261  26.5239846  42.7520027  81.5183597
  27.7104394  42.1555520  81.1796556  27.2560648  42.7916028  81.2418810
  31.8009662  51.7616341  66.6372975  32.5682648  51.8216466  66.2278827
  31.3540971  51.1896783  66.1529293  31.8483090  51.6852917  66.5050685
  32.6987458  50.5670997  78.9225707  32.0232460  50.3356230  79.4239094
  32.7079834  49.9592180  78.2967812  32.6005962  50.4429923  78.9041859
  29.8281602  45.4088826  85.6789760  29.7640743  46.2698783  85.5509897
  29.9678790  45.0920819  84.8785311  29.8397072  45.4888993  85.5417973
  34.7004193  53.4236130  71.1535885  34.7824030  54.2303116  70.8297336
  35.1853935  53.4432089  71.8776659  34.7841350  53.5456792  71.2122784
  28.5100696  48.1020966  79.8205963  28.0862945  48.3025465  79.0844981
  28.3345551  47.2549814  79.9330263  28.4211576  48.0069747  79.7279653
  23.7983141  48.5973017  75.2533936  23.9547760  48.5319820  76.1089928
  24.1383734  49.3721570  75.0412615  23.8716376  48.7022215  75.3488530
  30.3362285  47.9730901  74.1227299  30.8777831  47.4701282  74.5865919
  30.6508844  47.9196095  73.3116784  30.4626682  47.8910322  74.0711111
  28.5048735  53.3648252  71.4067327  28.5741555  52.5062791  71.5460327
  29.2837190  53.5820133  71.0786351  28.6301585  53.2701116  71.3784484
  31.4851555  42.8667205  84.1749599  31.6993524  42.2278119  83.6212953
  30.8685454  43.3113029  83.7457461  31.4256884  42.8377349  84.0300030
  32.8956223  55.7885953  75.6203820  32.5036014  55.4852669  74.9026686
  33.0509295  56.6255043  75.4308774  32.8609813  55.8669790  75.4860317
  20.3717402  45.7807968  75.5694703  20.7516367  46.1992512  74.9054970
  19.7972767  46.3621423  75.8763546  20.3428727  45.9285826  75.5171444
  33.6490643  44.4756270  85.1132906  32.8367324  44.1682161  85.1946079
  34.1080577  43.9955270  85.6775619  33.5971028  44.3592763  85.2087501
  33.0595897  52.3535942  75.5609851  32.7010552  52.5250585  76.3373883
  32.5734608  52.8149148  75.0037849  32.9354594  52.4474913  75.5935120
  30.8766283  35.9767141  79.1636942  30.0059841  35.9505862  79.1170252
  31.1306625  35.8044333  78.3462788  30.7859844  35.9477285  79.0357079
  27.8484263  48.0335108  68.1010085  28.1376788  48.8099990  68.3753659
  27.9356062  47.5223839  68.8024584  27.9038519  48.0727026  68.2452583
  27.9015424  37.9873369  80.6210412  27.3853912  37.2953561  80.7461991
  27.3409353  38.6544146  80.5673011  27.7421937  37.9836627  80.6316478
  35.9457637  45.0928984  81.0742967  35.5185245  45.0055333  80.3191067
  35.3083690  45.2006760  81.6597811  35.7887244  45.0961644  81.0488409
  24.0148204  47.3468372  80.2010197  23.1736210  47.2472246  80.4089091
  24.2238212  48.1163853  80.5524518  23.9212896  47.4460416  80.2837512
  21.4923771  44.9687909  78.0294948  21.0980469  45.0430921  77.2545057
  20.9363888  45.3545856  78.5803310  21.3526583  45.0369684  77.9962608
  33.1288718  37.9469203  77.7098827  33.3338311  37.8791511  78.5555824
  32.8015142  38.7528024  77.6420004  33.1103965  38.0555144  77.8258482
  27.8264869  45.2749771  79.4507795  27.5228006  44.7205760  80.0518202
  27.1244289  45.4541981  78.9635829  27.6781078  45.2194554  79.4677500
  26.8830966  42.5850291  74.0152497  27.1590700  41.8669204  73.6030064
  27.4829635  43.1835211  73.8073603  27.0124230  42.5670662  73.9233258
  36.3822405  38.5000968  77.1901592  35.7696719  38.9871370  77.5755324
  36.4786580  37.8244458  77.7339243  36.3060303  38.4719276  77.3280450
  30.3841486  40.2563809  72.2899092  30.8385233  40.4274369  73.0146936
  30.8581532  39.6431919  71.8896867  30.5209806  40.1914694  72.3372853
  23.9057012  49.7412135  81.6201830  23.3144945  50.3821633  81.5904845
  24.6678035  50.1649752  81.5933130  23.9305272  49.8987973  81.6116977
  33.6646528  55.1921446  79.0533855  33.4666217  55.6812261  78.3590066
  33.0434239  55.3962688  79.6317988  33.5434092  55.2937984  79.0357078
  27.7254506  46.9606343  73.3944099  28.4696551  47.3480619  73.6327049
  27.8715202  46.1163768  73.5584587  27.8565091  46.8936816  73.4538069
  30.7132382  42.5331816  79.2938018  30.2392336  42.0073578  79.8043329
  31.0850518  41.9861289  78.7252880  30.6982271  42.3747813  79.2853165
  36.9769113  47.5934192  80.7044799  36.7367336  46.7540607  80.7087225
  37.4561120  47.6734359  81.4285572  37.0121296  47.4815592  80.8119601
  32.6415882  43.4268371  72.3563772  32.1138900  43.5097115  71.6669481
  33.1011590  44.1686242  72.3528417  32.6317732  43.5489033  72.2538467
  38.9774300  44.3735649  78.6574058  38.7384070  44.3331483  77.8194842
  39.1408201  45.2206801  78.7839779  38.9664603  44.4927734  78.5527540
  24.4507198  43.3545772  81.3231982  23.8260268  43.3664164  80.7157935
  24.1152793  43.8305947  81.9723222  24.3092690  43.4264289  81.3288551
  24.6348947  41.6970890  67.3804667  24.2861751  42.3490616  67.8436216
  24.1545393  41.6828004  66.6528538  24.5119191  41.7913944  67.3415758
  32.1952964  51.9971934  71.4873429  32.9187163  52.4630047  71.3438002
  31.7553555  52.0645544  70.7371026  32.2368657  52.0755771  71.3558210
  31.3639119  48.8569477  82.7374118  30.7496112  48.3127527  83.0322753
  31.8806404  48.3433713  82.2579934  31.3494782  48.7005886  82.7098346
  30.6035417  49.9273747  80.4718417  30.1763025  49.3023465  80.0383852
  30.5960361  49.6448669  81.2977424  30.5394558  49.7926527  80.5298244
  28.9321126  40.8042501  80.6860951  28.9563613  40.2702614  79.9973731
  29.1832600  40.2959810  81.3486541  28.9731045  40.6503405  80.6825595
  25.2122448  39.5313320  80.0666695  25.2520820  40.0322526  80.7801402
  24.3872113  39.6223713  79.7972618  25.0961974  39.6195136  80.1317233
  26.6336812  46.0473829  82.3640594  25.8028741  46.2147647  82.1575842
  26.5788329  45.6709780  83.1489479  26.5026227  46.0163561  82.4489122
  25.0072856  44.3229421  72.8930712  25.1475817  44.8201885  73.5959353
  25.5055388  43.6215715  73.0344925  25.1013937  44.2931400  73.0182291
  25.0373078  45.1896532  70.2223288  25.6718158  45.7856957  70.1572750
  25.1198689  44.8899990  71.0369159  25.1429629  45.2337440  70.3326375
  26.6152061  41.1210507  70.1968730  26.9367902  40.6413590  69.5427993
  26.8779005  41.9310153  70.0059542  26.7018086  41.1700405  70.0724223
  29.8449034  52.1429382  83.7167547  29.3374125  52.6965229  84.1608177
  29.5475680  52.2037672  82.8986321  29.7253919  52.2335693  83.6616003
  32.0111216  40.5082701  82.5592210  32.4366287  40.0555228  81.9475736
  31.3968209  39.9542772  82.8356997  31.9839861  40.3596678  82.5097235
  21.5426066  47.3864373  73.4912834  22.0518295  47.9828880  73.8724140
  22.0160338  47.1190346  72.8089254  21.6869442  47.4350188  73.4467357
  32.4556814  56.0592639  71.6471490  31.7386124  55.8853502  71.1818727
  33.1063552  55.8245212  71.1146976  32.4458664  55.9988432  71.5000708
  30.4505439  36.9797801  75.9682787  29.8073757  36.8295447  76.5367925
  30.1104846  36.7340146  75.2031891  30.3050516  36.9209924  75.9385802
  35.0404785  44.9357228  75.3912795  34.3695975  45.4786930  75.2625861
  35.7344535  45.4052083  75.1494490  35.0433653  45.0855499  75.3368323
  29.0891519  57.0753940  80.6224553  28.8657173  56.3172769  80.9908580
  28.6001362  57.1051961  79.9004993  28.9834968  56.9676164  80.5701294
  35.2032913  41.3913112  78.3003168  35.5560523  40.9642834  78.9748967
  34.3447714  41.3063955  78.4304245  35.1282357  41.3157852  78.4198179
  23.9016598  44.0220631  76.3586015  23.1828587  44.4384764  76.6258878
  24.2728960  44.5874870  75.8077653  23.8508529  44.1669913  76.3168822
  33.2016178  44.6548480  82.2488011  33.1814106  44.4731775  83.1022789
  33.2495379  45.5260499  82.2247594  33.2050819  44.7565018  82.3711305
  27.7369976  57.2954398  78.0761638  27.3230374  56.6328528  77.6865480
  28.4217350  57.4432257  77.5557332  27.7768348  57.2195056  77.9418135
  31.1035270  56.4544483  78.8285255  30.7051553  56.5646754  78.0606075
  30.4886490  56.6626550  79.4111814  30.9534159  56.5018051  78.8016554
  29.6763172  43.0618631  71.6959394  29.0828011  43.3835628  71.1443961
  29.7138450  42.2159727  71.4880500  29.5937561  42.9842959  71.5842166
  36.6356973  36.5131523  79.2287481  36.1287837  35.8060663  79.1608658
  37.4324406  36.1824712  79.3588557  36.6784212  36.3604675  79.2386476
  32.5520989  43.0198136  75.1261145  32.3234682  43.0430837  74.2839503
  32.8119065  42.1955603  75.2456155  32.5567177  42.9014216  75.0186342
  25.6065751  41.5574682  76.4215340  26.0823117  41.9191762  75.7865521
  25.1054351  42.2131150  76.7015483  25.6031110  41.7068871  76.3692081
  38.8377113  51.0296450  72.2128345  39.2210718  51.7787806  72.4426442
  38.0421226  51.2762270  71.9540334  38.7770895  51.1766144  72.2085919
  27.6492404  43.7015882  69.7888724  28.0291369  43.7195511  69.0039839
  26.9085000  44.1469871  69.6679572  27.5961242  43.7697656  69.6552292
  35.2777695  42.0098073  75.3764303  35.2771921  41.8546729  76.2348579
  35.0733875  42.8561060  75.3205688  35.2477473  42.1118694  75.4952242
  17.3394966  45.4337857  79.7923119  17.1616727  44.9814466  80.5178035
  17.0513988  46.2364019  79.9761597  17.2707919  45.4860415  79.9266622
  33.0018547  46.6895575  79.0300510  33.4972212  45.9718570  78.9904530
  32.1918323  46.3866372  78.9154997  32.9562440  46.5393221  79.0074236
  28.4477158  50.5393388  71.1797514  27.6388481  50.2160062  71.1330824
  28.9552067  49.8326610  71.1125763  28.4026825  50.3874704  71.1627809
  19.0767436  47.9665581  76.9044879  18.2112955  47.9551272  76.7927650
  19.1766252  47.7795804  77.7516018  18.9641603  47.9371642  77.0133823
  35.0670366  49.4399262  81.7177639  35.4925437  48.9173684  81.1648064
  34.7027286  50.0380100  81.1966261  35.0756968  49.4509489  81.5586648
  24.7024446  57.7363480  80.4774984  25.0171004  58.5499868  80.4852766
  25.1117859  57.3513698  81.1457143  24.8092543  57.7992182  80.5779076
  31.6548965  53.1533526  78.0478796  32.1260143  53.8673789  78.2168781
  31.9909144  52.5532277  78.5838666  31.7744080  53.1704991  78.1511172
  35.1016776  41.0136815  82.1957681  34.5179765  41.5146022  81.7835248
  35.4221070  40.5066371  81.5622004  35.0629951  41.0128650  82.0416188
  27.6411575  39.9277410  72.4716356  28.4627269  40.0975723  72.2298051
  27.1781226  40.0824671  71.7482653  27.6942737  39.9759143  72.3288000
  22.0437466  51.6836588  80.1253592  22.6482323  51.6432422  79.4967413
  21.8364778  52.5307740  80.1557648  22.1026363  51.8024591  80.0369709
  31.8581238  53.9502533  81.3415830  32.6779612  53.8065499  81.6032125
  31.5775315  54.5748732  81.8832268  31.9377981  54.0212885  81.4603769
  40.0843496  60.1729705  73.9480745  40.7823661  60.3517833  74.4402208
  40.3995829  59.6500044  73.3251135  40.2338833  60.1223477  73.9282755
  38.2570360  55.5422102  78.0302020  37.9273690  55.9933245  77.3605719
  37.5815362  55.4638265  78.5775026  38.1080796  55.5973237  78.0125243
  45.4646768  51.5307625  76.2751630  45.1500209  52.2211103  76.7072053
  44.9473709  51.4752407  75.5737131  45.3411238  51.6242513  76.2348580
  36.6958809  65.4275342  71.1896509  36.1116024  65.9325374  71.5962373
  36.2928904  65.2017729  70.4493101  36.5498113  65.4683591  71.1401534
  41.1536024  61.6740994  69.6665430  41.3932027  61.8818978  68.8540773
  41.4751865  60.8698503  69.7754374  41.2373182  61.5855096  69.5625983
  36.4626314  53.6034390  73.5124968  37.2172282  53.9712707  73.2742018
  36.2853849  53.9773944  74.2804147  36.5480792  53.7132578  73.5909856
  34.8183379  56.0104709  70.2103081  34.6358952  56.2276590  69.3844073
  35.6808992  56.1243722  70.2661695  34.9187968  56.0594607  70.0957568
  40.4983098  53.0131120  73.2452104  41.2269258  52.8347075  72.7990261
  40.5877991  53.8549200  73.4559282  40.6189760  53.1114998  73.2105622
  34.3645406  59.2878882  68.7225554  33.6503583  59.0017061  69.1347986
  34.8489374  59.6275508  69.3631941  34.3304769  59.2960531  68.8781188
  41.5392724  67.7908836  69.0987362  41.9543872  67.4593860  68.4071858
  40.7084653  67.5577738  68.9707498  41.4780732  67.7080092  68.9778209
  44.2326114  64.0419395  68.2848563  44.1506276  64.1121582  69.1503550
  44.8705834  64.6049139  68.0932304  44.3145951  64.1358366  68.3838513
  26.3110816  61.0057970  76.2532425  26.3971068  60.6289839  77.0345955
  26.9386613  60.6318416  75.7752383  26.4167367  60.8943452  76.2977902
  41.3366224  64.0639849  71.2957170  42.1506863  64.3554742  71.1839941
  41.2725365  63.4099712  70.7215463  41.4468963  64.0105044  71.1946007
  37.8476947  62.7563657  70.7604371  38.2322100  62.5371363  71.5120916
  37.5988567  63.5826602  70.8905448  37.8679020  62.8461803  70.8905448
  35.5677384  54.4260593  76.0913152  34.6999810  54.4983193  76.1570761
  35.8552589  55.2282672  76.2801127  35.4817133  54.5554740  76.1287918
  33.4944737  57.9018853  73.5330028  33.2069532  57.5320123  72.7961975
  34.1815205  58.3713708  73.2713733  33.5533634  57.9165822  73.3845104
  36.3298408  61.7671801  74.9797433  37.0521060  61.9312959  74.5201239
  35.8506401  62.4881466  74.8736772  36.3662139  61.8970030  74.8963047
  42.7361194  55.0020977  75.0921734  43.4387547  54.8028725  74.6141692
  42.4705383  54.2296919  75.3990577  42.8007826  54.8583943  75.0667175
  31.0672931  58.6800065  74.3815309  31.1689068  59.4826226  74.7096284
  31.8628818  58.4787401  74.0838390  31.2000837  58.7685964  74.3850664
  44.8821303  49.6401646  78.2218280  45.0004871  50.0978110  77.4885583
  44.7083479  48.8346908  77.9354498  44.8740474  49.5895418  78.0719214
  42.7742246  67.2801649  66.6372975  43.5415231  67.3401774  66.2278827
  42.3273555  66.7082091  66.1529293  42.8215673  67.2038225  66.5050685
  31.3449986  61.2993275  75.5694703  31.7248951  61.7177820  74.9054970
  30.7705351  61.8806731  75.8763546  31.3161311  61.4471134  75.5171444
  41.8498867  51.4952449  79.1636942  40.9792425  51.4691170  79.1170252
  42.1039208  51.3229641  78.3462788  41.7592427  51.4662592  79.0357079
  38.8216846  63.5520416  68.1010085  39.1109371  64.3285298  68.3753659
  38.9088645  63.0409147  68.8024584  38.8771103  63.5912334  68.2452583
  37.8563549  58.1035599  74.0152497  38.1323284  57.3854512  73.6030064
  38.4562219  58.7020519  73.8073603  37.9856814  58.0855970  73.9233258
  41.3574070  55.7749117  72.2899092  41.8117816  55.9459677  73.0146936
  41.8314116  55.1617227  71.8896867  41.4942390  55.7100002  72.3372853
  38.6987090  62.4791651  73.3944099  39.4429135  62.8665927  73.6327049
  38.8447786  61.6349076  73.5584587  38.8297675  62.4122124  73.4538069
  40.6166665  54.2741910  78.4275960  39.7702710  54.4464718  78.3017310
  40.6137798  53.4691254  78.7641789  40.4913815  54.1802939  78.4587087
  43.6148465  58.9453679  72.3563772  43.0871484  59.0282423  71.6669481
  44.0744174  59.6871550  72.3528417  43.6050316  59.0674341  72.2538467
  35.6081531  57.2156198  67.3804667  35.2594335  57.8675924  67.8436216
  35.1277976  57.2013311  66.6528538  35.4851774  57.3099252  67.3415758
  35.9805439  59.8414729  72.8930712  36.1208400  60.3387193  73.5959353
  36.4787972  59.1401023  73.0344925  36.0746520  59.8116708  73.0182291
  36.0105662  60.7081840  70.2223288  36.6450741  61.3042265  70.1572750
  36.0931272  60.4085297  71.0369159  36.1162213  60.7522748  70.3326375
  37.5884644  56.6395815  70.1968730  37.9100486  56.1598898  69.5427993
  37.8511588  57.4495461  70.0059542  37.6750670  56.6885713  70.0724223
  32.5158650  62.9049681  73.4912834  33.0250879  63.5014188  73.8724140
  32.9892922  62.6375654  72.8089254  32.6602025  62.9535496  73.4467357
  41.4238022  52.4983109  75.9682787  40.7806340  52.3480755  76.5367925
  41.0837429  52.2525454  75.2031891  41.2783100  52.4395231  75.9385802
  34.8749181  59.5405939  76.3586015  34.1561170  59.9570072  76.6258878
  35.2461544  60.1060178  75.8077653  34.8241113  59.6855221  76.3168822
  40.6495756  58.5803939  71.6959394  40.0560595  58.9020936  71.1443961
  40.6871033  57.7345034  71.4880500  40.5670145  58.5028267  71.5842166
  43.5253572  58.5383444  75.1261145  43.2967265  58.5616145  74.2839503
  43.7851648  57.7140911  75.2456155  43.5299760  58.4199523  75.0186342
  36.5798335  57.0759990  76.4215340  37.0555701  57.4377070  75.7865521
  36.0786934  57.7316457  76.7015483  36.5763694  57.2254179  76.3692081
  38.6224988  59.2201190  69.7888724  39.0023953  59.2380819  69.0039839
  37.8817584  59.6655178  69.6679572  38.5693826  59.2882964  69.6552292
  39.4209742  66.0578696  71.1797514  38.6121065  65.7345369  71.1330824
  39.9284651  65.3511918  71.1125763  39.3759409  65.9060012  71.1627809
  30.0500019  63.4850889  76.9044879  29.1845539  63.4736579  76.7927650
  30.1498835  63.2981112  77.7516018  29.9374186  63.4556950  77.0133823
  38.6144159  55.4462718  72.4716356  39.4359853  55.6161031  72.2298051
  38.1513809  55.6009979  71.7482653  38.6675321  55.4944451  72.3288000
  26.0780545   7.5074900  61.2398753  26.0474549   8.3619537  61.4117022
  26.6761894   7.2070193  61.7984897  26.1617703   7.5891397  61.3473555
  13.6621370  16.1313269  61.7588915  12.9104269  15.7528808  61.5304960
  14.1107381  16.1631703  61.0107725  13.6171036  16.0798876  61.6146417
  19.1146329  16.5538639  57.1874462  18.7797698  17.2315560  56.7518684
  19.6273200  16.1643950  56.5991334  19.1411911  16.5963217  57.0361254
  18.6550621  18.5052907  63.1285574  19.0390000  19.0739806  62.5890349
  18.5909762  17.7802418  62.6491390  18.7024048  18.4828371  62.9779436
  23.8997119  10.0827202  59.5117063  23.7836645  10.8334888  59.9409201
  24.6953006   9.8251156  59.7613150  24.0001709  10.1562049  59.6121155
  15.0806865  21.0609251  65.4266544  15.7244321  21.5022415  65.8162702
  15.4063121  20.2562677  65.3396802  15.2238694  21.0074445  65.4712021
  15.7827445  14.0721225  60.7986405  16.1043286  14.6126433  60.1947713
  16.4299542  13.5017997  60.9308695  15.9253500  14.0680401  60.7293441
  18.0217088  12.4607665  60.8700583  18.4610724  11.8524766  61.3155356
  17.8721751  12.0815039  60.0986048  18.0638554  12.3146136  60.8219751
  21.6226425  10.8134847  57.8231353  21.5377720  11.6695813  57.9680922
  22.1110808  10.5379171  58.4913512  21.6815322  10.8992168  57.9433434
  22.5544858   7.4319641  59.3229088  22.0256330   7.6479274  59.9826394
  23.0769878   8.1255779  59.2430057  22.5533311   7.5662778  59.4084687
  28.0092911  13.0065945  64.6962132  27.1790614  13.2176589  64.8595549
  27.9602163  12.1803000  64.4204416  27.8799647  12.9155552  64.6799498
  14.4444466  11.3282858  58.1236556  13.8601681  11.8332889  58.5302420
  14.0414561  11.1025245  57.3833148  14.2983770  11.3691106  58.0741581
  18.9021680   7.5748510  56.6005476  19.1417684   7.7826493  55.7880819
  19.2237521   6.7706018  56.7094421  18.9858838   7.4862611  56.4966029
  25.2657226  13.6765300  64.8326848  24.8292458  13.6802042  65.5885820
  24.9320142  14.3570799  64.4006426  25.1519846  13.7777756  64.8807681
  28.4001573  10.3946220  63.7246485  29.0618007   9.8336888  63.6242394
  27.7592985   9.8998250  64.0499176  28.4030440  10.2382629  63.7578826
  19.2878380  13.6916351  56.0327409  19.7029529  13.3601375  55.3411904
  18.4570310  13.4585253  55.9047545  19.2266389  13.6087607  55.9118256
  24.6866403  11.4111602  63.4658474  24.9221992  11.5556801  62.6385325
  24.8355967  12.1754010  63.8589988  24.7432207  11.5450656  63.4022078
  26.5156860  10.2513268  61.3028078  26.8465077  10.7840908  60.6968173
  27.0889948  10.3052156  61.9590029  26.6490539  10.3382837  61.3105860
  21.9811770   9.9426910  55.2188610  21.8991933  10.0129098  56.0843597
  22.6191491  10.5056654  55.0272351  22.0631608  10.0365882  55.3178560
  19.0851881   9.9647365  58.2297216  19.8992519  10.2562258  58.1179988
  19.0211022   9.3107227  57.6555509  19.1954620   9.9112559  58.1286054
  15.5962604   8.6571172  57.6944418  15.9807757   8.4378879  58.4460963
  15.3474224   9.4834117  57.8245494  15.6164677   8.7469318  57.8245494
  15.8785847  16.8776048  59.7676788  16.1684145  16.4865029  59.0436015
  16.6089327  17.0592753  60.2082064  16.0292731  16.8469862  59.7259595
  13.8191762  18.8543430  62.8336938  13.5992058  18.5640785  63.6263605
  13.5986284  18.1958385  62.3054850  13.7539356  18.7143139  62.8725847
  23.9799636  12.5477234  60.9598610  24.5457669  13.2070444  60.8757153
  23.3327540  12.8926932  61.4315012  23.9678393  12.6959176  61.0171366
  20.4506214  15.4916018  60.3835689  20.2092890  14.7583879  59.9762754
  20.6307547  16.0402875  59.7302022  20.4413838  15.4638410  60.2265912
  25.1762334  12.5983462  57.7524246  24.7969143  11.8120600  57.7453535
  24.5128580  13.1470319  57.6095890  25.0220809  12.5628286  57.7305043
  18.0009242  16.1496981  61.5913072  18.7659133  15.8806625  61.2695737
  17.8987332  15.6646991  62.3083135  18.0990738  16.0386546  61.6492900
  20.5227903  13.1809165  53.5713022  21.2900888  13.2409290  53.1618873
  20.0759212  12.6089606  53.0869340  20.5701330  13.1045740  53.4390732
  23.4222433  14.8428953  58.0875932  23.5042270  15.6495939  57.7637383
  23.9072175  14.8624912  58.8116705  23.5059591  14.9649615  58.1462831
  19.0580526   9.3923724  61.0567346  19.5996071   8.8894105  61.5205966
  19.3727085   9.3388919  60.2456831  19.1844923   9.3103145  61.0051158
  17.2266975  14.7841075  58.3407374  17.2959796  13.9255614  58.4800374
  18.0055431  15.0012956  58.0126398  17.3519826  14.6893939  58.3124531
  21.6174463  17.2078777  62.5543867  21.2254255  16.9045492  61.8366733
  21.7727535  18.0447867  62.3648821  21.5828053  17.2862613  62.4200364
  21.7814138  13.7728766  62.4949898  21.4228793  13.9443408  63.2713930
  21.2952849  14.2341971  61.9377896  21.6572835  13.8667737  62.5275167
  16.5702503   9.4527931  55.0350132  16.8595028  10.2292813  55.3093706
  16.6574302   8.9416662  55.7364631  16.6256759   9.4919849  55.1792630
  22.3864768  16.6114269  65.9873901  22.1884457  17.1005084  65.2930113
  21.7652479  16.8155511  66.5658035  22.2652333  16.7130808  65.9697125
  21.3634122   4.8461194  59.2903819  20.8357141   4.9289938  58.6009528
  21.8229830   5.5879066  59.2868463  21.3535973   4.9681857  59.1878514
  20.9171205  13.4164758  58.4213476  21.6405404  13.8822871  58.2778049
  20.4771796  13.4838367  57.6711073  20.9586897  13.4948594  58.2898257
  21.1775054  17.4785463  58.5811537  20.4604364  17.3046325  58.1158774
  21.8281792  17.2438035  58.0487023  21.1676905  17.4181255  58.4340755
  16.4588216  18.7147221  65.0101685  16.0448615  18.0521351  64.6205527
  17.1435590  18.8625080  64.4897379  16.4986588  18.6387879  64.8758182
  19.8253510  17.8737307  65.7625301  19.4269794  17.9839577  64.9946122
  19.2104730  18.0819373  66.3451861  19.6752400  17.9210875  65.7356601
  27.5595353  12.4489273  59.1468392  27.9428959  13.1980629  59.3766489
  26.7639466  12.6955093  58.8880381  27.4989135  12.5958967  59.1425966
  16.3710645   5.1208705  56.7228771  16.7509609   5.1388334  55.9379886
  15.6303241   5.5662694  56.6019618  16.3179482   5.1890480  56.5892339
  17.1695399  11.9586211  58.1137561  16.3606721  11.6352885  58.0670871
  17.6770308  11.2519433  58.0465810  17.1245066  11.8067528  58.0967855
  37.0513129  23.0260208  61.2398753  37.0207133  23.8804845  61.4117022
  37.6494477  22.7255501  61.7984897  37.1350286  23.1076705  61.3473555
  30.2512813  22.1135859  65.9951683  29.3950709  22.2744358  66.0460800
  30.2980467  21.2427923  66.0156744  30.1311925  22.0086661  66.0057749
  24.6353953  31.6498577  61.7588915  23.8836853  31.2714115  61.5304960
  25.0839965  31.6817011  61.0107725  24.5903620  31.5984184  61.6146417
  33.5606530  28.3822385  75.6012140  34.2673297  27.8874416  75.7299074
  33.7494465  28.8231466  74.8714798  33.6934436  28.3740735  75.5121185
  30.0878913  32.0723947  57.1874462  29.7530281  32.7500868  56.7518684
  30.6005783  31.6829258  56.5991334  30.1144494  32.1148525  57.0361254
  29.6283204  34.0238215  63.1285574  30.0122584  34.5925114  62.5890349
  29.5642345  33.2987726  62.6491390  29.6756631  34.0013679  62.9779436
  33.0964634  24.1727903  68.6383335  33.6420594  24.8512990  68.6977305
  33.0381511  24.0315364  67.7784917  33.1680549  24.2519905  68.5195396
  26.2138709  31.6616969  64.0251688  26.3149072  30.8517323  64.3348815
  25.6180455  31.5673916  63.3951366  26.1411248  31.5281997  63.9777926
  34.8729703  25.6012510  59.5117063  34.7569229  26.3520196  59.9409201
  35.6685590  25.3436464  59.7613150  34.9734292  25.6747357  59.6121155
  26.0539449  36.5794558  65.4266544  26.6976904  37.0207723  65.8162702
  26.3795704  35.7747985  65.3396802  26.1971278  36.5259753  65.4712021
  19.4103754  27.6837256  63.6504021  19.1753938  26.8504908  63.5436290
  19.5489394  27.9641922  62.8365222  19.3959416  27.6020759  63.5146376
  21.7093841  19.8522987  66.5488329  21.0898873  19.2615634  66.3798344
  21.6077705  20.4434422  65.9152652  21.6031517  19.8527069  66.4293318
  26.7560029  29.5906533  60.7986405  27.0775870  30.1311741  60.1947713
  27.4032125  29.0203305  60.9308695  26.8986084  29.5865708  60.7293441
  28.8061737  21.5922528  60.8820792  29.5041901  21.7710656  61.3742255
  29.1214069  21.0692868  60.2591181  28.9557074  21.5416300  60.8622802
  21.4362974  23.3975268  68.7931898  21.3121671  23.9837714  69.4281717
  22.0881259  22.9035464  69.0944173  21.5136623  23.4114073  68.9317827
  28.9949672  27.9792973  60.8700583  29.4343308  27.3710074  61.3155356
  28.8454335  27.6000347  60.0986048  29.0371138  27.8331444  60.8219751
  26.4621315  26.5736985  68.0719409  27.1070318  26.0809428  67.7530357
  26.7023092  26.7161772  68.8985487  26.5931900  26.5214427  68.1468942
  29.0007406  29.4191891  67.7226302  29.2830649  28.6243297  67.5013057
  29.7293567  29.8972478  67.7431363  29.1496970  29.3726488  67.6929317
  26.9788600  16.9614925  64.9642067  26.6491930  17.4126069  64.2945765
  26.3033602  16.8831088  65.5115073  26.8299037  17.0166060  64.9465290
  32.5959009  26.3320155  57.8231353  32.5110304  27.1881121  57.9680922
  33.0843392  26.0564479  58.4913512  32.6547906  26.4177476  57.9433434
  34.1865008  12.9500448  63.2091677  33.8718449  13.6403926  63.6412100
  33.6691950  12.8945230  62.5077178  34.0629478  13.0435336  63.1688626
  33.5277442  22.9504949  59.3229088  32.9988913  23.1664582  59.9826394
  34.0502462  23.6441087  59.2430057  33.5265895  23.0848086  59.4084687
  38.9825495  28.5251253  64.6962132  38.1523198  28.7361897  64.8595549
  38.9334747  27.6988308  64.4204416  38.8532230  28.4340860  64.6799498
  25.4177050  26.8468166  58.1236556  24.8334265  27.3518197  58.5302420
  25.0147145  26.6210552  57.3833148  25.2716353  26.8876414  58.0741581
  20.9721078  32.5622927  64.9260227  20.4888656  33.2873416  64.9019811
  21.7844396  32.8599057  65.0370385  21.0211826  32.7125280  64.9387507
  27.0435232  31.3555107  67.5310042  26.5262174  30.9962522  66.9271350
  27.7409624  30.8317282  67.5416108  27.0700813  31.2252795  67.4440300
  30.6998824  31.8049921  73.4926215  30.7882170  31.6176062  74.3404425
  31.1288537  31.1587351  73.0931062  30.7760927  31.6812929  73.5597966
  28.2669284  31.0881081  72.4743877  27.7040119  30.6753691  72.9983538
  29.0290308  31.0133987  72.8937020  28.2963733  31.0158482  72.6136877
  29.8754264  23.0933818  56.6005476  30.1150268  23.3011801  55.7880819
  30.1970105  22.2891326  56.7094421  29.9591422  23.0047919  56.4966029
  25.1844554  15.0227213  60.4465014  25.9390522  15.3905530  60.2082065
  25.0072089  15.3966768  61.2144194  25.2699033  15.1325401  60.5249903
  23.8265276  33.0779103  65.0780507  24.5285855  32.5631092  65.1353264
  23.7462759  33.4053254  65.8827382  23.9189036  33.0493329  65.2053299
  38.4779453  21.1721654  68.4912554  37.6407874  21.2423841  68.7260148
  38.4467684  21.1746149  67.6186856  38.3497735  21.1831881  68.3972102
  23.5401619  17.4297532  57.1443127  23.3577192  17.6469413  56.3184120
  24.4027232  17.5436545  57.2001742  23.6406208  17.4787430  57.0297614
  23.1516051  29.2685455  64.5866115  23.9904950  29.5008387  64.6339877
  23.1827820  28.3989766  64.5173151  23.2797769  29.1742401  64.5830760
  23.7768754  29.6886330  68.8879421  24.3166979  29.5457461  69.5582793
  23.0938700  30.0883081  69.2563447  23.7560908  29.7266001  69.0413842
  29.2201338  14.4323943  60.1792151  29.9487499  14.2539898  59.7330307
  29.3096231  15.2742023  60.3899329  29.3408000  14.5307821  60.1445669
  33.2009639  25.3677330  64.0824445  33.9567154  25.8008845  64.1213354
  33.3071963  24.7182100  64.6559081  33.3279809  25.3354814  64.1722471
  30.8118884  31.2358940  76.1569998  31.5959300  31.3489788  76.5225741
  30.6115478  30.4100078  76.3528684  30.8984909  31.1305660  76.2404384
  19.1805899  25.9086621  69.0413842  18.9144314  25.0925737  69.2004833
  19.1944463  25.9539776  68.1709358  19.1430621  25.7943525  68.9367324
  36.1587293  16.2364435  67.0756276  36.8013201  16.3062540  67.6618191
  36.4110314  15.5693658  66.5735818  36.2909425  16.1490784  67.0883555
  23.0863646  20.7071705  55.6565600  22.3721823  20.4209884  56.0688033
  23.5707615  21.0468331  56.2971988  23.0523009  20.7153355  55.8121235
  30.9689277  33.1469043  69.8036454  30.1704523  32.9068543  70.0610323
  31.4175288  33.1983435  70.5503502  30.9163888  33.1191434  69.9521378
  39.3734156  25.9131528  63.7246485  40.0350590  25.3522196  63.6242394
  38.7325568  25.4183558  64.0499176  39.3763024  25.7567937  63.7578826
  30.2610964  29.2101659  56.0327409  30.6762112  28.8786683  55.3411904
  29.4302894  28.9770561  55.9047545  30.1998973  29.1272915  55.9118256
  19.5899313  26.6945400  66.3225587  19.4074886  26.6692286  65.4697879
  20.3248982  27.1644338  66.3614495  19.6713377  26.7606762  66.2023505
  35.6598987  26.9296910  63.4658474  35.8954576  27.0742109  62.6385325
  35.8088550  27.6939318  63.8589988  35.7164790  27.0635964  63.4022078
  37.4889444  25.7698576  61.3028078  37.8197661  26.3026216  60.6968173
  38.0622532  25.8237464  61.9590029  37.6223123  25.8568145  61.3105860
  32.7021333  23.6163479  61.9851658  32.7968187  24.3552773  62.4391284
  32.0780176  23.1880954  62.4186223  32.6230363  23.6624799  62.1159806
  30.9573807  26.7949691  72.6341939  31.5312668  26.1576935  72.7890503
  30.8788610  26.7953774  71.7651597  31.0307041  26.7014803  72.5288350
  19.5570223  23.5738901  66.4724653  20.1343726  23.4375351  67.1116898
  18.8584285  23.1174685  66.7270237  19.5391244  23.4861167  66.6046943
  32.9544354  25.4612218  55.2188610  32.8724517  25.5314405  56.0843597
  33.5924074  26.0241962  55.0272351  33.0364191  25.5551189  55.3178560
  26.3137525  25.2272956  64.6863136  26.0556769  24.3944691  64.6594436
  26.3686008  25.4530569  63.8455637  26.2837303  25.1370728  64.5583273
  31.3938575  17.3301407  64.7867229  30.6894902  16.8410592  64.9451148
  31.4423550  17.3423881  63.9155673  31.2968627  17.2591055  64.6806569
  25.2872237  22.7810719  65.1728031  24.7121829  22.9402887  65.8091992
  24.9107914  22.1446128  64.7096482  25.1475050  22.7108532  65.1982590
  28.9545526  21.2534068  70.0320410  28.5659959  20.8288286  69.3772601
  28.2900224  21.5016218  70.5397436  28.7992454  21.2272789  70.0108277
  38.5968795  21.0109073  62.8068240  38.3405360  20.1989014  62.6166122
  39.4398109  21.0186640  62.5798427  38.6834820  20.8921070  62.7453057
  15.0329056  22.4250794  63.1872472  15.1189308  22.0482662  63.9686002
  15.6604854  22.0511239  62.7092430  15.1385607  22.3136276  63.2317949
  32.7771888  14.9508697  67.5444394  33.1582399  14.2686868  67.9312268
  31.9735172  14.6618299  67.3620058  32.7148349  14.8075745  67.5748450
  30.0584464  25.4832673  58.2297216  30.8725103  25.7747565  58.1179988
  29.9943605  24.8292535  57.6555509  30.1687203  25.4297867  58.1286054
  36.2793954  28.1658669  72.6426792  36.0432592  27.3346734  72.5238853
  36.9237183  28.1144276  73.2281636  36.3388625  28.0356357  72.7112686
  25.9292372  28.9554190  63.3569529  26.5666319  28.7165938  63.9021322
  26.3547444  29.1591349  62.6222689  26.0868539  28.9505200  63.3286686
  20.6205015  31.1942527  67.2403832  20.6609160  31.4657378  66.4123612
  21.1799539  31.7184435  67.6561620  20.7088361  31.3118282  67.1795721
  26.5695187  24.1756480  57.6944418  26.9540340  23.9564187  58.4460963
  26.3206808  25.0019425  57.8245494  26.5897260  24.2654626  57.8245494
  37.3030375  27.9503118  68.7055087  36.9976192  28.6831174  69.0668402
  36.5836591  27.5441047  68.4247873  37.1517717  27.9984851  68.7168224
  28.3113844  29.4326613  65.0363315  28.3852853  29.2701785  65.8905165
  29.1283351  29.6216802  64.7923796  28.4430203  29.4363355  65.1261340
  43.0032167  24.5896118  68.0323431  42.9356667  24.6092077  67.1626017
  42.9887830  25.4326445  68.2579101  42.9910924  24.7169853  67.9375908
  22.0719601  29.7784476  62.0657758  21.2457719  30.0246213  61.9392037
  22.1331592  29.6996556  62.9319816  21.9593768  29.8029425  62.1746703
  24.2895625  15.8453417  63.0253198  23.4218050  15.9176016  63.0910808
  24.5770829  16.6475495  63.2141174  24.2035373  15.9747564  63.0627965
  26.8518430  32.3961356  59.7676788  27.1416729  32.0050337  59.0436015
  27.5821911  32.5778061  60.2082064  27.0025314  32.3655170  59.7259595
  40.7890784  23.3640504  66.3070025  41.3398706  22.7308573  66.5467117
  40.7734900  23.8955897  66.9985530  40.8675981  23.3489453  66.4448883
  27.4413175  27.1979102  70.8529919  26.9424869  27.9094869  70.9314807
  28.2513400  27.5179768  70.8148081  27.4869282  27.3505950  70.8586487
  24.7924346  34.3728738  62.8336938  24.5724641  34.0826093  63.6263605
  24.5718868  33.7143693  62.3054850  24.7271940  34.2328447  62.8725847
  23.7041293  26.4602055  65.0992640  23.4154542  25.8339526  65.6338367
  24.5724641  26.4022342  65.1657320  23.7901545  26.3589599  65.1883594
  34.4919191  21.6036838  65.4174621  34.1483957  20.8827173  65.7681871
  34.5912233  21.3950689  64.5752980  34.4561234  21.4661041  65.3446302
  26.9592301  35.7458128  61.6167630  27.6116359  35.2134570  61.8458656
  26.2617910  35.3926780  62.0035504  26.9523019  35.6147651  61.7079798
  23.9073566  28.0997306  61.0235005  24.6619534  28.4810345  61.2370467
  23.3144179  28.5508449  61.4781701  23.9310280  28.2226133  61.1217883
  34.9532220  28.0662542  60.9598610  35.5190252  28.7255752  60.8757153
  34.3060123  28.4112240  61.4315012  34.9410976  28.2144483  61.0171366
  25.2271793  29.2705867  66.3975120  24.7052546  29.4106159  67.0826985
  25.6145813  28.5116531  66.5877237  25.2075494  29.1791391  66.5276197
  22.2162977  19.3211676  60.4670075  21.9287773  18.9512946  59.7302022
  22.9033445  19.7906531  60.2053780  22.2751874  19.3358645  60.3185150
  31.4238798  31.0101326  60.3835689  31.1825474  30.2769187  59.9762754
  31.6040131  31.5588183  59.7302022  31.4146422  30.9823718  60.2265912
  26.6538119  26.3009886  61.7956611  26.4580901  26.9084621  61.2016914
  26.8772464  25.6077830  61.3148285  26.6572760  26.2887412  61.6372692
  25.0516649  23.1864624  61.9137479  25.7739300  23.3505782  61.4541285
  24.5724641  23.9074289  61.8076819  25.0880379  23.3162854  61.8303093
  33.0110156  19.5228423  67.2934164  32.1721257  19.5489702  67.0572428
  33.0814523  20.1699158  67.8739511  32.8978550  19.6224549  67.3443281
  22.7024265  25.5922696  71.0191619  23.2145362  25.8706950  70.3700379
  22.4160608  26.3311991  71.3854432  22.7359128  25.7425050  70.9781497
  31.4579434  16.4213800  62.0261780  32.1605787  16.2221548  61.5481739
  31.1923623  15.6489742  62.3330624  31.5226067  16.2776766  62.0007222
  36.8867680  24.7296410  64.5795406  36.8001654  24.8851836  65.4330185
  36.4318160  25.3734485  64.2054811  36.8070937  24.8472165  64.6502513
  19.7891172  20.0992888  61.3155356  19.8907308  20.9019050  61.6436331
  20.5847058  19.8980224  61.0178436  19.9219077  20.1878787  61.3190711
  30.7593496  22.0507157  63.2020966  30.5128210  21.9702908  64.0357755
  31.0878619  21.2660625  63.0083493  30.7714740  21.9233422  63.2968489
  34.6541545  28.7590516  66.9907747  34.5155904  29.4571562  67.4956489
  33.8741543  28.6039173  66.6343929  34.5184772  28.8390683  67.0134021
  32.9919630  25.0586891  73.2430129  32.9867668  24.1866708  73.2472555
  33.6980624  25.2575061  72.7699584  33.0964634  24.9590766  73.1737164
  26.7190523  24.7863875  72.6143949  26.8633899  25.3665083  71.9787059
  27.0666172  25.1640172  73.3193803  26.7917985  24.9284579  72.6242944
  28.8910441  23.9854044  70.3969080  28.1433755  24.1785058  69.9917358
  29.0451966  23.1599263  70.1593202  28.8032868  23.8919155  70.3014486
  25.7918278  32.9766647  69.4804976  25.9407842  32.4169563  68.8278380
  26.5718280  33.0558649  69.8637494  25.9292372  32.9052213  69.4401925
  36.1494918  28.1168770  57.7524246  35.7701726  27.3305908  57.7453535
  35.4861163  28.6655627  57.6095890  35.9953392  28.0813594  57.7305043
  28.3171579  33.1481290  70.7589466  28.2415250  32.4790101  71.3140255
  28.2461438  33.8499078  71.2730133  28.2952186  33.1526197  70.9166314
  33.6039544  11.0594470  65.1558327  33.7223112  11.5170933  64.4225630
  33.4301719  10.2539731  64.8694545  33.5958715  11.0088242  65.0059261
  28.9741826  31.6682289  61.5913072  29.7391717  31.3991933  61.2695737
  28.8719916  31.1832299  62.3083135  29.0723321  31.5571854  61.6492900
  27.0094596  19.8706698  68.1306308  26.2190670  19.6898158  68.4523644
  27.4055218  19.0933651  68.1136603  26.9511472  19.7294159  68.1758856
  31.4960486  28.6994473  53.5713022  32.2633471  28.7594598  53.1618873
  31.0491795  28.1274914  53.0869340  31.5433914  28.6231048  53.4390732
  32.3938282  27.5049129  65.8565754  31.7183284  27.2734361  66.3579141
  32.4030658  26.8970311  65.2307859  32.2956786  27.3808054  65.8381906
  29.5232426  22.3466957  72.6129807  29.4591567  23.2076914  72.4849944
  29.6629614  22.0298951  71.8125358  29.5347896  22.4267124  72.4758020
  34.3955016  30.3614261  58.0875932  34.4774854  31.1681247  57.7637383
  34.8804759  30.3810220  58.8116705  34.4792174  30.4834923  58.1462831
  28.2051520  25.0399097  66.7546010  27.7813769  25.2403596  66.0185028
  28.0296375  24.1927945  66.8670310  28.1162400  24.9447878  66.6619700
  27.7063213  36.5549610  69.2167467  28.1959144  35.8560399  69.0343132
  27.1347445  36.2573480  69.8043525  27.6947743  36.4075833  69.2768508
  23.4933965  25.5351148  62.1873982  23.6498584  25.4697951  63.0429974
  23.8334558  26.3099701  61.9752662  23.5667200  25.6400346  62.2828577
  30.0313109  24.9109032  61.0567346  30.5728655  24.4079413  61.5205966
  30.3459668  24.8574226  60.2456831  30.1577506  24.8288453  61.0051158
  33.9030217  29.1211679  78.1694258  34.7165082  28.8496828  78.3299390
  33.7425183  28.8219219  77.3654454  34.0000165  29.0366605  78.0739664
  28.1999559  30.3026383  58.3407374  28.2692379  29.4440922  58.4800374
  28.9788014  30.5198264  58.0126398  28.3252409  30.2079247  58.3124531
  31.1802379  19.8045336  71.1089646  31.3944348  19.1656251  70.5553000
  30.5636278  20.2491160  70.6797508  31.1207708  19.7755480  70.9640077
  32.5907047  32.7264085  62.5543867  32.1986838  32.4230800  61.8366733
  32.7460119  33.5633175  62.3648821  32.5560636  32.8047921  62.4200364
  20.0668226  22.7186099  62.5034750  20.4467191  23.1370644  61.8395017
  19.4923591  23.2999554  62.8103593  20.0379551  22.8663958  62.4511491
  33.3441467  21.4134402  72.0472953  32.5318148  21.1060292  72.1286126
  33.8031401  20.9333402  72.6115665  33.2921851  21.2970894  72.1427547
  32.7546721  29.2914073  62.4949898  32.3961376  29.4628716  63.2713930
  32.2685432  29.7527279  61.9377896  32.6305418  29.3853045  62.5275167
  30.5717107  12.9145272  66.0976989  29.7010665  12.8883993  66.0510298
  30.8257449  12.7422464  65.2802835  30.4810667  12.8855416  65.9697126
  27.5435087  24.9713239  55.0350132  27.8327612  25.7478121  55.3093706
  27.6306886  24.4601970  55.7364631  27.5989343  25.0105157  55.1792630
  33.9151461  30.1817969  73.4417098  34.5531181  29.6878165  73.1079554
  33.2725552  30.1095370  72.8569325  33.9145687  30.0976978  73.3059453
  35.6408461  22.0307115  68.0083014  35.2136069  21.9433464  67.2531114
  35.0034514  22.1384891  68.5937858  35.4838068  22.0339775  67.9828456
  33.9705717  30.8737778  70.0822455  34.7598095  30.5226842  70.2024537
  34.1449315  31.6874166  69.8199089  34.1125999  30.9423635  70.0610323
  23.7099028  24.2846503  67.1350244  22.8687034  24.1850378  67.3429138
  23.9189036  25.0541984  67.4864565  23.6163720  24.3838547  67.2177559
  21.1874595  21.9066040  64.9634995  20.7931292  21.9809052  64.1885104
  20.6314712  22.2923987  65.5143356  21.0477407  21.9747815  64.9302654
  32.8239541  14.8847334  64.6438874  33.0289135  14.8169642  65.4895871
  32.4965965  15.6906156  64.5760051  32.8054789  14.9933275  64.7598529
  27.5215693  22.2127903  66.3847842  27.2178830  21.6583891  66.9858249
  26.8195113  22.3920113  65.8975876  27.3731902  22.1572685  66.4017547
  26.5781790  19.5228422  60.9492543  26.8541524  18.8047335  60.5370111
  27.1780459  20.1213342  60.7413649  26.7075054  19.5048793  60.8573305
  25.5834044  29.4277623  71.0919939  25.4754399  29.4379685  71.9581997
  25.7929825  30.2532404  70.9024893  25.5984155  29.5518698  71.1924031
  36.0773229  15.4379099  64.1241639  35.4647543  15.9249501  64.5095371
  36.1737404  14.7622590  64.6679290  36.0011127  15.4097407  64.2620497
  30.0792310  17.1941940  59.2239138  30.5336057  17.3652500  59.9486983
  30.5532356  16.5810050  58.8236914  30.2160630  17.1292825  59.2712900
  23.6007836  26.6790266  68.5541877  23.0095769  27.3199764  68.5244892
  24.3628859  27.1027883  68.5273176  23.6256096  26.8366104  68.5457024
  39.7198257  26.5096035  69.5519155  39.7781381  26.9582684  70.2979132
  39.0864725  26.9194848  69.1149235  39.6349552  26.6369770  69.5971703
  33.3597352  32.1299577  65.9873901  33.1617041  32.6190392  65.2930113
  32.7385063  32.3340819  66.5658035  33.2384916  32.2316116  65.9697125
  27.4205330  23.8984474  60.3284146  28.1647375  24.2858750  60.5667096
  27.5666026  23.0541900  60.4924633  27.5515915  23.8314947  60.3878115
  29.3384906  15.6934733  65.3616007  28.4920951  15.8657541  65.2357357
  29.3356038  14.8884077  65.6981835  29.2132056  15.5995762  65.3927134
  30.4083206  19.4709947  66.2278065  29.9343160  18.9451710  66.7383376
  30.7801342  18.9239420  65.6592927  30.3933095  19.3125944  66.2193212
  36.6719937  24.5312323  67.6384845  36.4318160  23.6918738  67.6427272
  37.1511944  24.6112490  68.3625619  36.7072120  24.4193723  67.7459648
  32.3366706  20.3646502  59.2903819  31.8089724  20.4475246  58.6009528
  32.7962414  21.1064374  59.2868463  32.3268556  20.4867164  59.1878514
  38.6725124  21.3113780  65.5914105  38.4334894  21.2709614  64.7534889
  38.8359025  22.1584932  65.7179826  38.6615427  21.4305865  65.4867587
  35.2771154  25.6963730  71.5219150  36.0005353  25.2436256  71.3430170
  35.0121116  25.9768395  70.7391478  35.3452427  25.6714698  71.3797865
  24.1458022  20.2923903  68.2572029  23.5211092  20.3042295  67.6497982
  23.8103617  20.7684078  68.9063269  24.0043514  20.3642420  68.2628597
  24.3299771  18.6349022  54.3144714  23.9812575  19.2868747  54.7776263
  23.8496217  18.6206135  53.5868585  24.2070015  18.7292075  54.2755805
  20.8583698  28.3524363  69.6975793  20.3283622  27.6616802  69.7470768
  21.1308791  28.3434549  68.8688502  20.8208420  28.2491495  69.5823209
  31.8903788  28.9350066  58.4213476  32.6137987  29.4008179  58.2778049
  31.4504379  29.0023675  57.6711073  31.9319480  29.0133902  58.2898257
  31.0589943  25.7947608  69.6714165  30.4446936  25.2505658  69.9662800
  31.5757228  25.2811844  69.1919981  31.0445606  25.6384017  69.6438393
  30.2986240  26.8651878  67.4058463  29.8713849  26.2401597  66.9723899
  30.2911185  26.5826800  68.2317471  30.2345382  26.7304659  67.4638291
  28.6271950  17.7420632  67.6200997  28.6514437  17.2080745  66.9313777
  28.8783424  17.2337941  68.2826588  28.6681869  17.5881536  67.6165642
  16.1379540  25.0252127  67.0544141  16.0322989  24.9798972  66.1896226
  15.3879760  25.3705908  67.3358426  16.0115143  25.0693036  66.9681471
  24.9073272  16.4691451  67.0006742  24.9471644  16.9700657  67.7141449
  24.0822937  16.5601844  66.7312665  24.7912798  16.5573267  67.0657280
  26.3287636  22.9851961  69.2980641  25.4979565  23.1525778  69.0915889
  26.2739153  22.6087911  70.0829526  26.1977051  22.9541692  69.3829169
  24.7023680  21.2607552  59.8270758  24.8426641  21.7580016  60.5299400
  25.2006212  20.5593846  59.9684972  24.7964761  21.2309531  59.9522337
  24.7323902  22.1274663  57.1563335  25.3668981  22.7235088  57.0912797
  24.8149513  21.8278121  57.9709205  24.8380453  22.1715571  57.2666422
  37.7106468  24.6590140  70.0249699  38.3024308  25.2987391  70.0567898
  38.1465462  23.9613177  70.3141766  37.8624899  24.6508491  70.0730532
  26.3102885  18.0588638  57.1308777  26.6318726  17.5791721  56.4768040
  26.5729829  18.8688285  56.9399589  26.3968910  18.1078536  57.0064269
  29.5399858  29.0807513  70.6507593  29.0324949  29.6343360  71.0948224
  29.2426504  29.1415803  69.8326368  29.4204743  29.1713824  70.5956050
  31.7062040  17.4460832  69.4932256  32.1317111  16.9933359  68.8815783
  31.0919033  16.8920903  69.7697044  31.6790685  17.2974809  69.4437282
  21.2376890  24.3242504  60.4252881  21.7469119  24.9207011  60.8064187
  21.7111162  24.0568477  59.7429301  21.3820266  24.3728319  60.3807404
  32.1507638  32.9970771  58.5811537  31.4336948  32.8231633  58.1158774
  32.8014376  32.7623343  58.0487023  32.1409488  32.9366563  58.4340755
  30.1456263  13.9175932  62.9022833  29.5024581  13.7673579  63.4707972
  29.8055670  13.6718278  62.1371938  30.0001340  13.8588055  62.8725849
  34.7355609  21.8735359  62.3252842  34.0646799  22.4165061  62.1965908
  35.4295359  22.3430214  62.0834537  34.7384477  22.0233630  62.2708370
  28.7842343  34.0132071  67.5564600  28.5607997  33.2550900  67.9248627
  28.2952186  34.0430092  66.8345040  28.6785792  33.9054296  67.5041341
  34.8983737  18.3291243  65.2343215  35.2511347  17.9020966  65.9089014
  34.0398538  18.2442086  65.3644292  34.8233181  18.2535983  65.3538226
  23.5967422  20.9598762  63.2926062  22.8779411  21.3762895  63.5598925
  23.9679784  21.5253001  62.7417700  23.5459353  21.1048044  63.2508869
  32.8967002  21.5926611  69.1828057  32.8764930  21.4109906  70.0362836
  32.9446203  22.4638630  69.1587641  32.9001643  21.6943150  69.3051352
  30.8413332  28.1813803  75.1076534  30.8009187  27.5363480  74.5221690
  31.6536651  28.1250421  75.4201946  30.9556486  28.0772770  75.0673483
  27.4320800  34.2332529  65.0101685  27.0181198  33.5706659  64.6205527
  28.1168174  34.3810388  64.4897379  27.4719172  34.1573187  64.8758182
  30.7986094  33.3922614  65.7625301  30.4002377  33.5024885  64.9946122
  30.1837314  33.6004681  66.3451861  30.6484983  33.4396182  65.7356601
  29.3713996  19.9996762  58.6299441  28.7778835  20.3213759  58.0784008
  29.4089274  19.1537858  58.4220547  29.2888385  19.9221091  58.5182212
  36.3307797  13.4509655  66.1627528  35.8238661  12.7438794  66.0948705
  37.1275230  13.1202843  66.2928604  36.3735036  13.2982806  66.1726523
  32.2471813  19.9576267  62.0601191  32.0185506  19.9808968  61.2179550
  32.5069889  19.1333734  62.1796202  32.2518001  19.8392347  61.9526389
  25.3016575  18.4952813  63.3555387  25.7773941  18.8569893  62.7205568
  24.8005175  19.1509281  63.6355530  25.2981934  18.6447002  63.3032128
  38.5327937  27.9674581  59.1468392  38.9161542  28.7165937  59.3766489
  37.7372050  28.2140401  58.8880381  38.4721719  28.1144275  59.1425966
  27.3443228  20.6394013  56.7228771  27.7242193  20.6573642  55.9379886
  26.6035824  21.0848002  56.6019618  27.2912066  20.7075788  56.5892339
  34.9728519  18.9476204  62.3104350  34.9722745  18.7924861  63.1688626
  34.7684699  19.7939191  62.2545735  34.9428297  19.0496825  62.4292289
  17.0345790  22.3715989  66.7263166  16.8567551  21.9192598  67.4518082
  16.7464812  23.1742150  66.9101644  16.9658743  22.4238546  66.8606669
  32.6969371  23.6273706  65.9640557  33.1923036  22.9096701  65.9244577
  31.8869147  23.3244504  65.8495044  32.6513264  23.4771352  65.9414282
  28.1427982  27.4771519  58.1137561  27.3339305  27.1538193  58.0670871
  28.6502891  26.7704741  58.0465810  28.0977649  27.3252836  58.0967855
  18.7718260  24.9043712  63.8384925  17.9063779  24.8929403  63.7267697
  18.8717075  24.7173935  64.6856065  18.6592427  24.8749774  63.9473870
  34.7621190  26.3777393  68.6517685  35.1876261  25.8551815  68.0988110
  34.3978110  26.9758231  68.1306308  34.7707792  26.3887620  68.4926695
  24.3975269  34.6741611  67.4115031  24.7121828  35.4877999  67.4192813
  24.8068683  34.2891830  68.0797190  24.5043367  34.7370313  67.5119123
  31.3499789  30.0911658  64.9818843  31.8210967  30.8051920  65.1508828
  31.6859968  29.4910408  65.5178712  31.4694904  30.1083122  65.0851219
  33.4376774  31.7012971  77.1610915  33.5473739  30.9121532  77.5167662
  33.7667670  31.6118907  76.3585253  33.5029179  31.5718824  77.0953306
  31.9873735  29.8829592  71.7446535  31.4394681  29.2587475  71.4766601
  32.4486764  30.0723864  71.0290615  31.9740945  29.8188642  71.5996967
  34.7967600  17.9514946  69.1297728  34.2130589  18.4524153  68.7175295
  35.1171894  17.4444502  68.4962051  34.7580775  17.9506781  68.9756235
  27.3362399  16.8655541  59.4056403  28.1578093  17.0353854  59.1638097
  26.8732050  17.0202802  58.6822700  27.3893561  16.9137274  59.2628047
  21.7388290  28.6214719  67.0593639  22.3433147  28.5810553  66.4307460
  21.5315602  29.4685871  67.0897695  21.7977187  28.7402722  66.9709756
  31.5532062  30.8880665  68.2755877  32.3730436  30.7443631  68.5372172
  31.2726139  31.5126863  68.8172315  31.6328805  30.9591017  68.3943816
  16.9739572  27.6049337  66.9292562  16.8763850  26.7945608  67.2382619
  17.7568442  27.5841130  66.5438831  17.0755708  27.4816427  66.9179425
  41.2245397  37.6321167  65.9951683  40.3683292  37.7929665  66.0460800
  41.2713051  36.7613231  66.0156744  41.1044508  37.5271969  66.0057749
  44.5339113  43.9007693  75.6012140  45.2405881  43.4059724  75.7299074
  44.7227049  44.3416774  74.8714798  44.6667019  43.8926043  75.5121185
  44.0697218  39.6913211  68.6383335  44.6153178  40.3698298  68.6977305
  44.0114094  39.5500672  67.7784917  44.1413132  39.7705213  68.5195396
  37.1871293  47.1802277  64.0251688  37.2881656  46.3702631  64.3348815
  36.5913038  47.0859224  63.3951366  37.1143831  47.0467305  63.9777926
  37.0272032  52.0979866  65.4266544  37.6709488  52.5393030  65.8162702
  37.3528288  51.2933293  65.3396802  37.1703861  52.0445061  65.4712021
  30.3836337  43.2022564  63.6504021  30.1486522  42.3690216  63.5436290
  30.5221978  43.4827230  62.8365222  30.3692000  43.1206067  63.5146376
  32.6826425  35.3708294  66.5488329  32.0631456  34.7800942  66.3798344
  32.5810288  35.9619730  65.9152652  32.5764100  35.3712377  66.4293318
  39.7794320  37.1107836  60.8820792  40.4774485  37.2895964  61.3742255
  40.0946653  36.5878176  60.2591181  39.9289657  37.0601608  60.8622802
  32.4095558  38.9160576  68.7931898  32.2854254  39.5023022  69.4281717
  33.0613842  38.4220772  69.0944173  32.4869207  38.9299381  68.9317827
  37.4353899  42.0922293  68.0719409  38.0802901  41.5994736  67.7530357
  37.6755676  42.2347080  68.8985487  37.5664484  42.0399735  68.1468942
  39.9739990  44.9377199  67.7226302  40.2563233  44.1428605  67.5013057
  40.7026150  45.4157786  67.7431363  40.1229554  44.8911796  67.6929317
  37.9521184  32.4800233  64.9642067  37.6224514  32.9311376  64.2945765
  37.2766186  32.4016396  65.5115073  37.8031620  32.5351368  64.9465290
  45.1597592  28.4685756  63.2091677  44.8451033  29.1589234  63.6412100
  44.6424533  28.4130538  62.5077178  45.0362062  28.5620644  63.1688626
  36.3909633  42.3653473  58.1236556  35.8066848  42.8703505  58.5302420
  35.9879728  42.1395860  57.3833148  36.2448937  42.4061722  58.0741581
  31.9453662  48.0808235  64.9260227  31.4621240  48.8058724  64.9019811
  32.7576980  48.3784365  65.0370385  31.9944410  48.2310588  64.9387507
  38.0167816  46.8740415  67.5310042  37.4994757  46.5147830  66.9271350
  38.7142207  46.3502590  67.5416108  38.0433397  46.7438103  67.4440300
  41.6731408  47.3235229  73.4926215  41.7614754  47.1361370  74.3404425
  42.1021120  46.6772659  73.0931062  41.7493510  47.1998237  73.5597966
  39.2401868  46.6066389  72.4743877  38.6772702  46.1938999  72.9983538
  40.0022891  46.5319295  72.8937020  39.2696316  46.5343790  72.6136877
  36.1577138  30.5412521  60.4465014  36.9123106  30.9090838  60.2082065
  35.9804672  30.9152076  61.2144194  36.2431616  30.6510709  60.5249903
  34.7997859  48.5964411  65.0780507  35.5018438  48.0816400  65.1353264
  34.7195342  48.9238562  65.8827382  34.8921620  48.5678637  65.2053299
  49.4512037  36.6906962  68.4912554  48.6140458  36.7609149  68.7260148
  49.4200268  36.6931457  67.6186856  49.3230319  36.7017189  68.3972102
  35.8476766  38.8339997  74.2060922  36.0197269  38.7245892  75.0546204
  36.3846123  39.4794403  73.9692115  35.9521770  38.9131999  74.2966019
  34.5134203  32.9482840  57.1443127  34.3309776  33.1654721  56.3184120
  35.3759816  33.0621853  57.2001742  34.6138792  32.9972738  57.0297614
  34.1248634  44.7870762  64.5866115  34.9637534  45.0193695  64.6339877
  34.1560404  43.9175074  64.5173151  34.2530352  44.6927709  64.5830760
  34.7501337  45.2071638  68.8879421  35.2899562  45.0642769  69.5582793
  34.0671284  45.6068388  69.2563447  34.7293491  45.2451309  69.0413842
  40.1933922  29.9509251  60.1792151  40.9220082  29.7725206  59.7330307
  40.2828815  30.7927331  60.3899329  40.3140584  30.0493129  60.1445669
  44.1742222  40.8862638  64.0824445  44.9299737  41.3194153  64.1213354
  44.2804547  40.2367408  64.6559081  44.3012393  40.8540122  64.1722471
  47.2122393  44.7135916  64.8326848  46.7757625  44.7172658  65.5885820
  46.8785309  45.3941415  64.4006426  47.0985013  44.8148371  64.8807681
  41.7851467  46.7544248  76.1569998  42.5691884  46.8675096  76.5225741
  41.5848062  45.9285385  76.3528684  41.8717493  46.6490968  76.2404384
  30.1538483  41.4271928  69.0413842  29.8876898  40.6111045  69.2004833
  30.1677047  41.4725084  68.1709358  30.1163205  41.3128833  68.9367324
  47.1319876  31.7549743  67.0756276  47.7745785  31.8247848  67.6618191
  47.3842897  31.0878966  66.5735818  47.2642009  31.6676092  67.0883555
  34.9037089  34.9650307  71.6880850  34.2108886  34.4947286  71.9341582
  35.5197416  34.7388611  72.2622557  34.8921619  34.8617439  71.8090003
  41.9421860  48.6654350  69.8036454  41.1437106  48.4253851  70.0610323
  42.3907872  48.7168743  70.5503502  41.8896472  48.6376742  69.9521378
  30.5631896  42.2130708  66.3225587  30.3807469  42.1877594  65.4697879
  31.2981565  42.6829646  66.3614495  30.6445960  42.2792070  66.2023505
  46.6331570  42.4482218  63.4658474  46.8687160  42.5927417  62.6385325
  46.7821134  43.2124626  63.8589988  46.6897374  42.5821272  63.4022078
  33.6277648  38.9315711  72.8307695  34.3517620  38.9168741  73.3172590
  33.7293784  39.6411066  72.3329663  33.7495857  39.0340414  72.8286482
  41.0022597  42.4114795  77.6956642  40.2095578  42.7258307  77.8809262
  41.1171524  42.6266264  76.8577427  40.9018008  42.4898632  77.5994977
  41.9306390  42.3134999  72.6341939  42.5045252  41.6762243  72.7890503
  41.8521194  42.3139082  71.7651597  42.0039625  42.2200111  72.5288350
  30.5302807  39.0924209  66.4724653  31.1076309  38.9560659  67.1116898
  29.8316868  38.6359993  66.7270237  30.5123828  39.0046475  66.6046943
  37.2870109  40.7458264  64.6863136  37.0289353  39.9129999  64.6594436
  37.3418592  40.9715877  63.8455637  37.2569887  40.6556036  64.5583273
  42.3671159  32.8486715  64.7867229  41.6627486  32.3595900  64.9451148
  42.4156133  32.8609189  63.9155673  42.2701210  32.7776363  64.6806569
  36.2604821  38.2996027  65.1728031  35.6854412  38.4588195  65.8091992
  35.8840497  37.6631436  64.7096482  36.1207633  38.2293840  65.1982590
  39.9278110  36.7719376  70.0320410  39.5392542  36.3473594  69.3772601
  39.2632808  37.0201526  70.5397436  39.7725037  36.7458097  70.0108277
  49.5701379  36.5294381  62.8068240  49.3137943  35.7174322  62.6166122
  50.4130693  36.5371948  62.5798427  49.6567404  36.4106378  62.7453057
  26.0061640  37.9436101  63.1872472  26.0921892  37.5667970  63.9686002
  26.6337437  37.5696547  62.7092430  26.1118191  37.8321584  63.2317949
  43.7504471  30.4694005  67.5444394  44.1314983  29.7872176  67.9312268
  42.9467755  30.1803607  67.3620058  43.6880933  30.3261053  67.5748450
  47.2526538  43.6843977  72.6426792  47.0165175  42.8532042  72.5238853
  47.8969767  43.6329584  73.2281636  47.3121209  43.5541665  72.7112686
  36.9024956  44.4739498  63.3569529  37.5398903  44.2351246  63.9021322
  37.3280028  44.6776657  62.6222689  37.0601122  44.4690508  63.3286686
  31.5937598  46.7127835  67.2403832  31.6341744  46.9842686  66.4123612
  32.1532123  47.2369743  67.6561620  31.6820944  46.8303590  67.1795721
  37.5427771  39.6941788  57.6944418  37.9272924  39.4749495  58.4460963
  37.2939391  40.5204733  57.8245494  37.5629844  39.7839934  57.8245494
  37.7096311  32.9748203  77.4107002  37.3949753  33.7447766  77.1476565
  37.3886244  32.4118459  76.8259229  37.6155231  33.0058472  77.2848352
  48.2762959  43.4688425  68.7055087  47.9708776  44.2016482  69.0668402
  47.5569174  43.0626355  68.4247873  48.1250301  43.5170158  68.7168224
  39.2846428  44.9511921  65.0363315  39.3585436  44.7887093  65.8905165
  40.1015934  45.1402110  64.7923796  39.4162787  44.9548663  65.1261340
  53.9764751  40.1081426  68.0323431  53.9089251  40.1277385  67.1626017
  53.9620413  40.9511753  68.2579101  53.9643507  40.2355161  67.9375908
  33.0452185  45.2969783  62.0657758  32.2190302  45.5431521  61.9392037
  33.1064176  45.2181864  62.9319816  32.9326352  45.3214732  62.1746703
  35.2628208  31.3638724  63.0253198  34.3950634  31.4361324  63.0910808
  35.5503413  32.1660803  63.2141174  35.1767957  31.4932872  63.0627965
  44.3861097  31.5116584  71.3564520  45.1314689  31.3226394  70.9427946
  43.9698402  32.0374822  70.7978377  44.4346071  31.5618729  71.2129094
  51.7623368  38.8825812  66.3070025  52.3131290  38.2493881  66.5467117
  51.7467483  39.4141205  66.9985530  51.8408564  38.8674761  66.4448883
  38.4145759  42.7164410  70.8529919  37.9157453  43.4280177  70.9314807
  39.2245983  43.0365076  70.8148081  38.4601866  42.8691258  70.8586487
  35.7656929  49.8914046  62.8336938  35.5457225  49.6011401  63.6263605
  35.5451451  49.2329001  62.3054850  35.7004523  49.7513755  62.8725847
  34.6773877  41.9787363  65.0992640  34.3887125  41.3524834  65.6338367
  35.5457225  41.9207650  65.1657320  34.7634128  41.8774907  65.1883594
  45.4651774  37.1222146  65.4174621  45.1216540  36.4012481  65.7681871
  45.5644817  36.9135997  64.5752980  45.4293817  36.9846349  65.3446302
  37.9324885  51.2643436  61.6167630  38.5848943  50.7319878  61.8458656
  37.2350494  50.9112088  62.0035504  37.9255603  51.1332959  61.7079798
  34.8806150  43.6182614  61.0235005  35.6352118  43.9995653  61.2370467
  34.2876763  44.0693757  61.4781701  34.9042863  43.7411441  61.1217883
  37.3412817  35.5745454  76.1492217  36.5312593  35.8803234  76.0382059
  37.8187504  36.2951036  76.2644801  37.2916296  35.7260055  76.1499288
  36.2004376  44.7891175  66.3975120  35.6785130  44.9291467  67.0826985
  36.5878397  44.0301839  66.5877237  36.1808077  44.6976699  66.5276197
  33.1895561  34.8396984  60.4670075  32.9020356  34.4698254  59.7302022
  33.8766029  35.3091839  60.2053780  33.2484458  34.8543953  60.3185150
  37.6270702  41.8195194  61.7956611  37.4313485  42.4269929  61.2016914
  37.8505048  41.1263138  61.3148285  37.6305343  41.8072720  61.6372692
  36.0249232  38.7049932  61.9137479  36.7471884  38.8691090  61.4541285
  35.5457225  39.4259597  61.8076819  36.0612963  38.8348162  61.8303093
  43.9842740  35.0413731  67.2934164  43.1453840  35.0675010  67.0572428
  44.0547107  35.6884466  67.8739511  43.8711133  35.1409857  67.3443281
  33.6756849  41.1108004  71.0191619  34.1877946  41.3892258  70.3700379
  33.3893191  41.8497298  71.3854432  33.7091712  41.2610358  70.9781497
  42.4312018  31.9399108  62.0261780  43.1338371  31.7406856  61.5481739
  42.1656207  31.1675050  62.3330624  42.4958650  31.7962074  62.0007222
  47.8600264  40.2481718  64.5795406  47.7734238  40.4037144  65.4330185
  47.4050743  40.8919793  64.2054811  47.7803520  40.3657473  64.6502513
  30.7623755  35.6178196  61.3155356  30.8639892  36.4204358  61.6436331
  31.5579642  35.4165532  61.0178436  30.8951661  35.7064095  61.3190711
  37.1940574  33.2034393  71.0792661  37.0023771  33.2189527  71.9292084
  38.0439170  33.3998067  71.0559316  37.2916296  33.2348744  71.2015956
  31.5787487  35.7325374  69.0576477  31.4372979  34.8809315  69.1820985
  31.8628051  35.7754035  68.2338683  31.5995333  35.6125124  68.9544101
  41.7326080  37.5692465  63.2020966  41.4860794  37.4888216  64.0357755
  42.0611203  36.7845932  63.0083493  41.7447323  37.4418730  63.2968489
  45.6274128  44.2775824  66.9907747  45.4888488  44.9756870  67.4956489
  44.8474126  44.1224480  66.6343929  45.4917355  44.3575991  67.0134021
  43.9652214  40.5772199  73.2430129  43.9600252  39.7052016  73.2472555
  44.6713207  40.7760369  72.7699584  44.0697218  40.4776074  73.1737164
  37.6923107  40.3049183  72.6143949  37.8366483  40.8850391  71.9787059
  38.0398755  40.6825480  73.3193803  37.7650568  40.4469887  72.6242944
  39.8643024  39.5039352  70.3969080  39.1166338  39.6970366  69.9917358
  40.0184549  38.6784571  70.1593202  39.7765452  39.4104463  70.3014486
  36.7650862  48.4951955  69.4804976  36.9140426  47.9354871  68.8278380
  37.5450864  48.5743957  69.8637494  36.9024955  48.4237521  69.4401925
  39.2904162  48.6666598  70.7589466  39.2147834  47.9975409  71.3140255
  39.2194022  49.3684386  71.2730133  39.2684769  48.6711505  70.9166314
  40.1044801  33.3989902  71.2864484  40.5617415  34.1313877  71.4137276
  40.1801130  32.9756368  72.0451740  40.1835771  33.4447140  71.4165561
  32.3477792  33.6455722  72.3753928  31.8119982  33.0336080  72.6914695
  32.4095557  34.2203858  73.0287594  32.2773425  33.6402650  72.5189355
  44.5772127  26.5779778  65.1558327  44.6955695  27.0356241  64.4225630
  44.4034303  25.7725039  64.8694545  44.5691298  26.5273550  65.0059261
  37.9827179  35.3892006  68.1306308  37.1923254  35.2083466  68.4523644
  38.3787802  34.6118959  68.1136603  37.9244055  35.2479467  68.1758856
  43.3670865  43.0234436  65.8565754  42.6915867  42.7919669  66.3579141
  43.3763242  42.4155619  65.2307859  43.2689370  42.8993362  65.8381906
  40.4965009  37.8652265  72.6129807  40.4324151  38.7262222  72.4849944
  40.6362197  37.5484259  71.8125358  40.5080479  37.9452432  72.4758020
  39.1784103  40.5584405  66.7546010  38.7546352  40.7588904  66.0185028
  39.0028959  39.7113253  66.8670310  39.0894984  40.4633186  66.6619700
  38.6795797  52.0734918  69.2167467  39.1691727  51.3745707  69.0343132
  38.1080029  51.7758788  69.8043525  38.6680327  51.9261141  69.2768508
  34.4666548  41.0536456  62.1873982  34.6231167  40.9883259  63.0429974
  34.8067141  41.8285009  61.9752662  34.5399783  41.1585654  62.2828577
  44.8762800  44.6396987  78.1694258  45.6897666  44.3682136  78.3299390
  44.7157767  44.3404527  77.3654454  44.9732749  44.5551913  78.0739664
  42.1534962  35.3230644  71.1089646  42.3676932  34.6841558  70.5553000
  41.5368861  35.7676468  70.6797508  42.0940292  35.2940788  70.9640077
  43.5639630  48.2449393  62.5543867  43.1719422  47.9416108  61.8366733
  43.7192702  49.0818483  62.3648821  43.5293220  48.3233229  62.4200364
  31.0400810  38.2371407  62.5034750  31.4199775  38.6555952  61.8395017
  30.4656175  38.8184862  62.8103593  31.0112135  38.3849265  62.4511491
  44.3174050  36.9319709  72.0472953  43.5050732  36.6245600  72.1286126
  44.7763985  36.4518710  72.6115665  44.2654435  36.8156202  72.1427547
  43.7279305  44.8099381  62.4949898  43.3693960  44.9814024  63.2713930
  43.2418016  45.2712587  61.9377896  43.6038002  44.9038352  62.5275167
  41.5449691  28.4330580  66.0976989  40.6743249  28.4069301  66.0510298
  41.7990032  28.2607772  65.2802835  41.4543251  28.4040724  65.9697126
  41.4127558  38.3379781  76.8301656  41.8827189  38.9621897  77.2169530
  41.4589438  37.6696756  77.3894870  41.4895434  38.3314461  76.9701727
  38.5698831  30.4436808  67.5550459  38.0537320  29.7517000  67.6802038
  38.0092760  31.1107585  67.5013058  38.4105345  30.4400066  67.5656525
  40.6391065  30.9829768  69.3843312  40.2522818  31.0078800  70.1656842
  40.1524002  30.4171447  68.9317828  40.5103574  30.9025519  69.4331216
  44.8884044  45.7003277  73.4417098  45.5263765  45.2063473  73.1079554
  44.2458136  45.6280678  72.8569325  44.8878271  45.6162286  73.3059453
  46.6141044  37.5492423  68.0083014  46.1868652  37.4618772  67.2531114
  45.9767097  37.6570199  68.5937858  46.4570652  37.5525083  67.9828456
  40.3048207  27.8696754  71.6753572  40.9341325  28.4057054  71.3974642
  40.4734069  27.7774113  72.5267137  40.4226001  27.9358116  71.7602100
  40.1062121  32.6567949  73.9479983  40.9335551  32.3853097  74.0038598
  40.1269968  33.4528790  74.3043801  40.2314972  32.7347703  74.0095166
  44.9438301  46.3923086  70.0822455  45.7330679  46.0412150  70.2024537
  45.1181899  47.2059474  69.8199089  45.0858583  46.4608943  70.0610323
  34.6831611  39.8031811  67.1350244  33.8419618  39.7035686  67.3429138
  34.8921619  40.5727292  67.4864565  34.5896304  39.9023855  67.2177559
  32.1607178  37.4251348  64.9634995  31.7663876  37.4994360  64.1885104
  31.6047295  37.8109295  65.5143356  32.0209991  37.4933123  64.9302654
  43.7972125  30.4032642  64.6438874  44.0021718  30.3354950  65.4895871
  43.4698549  31.2091464  64.5760051  43.7787373  30.5118583  64.7598529
  38.4948276  37.7313211  66.3847842  38.1911414  37.1769199  66.9858249
  37.7927697  37.9105421  65.8975876  38.3464486  37.6757993  66.4017547
  37.5514373  35.0413730  60.9492543  37.8274108  34.3232643  60.5370111
  38.1513043  35.6398650  60.7413649  37.6807638  35.0234101  60.8573305
  36.5566627  44.9462931  71.0919939  36.4486982  44.9564993  71.9581997
  36.7662409  45.7717712  70.9024893  36.5716738  45.0704006  71.1924031
  47.0505813  30.9564407  64.1241639  46.4380126  31.4434809  64.5095371
  47.1469988  30.2807897  64.6679290  46.9743710  30.9282715  64.2620497
  41.0524894  32.7127248  59.2239138  41.5068640  32.8837808  59.9486983
  41.5264940  32.0995358  58.8236914  41.1893214  32.6478133  59.2712900
  34.5740419  42.1975574  68.5541877  33.9828352  42.8385072  68.5244892
  35.3361443  42.6213191  68.5273176  34.5988680  42.3551412  68.5457024
  34.9701042  33.3577571  69.2209894  35.4302524  33.4316501  69.9585018
  35.0157149  34.1558825  68.8709716  35.0451597  33.4871718  69.2782651
  36.6184392  34.0244266  73.7881922  36.2269957  33.3777613  74.2237699
  36.7870254  34.6155702  74.4076177  36.5855302  34.0158534  73.9444628
  50.6930841  42.0281343  69.5519155  50.7513964  42.4767992  70.2979132
  50.0597308  42.4380156  69.1149235  50.6082136  42.1555078  69.5971703
  44.3329935  47.6484885  65.9873901  44.1349624  48.1375700  65.2930113
  43.7117646  47.8526127  66.5658035  44.2117500  47.7501424  65.9697125
  38.3937914  39.4169782  60.3284146  39.1379959  39.8044058  60.5667096
  38.5398610  38.5727207  60.4924633  38.5248499  39.3500255  60.3878115
  40.3117489  31.2120041  65.3616007  39.4653534  31.3842849  65.2357357
  40.3088622  30.4069385  65.6981835  40.1864639  31.1181070  65.3927134
  41.3815790  34.9895255  66.2278065  40.9075744  34.4637017  66.7383376
  41.7533925  34.4424728  65.6592927  41.3665679  34.8311252  66.2193212
  31.7588820  36.9866762  71.5961611  32.6214433  36.8862471  71.5098941
  31.4280603  36.4061471  71.0347183  31.8374016  36.8858389  71.5007017
  47.6452520  40.0497631  67.6384845  47.4050743  39.2104046  67.6427272
  48.1244527  40.1297798  68.3625619  47.6804704  39.9379031  67.7459648
  49.6457707  36.8299088  65.5914105  49.4067477  36.7894922  64.7534889
  49.8091609  37.6770240  65.7179826  49.6348011  36.9491173  65.4867587
  46.2503737  41.2149038  71.5219150  46.9737936  40.7621564  71.3430170
  45.9853700  41.4953703  70.7391478  46.3185011  41.1900006  71.3797865
  35.1190606  35.8109211  68.2572029  34.4943676  35.8227603  67.6497982
  34.7836201  36.2869386  68.9063269  34.9776098  35.8827728  68.2628597
  31.8316281  43.8709671  69.6975793  31.3016206  43.1802110  69.7470768
  32.1041375  43.8619857  68.8688502  31.7941004  43.7676803  69.5823209
  42.0322527  41.3132916  69.6714165  41.4179520  40.7690966  69.9662800
  42.5489812  40.7997152  69.1919981  42.0178189  41.1569325  69.6438393
  41.2718824  42.3837186  67.4058463  40.8446432  41.7586904  66.9723899
  41.2643768  42.1012108  68.2317471  41.2077965  42.2489966  67.4638291
  34.3881351  37.4202359  70.4746897  34.5474838  36.6645683  70.8798619
  34.2074245  37.9693298  71.1287635  34.3846710  37.3896173  70.6309603
  42.3301654  29.5863594  71.0297687  41.8342215  29.7827269  70.3389254
  43.0870716  29.9856263  70.8586489  42.3688479  29.6741328  70.9017824
  39.6004534  33.2605940  67.6200997  39.6247021  32.7266053  66.9313777
  39.8516007  32.7523249  68.2826588  39.6414452  33.1066844  67.6165642
  27.1112124  40.5437435  67.0544141  27.0055573  40.4984280  66.1896226
  26.3612344  40.8891216  67.3358426  26.9847726  40.5878344  66.9681471
  35.8805856  31.9876759  67.0006742  35.9204228  32.4885965  67.7141449
  35.0555521  32.0787152  66.7312665  35.7645382  32.0758575  67.0657280
  38.0635469  41.5537499  75.1027036  37.2131099  41.6909213  75.2384681
  38.2263597  40.8201277  75.5474738  37.9619332  41.4651600  75.1882636
  37.3020219  38.5037268  69.2980641  36.4712149  38.6711086  69.0915889
  37.2471737  38.1273219  70.0829526  37.1709634  38.4727000  69.3829169
  35.1104003  31.9946161  74.9337051  35.7356706  31.4508294  75.2066484
  34.6554483  31.5141079  74.3644842  35.1352263  31.8435643  74.8898645
  35.6756263  36.7792860  59.8270758  35.8159224  37.2765324  60.5299400
  36.1738796  36.0779154  59.9684972  35.7697344  36.7494839  59.9522337
  35.7056486  37.6459971  57.1563335  36.3401565  38.2420396  57.0912797
  35.7882096  37.3463429  57.9709205  35.8113037  37.6900879  57.2666422
  48.6839051  40.1775448  70.0249699  49.2756892  40.8172699  70.0567898
  49.1198046  39.4798485  70.3141766  48.8357483  40.1693799  70.0730532
  37.2835468  33.5773946  57.1308777  37.6051309  33.0977029  56.4768040
  37.5462412  34.3873592  56.9399589  37.3701494  33.6263844  57.0064269
  40.5132441  44.5992821  70.6507593  40.0057532  45.1528668  71.0948224
  40.2159087  44.6601111  69.8326368  40.3937326  44.6899132  70.5956050
  42.6794623  32.9646140  69.4932256  43.1049695  32.5118667  68.8815783
  42.0651617  32.4106211  69.7697044  42.6523269  32.8160117  69.4437282
  32.2109473  39.8427812  60.4252881  32.7201703  40.4392319  60.8064187
  32.6843746  39.5753785  59.7429301  32.3552849  39.8913627  60.3807404
  41.1188846  29.4361240  62.9022833  40.4757164  29.2858887  63.4707972
  40.7788253  29.1903585  62.1371938  40.9733924  29.3773363  62.8725849
  39.7574926  49.5317379  67.5564600  39.5340581  48.7736208  67.9248627
  39.2684770  49.5615400  66.8345040  39.6518375  49.4239604  67.5041341
  45.8716320  33.8476551  65.2343215  46.2243930  33.4206274  65.9089014
  45.0131122  33.7627394  65.3644292  45.7965765  33.7721291  65.3538226
  34.5700005  36.4784070  63.2926062  33.8511994  36.8948203  63.5598925
  34.9412367  37.0438309  62.7417700  34.5191937  36.6233352  63.2508869
  43.8699586  37.1111919  69.1828057  43.8497513  36.9295214  70.0362836
  43.9178787  37.9823938  69.1587641  43.8734227  37.2128457  69.3051352
  41.8145916  43.6999111  75.1076534  41.7741771  43.0548788  74.5221690
  42.6269234  43.6435729  75.4201946  41.9289069  43.5958078  75.0673483
  38.4053383  49.7517837  65.0101685  37.9913782  49.0891967  64.6205527
  39.0900758  49.8995696  64.4897379  38.4451755  49.6758495  64.8758182
  41.7718678  48.9107922  65.7625301  41.3734961  49.0210193  64.9946122
  41.1569897  49.1189989  66.3451861  41.6217567  48.9581490  65.7356601
  40.3446580  35.5182070  58.6299441  39.7511419  35.8399067  58.0784008
  40.3821857  34.6723166  58.4220547  40.2620969  35.4406398  58.5182212
  47.3040380  28.9694962  66.1627528  46.7971245  28.2624102  66.0948705
  48.1007814  28.6388151  66.2928604  47.3467619  28.8168114  66.1726523
  37.5023625  37.3296048  71.6626292  36.9902528  36.7217231  72.0211323
  37.3303121  38.0452640  72.1300267  37.4013262  37.3459347  71.7842515
  32.3489339  35.7733623  74.3128653  32.1791930  36.4334998  73.7676860
  31.9055289  35.9840184  75.0341143  32.2588673  35.9019605  74.3390283
  36.2749159  34.0138121  63.3555387  36.7506525  34.3755201  62.7205568
  35.7737758  34.6694589  63.6355530  36.2714518  34.1632310  63.3032128
  41.3792695  35.2520292  74.1028547  41.9364125  35.0234102  73.4707013
  41.0553760  36.0125958  73.8263760  41.4139105  35.3304129  73.9685044
  29.2491404  38.6780489  69.5717143  28.7018123  38.0081134  69.6898012
  30.0383782  38.3110337  69.6360611  29.2843587  38.5245475  69.5985844
  39.0975812  38.3387946  75.0680554  39.8487139  38.6539623  75.3820108
  39.2898389  38.1367117  74.2414476  39.2367226  38.3555328  74.9923950
  45.9461102  34.4661512  62.3104350  45.9455329  34.3110169  63.1688626
  45.7417282  35.3124499  62.2545735  45.9160880  34.5682133  62.4292289
  28.0078373  37.8901296  66.7263166  27.8300134  37.4377905  67.4518082
  27.7197395  38.6927458  66.9101644  27.9391326  37.9423854  66.8606669
  43.6701954  39.1459014  65.9640557  44.1655620  38.4282009  65.9244577
  42.8601730  38.8429811  65.8495044  43.6245848  38.9956660  65.9414282
  29.7450843  40.4229020  63.8384925  28.8796363  40.4114711  63.7267697
  29.8449659  40.2359243  64.6856065  29.6325010  40.3935081  63.9473870
  45.7353773  41.8962701  68.6517685  46.1608845  41.3737123  68.0988110
  45.3710693  42.4943539  68.1306308  45.7440376  41.9072928  68.4926695
  35.3707853  50.1926919  67.4115031  35.6854412  51.0063307  67.4192813
  35.7801266  49.8077137  68.0797190  35.4775951  50.2555621  67.5119123
  42.3232373  45.6096966  64.9818843  42.7943551  46.3237228  65.1508828
  42.6592551  45.0095716  65.5178712  42.4427488  45.6268430  65.0851219
  44.4109357  47.2198279  77.1610915  44.5206323  46.4306840  77.5167662
  44.7400254  47.1304215  76.3585253  44.4761763  47.0904132  77.0953306
  39.2401868  30.3824436  71.9376938  39.3729773  29.5855430  72.2657913
  39.6247020  30.9090839  72.5175213  39.3158196  30.3424353  72.0720441
  42.9606319  45.4014900  71.7446535  42.4127265  44.7772783  71.4766601
  43.4219348  45.5909172  71.0290615  42.9473528  45.3373950  71.5996967
  42.3134223  27.3054762  68.5358031  41.5080187  27.1952492  68.8525869
  42.1840958  27.4067218  67.6787897  42.1754356  27.3038432  68.4566071
  45.7700183  33.4700254  69.1297728  45.1863172  33.9709461  68.7175295
  46.0904477  32.9629810  68.4962051  45.7313359  33.4692089  68.9756235
  38.3094982  32.3840849  59.4056403  39.1310677  32.5539162  59.1638097
  37.8464633  32.5388110  58.6822700  38.3626145  32.4322582  59.2628047
  36.8990314  30.3783611  70.1854831  37.4434727  30.0374738  70.7759173
  36.9527250  31.2369073  70.3276116  36.9879434  30.4538871  70.2936705
  32.7120873  44.1400027  67.0593639  33.3165731  44.0995861  66.4307460
  32.5048186  44.9871179  67.0897695  32.7709770  44.2588030  66.9709756
  42.5264645  46.4065972  68.2755877  43.3463019  46.2628938  68.5372172
  42.2458723  47.0312171  68.8172315  42.6061389  46.4776324  68.3943816
  27.9472155  43.1234645  66.9292562  27.8496433  42.3130916  67.2382619
  28.7301025  43.1026438  66.5438831  28.0488292  43.0001735  66.9179425
  58.9978296  54.0630824  61.2398753  58.9672300  54.9175461  61.4117022
  59.5959644  53.7626117  61.7984897  59.0815454  54.1447321  61.3473555
  52.1977981  53.1506475  65.9951683  51.3415876  53.3114973  66.0460800
  52.2445634  52.2798539  66.0156744  52.0777092  53.0457277  66.0057749
  46.5819120  62.6869193  61.7588915  45.8302020  62.3084731  61.5304960
  47.0305132  62.7187627  61.0107725  46.5368787  62.6354800  61.6146417
  52.0344080  63.1094563  57.1874462  51.6995449  63.7871484  56.7518684
  52.5470951  62.7199874  56.5991334  52.0609661  63.1519141  57.0361254
  51.5748371  65.0608831  63.1285574  51.9587751  65.6295730  62.5890349
  51.5107513  64.3358342  62.6491390  51.6221799  65.0384295  62.9779436
  55.0429802  55.2098519  68.6383335  55.5885762  55.8883606  68.6977305
  54.9846678  55.0685980  67.7784917  55.1145716  55.2890521  68.5195396
  48.1603876  62.6987585  64.0251688  48.2614239  61.8887939  64.3348815
  47.5645622  62.6044532  63.3951366  48.0876415  62.5652613  63.9777926
  56.8194870  56.6383126  59.5117063  56.7034396  57.3890812  59.9409201
  57.6150757  56.3807079  59.7613150  56.9199460  56.7117973  59.6121155
  48.0004616  67.6165174  65.4266544  48.6442071  68.0578338  65.8162702
  48.3260872  66.8118601  65.3396802  48.1436445  67.5630369  65.4712021
  41.3568921  58.7207872  63.6504021  41.1219105  57.8875524  63.5436290
  41.4954561  59.0012537  62.8365222  41.3424583  58.6391375  63.5146376
  43.6559008  50.8893602  66.5488329  43.0364040  50.2986250  66.3798344
  43.5542872  51.4805038  65.9152652  43.5496684  50.8897685  66.4293318
  48.7025196  60.6277149  60.7986405  49.0241037  61.1682357  60.1947713
  49.3497292  60.0573921  60.9308695  48.8451251  60.6236324  60.7293441
  50.7526904  52.6293144  60.8820792  51.4507068  52.8081272  61.3742255
  51.0679236  52.1063483  60.2591181  50.9022241  52.5786916  60.8622802
  43.3828141  54.4345884  68.7931898  43.2586838  55.0208330  69.4281717
  44.0346426  53.9406080  69.0944173  43.4601791  54.4484688  68.9317827
  50.9414839  59.0163589  60.8700583  51.3808475  58.4080690  61.3155356
  50.7919502  58.6370962  60.0986048  50.9836305  58.8702060  60.8219751
  48.4086482  57.6107601  68.0719409  49.0535485  57.1180044  67.7530357
  48.6488259  57.7532388  68.8985487  48.5397067  57.5585043  68.1468942
  50.9472574  60.4562507  67.7226302  51.2295816  59.6613913  67.5013057
  51.6758734  60.9343094  67.7431363  51.0962137  60.4097104  67.6929317
  54.5424176  57.3690770  57.8231353  54.4575471  58.2251737  57.9680922
  55.0308559  57.0935095  58.4913512  54.6013073  57.4548092  57.9433434
  56.1330175  43.9871064  63.2091677  55.8183616  44.6774542  63.6412100
  55.6157117  43.9315846  62.5077178  56.0094646  44.0805952  63.1688626
  55.4742609  53.9875565  59.3229088  54.9454080  54.2035198  59.9826394
  55.9967629  54.6811703  59.2430057  55.4731062  54.1218702  59.4084687
  60.9290662  59.5621869  64.6962132  60.0988365  59.7732513  64.8595549
  60.8799914  58.7358924  64.4204416  60.7997397  59.4711475  64.6799498
  47.3642217  57.8838781  58.1236556  46.7799432  58.3888813  58.5302420
  46.9612312  57.6581168  57.3833148  47.2181521  57.9247030  58.0741581
  42.9186245  63.5993543  64.9260227  42.4353824  64.3244032  64.9019811
  43.7309564  63.8969673  65.0370385  42.9676993  63.7495896  64.9387507
  48.9900399  62.3925723  67.5310042  48.4727341  62.0333138  66.9271350
  49.6874791  61.8687898  67.5416108  49.0165981  62.2623411  67.4440300
  51.8219431  54.1304433  56.6005476  52.0615435  54.3382417  55.7880819
  52.1435272  53.3261942  56.7094421  51.9056589  54.0418535  56.4966029
  45.7730443  64.1149718  65.0780507  46.4751022  63.6001708  65.1353264
  45.6927926  64.4423870  65.8827382  45.8654203  64.0863945  65.2053299
  60.4244620  52.2092270  68.4912554  59.5873041  52.2794457  68.7260148
  60.3932851  52.2116765  67.6186856  60.2962903  52.2202497  68.3972102
  46.8209349  54.3525305  74.2060922  46.9929853  54.2431200  75.0546204
  47.3578707  54.9979711  73.9692115  46.9254353  54.4317307  74.2966019
  45.0981218  60.3056070  64.5866115  45.9370117  60.5379003  64.6339877
  45.1292987  59.4360382  64.5173151  45.2262936  60.2113017  64.5830760
  45.7233921  60.7256946  68.8879421  46.2632146  60.5828077  69.5582793
  45.0403867  61.1253696  69.2563447  45.7026075  60.7636617  69.0413842
  55.1474806  56.4047946  64.0824445  55.9032321  56.8379461  64.1213354
  55.2537130  55.7552716  64.6559081  55.2744977  56.3725430  64.1722471
  58.1854977  60.2321224  64.8326848  57.7490209  60.2357966  65.5885820
  57.8517893  60.9126722  64.4006426  58.0717597  60.3333679  64.8807681
  41.1271066  56.9457236  69.0413842  40.8609481  56.1296353  69.2004833
  41.1409630  56.9910392  68.1709358  41.0895788  56.8314141  68.9367324
  58.1052460  47.2735051  67.0756276  58.7478368  47.3433156  67.6618191
  58.3575481  46.6064274  66.5735818  58.2374592  47.1861400  67.0883555
  45.8769673  50.4835615  71.6880850  45.1841469  50.0132594  71.9341582
  46.4930000  50.2573919  72.2622557  45.8654202  50.3802747  71.8090003
  61.3199323  56.9502143  63.7246485  61.9815757  56.3892812  63.6242394
  60.6790735  56.4554174  64.0499176  61.3228191  56.7938552  63.7578826
  52.2076131  60.2472275  56.0327409  52.6227280  59.9157299  55.3411904
  51.3768061  60.0141177  55.9047545  52.1464140  60.1643531  55.9118256
  41.5364480  57.7316016  66.3225587  41.3540053  57.7062902  65.4697879
  42.2714149  58.2014954  66.3614495  41.6178544  57.7977378  66.2023505
  57.6064154  57.9667526  63.4658474  57.8419743  58.1112725  62.6385325
  57.7553718  58.7309934  63.8589988  57.6629957  58.1006580  63.4022078
  44.6010231  54.4501019  72.8307695  45.3250204  54.4354049  73.3172590
  44.7026368  55.1596374  72.3329663  44.7228441  54.5525722  72.8286482
  59.4354611  56.8069192  61.3028078  59.7662828  57.3396832  60.6968173
  60.0087699  56.8608080  61.9590029  59.5688290  56.8938761  61.3105860
  54.6486500  54.6534094  61.9851658  54.7433354  55.3923389  62.4391284
  54.0245343  54.2251570  62.4186223  54.5695530  54.6995415  62.1159806
  41.5035390  54.6109517  66.4724653  42.0808893  54.4745967  67.1116898
  40.8049452  54.1545301  66.7270237  41.4856412  54.5231783  66.6046943
  54.9009521  56.4982834  55.2188610  54.8189684  56.5685021  56.0843597
  55.5389242  57.0612578  55.0272351  54.9829359  56.5921805  55.3178560
  48.2602692  56.2643572  64.6863136  48.0021937  55.4315307  64.6594436
  48.3151175  56.4901185  63.8455637  48.2302470  56.1741343  64.5583273
  47.2337404  53.8181335  65.1728031  46.6586996  53.9773503  65.8091992
  46.8573081  53.1816744  64.7096482  47.0940217  53.7479148  65.1982590
  50.9010693  52.2904684  70.0320410  50.5125126  51.8658902  69.3772601
  50.2365391  52.5386834  70.5397436  50.7457621  52.2643405  70.0108277
  60.5433962  52.0479689  62.8068240  60.2870527  51.2359630  62.6166122
  61.3863276  52.0557256  62.5798427  60.6299988  51.9291686  62.7453057
  36.9794223  53.4621409  63.1872472  37.0654475  53.0853278  63.9686002
  37.6070021  53.0881855  62.7092430  37.0850774  53.3506892  63.2317949
  54.7237055  45.9879313  67.5444394  55.1047566  45.3057484  67.9312268
  53.9200339  45.6988915  67.3620058  54.6613516  45.8446361  67.5748450
  52.0049631  56.5203289  58.2297216  52.8190270  56.8118181  58.1179988
  51.9408773  55.8663151  57.6555509  52.1152370  56.4668483  58.1286054
  47.8757540  59.9924806  63.3569529  48.5131487  59.7536553  63.9021322
  48.3012611  60.1961965  62.6222689  48.0333706  59.9875816  63.3286686
  42.5670182  62.2313142  67.2403832  42.6074327  62.5027994  66.4123612
  43.1264706  62.7555051  67.6561620  42.6553528  62.3488898  67.1795721
  48.5160355  55.2127096  57.6944418  48.9005507  54.9934802  58.4460963
  48.2671975  56.0390041  57.8245494  48.5362427  55.3025242  57.8245494
  48.6828895  48.4933511  77.4107002  48.3682336  49.2633074  77.1476565
  48.3618828  47.9303767  76.8259229  48.5887814  48.5243780  77.2848352
  50.2579012  60.4697229  65.0363315  50.3318020  60.3072400  65.8905165
  51.0748518  60.6587418  64.7923796  50.3895370  60.4733971  65.1261340
  44.0184768  60.8155091  62.0657758  43.1922886  61.0616829  61.9392037
  44.0796759  60.7367172  62.9319816  43.9058935  60.8400040  62.1746703
  46.2360792  46.8824032  63.0253198  45.3683217  46.9546632  63.0910808
  46.5235996  47.6846111  63.2141174  46.1500540  47.0118180  63.0627965
  55.3593681  47.0301892  71.3564520  56.1047273  46.8411702  70.9427946
  54.9430985  47.5560130  70.7978377  55.4078655  47.0804037  71.2129094
  48.7983597  63.4331972  59.7676788  49.0881896  63.0420953  59.0436015
  49.5287078  63.6148677  60.2082064  48.9490481  63.4025785  59.7259595
  62.7355952  54.4011120  66.3070025  63.2863873  53.7679189  66.5467117
  62.7200067  54.9326513  66.9985530  62.8141148  54.3860068  66.4448883
  49.3878342  58.2349718  70.8529919  48.8890036  58.9465485  70.9314807
  50.1978567  58.5550384  70.8148081  49.4334449  58.3876566  70.8586487
  46.7389513  65.4099354  62.8336938  46.5189808  65.1196709  63.6263605
  46.5184035  64.7514309  62.3054850  46.6737107  65.2699062  62.8725847
  45.6506460  57.4972671  65.0992640  45.3619709  56.8710142  65.6338367
  46.5189808  57.4392958  65.1657320  45.7366712  57.3960215  65.1883594
  56.4384358  52.6407454  65.4174621  56.0949124  51.9197789  65.7681871
  56.5377400  52.4321305  64.5752980  56.4026401  52.5031657  65.3446302
  48.9057469  66.7828744  61.6167630  49.5581527  66.2505186  61.8458656
  48.2083077  66.4297396  62.0035504  48.8988187  66.6518267  61.7079798
  45.8538733  59.1367922  61.0235005  46.6084701  59.5180961  61.2370467
  45.2609346  59.5879065  61.4781701  45.8775447  59.2596749  61.1217883
  56.8997387  59.1033158  60.9598610  57.4655420  59.7626368  60.8757153
  56.2525290  59.4482856  61.4315012  56.8876143  59.2515099  61.0171366
  48.3145400  51.0930762  76.1492217  47.5045176  51.3988542  76.0382059
  48.7920087  51.8136344  76.2644801  48.2648879  51.2445363  76.1499288
  47.1736960  60.3076483  66.3975120  46.6517714  60.4476775  67.0826985
  47.5610980  59.5487147  66.5877237  47.1540661  60.2162007  66.5276197
  44.1628144  50.3582292  60.4670075  43.8752940  49.9883562  59.7302022
  44.8498612  50.8277147  60.2053780  44.2217041  50.3729261  60.3185150
  53.3703965  62.0471942  60.3835689  53.1290641  61.3139803  59.9762754
  53.5505298  62.5958799  59.7302022  53.3611589  62.0194333  60.2265912
  48.6003286  57.3380502  61.7956611  48.4046068  57.9455237  61.2016914
  48.8237631  56.6448446  61.3148285  48.6037927  57.3258028  61.6372692
  46.9981816  54.2235240  61.9137479  47.7204468  54.3876398  61.4541285
  46.5189808  54.9444905  61.8076819  47.0345546  54.3533469  61.8303093
  54.9575323  50.5599039  67.2934164  54.1186424  50.5860318  67.0572428
  55.0279691  51.2069774  67.8739511  54.8443717  50.6595165  67.3443281
  44.6489432  56.6293312  71.0191619  45.1610529  56.9077566  70.3700379
  44.3625775  57.3682606  71.3854432  44.6824296  56.7795666  70.9781497
  58.8332847  55.7667025  64.5795406  58.7466822  55.9222452  65.4330185
  58.3783327  56.4105101  64.2054811  58.7536104  55.8842781  64.6502513
  41.7356339  51.1363504  61.3155356  41.8372475  51.9389666  61.6436331
  42.5312225  50.9350840  61.0178436  41.8684244  51.2249403  61.3190711
  48.1673158  48.7219701  71.0792661  47.9756355  48.7374835  71.9292084
  49.0171754  48.9183375  71.0559316  48.2648880  48.7534052  71.2015956
  42.5520071  51.2510682  69.0576477  42.4105563  50.3994623  69.1820985
  42.8360634  51.2939343  68.2338683  42.5727917  51.1310432  68.9544101
  52.7058663  53.0877773  63.2020966  52.4593377  53.0073524  64.0357755
  53.0343786  52.3031240  63.0083493  52.7179907  52.9604038  63.2968489
  56.6006712  59.7961132  66.9907747  56.4621071  60.4942178  67.4956489
  55.8206710  59.6409788  66.6343929  56.4649939  59.8761299  67.0134021
  48.6655690  55.8234491  72.6143949  48.8099066  56.4035699  71.9787059
  49.0131339  56.2010788  73.3193803  48.7383152  55.9655195  72.6242944
  50.8375608  55.0224660  70.3969080  50.0898922  55.2155674  69.9917358
  50.9917133  54.1969879  70.1593202  50.7498035  54.9289771  70.3014486
  47.7383445  64.0137263  69.4804976  47.8873009  63.4540179  68.8278380
  48.5183448  64.0929265  69.8637494  47.8757539  63.9422828  69.4401925
  58.0960085  59.1539386  57.7524246  57.7166894  58.3676524  57.7453535
  57.4326330  59.7026243  57.6095890  57.9418560  59.1184210  57.7305043
  51.0777385  48.9175210  71.2864484  51.5349999  49.6499185  71.4137276
  51.1533714  48.4941676  72.0451740  51.1568355  48.9632448  71.4165561
  43.3210376  49.1641030  72.3753928  42.7852566  48.5521388  72.6914695
  43.3828141  49.7389166  73.0287594  43.2506009  49.1587958  72.5189355
  55.5504711  42.0965085  65.1558327  55.6688279  42.5541549  64.4225630
  55.3766886  41.2910347  64.8694545  55.5423882  42.0458858  65.0059261
  50.9206993  62.7052905  61.5913072  51.6856884  62.4362548  61.2695737
  50.8185083  62.2202915  62.3083135  51.0188488  62.5942469  61.6492900
  48.9559763  50.9077314  68.1306308  48.1655837  50.7268774  68.4523644
  49.3520386  50.1304267  68.1136603  48.8976639  50.7664775  68.1758856
  53.4425654  59.7365089  53.5713022  54.2098639  59.7965213  53.1618873
  52.9956962  59.1645530  53.0869340  53.4899081  59.6601664  53.4390732
  54.3403449  58.5419744  65.8565754  53.6648451  58.3104977  66.3579141
  54.3495825  57.9340927  65.2307859  54.2421954  58.4178670  65.8381906
  51.4697593  53.3837573  72.6129807  51.4056734  54.2447530  72.4849944
  51.6094781  53.0669567  71.8125358  51.4813063  53.4637740  72.4758020
  56.3420184  61.3984877  58.0875932  56.4240021  62.2051863  57.7637383
  56.8269926  61.4180836  58.8116705  56.4257341  61.5205539  58.1462831
  50.1516687  56.0769713  66.7546010  49.7278936  56.2774212  66.0185028
  49.9761542  55.2298561  66.8670310  50.0627568  55.9818494  66.6619700
  45.4399132  56.5721764  62.1873982  45.5963751  56.5068567  63.0429974
  45.7799725  57.3470317  61.9752662  45.5132367  56.6770962  62.2828577
  51.9778276  55.9479648  61.0567346  52.5193822  55.4450029  61.5205966
  52.2924836  55.8944842  60.2456831  52.1042674  55.8659069  61.0051158
  50.1464726  61.3396999  58.3407374  50.2157547  60.4811538  58.4800374
  50.9253181  61.5568880  58.0126398  50.2717576  61.2449863  58.3124531
  53.1267546  50.8415952  71.1089646  53.3409515  50.2026866  70.5553000
  52.5101445  51.2861776  70.6797508  53.0672875  50.8126096  70.9640077
  54.5372214  63.7634700  62.5543867  54.1452006  63.4601416  61.8366733
  54.6925286  64.6003790  62.3648821  54.5025804  63.8418537  62.4200364
  42.0133393  53.7556715  62.5034750  42.3932358  54.1741259  61.8395017
  41.4388758  54.3370170  62.8103593  41.9844718  53.9034573  62.4511491
  55.2906634  52.4505017  72.0472953  54.4783316  52.1430908  72.1286126
  55.7496568  51.9704018  72.6115665  55.2387019  52.3341510  72.1427547
  54.7011889  60.3284689  62.4949898  54.3426543  60.4999332  63.2713930
  54.2150599  60.7897895  61.9377896  54.5770585  60.4223660  62.5275167
  52.5182275  43.9515888  66.0976989  51.6475832  43.9254609  66.0510298
  52.7722616  43.7793080  65.2802835  52.4275835  43.9226032  65.9697126
  49.4900254  56.0083855  55.0350132  49.7792779  56.7848737  55.3093706
  49.5772053  55.4972586  55.7364631  49.5454510  56.0475773  55.1792630
  49.5431415  45.9622116  67.5550459  49.0269904  45.2702308  67.6802038
  48.9825344  46.6292893  67.5013058  49.3837928  45.9585374  67.5656525
  51.6123648  46.5015076  69.3843312  51.2255402  46.5264108  70.1656842
  51.1256586  45.9356755  68.9317828  51.4836157  46.4210827  69.4331216
  57.5873628  53.0677731  68.0083014  57.1601236  52.9804080  67.2531114
  56.9499681  53.1755507  68.5937858  57.4303235  53.0710391  67.9828456
  51.2780790  43.3882062  71.6753572  51.9073908  43.9242362  71.3974642
  51.4466653  43.2959421  72.5267137  51.3958585  43.4543424  71.7602100
  51.0794705  48.1753257  73.9479983  51.9068134  47.9038405  74.0038598
  51.1002551  48.9714098  74.3043801  51.2047555  48.2533011  74.0095166
  45.6564195  55.3217119  67.1350244  44.8152201  55.2220993  67.3429138
  45.8654203  56.0912600  67.4864565  45.5628887  55.4209163  67.2177559
  43.1339762  52.9436656  64.9634995  42.7396460  53.0179668  64.1885104
  42.5779879  53.3294603  65.5143356  42.9942574  53.0118431  64.9302654
  54.7704709  45.9217950  64.6438874  54.9754302  45.8540258  65.4895871
  54.4431133  46.7276772  64.5760051  54.7519957  46.0303891  64.7598529
  49.4680860  53.2498519  66.3847842  49.1643997  52.6954507  66.9858249
  48.7660281  53.4290728  65.8975876  49.3197070  53.1943301  66.4017547
  47.5299211  60.4648239  71.0919939  47.4219566  60.4750301  71.9581997
  47.7394992  61.2903020  70.9024893  47.5449322  60.5889314  71.1924031
  58.0238396  46.4749715  64.1241639  57.4112710  46.9620117  64.5095371
  58.1202571  45.7993205  64.6679290  57.9476294  46.4468023  64.2620497
  45.5473003  57.7160882  68.5541877  44.9560936  58.3570380  68.5244892
  46.3094026  58.1398499  68.5273176  45.5721263  57.8736720  68.5457024
  45.9433626  48.8762879  69.2209894  46.4035107  48.9501809  69.9585018
  45.9889732  49.6744133  68.8709716  46.0184181  49.0057026  69.2782651
  47.5916975  49.5429574  73.7881922  47.2002540  48.8962921  74.2237699
  47.7602838  50.1341010  74.4076177  47.5587886  49.5343842  73.9444628
  55.3062519  63.1670193  65.9873901  55.1082208  63.6561008  65.2930113
  54.6850230  63.3711435  66.5658035  55.1850083  63.2686731  65.9697125
  49.3670497  54.9355090  60.3284146  50.1112542  55.3229366  60.5667096
  49.5131194  54.0912515  60.4924633  49.4981082  54.8685563  60.3878115
  52.3548373  50.5080563  66.2278065  51.8808327  49.9822325  66.7383376
  52.7266509  49.9610036  65.6592927  52.3398262  50.3496560  66.2193212
  42.7321403  52.5052070  71.5961611  43.5947016  52.4047779  71.5098941
  42.4013186  51.9246779  71.0347183  42.8106600  52.4043697  71.5007017
  58.6185104  55.5682939  67.6384845  58.3783327  54.7289354  67.6427272
  59.0977111  55.6483106  68.3625619  58.6537287  55.4564339  67.7459648
  60.6190291  52.3484396  65.5914105  60.3800061  52.3080230  64.7534889
  60.7824192  53.1955548  65.7179826  60.6080594  52.4676481  65.4867587
  46.0923189  51.3294519  68.2572029  45.4676259  51.3412911  67.6497982
  45.7568784  51.8054694  68.9063269  45.9508681  51.4013036  68.2628597
  42.8048865  59.3894979  69.6975793  42.2748789  58.6987418  69.7470768
  43.0773958  59.3805164  68.8688502  42.7673587  59.2862111  69.5823209
  53.8368955  59.9720681  58.4213476  54.5603154  60.4378794  58.2778049
  53.3969546  60.0394291  57.6711073  53.8784648  60.0504518  58.2898257
  53.0055110  56.8318224  69.6714165  52.3912104  56.2876274  69.9662800
  53.5222395  56.3182460  69.1919981  52.9910773  56.6754633  69.6438393
  52.2451408  57.9022494  67.4058463  51.8179016  57.2772212  66.9723899
  52.2376352  57.6197416  68.2317471  52.1810549  57.7675274  67.4638291
  45.3613935  52.9387667  70.4746897  45.5207421  52.1830991  70.8798619
  45.1806828  53.4878606  71.1287635  45.3579294  52.9081481  70.6309603
  53.3034238  45.1048902  71.0297687  52.8074799  45.3012577  70.3389254
  54.0603300  45.5041571  70.8586489  53.3421062  45.1926636  70.9017824
  50.5737117  48.7791248  67.6200997  50.5979604  48.2451361  66.9313777
  50.8248591  48.2708557  68.2826588  50.6147036  48.6252152  67.6165642
  38.0844707  56.0622743  67.0544141  37.9788156  56.0169588  66.1896226
  37.3344927  56.4076524  67.3358426  37.9580310  56.1063651  66.9681471
  46.8538440  47.5062067  67.0006742  46.8936811  48.0071273  67.7141449
  46.0288104  47.5972460  66.7312665  46.7377965  47.5943883  67.0657280
  48.2752803  54.0222576  69.2980641  47.4444733  54.1896394  69.0915889
  48.2204320  53.6458527  70.0829526  48.1442218  53.9912308  69.3829169
  46.0836586  47.5131469  74.9337051  46.7089290  46.9693602  75.2066484
  45.6287066  47.0326387  74.3644842  46.1084847  47.3620951  74.8898645
  46.6488847  52.2978168  59.8270758  46.7891808  52.7950632  60.5299400
  47.1471380  51.5964462  59.9684972  46.7429928  52.2680147  59.9522337
  46.6789069  53.1645279  57.1563335  47.3134149  53.7605704  57.0912797
  46.7614680  52.8648737  57.9709205  46.7845620  53.2086187  57.2666422
  53.6527207  48.4831448  69.4932256  54.0782279  48.0303975  68.8815783
  53.0384200  47.9291519  69.7697044  53.6255852  48.3345425  69.4437282
  43.1842057  55.3613120  60.4252881  43.6934286  55.9577627  60.8064187
  43.6576329  55.0939093  59.7429301  43.3285433  55.4098935  60.3807404
  54.0972805  64.0341386  58.5811537  53.3802115  63.8602249  58.1158774
  54.7479543  63.7993959  58.0487023  54.0874656  63.9737179  58.4340755
  56.6820776  52.9105975  62.3252842  56.0111966  53.4535677  62.1965908
  57.3760527  53.3800830  62.0834537  56.6849644  53.0604246  62.2708370
  50.7307510  65.0502687  67.5564600  50.5073164  64.2921516  67.9248627
  50.2417353  65.0800708  66.8345040  50.6250959  64.9424911  67.5041341
  56.8448904  49.3661859  65.2343215  57.1976514  48.9391581  65.9089014
  55.9863705  49.2812702  65.3644292  56.7698348  49.2906599  65.3538226
  45.5432589  51.9969378  63.2926062  44.8244578  52.4133511  63.5598925
  45.9144951  52.5623617  62.7417700  45.4924521  52.1418660  63.2508869
  54.8432170  52.6297227  69.1828057  54.8230097  52.4480522  70.0362836
  54.8911370  53.5009246  69.1587641  54.8466811  52.7313765  69.3051352
  49.3785967  65.2703145  65.0101685  48.9646366  64.6077275  64.6205527
  50.0633341  65.4181004  64.4897379  49.4184339  65.1943803  64.8758182
  52.7451261  64.4293230  65.7625301  52.3467544  64.5395501  64.9946122
  52.1302481  64.6375297  66.3451861  52.5950150  64.4766798  65.7356601
  58.2772964  44.4880270  66.1627528  57.7703829  43.7809410  66.0948705
  59.0740398  44.1573459  66.2928604  58.3200203  44.3353422  66.1726523
  54.1936980  50.9946883  62.0601191  53.9650673  51.0179584  61.2179550
  54.4535056  50.1704350  62.1796202  54.1983168  50.8762963  61.9526389
  48.4756208  52.8481356  71.6626292  47.9635111  52.2402539  72.0211323
  48.3035704  53.5637948  72.1300267  48.3745845  52.8644655  71.7842515
  43.3221923  51.2918931  74.3128653  43.1524513  51.9520306  73.7676860
  42.8787873  51.5025492  75.0341143  43.2321256  51.4204913  74.3390283
  47.2481742  49.5323429  63.3555387  47.7239108  49.8940509  62.7205568
  46.7470342  50.1879897  63.6355530  47.2447101  49.6817618  63.3032128
  60.4793104  59.0045197  59.1468392  60.8626710  59.7536553  59.3766489
  59.6837217  59.2511017  58.8880381  60.4186886  59.1514891  59.1425966
  52.3525278  50.7705600  74.1028547  52.9096709  50.5419410  73.4707013
  52.0286343  51.5311266  73.8263760  52.3871689  50.8489437  73.9685044
  40.2223987  54.1965797  69.5717143  39.6750707  53.5266442  69.6898012
  41.0116366  53.8295644  69.6360611  40.2576171  54.0430783  69.5985844
  49.2908395  51.6764629  56.7228771  49.6707360  51.6944258  55.9379886
  48.5500991  52.1218618  56.6019618  49.2377233  51.7446403  56.5892339
  56.9193686  49.9846820  62.3104350  56.9187912  49.8295477  63.1688626
  56.7149866  50.8309807  62.2545735  56.8893464  50.0867441  62.4292289
  38.9810957  53.4086604  66.7263166  38.8032718  52.9563213  67.4518082
  38.6929979  54.2112766  66.9101644  38.9123910  53.4609162  66.8606669
  54.6434538  54.6644322  65.9640557  55.1388203  53.9467317  65.9244577
  53.8334314  54.3615119  65.8495044  54.5978431  54.5141968  65.9414282
  50.0893149  58.5142135  58.1137561  49.2804472  58.1908809  58.0670871
  50.5968058  57.8075357  58.0465810  50.0442816  58.3623451  58.0967855
  40.7183427  55.9414328  63.8384925  39.8528946  55.9300019  63.7267697
  40.8182243  55.7544551  64.6856065  40.6057594  55.9120389  63.9473870
  56.7086357  57.4148009  68.6517685  57.1341428  56.8922431  68.0988110
  56.3443277  58.0128847  68.1306308  56.7172959  57.4258236  68.4926695
  46.3440437  65.7112227  67.4115031  46.6586996  66.5248615  67.4192813
  46.7533850  65.3262445  68.0797190  46.4508535  65.7740929  67.5119123
  53.2964956  61.1282274  64.9818843  53.7676134  61.8422536  65.1508828
  53.6325135  60.5281024  65.5178712  53.4160071  61.1453738  65.0851219
  50.2134451  45.9009744  71.9376938  50.3462357  45.1040738  72.2657913
  50.5979604  46.4276147  72.5175213  50.2890780  45.8609661  72.0720441
  53.2866806  42.8240070  68.5358031  52.4812770  42.7137800  68.8525869
  53.1573542  42.9252526  67.6787897  53.1486939  42.8223740  68.4566071
  56.7432767  48.9885562  69.1297728  56.1595756  49.4894769  68.7175295
  57.0637061  48.4815118  68.4962051  56.7045942  48.9877397  68.9756235
  47.8722898  45.8968919  70.1854831  48.4167311  45.5560046  70.7759173
  47.9259834  46.7554381  70.3276116  47.9612017  45.9724179  70.2936705
  43.6853457  59.6585335  67.0593639  44.2898314  59.6181169  66.4307460
  43.4780769  60.5056487  67.0897695  43.7442354  59.7773338  66.9709756
  53.4997229  61.9251280  68.2755877  54.3195603  61.7814246  68.5372172
  53.2191307  62.5497479  68.8172315  53.5793972  61.9961632  68.3943816
  38.9204739  58.6419953  66.9292562  38.8229017  57.8316224  67.2382619
  39.7033609  58.6211746  66.5438831  39.0220876  58.5187043  66.9179425
  61.7259487  68.1478452  60.8820792  62.4239652  68.3266580  61.3742255
  62.0411820  67.6248791  60.2591181  61.8754825  68.0972224  60.8622802
  59.8986351  63.5170849  64.9642067  59.5689681  63.9681992  64.2945765
  59.2231353  63.4387012  65.5115073  59.7496787  63.5721984  64.9465290
  67.1062759  59.5056372  63.2091677  66.7916200  60.1959850  63.6412100
  66.5889700  59.4501154  62.5077178  66.9827229  59.5991260  63.1688626
  58.3374800  73.4024089  58.1236556  57.7532016  73.9074121  58.5302420
  57.9344896  73.1766476  57.3833148  58.1914104  73.4432338  58.0741581
  62.7952015  69.6489741  56.6005476  63.0348018  69.8567725  55.7880819
  63.1167856  68.8447250  56.7094421  62.8789173  69.5603843  56.4966029
  58.1042305  61.5783137  60.4465014  58.8588273  61.9461454  60.2082065
  57.9269840  61.9522692  61.2144194  58.1896783  61.6881325  60.5249903
  56.4599370  63.9853456  57.1443127  56.2774943  64.2025337  56.3184120
  57.3224983  64.0992469  57.2001742  56.5603959  64.0343354  57.0297614
  62.1399089  60.9879867  60.1792151  62.8685249  60.8095822  59.7330307
  62.2293982  61.8297947  60.3899329  62.2605751  61.0863745  60.1445669
  56.0061397  67.2627629  55.6565600  55.2919574  66.9765808  56.0688033
  56.4905365  67.6024255  56.2971988  55.9720760  67.2709278  55.8121235
  63.1808715  75.7657583  56.0327409  63.5959863  75.4342607  55.3411904
  62.3500644  75.5326485  55.9047545  63.1196723  75.6828839  55.9118256
  65.8742105  72.0168142  55.2188610  65.7922267  72.0870329  56.0843597
  66.5121825  72.5797886  55.0272351  65.9561942  72.1107113  55.3178560
  47.9526807  68.9806717  63.1872472  48.0387059  68.6038586  63.9686002
  48.5802604  68.6067163  62.7092430  48.0583358  68.8692200  63.2317949
  62.9782215  72.0388596  58.2297216  63.7922854  72.3303489  58.1179988
  62.9141356  71.3848459  57.6555509  63.0884954  71.9853791  58.1286054
  59.4892938  70.7312404  57.6944418  59.8738091  70.5120110  58.4460963
  59.2404559  71.5575349  57.8245494  59.5095011  70.8210550  57.8245494
  57.2093376  62.4009340  63.0253198  56.3415801  62.4731940  63.0910808
  57.4968580  63.2031419  63.2141174  57.1233124  62.5303487  63.0627965
  55.1360728  65.8767600  60.4670075  54.8485523  65.5068870  59.7302022
  55.8231196  66.3462455  60.2053780  55.1949625  65.8914569  60.3185150
  57.9714399  69.7420548  61.9137479  58.6937051  69.9061706  61.4541285
  57.4922392  70.4630213  61.8076819  58.0078130  69.8718777  61.8303093
  64.3777185  62.9769724  62.0261780  65.0803538  62.7777472  61.5481739
  64.1121374  62.2045666  62.3330624  64.4423817  62.8332690  62.0007222
  52.7088922  66.6548812  61.3155356  52.8105059  67.4574974  61.6436331
  53.5044809  66.4536148  61.0178436  52.8416828  66.7434711  61.3190711
  66.5237294  57.6150393  65.1558327  66.6420862  58.0726857  64.4225630
  66.3499470  56.8095655  64.8694545  66.5156465  57.5644166  65.0059261
  64.4158237  75.2550396  53.5713022  65.1831222  75.3150521  53.1618873
  63.9689546  74.6830838  53.0869340  64.4631664  75.1786972  53.4390732
  52.9865977  69.2742022  62.5034750  53.3664942  69.6926567  61.8395017
  52.4121342  69.8555478  62.8103593  52.9577302  69.4219881  62.4511491
  63.4914858  59.4701196  66.0976989  62.6208416  59.4439917  66.0510298
  63.7455199  59.2978388  65.2802835  63.4008418  59.4411339  65.9697126
  60.4632838  71.5269163  55.0350132  60.7525362  72.3034045  55.3093706
  60.5504636  71.0157894  55.7364631  60.5187094  71.5661081  55.1792630
  59.4979540  66.0784346  60.9492543  59.7739275  65.3603259  60.5370111
  60.0978210  66.6769266  60.7413649  59.6272805  66.0604717  60.8573305
  62.9990061  63.7497864  59.2239138  63.4533807  63.9208424  59.9486983
  63.4730107  63.1365974  58.8236914  63.1358381  63.6848749  59.2712900
  60.3403081  70.4540398  60.3284146  61.0845126  70.8414674  60.5667096
  60.4863777  69.6097823  60.4924633  60.4713666  70.3870871  60.3878115
  65.2564456  66.9202426  59.2903819  64.7287475  67.0031170  58.6009528
  65.7160165  67.6620297  59.2868463  65.2466307  67.0423088  59.1878514
  57.2497522  65.1904945  54.3144714  56.9010326  65.8424671  54.7776263
  56.7693967  65.1762058  53.5868585  57.1267766  65.2847999  54.2755805
  57.6221430  67.8163476  59.8270758  57.7624391  68.3135940  60.5299400
  58.1203963  67.1149770  59.9684972  57.7162511  67.7865455  59.9522337
  57.6521653  68.6830587  57.1563335  58.2866732  69.2791012  57.0912797
  57.7347264  68.3834044  57.9709205  57.7578204  68.7271495  57.2666422
  59.2300636  64.6144562  57.1308777  59.5516477  64.1347645  56.4768040
  59.4927579  65.4244208  56.9399589  59.3166661  64.6634460  57.0064269
  54.1574641  70.8798428  60.4252881  54.6666870  71.4762935  60.8064187
  54.6308913  70.6124401  59.7429301  54.3018016  70.9284243  60.3807404
  63.0654013  60.4731856  62.9022833  62.4222331  60.3229502  63.4707972
  62.7253420  60.2274201  62.1371938  62.9199091  60.4143979  62.8725849
  56.5165172  67.5154686  63.2926062  55.7977161  67.9318819  63.5598925
  56.8877535  68.0808925  62.7417700  56.4657104  67.6603968  63.2508869
  62.2911747  66.5552686  58.6299441  61.6976586  66.8769683  58.0784008
  62.3287024  65.7093781  58.4220547  62.2086136  66.4777014  58.5182212
  58.2214326  65.0508737  63.3555387  58.6971692  65.4125817  62.7205568
  57.7202925  65.7065204  63.6355530  58.2179685  65.2002926  63.3032128
  60.2640979  67.1949937  56.7228771  60.6439944  67.2129566  55.9379886
  59.5233575  67.6403926  56.6019618  60.2109817  67.2631711  56.5892339
  61.0625733  74.0327443  58.1137561  60.2537056  73.7094116  58.0670871
  61.5700642  73.3260665  58.0465810  61.0175400  73.8808759  58.0967855
  60.2560150  63.4211465  59.4056403  61.0775844  63.5909778  59.1638097
  59.7929801  63.5758726  58.6822700  60.3091312  63.4693198  59.2628047
  36.7463952  -0.0361661  48.1738800  36.7157957   0.8182976  48.3457069
  37.3445301  -0.3366368  48.7324943  36.8301110   0.0454836  48.2813602
  29.9463637  -0.9486010  52.9291730  29.0901533  -0.7877511  52.9800847
  29.9931291  -1.8193946  52.9496791  29.8262749  -1.0535208  52.9397796
  24.3304777   8.5876708  48.6928962  23.5787677   8.2092247  48.4645007
  24.7790789   8.6195142  47.9447772  24.2854444   8.5362315  48.5486464
  33.2557354   5.3200516  62.5352186  33.9624121   4.8252547  62.6639121
  33.4445289   5.7609598  61.8054844  33.3885259   5.3118866  62.4461232
  29.7829737   9.0102078  44.1214509  29.4481105   9.6878999  43.6858731
  30.2956607   8.6207389  43.5331381  29.8095318   9.0526656  43.9701300
  29.3234028  10.9616347  50.0625620  29.7073408  11.5303245  49.5230396
  29.2593169  10.2365857  49.5831437  29.3707455  10.9391810  49.9119483
  32.7915458   1.1106034  55.5723382  33.3371418   1.7891121  55.6317352
  32.7332335   0.9693495  54.7124963  32.8631373   1.1898036  55.4535442
  25.9089533   8.5995100  50.9591734  26.0099896   7.7895454  51.2688862
  25.3131278   8.5052047  50.3291413  25.8362072   8.4660129  50.9117973
  34.5680527   2.5390641  46.4457110  34.4520053   3.2898328  46.8749248
  35.3636414   2.2814595  46.6953197  34.6685116   2.6125488  46.5461201
  25.7490273  13.5172690  52.3606590  26.3927728  13.9585854  52.7502749
  26.0746528  12.7126116  52.2736849  25.8922101  13.4637884  52.4052068
  19.1054577   4.6215387  50.5844068  18.8704762   3.7883039  50.4776337
  19.2440218   4.9020053  49.7705269  19.0910240   4.5398890  50.4486423
  26.4510853   6.5284665  47.7326452  26.7726694   7.0689872  47.1287760
  27.0982949   5.9581436  47.8648742  26.5936908   6.5243840  47.6633487
  28.5012561  -1.4699341  47.8160839  29.1992725  -1.2911213  48.3082302
  28.8164893  -1.9929001  47.1931228  28.6507898  -1.5205568  47.7962849
  21.1313798   0.3353399  55.7271945  21.0072495   0.9215845  56.3621764
  21.7832082  -0.1586405  56.0284220  21.2087447   0.3492204  55.8657874
  28.6900496   4.9171104  47.8040630  29.1294131   4.3088205  48.2495403
  28.5405159   4.5378478  47.0326095  28.7321962   4.7709576  47.7559798
  26.1572139   3.5115116  55.0059456  26.8021141   3.0187559  54.6870404
  26.3973916   3.6539903  55.8325534  26.2882724   3.4592559  55.0808989
  28.6958230   6.3570022  54.6566348  28.9781473   5.5621428  54.4353104
  29.4244391   6.8350610  54.6771409  28.8447794   6.3104619  54.6269363
  32.2909833   3.2698286  44.7571399  32.2061128   4.1259252  44.9020968
  32.7794216   2.9942610  45.4253559  32.3498730   3.3555607  44.8773481
  33.2228266  -0.1116920  46.2569135  32.6939737   0.1042713  46.9166441
  33.7453286   0.5819218  46.1770104  33.2216719   0.0226217  46.3424734
  38.6776319   5.4629384  51.6302179  37.8474022   5.6740028  51.7935596
  38.6285571   4.6366439  51.3544463  38.5483054   5.3718991  51.6139545
  25.1127874   3.7846297  45.0576603  24.5285089   4.2896328  45.4642467
  24.7097969   3.5588684  44.3173195  24.9667177   3.8254545  45.0081628
  20.6671902   9.5001058  51.8600274  20.1839480  10.2251547  51.8359858
  21.4795220   9.7977188  51.9710432  20.7162650   9.6503412  51.8727553
  26.7386056   8.2933239  54.4650089  26.2212998   7.9340654  53.8611397
  27.4360447   7.7695413  54.4756155  26.7651637   8.1630927  54.3780347
  30.3949648   8.7428053  60.4266262  30.4832994   8.5554193  61.2744472
  30.8239361   8.0965482  60.0271108  30.4711751   8.6191060  60.4938013
  27.9620108   8.0259213  59.4083924  27.3990943   7.6131822  59.9323585
  28.7241131   7.9512118  59.8277067  27.9914557   7.9536613  59.5476924
  29.5705088   0.0311949  43.5345523  29.8101092   0.2389933  42.7220866
  29.8920929  -0.7730543  43.6434468  29.6542246  -0.0573950  43.4306076
  23.5216099  10.0157234  52.0120554  24.2236679   9.5009223  52.0693311
  23.4413582  10.3431385  52.8167429  23.6139860   9.9871460  52.1393346
  38.1730277  -1.8900215  55.4252600  37.3358698  -1.8198028  55.6600195
  38.1418508  -1.8875720  54.5526903  38.0448559  -1.8789988  55.3312148
  22.8466875   6.2063586  51.5206162  23.6855774   6.4386519  51.5679924
  22.8778644   5.3367897  51.4513197  22.9748592   6.1120532  51.5170807
  23.4719578   6.6264461  55.8219468  24.0117803   6.4835592  56.4922840
  22.7889524   7.0261212  56.1903494  23.4511732   6.6644132  55.9753889
  32.8960463   2.3055462  51.0164492  33.6517978   2.7386976  51.0553401
  33.0022787   1.6560231  51.5899128  33.0230633   2.2732945  51.1062518
  35.9340634   6.1328739  51.7666895  35.4975866   6.1365481  52.5225866
  35.6003549   6.8134238  51.3346472  35.8203254   6.2341195  51.8147727
  30.5069707   8.1737072  63.0910045  31.2910124   8.2867919  63.4565787
  30.3066302   7.3478209  63.2868731  30.5935733   8.0683791  63.1744431
  18.8756723   2.8464752  55.9753889  18.6095138   2.0303868  56.1344879
  18.8895287   2.8917907  55.1049405  18.8381445   2.7321657  55.8707371
  22.7814470  -2.3550164  42.5905647  22.0672647  -2.6411984  43.0028080
  23.2658439  -2.0153538  43.2312035  22.7473833  -2.3468514  42.7461282
  30.6640101  10.0847174  56.7376501  29.8655347   9.8446674  56.9950369
  31.1126112  10.1361567  57.4843548  30.6114712  10.0569565  56.8861425
  39.0684980   2.8509659  50.6586532  39.7301414   2.2900327  50.5582441
  38.4276392   2.3561689  50.9839223  39.0713848   2.6946068  50.6918872
  29.9561788   6.1479790  42.9667455  30.3712936   5.8164814  42.2751951
  29.1253717   5.9148692  42.8387592  29.8949797   6.0651046  42.8458303
  19.2850137   3.6323531  53.2565633  19.1025710   3.6070417  52.4037926
  20.0199806   4.1022469  53.2954542  19.3664200   3.6984893  53.1363552
  35.3549811   3.8675041  50.3998521  35.5905400   4.0120240  49.5725372
  35.5039374   4.6317449  50.7930035  35.4115614   4.0014096  50.3362125
  37.1840268   2.7076707  48.2368125  37.5148485   3.2404347  47.6308220
  37.7573356   2.7615595  48.8930076  37.3173947   2.7946276  48.2445906
  32.3972157   0.5541610  48.9191705  32.4919011   1.2930904  49.3731330
  31.7731000   0.1259085  49.3526269  32.3181187   0.6002930  49.0499852
  30.6524630   3.7327822  59.5681986  31.2263492   3.0955067  59.7230550
  30.5739434   3.7331905  58.6991643  30.7257865   3.6392934  59.4628397
  19.2521047   0.5117032  53.4064700  19.8294550   0.3753483  54.0456945
  18.5535109   0.0552816  53.6610284  19.2342068   0.4239298  53.5386990
  32.6495178   2.3990350  42.1528657  32.5675340   2.4692537  43.0183644
  33.2874898   2.9620093  41.9612397  32.7315015   2.4929321  42.2518606
  26.0088349   2.1651087  51.6203183  25.7507593   1.3322822  51.5934483
  26.0636832   2.3908700  50.7795684  25.9788127   2.0748859  51.4923320
  24.9823061  -0.2811150  52.1068078  24.4072653  -0.1218982  52.7432039
  24.6058738  -0.9175741  51.6436528  24.8425874  -0.3513337  52.1322636
  28.6496350  -1.8087801  56.9660456  28.2610783  -2.2333583  56.3112648
  27.9851048  -1.5605651  57.4737483  28.4943278  -1.8349080  56.9448324
  29.7535288   2.4210804  45.1637263  30.5675927   2.7125697  45.0520035
  29.6894429   1.7670666  44.5895556  29.8638027   2.3675999  45.0626101
  35.9744778   5.1036800  59.5766839  35.7383416   4.2724865  59.4578900
  36.6188007   5.0522407  60.1621683  36.0339449   4.9734488  59.6452733
  25.6243196   5.8932321  50.2909575  26.2617143   5.6544069  50.8361369
  26.0498268   6.0969480  49.5562736  25.7819363   5.8883331  50.2626733
  20.3155839   8.1320658  54.1743879  20.3559984   8.4035509  53.3463659
  20.8750363   8.6562566  54.5901667  20.4039185   8.2496413  54.1135767
  26.2646011   1.1134611  44.6284465  26.6491164   0.8942318  45.3801010
  26.0157632   1.9397556  44.7585541  26.2848084   1.2032757  44.7585541
  36.9981199   4.8881249  55.6395133  36.6927016   5.6209306  56.0008449
  36.2787415   4.4819178  55.3587919  36.8468541   4.9362982  55.6508271
  28.0064668   6.3704744  51.9703362  28.0803677   6.2079916  52.8245212
  28.8234175   6.5594933  51.7263843  28.1381027   6.3741486  52.0601387
  42.6982991   1.5274249  54.9663478  42.6307491   1.5470209  54.0966064
  42.6838653   2.3704577  55.1919148  42.6861748   1.6547984  54.8715955
  21.7670425   6.7162607  48.9997805  20.9408543   6.9624344  48.8732084
  21.8282416   6.6374688  49.8659863  21.6544592   6.7407556  49.1086750
  26.5469254   9.3339487  46.7016835  26.8367552   8.9428468  45.9776062
  27.2772735   9.5156192  47.1422110  26.6976138   9.3033301  46.6599642
  40.4841608   0.3018636  53.2410072  41.0349530  -0.3313295  53.4807164
  40.4685724   0.8334028  53.9325576  40.5626805   0.2867584  53.3788930
  27.1363999   4.1357233  57.7869966  26.6375693   4.8473001  57.8654854
  27.9464224   4.4557899  57.7488128  27.1820106   4.2884081  57.7926534
  24.4875170  11.3106869  49.7676985  24.2675465  11.0204224  50.5603652
  24.2669692  10.6521824  49.2394897  24.4222764  11.1706578  49.8065893
  23.3992117   3.3980186  52.0332686  23.1105365   2.7717657  52.5678414
  24.2675465   3.3400473  52.0997367  23.4852369   3.2967730  52.1223641
  34.1870015  -1.4585031  52.3514668  33.8434781  -2.1794696  52.7021918
  34.2863057  -1.6671180  51.5093027  34.1512057  -1.5960827  52.2786348
  26.6543125  12.6836259  48.5507677  27.3067183  12.1512702  48.7798703
  25.9568734  12.3304912  48.9375551  26.6473843  12.5525782  48.6419845
  23.6024390   5.0375437  47.9575051  24.3570358   5.4188476  48.1710514
  23.0095003   5.4886581  48.4121748  23.6261104   5.1604264  48.0557930
  34.6483044   5.0040673  47.8938656  35.2141076   5.6633883  47.8097199
  34.0010947   5.3490371  48.3655059  34.6361800   5.1522615  47.9511413
  24.9222617   6.2083998  53.3315167  24.4003370   6.3484290  54.0167032
  25.3096637   5.4494663  53.5217284  24.9026318   6.1169522  53.4616243
  31.1189622   7.9479458  47.3175736  30.8776298   7.2147318  46.9102801
  31.2990955   8.4966315  46.6642069  31.1097246   7.9201849  47.1605959
  26.3488942   3.2388017  48.7296658  26.1531725   3.8462752  48.1356961
  26.5723288   2.5455961  48.2488332  26.3523583   3.2265543  48.5712739
  24.7467472   0.1242755  48.8477526  25.4690124   0.2883913  48.3881332
  24.2675465   0.8452420  48.7416866  24.7831203   0.2540985  48.7643140
  32.7060980  -3.5393446  54.2274211  31.8672081  -3.5132167  53.9912474
  32.7765347  -2.8922711  54.8079558  32.5929374  -3.4397320  54.2783328
  22.3975089   2.5300828  57.9531666  22.9096186   2.8085081  57.3040426
  22.1111432   3.2690122  58.3194479  22.4309952   2.6803181  57.9121544
  36.5818504   1.6674541  51.5135453  36.4952478   1.8229967  52.3670232
  36.1268984   2.3112616  51.1394858  36.5021761   1.7850296  51.5842560
  30.4544320  -1.0114712  50.1361012  30.2079034  -1.0918961  50.9697801
  30.7829443  -1.7961244  49.9423540  30.4665563  -1.1388447  50.2308536
  34.3492369   5.6968647  53.9247794  34.2106728   6.3949693  54.4296536
  33.5692367   5.5417304  53.5683975  34.2135596   5.7768814  53.9474068
  32.6870454   1.9965023  60.1770175  32.6818492   1.1244839  60.1812602
  33.3931448   2.1953192  59.7039631  32.7915458   1.8968897  60.1077211
  26.4141347   1.7242006  59.5483996  26.5584723   2.3043215  58.9127106
  26.7616996   2.1018303  60.2533850  26.4868809   1.8662711  59.5582990
  28.5861265   0.9232175  57.3309127  27.8384579   1.1163189  56.9257405
  28.7402790   0.0977394  57.0933248  28.4983692   0.8297286  57.2354533
  25.4869102   9.9144778  56.4145022  25.6358666   9.3547694  55.7618427
  26.2669104   9.9936780  56.7977541  25.6243196   9.8430344  56.3741972
  35.8445742   5.0546901  44.6864293  35.4652550   4.2684039  44.6793582
  35.1811987   5.6033758  44.5435937  35.6904216   5.0191725  44.6645090
  28.0122403  10.0859421  57.6929513  27.9366074   9.4168232  58.2480301
  27.9412262  10.7877209  58.2070179  27.9903010  10.0904329  57.8506361
  28.6692650   8.6060420  48.5253119  29.4342541   8.3370064  48.2035783
  28.5670740   8.1210430  49.2423182  28.7674145   8.4949985  48.5832947
  26.7045420  -3.1915170  55.0646355  25.9141494  -3.3723710  55.3863691
  27.1006042  -3.9688218  55.0476649  26.6462296  -3.3327710  55.1098903
  31.1911310   5.6372604  40.5053068  31.9584295   5.6972729  40.0958920
  30.7442619   5.0653045  40.0209387  31.2384738   5.5609180  40.3730779
  32.0889106   4.4427260  52.7905801  31.4134108   4.2112492  53.2919188
  32.0981482   3.8348443  52.1647906  31.9907610   4.3186185  52.7721953
  29.2183250  -0.7154911  59.5469854  29.1542391   0.1455045  59.4189990
  29.3580438  -1.0322918  58.7465405  29.2298720  -0.6354745  59.4098067
  34.0905840   7.2992392  45.0215979  34.1725678   8.1059378  44.6977430
  34.5755583   7.3188351  45.7456752  34.1742998   7.4213054  45.0802877
  27.9002344   1.9777228  53.6886057  27.4764593   2.1781727  52.9525075
  27.7247199   1.1306076  53.8010357  27.8113224   1.8826009  53.5959747
  27.4014037  13.4927741  56.1507514  27.8909967  12.7938530  55.9683179
  26.8298269  13.1951611  56.7383571  27.3898567  13.3453965  56.2108555
  23.1884789   2.4729279  49.1214029  23.3449408   2.4076082  49.9770021
  23.5285382   3.2477832  48.9092709  23.2618024   2.5778478  49.2168623
  29.7263933   1.8487163  47.9907392  30.2679479   1.3457544  48.4546013
  30.0410492   1.7952358  47.1796878  29.8528330   1.7666584  47.9391205
  33.5981041   6.0589810  65.1034305  34.4115906   5.7874959  65.2639437
  33.4376007   5.7597350  64.2994501  33.6950989   5.9744736  65.0079711
  27.8950383   7.2404515  45.2747420  27.9643203   6.3819053  45.4140421
  28.6738838   7.4576395  44.9466445  28.0203233   7.1457378  45.2464578
  30.8753203  -3.2576533  58.0429693  31.0895172  -3.8965618  57.4893047
  30.2587102  -2.8130709  57.6137555  30.8158532  -3.2866389  57.8980124
  32.2857871   9.6642216  49.4883914  31.8937662   9.3608931  48.7706780
  32.4410943  10.5011306  49.2988868  32.2511460   9.7426053  49.3540411
  19.7619050  -0.3435770  49.4374796  20.1418015   0.0748775  48.7735064
  19.1874415   0.2377686  49.7443640  19.7330375  -0.1957911  49.3851537
  33.0392291  -1.6487467  58.9813000  32.2268972  -1.9561577  59.0626173
  33.4982225  -2.1288467  59.5455712  32.9872675  -1.7650975  59.0767594
  32.4497545   6.2292205  49.4289944  32.0912200   6.4006848  50.2053977
  31.9636256   6.6905410  48.8717943  32.3256242   6.3231176  49.4615213
  27.2385911   1.9091370  41.9690179  27.5278436   2.6856253  42.2433753
  27.3257710   1.3980102  42.6704678  27.2940167   1.9483288  42.1132677
  33.6102285   7.1196101  60.3757145  34.2482005   6.6256296  60.0419601
  32.9676376   7.0473501  59.7909372  33.6096511   7.0355109  60.2399500
  35.3359285  -1.0314753  54.9423061  34.9086893  -1.1188405  54.1871160
  34.6985338  -0.9236978  55.5277905  35.1788892  -1.0282094  54.9168502
  33.6656541   7.8115909  57.0162502  34.4548919   7.4604974  57.1364584
  33.8400139   8.6252297  56.7539136  33.8076823   7.8801766  56.9950370
  23.4049852   1.2224635  54.0690291  22.5637858   1.1228509  54.2769185
  23.6139860   1.9920115  54.4204611  23.3114544   1.3216678  54.1517606
  20.8825419  -1.1555828  51.8975041  20.4882116  -1.0812817  51.1225151
  20.3265536  -0.7697882  52.4483403  20.7428231  -1.0874054  51.8642701
  27.2166517  -0.8493966  53.3187888  26.9129654  -1.4037978  53.9198296
  26.5145937  -0.6701756  52.8315923  27.0682726  -0.9049184  53.3357594
  26.2732614  -3.5393446  47.8832590  26.5492348  -4.2574534  47.4710158
  26.8731283  -2.9408526  47.6753696  26.4025878  -3.5573076  47.7913351
  25.2784868   6.3655755  58.0259986  25.1705222   6.3757817  58.8922044
  25.4880649   7.1910535  57.8364940  25.2934979   6.4896829  58.1264078
  23.2958660   3.6168397  55.4881924  22.7046593   4.2577895  55.4584939
  24.0579683   4.0406014  55.4613223  23.3206920   3.7744235  55.4797071
  39.4149081   3.4474167  56.4859202  39.4732205   3.8960815  57.2319178
  38.7815549   3.8572979  56.0489282  39.3300376   3.5747901  56.5311750
  33.0548176   9.0677709  52.9213948  32.8567864   9.5568523  52.2270159
  32.4335887   9.2718950  53.4998082  32.9335740   9.1694247  52.9037171
  27.1156154   0.8362605  47.2624192  27.8598199   1.2236882  47.5007142
  27.2616850  -0.0079969  47.4264680  27.2466739   0.7693078  47.3218162
  30.1034030  -3.5911921  53.1618112  29.6293984  -4.1170159  53.6723423
  30.4752166  -4.1382449  52.5932973  30.0883919  -3.7495925  53.1533259
  36.3670761   1.4690454  54.5724892  36.1268983   0.6296869  54.5767319
  36.8462768   1.5490621  55.2965666  36.4022944   1.3571854  54.6799695
  32.0317530  -2.6975367  46.2243866  31.5040548  -2.6146623  45.5349574
  32.4913238  -1.9557495  46.2208510  32.0219380  -2.5754704  46.1218561
  38.3675948  -1.7508088  52.5254151  38.1285718  -1.7912254  51.6874936
  38.5309849  -0.9036936  52.6519872  38.3566251  -1.6316003  52.4207633
  34.9721978   2.6341861  58.4559197  35.6956177   2.1814387  58.2770216
  34.7071940   2.9146527  57.6731524  35.0403251   2.6092829  58.3137912
  23.8408846  -2.7697966  55.1912076  23.2161916  -2.7579574  54.5838028
  23.5054441  -2.2937791  55.8403316  23.6994338  -2.6979449  55.1968644
  20.5534522   5.2902494  56.6315840  20.0234446   4.5994933  56.6810815
  20.8259615   5.2812680  55.8028549  20.5159244   5.1869626  56.5163256
  31.5854612   5.8728197  45.3553523  32.3088811   6.3386310  45.2118096
  31.1455203   5.9401806  44.6051120  31.6270304   5.9512034  45.2238304
  30.7540767   2.7325739  56.6054212  30.1397760   2.1883789  56.9002847
  31.2708052   2.2189976  56.1260028  30.7396430   2.5762148  56.5778440
  29.9937064   3.8030009  54.3398510  29.5664672   3.1779728  53.9063946
  29.9862009   3.5204931  55.1657517  29.9296206   3.6682790  54.3978338
  15.8330364   1.9630259  53.9884188  15.7273813   1.9177103  53.1236272
  15.0830584   2.3084039  54.2698473  15.7065967   2.0071167  53.9021518
  26.0238460  -0.0769908  56.2320688  25.1930389   0.0903910  56.0255936
  25.9689977  -0.4533958  57.0169573  25.8927875  -0.1080177  56.3169216
  24.3974504  -1.8014317  46.7610805  24.5377465  -1.3041853  47.4639447
  24.8957036  -2.5028022  46.9025019  24.4915584  -1.8312338  46.8862384
  24.4274726  -0.9347206  44.0903382  25.0619805  -0.3386781  44.0252844
  24.5100337  -1.2343748  44.9049252  24.5331277  -0.8906298  44.2006469
  37.4057292   1.5968272  56.9589746  37.9975132   2.2365522  56.9907944
  37.8416286   0.8991308  57.2481813  37.5575723   1.5886622  57.0070579
  26.0053709  -5.0033230  44.0648824  26.3269550  -5.4830148  43.4108086
  26.2680653  -4.1933584  43.8739636  26.0919734  -4.9543332  43.9404316
  29.2350682   6.0185644  57.5847640  28.7275773   6.5721491  58.0288271
  28.9377328   6.0793934  56.7666415  29.1155567   6.1091955  57.5296097
  20.9327714   1.2620635  47.3592928  21.4419943   1.8585143  47.7404234
  21.4061986   0.9946609  46.6769348  21.0771089   1.3106450  47.3147451
  31.8458462   9.9348902  45.5151584  31.1287772   9.7609764  45.0498821
  32.4965199   9.7001474  44.9827070  31.8360312   9.8744694  45.3680802
  34.4306433  -1.1886510  49.2592889  33.7597623  -0.6456807  49.1305954
  35.1246183  -0.7191654  49.0174584  34.4335301  -1.0388239  49.2048417
  28.4793167  10.9510202  54.4904647  28.2558821  10.1929032  54.8588673
  27.9903010  10.9808223  53.7685087  28.3736616  10.8432427  54.4381388
  23.2918246  -2.1023106  50.2266109  22.5730235  -1.6858974  50.4938972
  23.6630608  -1.5368868  49.6757747  23.2410177  -1.9573825  50.1848916
  32.5917826  -1.4695258  56.1168104  32.5715754  -1.6511962  56.9702883
  32.6397027  -0.5983239  56.0927688  32.5952467  -1.3678719  56.2391399
  30.5364156   5.1191934  62.0416581  30.4960011   4.4741611  61.4561737
  31.3487474   5.0628552  62.3541993  30.6507310   5.0150901  62.0013530
  27.1271624  11.1710660  51.9441732  26.7132022  10.5084791  51.5545573
  27.8118998  11.3188519  51.4237426  27.1669995  11.0951319  51.8098229
  30.4936918  10.3300746  52.6965348  30.0953201  10.4403016  51.9286169
  29.8788137  10.5382812  53.2791908  30.3435807  10.3774314  52.6696648
  29.0664820  -3.0625107  45.5639488  28.4729659  -2.7408110  45.0124055
  29.1040098  -3.9084011  45.3560594  28.9839209  -3.1400778  45.4522259
  31.9422636  -3.1045602  48.9941238  31.7136330  -3.0812901  48.1519596
  32.2020713  -3.9288135  49.1136249  31.9468825  -3.2229522  48.8866436
  24.9967399  -4.5669056  50.2895434  25.4724765  -4.2051976  49.6545615
  24.4955999  -3.9112588  50.5695577  24.9932758  -4.4174867  50.2372175
  38.2278761   4.9052712  46.0808439  38.6112366   5.6544069  46.3106536
  37.4322874   5.1518532  45.8220428  38.1672543   5.0522406  46.0766012
  27.0394052  -2.4227856  43.6568818  27.4193017  -2.4048227  42.8719933
  26.2986648  -1.9773867  43.5359665  26.9862890  -2.3546081  43.5232386
  32.3920195   0.5651837  52.8980603  32.8873860  -0.1525168  52.8584624
  31.5819970   0.2622635  52.7835090  32.3464088   0.4149483  52.8754329
  27.8378806   4.4149650  45.0477608  27.0290129   4.0916324  45.0010917
  28.3453715   3.7082872  44.9805857  27.7928473   4.2630967  45.0307902
  18.4669083   1.8421843  50.7724972  17.6014603   1.8307534  50.6607743
  18.5667899   1.6552066  51.6196111  18.3543250   1.8127905  50.8813917
  34.4572014   3.3155525  55.5857732  34.8827085   2.7929946  55.0328157
  34.0928933   3.9136362  55.0646355  34.4658616   3.3265752  55.4266742
  24.0926093  11.6119742  54.3455078  24.4072652  12.4256131  54.3532859
  24.5019507  11.2269961  55.0137237  24.1994191  11.6748444  54.4459169
  31.0450613   7.0289789  51.9158890  31.5161791   7.7430051  52.0848875
  31.3810792   6.4288539  52.4518759  31.1645728   7.0461253  52.0191266
  33.1327598   8.6391102  64.0950962  33.2424563   7.8499663  64.4507709
  33.4618494   8.5497038  63.2925300  33.1980003   8.5096955  64.0293352
  31.6824559   6.8207723  58.6786582  31.1345505   6.1965607  58.4106648
  32.1437588   7.0101995  57.9630662  31.6691769   6.7566773  58.5337013
  21.4339114   5.5592851  53.9933686  22.0383971   5.5188685  53.3647507
  21.2266426   6.4064003  54.0237742  21.4928011   5.6780853  53.9049803
  31.2482886   7.8258796  55.2095923  32.0681259   7.6821762  55.4712219
  30.9676963   8.4504995  55.7512361  31.3279629   7.8969148  55.3283863
  16.6690396   4.5427468  53.8632609  16.5714674   3.7323740  54.1722666
  17.4519266   4.5219261  53.4778877  16.7706532   4.4194558  53.8519472
  40.9196221  14.5699298  52.9291730  40.0634116  14.7307797  52.9800847
  40.9663875  13.6991362  52.9496791  40.7995332  14.4650100  52.9397796
  44.2289937  20.8385824  62.5352186  44.9356705  20.3437855  62.6639121
  44.4177873  21.2794906  61.8054844  44.3617843  20.8304174  62.4461232
  43.7648042  16.6291342  55.5723382  44.3104002  17.3076429  55.6317352
  43.7064918  16.4878803  54.7124963  43.8363956  16.7083344  55.4535442
  36.7222856  29.0357998  52.3606590  37.3660312  29.4771162  52.7502749
  37.0479112  28.2311424  52.2736849  36.8654685  28.9823192  52.4052068
  30.0787161  20.1400695  50.5844068  29.8437345  19.3068347  50.4776337
  30.2172802  20.4205361  49.7705269  30.0642824  20.0584198  50.4486423
  32.3777249  12.3086426  53.4828376  31.7582280  11.7179073  53.3138390
  32.2761112  12.8997861  52.8492699  32.2714924  12.3090508  53.3633365
  39.4745144  14.0485967  47.8160839  40.1725309  14.2274095  48.3082302
  39.7897477  13.5256307  47.1931228  39.6240481  13.9979739  47.7962849
  32.1046382  15.8538707  55.7271945  31.9805078  16.4401153  56.3621764
  32.7564666  15.3598903  56.0284220  32.1820031  15.8677512  55.8657874
  39.6633080  20.4356412  47.8040630  40.1026715  19.8273513  48.2495403
  39.5137742  20.0563786  47.0326095  39.7054545  20.2894884  47.7559798
  37.1304723  19.0300424  55.0059456  37.7753725  18.5372867  54.6870404
  37.3706500  19.1725211  55.8325534  37.2615308  18.9777866  55.0808989
  39.6690814  21.8755330  54.6566348  39.9514057  21.0806736  54.4353104
  40.3976974  22.3535918  54.6771409  39.8180378  21.8289927  54.6269363
  37.6472008   9.4178364  51.8982113  37.3175338   9.8689508  51.2285812
  36.9717010   9.3394527  52.4455120  37.4982444   9.4729499  51.8805337
  44.8548416   5.4063887  50.1431724  44.5401856   6.0967366  50.5752146
  44.3375357   5.3508669  49.4417225  44.7312886   5.4998776  50.1028673
  44.1960849  15.4068388  46.2569135  43.6672321  15.6228021  46.9166441
  44.7185869  16.1004526  46.1770104  44.1949302  15.5411525  46.3424734
  49.6508902  20.9814692  51.6302179  48.8206605  21.1925336  51.7935596
  49.6018155  20.1551747  51.3544463  49.5215638  20.8904299  51.6139545
  36.0860457  19.3031605  45.0576603  35.5017672  19.8081636  45.4642467
  35.6830552  19.0773992  44.3173195  35.9399761  19.3439853  45.0081628
  31.6404486  25.0186366  51.8600274  31.1572064  25.7436855  51.8359858
  32.4527804  25.3162496  51.9710432  31.6895233  25.1688719  51.8727553
  37.7118640  23.8118546  54.4650089  37.1945581  23.4525961  53.8611397
  38.4093031  23.2880721  54.4756155  37.7384221  23.6816234  54.3780347
  41.3682232  24.2613361  60.4266262  41.4565578  24.0739501  61.2744472
  41.7971944  23.6150790  60.0271108  41.4444334  24.1376368  60.4938013
  38.9352692  23.5444521  59.4083924  38.3723526  23.1317130  59.9323585
  39.6973715  23.4697426  59.8277067  38.9647140  23.4721921  59.5476924
  40.5437672  15.5497257  43.5345523  40.7833675  15.7575240  42.7220866
  40.8653513  14.7454765  43.6434468  40.6274829  15.4611358  43.4306076
  35.8527962   7.4790652  47.3805061  36.6073930   7.8468970  47.1422111
  35.6755496   7.8530207  48.1484241  35.9382440   7.5888840  47.4589950
  34.4948683  25.5342542  52.0120554  35.1969262  25.0194531  52.0693311
  34.4146166  25.8616693  52.8167429  34.5872443  25.5056768  52.1393346
  49.1462861  13.6285093  55.4252600  48.3091282  13.6987280  55.6600195
  49.1151091  13.6309588  54.5526903  49.0181143  13.6395320  55.3312148
  35.5427590  15.7718129  61.1400969  35.7148093  15.6624023  61.9886251
  36.0796947  16.4172534  60.9032161  35.6472594  15.8510130  61.2306066
  34.2085026   9.8860971  44.0783174  34.0260600  10.1032852  43.2524167
  35.0710639   9.9999984  44.1341789  34.3089616   9.9350869  43.9637661
  33.8199458  21.7248894  51.5206162  34.6588358  21.9571826  51.5679924
  33.8511228  20.8553205  51.4513197  33.9481176  21.6305840  51.5170807
  34.4452161  22.1449769  55.8219468  34.9850386  22.0020900  56.4922840
  33.7622108  22.5446520  56.1903494  34.4244315  22.1829440  55.9753889
  39.8884746   6.8887382  47.1132198  40.6170906   6.7103337  46.6670354
  39.9779639   7.7305462  47.3239376  40.0091408   6.9871261  47.0785716
  43.8693046  17.8240769  51.0164492  44.6250561  18.2572284  51.0553401
  43.9755371  17.1745539  51.5899128  43.9963217  17.7918253  51.1062518
  46.9073217  21.6514047  51.7666895  46.4708449  21.6550789  52.5225866
  46.5736133  22.3319546  51.3346472  46.7935837  21.7526503  51.8147727
  41.4802291  23.6922380  63.0910045  42.2642708  23.8053227  63.4565787
  41.2798886  22.8663517  63.2868731  41.5668316  23.5869099  63.1744431
  29.8489306  18.3650060  55.9753889  29.5827722  17.5489176  56.1344879
  29.8627871  18.4103215  55.1049405  29.8114029  18.2506964  55.8707371
  46.8270700   8.6927875  54.0096323  47.4696609   8.7625979  54.5958238
  47.0793721   8.0257097  53.5075865  46.9592832   8.6054223  54.0223602
  33.7547053  13.1635144  42.5905647  33.0405231  12.8773324  43.0028080
  34.2391022  13.5031770  43.2312035  33.7206417  13.1716794  42.7461282
  34.5987913  11.9028438  58.6220897  33.9059710  11.4325418  58.8681628
  35.2148240  11.6766742  59.1962604  34.5872443  11.7995570  58.7430049
  41.6372684  25.6032482  56.7376501  40.8387930  25.3631982  56.9950369
  42.0858696  25.6546875  57.4843548  41.5847296  25.5754873  56.8861425
  50.0417564  18.3694967  50.6586532  50.7033998  17.8085635  50.5582441
  49.4008976  17.8746997  50.9839223  50.0446431  18.2131376  50.6918872
  30.2582720  19.1508839  53.2565633  30.0758293  19.1255725  52.4037926
  30.9932389  19.6207777  53.2954542  30.3396784  19.2170201  53.1363552
  33.3228472  15.8693842  59.7647742  34.0468444  15.8546873  60.2512637
  33.4244608  16.5789197  59.2669710  33.4446681  15.9718545  59.7626529
  40.6973421  19.3492927  64.6296689  39.9046402  19.6636438  64.8149309
  40.8122348  19.5644395  63.7917474  40.5968832  19.4276763  64.5335024
  43.3704740  16.0726918  48.9191705  43.4651595  16.8116212  49.3731330
  42.7463584  15.6444393  49.3526269  43.2913770  16.1188238  49.0499852
  41.6257214  19.2513130  59.5681986  42.1996076  18.6140374  59.7230550
  41.5472018  19.2517213  58.6991643  41.6990449  19.1578242  59.4628397
  30.2253630  16.0302340  53.4064700  30.8027133  15.8938791  54.0456945
  29.5267692  15.5738124  53.6610284  30.2074652  15.9424606  53.5386990
  36.9820933  17.6836395  51.6203183  36.7240177  16.8508130  51.5934483
  37.0369415  17.9094008  50.7795684  36.9520711  17.5934167  51.4923320
  42.0621983   9.7864846  51.7207276  41.3578310   9.2974032  51.8791195
  42.1106957   9.7987321  50.8495720  41.9652034   9.7154494  51.6146616
  35.9555645  15.2374158  52.1068078  35.3805236  15.3966326  52.7432039
  35.5791321  14.6009567  51.6436528  35.8158457  15.1671971  52.1322636
  39.6228933  13.7097507  56.9660456  39.2343366  13.2851725  56.3112648
  38.9583632  13.9579657  57.4737483  39.4675861  13.6836228  56.9448324
  49.2652203  13.4672512  49.7408286  49.0088767  12.6552453  49.5506169
  50.1081517  13.4750079  49.5138474  49.3518228  13.3484509  49.6793103
  25.7012464  14.8814233  50.1212519  25.7872716  14.5046101  50.9026048
  26.3288261  14.5074678  49.6432477  25.8069015  14.7699715  50.1657996
  43.4455295   7.4072136  54.4784441  43.8265807   6.7250307  54.8652315
  42.6418579   7.1181738  54.2960105  43.3831757   7.2639184  54.5088496
  40.7267872  17.9396112  45.1637263  41.5408511  18.2311005  45.0520035
  40.6627013  17.2855974  44.5895556  40.8370611  17.8861306  45.0626101
  46.9477362  20.6222108  59.5766839  46.7115999  19.7910173  59.4578900
  47.5920591  20.5707715  60.1621683  47.0072033  20.4919796  59.6452733
  36.5975780  21.4117629  50.2909575  37.2349727  21.1729377  50.8361369
  37.0230852  21.6154788  49.5562736  36.7551946  21.4068639  50.2626733
  31.2888422  23.6505966  54.1743879  31.3292568  23.9220817  53.3463659
  31.8482946  24.1747874  54.5901667  31.3771768  23.7681721  54.1135767
  37.2378595  16.6319919  44.6284465  37.6223748  16.4127626  45.3801010
  36.9890215  17.4582864  44.7585541  37.2580668  16.7218065  44.7585541
  37.4047135   9.9126334  64.3447049  37.0900576  10.6825897  64.0816612
  37.0837068   9.3496590  63.7599276  37.3106054   9.9436603  64.2188399
  47.9713783  20.4066557  55.6395133  47.6659600  21.1394613  56.0008449
  47.2519998  20.0004486  55.3587919  47.8201125  20.4548290  55.6508271
  38.9797252  21.8890052  51.9703362  39.0536260  21.7265224  52.8245212
  39.7966758  22.0780241  51.7263843  39.1113611  21.8926794  52.0601387
  53.6715575  17.0459557  54.9663478  53.6040075  17.0655516  54.0966064
  53.6571237  17.8889885  55.1919148  53.6594331  17.1733292  54.8715955
  32.7403009  22.2347915  48.9997805  31.9141126  22.4809652  48.8732084
  32.8015000  22.1559996  49.8659863  32.6277176  22.2592864  49.1086750
  34.9579032   8.3016856  49.9593245  34.0901458   8.3739455  50.0250855
  35.2454237   9.1038935  50.1481220  34.8718780   8.4311003  49.9968012
  44.0811921   8.4494715  58.2904567  44.8265513   8.2604525  57.8767993
  43.6649226   8.9752953  57.7318423  44.1296895   8.4996860  58.1469140
  51.4574192  15.8203944  53.2410072  52.0082114  15.1872013  53.4807164
  51.4418307  16.3519336  53.9325576  51.5359388  15.8052892  53.3788930
  38.1096583  19.6542541  57.7869966  37.6108276  20.3658309  57.8654854
  38.9196807  19.9743207  57.7488128  38.1552690  19.8069389  57.7926534
  34.3724700  18.9165494  52.0332686  34.0837949  18.2902965  52.5678414
  35.2408048  18.8585781  52.0997367  34.4584952  18.8153038  52.1223641
  45.1602598  14.0600277  52.3514668  44.8167364  13.3390612  52.7021918
  45.2595641  13.8514128  51.5093027  45.1244641  13.9224480  52.2786348
  45.6215627  20.5225981  47.8938656  46.1873660  21.1819191  47.8097199
  44.9743531  20.8675679  48.3655059  45.6094384  20.6707923  47.9511413
  37.0363641  12.5123585  63.0832264  36.2263417  12.8181365  62.9722106
  37.5138328  13.2329168  63.1984848  36.9867120  12.6638186  63.0839335
  35.8955200  21.7269306  53.3315167  35.3735954  21.8669598  54.0167032
  36.2829221  20.9679971  53.5217284  35.8758901  21.6354830  53.4616243
  32.8846384  11.7775115  47.4010122  32.5971180  11.4076385  46.6642069
  33.5716853  12.2469970  47.1393826  32.9435282  11.7922084  47.2525197
  37.3221526  18.7573325  48.7296658  37.1264309  19.3648060  48.1356961
  37.5455872  18.0641269  48.2488332  37.3256167  18.7450851  48.5712739
  35.7200056  15.6428063  48.8477526  36.4422708  15.8069221  48.3881332
  35.2408049  16.3637728  48.7416866  35.7563787  15.7726293  48.7643140
  43.6793564  11.9791862  54.2274211  42.8404664  12.0053141  53.9912474
  43.7497931  12.6262597  54.8079558  43.5661957  12.0787988  54.2783328
  33.3707673  18.0486136  57.9531666  33.8828770  18.3270389  57.3040426
  33.0844015  18.7875430  58.3194479  33.4042536  18.1988489  57.9121544
  42.1262842   8.8777239  48.9601827  42.8289195   8.6784987  48.4821785
  41.8607031   8.1053181  49.2670671  42.1909474   8.7340205  48.9347269
  47.5551087  17.1859849  51.5135453  47.4685062  17.3415275  52.3670232
  47.1001567  17.8297924  51.1394858  47.4754344  17.3035604  51.5842560
  30.4574579  12.5556327  48.2495403  30.5590715  13.3582489  48.5776378
  31.2530466  12.3543663  47.9518483  30.5902485  12.6442226  48.2530758
  36.8891398  10.1412524  58.0132708  36.6974595  10.1567659  58.8632131
  37.7389994  10.3376198  57.9899363  36.9867120  10.1726875  58.1356002
  31.2738311  12.6703506  55.9916524  31.1323803  11.8187446  56.1161032
  31.5578875  12.7132166  55.1678730  31.2946157  12.5503256  55.8884148
  41.4276904  14.5070596  50.1361012  41.1811618  14.4266347  50.9697801
  41.7562027  13.7224064  49.9423540  41.4398147  14.3796861  50.2308536
  45.3224952  21.2153955  53.9247794  45.1839312  21.9135001  54.4296536
  44.5424950  21.0602612  53.5683975  45.1868179  21.2954122  53.9474068
  43.6603037  17.5150331  60.1770175  43.6551076  16.6430147  60.1812602
  44.3664031  17.7138500  59.7039631  43.7648041  17.4154205  60.1077211
  39.5593848  16.4417483  57.3309127  38.8117162  16.6348497  56.9257405
  39.7135373  15.6162702  57.0933248  39.4716276  16.3482594  57.2354533
  36.4601686  25.4330086  56.4145022  36.6091250  24.8733002  55.7618427
  37.2401688  25.5122088  56.7977541  36.5975779  25.3615652  56.3741972
  38.9854986  25.6044729  57.6929513  38.9098658  24.9353540  58.2480301
  38.9144846  26.3062517  58.2070179  38.9635593  25.6089636  57.8506361
  39.7995625  10.3368034  58.2204531  40.2568239  11.0692008  58.3477323
  39.8751954   9.9134499  58.9791787  39.8786595  10.3825272  58.3505607
  32.0428616  10.5833853  59.3093975  31.5070806   9.9714211  59.6254742
  32.1046381  11.1581989  59.9627641  31.9724249  10.5780781  59.4529401
  44.2722951   3.5157909  52.0898374  44.3906519   3.9734372  51.3565676
  44.0985127   2.7103170  51.8034591  44.2642122   3.4651681  51.9399307
  37.6778003  12.3270137  55.0646355  36.8874078  12.1461598  55.3863691
  38.0738626  11.5497090  55.0476649  37.6194879  12.1857598  55.1098903
  43.0621689  19.9612568  52.7905801  42.3866691  19.7297800  53.2919188
  43.0714065  19.3533751  52.1647906  42.9640194  19.8371493  52.7721953
  40.1915833  14.8030397  59.5469854  40.1274975  15.6640353  59.4189990
  40.3313021  14.4862390  58.7465405  40.2031303  14.8830563  59.4098067
  38.8734927  17.4962536  53.6886057  38.4497176  17.6967035  52.9525075
  38.6979782  16.6491384  53.8010357  38.7845808  17.4011317  53.5959747
  38.3746621  29.0113049  56.1507514  38.8642551  28.3123838  55.9683179
  37.8030853  28.7136919  56.7383571  38.3631151  28.8639273  56.2108555
  34.1617372  17.9914587  49.1214029  34.3181991  17.9261390  49.9770021
  34.5017965  18.7663140  48.9092709  34.2350607  18.0963785  49.2168623
  40.6996517  17.3672471  47.9907392  41.2412062  16.8642852  48.4546013
  41.0143076  17.3137666  47.1796878  40.8260914  17.2851892  47.9391205
  44.5713624  21.5775118  65.1034305  45.3848490  21.3060267  65.2639437
  44.4108591  21.2782658  64.2994501  44.6683573  21.4930044  65.0079711
  41.8485786  12.2608775  58.0429693  42.0627756  11.6219690  57.4893047
  41.2319685  12.7054599  57.6137555  41.7891115  12.2318919  57.8980124
  30.7351634  15.1749538  49.4374796  31.1150599  15.5934083  48.7735064
  30.1606999  15.7562993  49.7443640  30.7062959  15.3227397  49.3851537
  44.0124874  13.8697841  58.9813000  43.2001556  13.5623731  59.0626173
  44.4714809  13.3896841  59.5455712  43.9605259  13.7534333  59.0767594
  43.4230129  21.7477513  49.4289944  43.0644784  21.9192155  50.2053977
  42.9368840  22.2090718  48.8717943  43.2988826  21.8416484  49.4615213
  41.2400515   5.3708711  53.0317036  40.3694073   5.3447432  52.9850345
  41.4940856   5.1985903  52.2142881  41.1494075   5.3418855  52.9037172
  38.2118494  17.4276678  41.9690179  38.5011019  18.2041560  42.2433753
  38.2990293  16.9165409  42.6704678  38.2672751  17.4668596  42.1132677
  41.1078382  15.2757912  63.7641702  41.5778013  15.9000028  64.1509576
  41.1540262  14.6074888  64.3234917  41.1846258  15.2692592  63.9041774
  38.2649655   7.3814940  54.4890506  37.7488144   6.6895131  54.6142085
  37.7043584   8.0485717  54.4353105  38.1056169   7.3778197  54.4996572
  40.3341889   7.9207900  56.3183359  39.9473642   7.9456931  57.0996889
  39.8474826   7.3549578  55.8657875  40.2054398   7.8403650  56.3671262
  44.5834868  22.6381409  60.3757145  45.2214589  22.1441604  60.0419601
  43.9408960  22.5658809  59.7909372  44.5829095  22.5540417  60.2399500
  46.3091868  14.4870554  54.9423061  45.8819476  14.3996903  54.1871160
  45.6717921  14.5948330  55.5277905  46.1521476  14.4903214  54.9168502
  39.9999031   4.8074885  58.6093619  40.6292149   5.3435185  58.3314689
  40.1684893   4.7152244  59.4607184  40.1176825   4.8736247  58.6942147
  39.8012945   9.5946080  60.8820030  40.6286375   9.3231229  60.9378645
  39.8220791  10.3906921  61.2383848  39.9265796   9.6725834  60.9435213
  44.6389125  23.3301217  57.0162502  45.4281503  22.9790282  57.1364584
  44.8132723  24.1437605  56.7539136  44.7809407  23.3987074  56.9950370
  34.3782435  16.7409943  54.0690291  33.5370442  16.6413817  54.2769185
  34.5872443  17.5105423  54.4204611  34.2847128  16.8401986  54.1517606
  31.8558002  14.3629479  51.8975041  31.4614700  14.4372491  51.1225151
  31.2998119  14.7487426  52.4483403  31.7160815  14.4311254  51.8642701
  43.4922949   7.3410774  51.5778920  43.6972542   7.2733081  52.4235918
  43.1649373   8.1469595  51.5100098  43.4738197   7.4496714  51.6938576
  38.1899100  14.6691342  53.3187888  37.8862238  14.1147330  53.9198296
  37.4878521  14.8483552  52.8315923  38.0415310  14.6136124  53.3357594
  37.2465197  11.9791862  47.8832590  37.5224932  11.2610774  47.4710158
  37.8463867  12.5776781  47.6753696  37.3758462  11.9612232  47.7913351
  36.2517451  21.8841062  58.0259986  36.1437806  21.8943125  58.8922044
  36.4613233  22.7095843  57.8364940  36.2667562  22.0082137  58.1264078
  46.7456637   7.8942538  51.0581686  46.1330950   8.3812940  51.4435418
  46.8420812   7.2186029  51.6019337  46.6694534   7.8660846  51.1960544
  40.7475718   9.6505379  46.1579185  41.2019464   9.8215939  46.8827030
  41.2215763   9.0373490  45.7576961  40.8844038   9.5856264  46.2052947
  34.2691243  19.1353705  55.4881924  33.6779176  19.7763203  55.4584939
  35.0312267  19.5591322  55.4613223  34.2939504  19.2929543  55.4797071
  34.6651866  10.2955703  56.1549941  35.1253348  10.3694632  56.8925065
  34.7107973  11.0936957  55.8049763  34.7402421  10.4249850  56.2122698
  36.3135216  10.9622397  60.7221968  35.9220781  10.3155745  61.1577746
  36.4821078  11.5533833  61.3416224  36.2806126  10.9536665  60.8784674
  50.3881665  18.9659475  56.4859202  50.4464788  19.4146123  57.2319178
  49.7548132  19.3758287  56.0489282  50.3032960  19.0933209  56.5311750
  44.0280759  24.5863016  52.9213948  43.8300448  25.0753831  52.2270159
  43.4068470  24.7904258  53.4998082  43.9068324  24.6879555  52.9037171
  38.0888738  16.3547913  47.2624192  38.8330783  16.7422190  47.5007142
  38.2349434  15.5105339  47.4264680  38.2199323  16.2878386  47.3218162
  40.0068313   8.1498172  52.2956054  39.1604358   8.3220980  52.1697404
  40.0039446   7.3447516  52.6321882  39.8815463   8.0559201  52.3267181
  41.0766614  11.9273387  53.1618112  40.6026568  11.4015149  53.6723423
  41.4484749  11.3802859  52.5932973  41.0616503  11.7689383  53.1533259
  31.4539644  13.9244893  58.5301658  32.3165257  13.8240602  58.4438987
  31.1231427  13.3439603  57.9687230  31.5324840  13.8236520  58.4347063
  47.3403344  16.9875762  54.5724892  47.1001567  16.1482177  54.5767319
  47.8195351  17.0675929  55.2965666  47.3755528  16.8757162  54.6799695
  43.0050113  12.8209941  46.2243866  42.4773132  12.9038685  45.5349574
  43.4645821  13.5627813  46.2208510  42.9951964  12.9430604  46.1218561
  49.3408531  13.7677219  52.5254151  49.1018301  13.7273054  51.6874936
  49.5042432  14.6148371  52.6519872  49.3298835  13.8869304  52.4207633
  45.9454561  18.1527169  58.4559197  46.6688760  17.6999695  58.2770216
  45.6804524  18.4331834  57.6731524  46.0135835  18.1278137  58.3137912
  34.8141430  12.7487342  55.1912076  34.1894500  12.7605734  54.5838028
  34.4787025  13.2247517  55.8403316  34.6726922  12.8205859  55.1968644
  34.9983178  11.0912461  41.2484761  34.6495983  11.7432186  41.7116310
  34.5179624  11.0769574  40.5208632  34.8753422  11.1855514  41.2095852
  31.5267105  20.8087802  56.6315840  30.9967030  20.1180241  56.6810815
  31.7992199  20.7997988  55.8028549  31.4891828  20.7054934  56.5163256
  41.7273351  18.2511047  56.6054212  41.1130344  17.7069097  56.9002847
  42.2440636  17.7375283  56.1260028  41.7129013  18.0947456  56.5778440
  40.9669648  19.3215317  54.3398510  40.5397256  18.6965036  53.9063946
  40.9594592  19.0390239  55.1657517  40.9028789  19.1868098  54.3978338
  34.0832175  14.3580490  57.4086944  34.2425662  13.6023814  57.8138666
  33.9025069  14.9071430  58.0627682  34.0797534  14.3274304  57.5649650
  42.0252478   6.5241726  57.9637734  41.5293039   6.7205400  57.2729300
  42.7821540   6.9234394  57.7926535  42.0639303   6.6119459  57.8357870
  39.2955358  10.1984072  54.5541044  39.3197845   9.6644184  53.8653824
  39.5466831   9.6901380  55.2166635  39.3365276  10.0444975  54.5505689
  26.8062947  17.4815567  53.9884188  26.7006397  17.4362411  53.1236272
  26.0563167  17.8269347  54.2698473  26.6798550  17.5256475  53.9021518
  35.5756680   8.9254890  53.9346789  35.6155052   9.4264096  54.6481496
  34.7506345   9.0165283  53.6652712  35.4596206   9.0136706  53.9997327
  37.7586293  18.4915630  62.0367083  36.9081923  18.6287344  62.1724728
  37.9214421  17.7579408  62.4814785  37.6570156  18.4029731  62.1222682
  36.9971043  15.4415400  56.2320688  36.1662973  15.6089218  56.0255936
  36.9422560  15.0651350  57.0169573  36.8660458  15.4105131  56.3169216
  34.8054827   8.9324293  61.8677098  35.4307530   8.3886425  62.1406531
  34.3505306   8.4519210  61.2984889  34.8303087   8.7813774  61.8238692
  35.3707087  13.7170991  46.7610805  35.5110048  14.2143455  47.4639447
  35.8689620  13.0157286  46.9025019  35.4648168  13.6872970  46.8862384
  35.4007309  14.5838102  44.0903382  36.0352389  15.1798527  44.0252844
  35.4832920  14.2841560  44.9049252  35.5063860  14.6279010  44.2006469
  48.3789875  17.1153580  56.9589746  48.9707716  17.7550830  56.9907944
  48.8148870  16.4176616  57.2481813  48.5308306  17.1071930  57.0070579
  36.9786292  10.5152078  44.0648824  37.3002133  10.0355160  43.4108086
  37.2413236  11.3251724  43.8739636  37.0652318  10.5641976  43.9404316
  40.2083265  21.5370952  57.5847640  39.7008356  22.0906799  58.0288271
  39.9109911  21.5979242  56.7666415  40.0888150  21.6277263  57.5296097
  42.3745447   9.9024272  56.4272303  42.8000519   9.4496798  55.8155830
  41.7602440   9.3484342  56.7037091  42.3474093   9.7538248  56.3777328
  31.9060297  16.7805943  47.3592928  32.4152527  17.3770450  47.7404234
  32.3794570  16.5131917  46.6769348  32.0503673  16.8291758  47.3147451
  40.8139670   6.3739371  49.8362880  40.1707988   6.2237018  50.4048019
  40.4739077   6.1281717  49.0711985  40.6684748   6.3151494  49.8065895
  45.4039017  14.3298798  49.2592889  44.7330207  14.8728500  49.1305954
  46.0978767  14.7993654  49.0174584  45.4067884  14.4797069  49.2048417
  39.4525750  26.4695510  54.4904647  39.2291405  25.7114339  54.8588673
  38.9635594  26.4993531  53.7685087  39.3469199  26.3617735  54.4381388
  45.5667144  10.7854682  52.1683262  45.9194754  10.3584405  52.8429061
  44.7081946  10.7005525  52.2984338  45.4916589  10.7099422  52.2878272
  34.2650829  13.4162202  50.2266109  33.5462818  13.8326334  50.4938972
  34.6363191  13.9816440  49.6757747  34.2142761  13.5611483  50.1848916
  43.5650410  14.0490050  56.1168104  43.5448337  13.8673346  56.9702883
  43.6129611  14.9202069  56.0927688  43.5685051  14.1506589  56.2391399
  41.5096740  20.6377242  62.0416581  41.4692595  19.9926919  61.4561737
  42.3220058  20.5813860  62.3541993  41.6239893  20.5336209  62.0013530
  41.4669501  25.8486054  52.6965348  41.0685785  25.9588324  51.9286169
  40.8520721  26.0568120  53.2791908  41.3168391  25.8959622  52.6696648
  40.0397403  12.4560201  45.5639488  39.4462243  12.7777198  45.0124055
  40.0772681  11.6101297  45.3560594  39.9571793  12.3784530  45.4522259
  46.9991204   5.9073094  53.0967574  46.4922069   5.2002233  53.0288752
  47.7958638   5.5766282  53.2268651  47.0418443   5.7546245  53.1066569
  42.9155220  12.4139706  48.9941238  42.6868913  12.4372407  48.1519596
  43.1753296  11.5897173  49.1136249  42.9201408  12.2955786  48.8866436
  37.1974449  14.2674179  58.5966338  36.6853352  13.6595362  58.9551370
  37.0253945  14.9830771  59.0640314  37.0964086  14.2837478  58.7182562
  32.0440163  12.7111754  61.2468700  31.8742753  13.3713129  60.7016907
  31.6006113  12.9218316  61.9681189  31.9539497  12.8397736  61.2730330
  35.9699983  10.9516252  50.2895434  36.4457349  11.3133332  49.6545615
  35.4688582  11.6072720  50.5695577  35.9665342  11.1010441  50.2372175
  41.0743519  12.1898424  61.0368594  41.6314949  11.9612233  60.4047059
  40.7504584  12.9504089  60.7603806  41.1089929  12.2682260  60.9025091
  28.9442228  15.6158620  56.5057190  28.3968947  14.9459265  56.6238058
  29.7334606  15.2488468  56.5700657  28.9794411  15.4623606  56.5325891
  38.7926636  15.2766077  62.0020601  39.5437963  15.5917754  62.3160155
  38.9849213  15.0745248  61.1754523  38.9318050  15.2933459  61.9263997
  38.0126636  13.0957452  43.6568818  38.3925601  13.1137081  42.8719933
  37.2719232  13.5411441  43.5359665  37.9595473  13.1639227  43.5232386
  45.6411926  11.4039643  49.2444397  45.6406153  11.2488300  50.1028673
  45.4368106  12.2502630  49.1885782  45.6111704  11.5060264  49.3632336
  27.7029197  14.8279428  53.6603213  27.5250958  14.3756037  54.3858129
  27.4148219  15.6305589  53.8441691  27.6342150  14.8801985  53.7946716
  43.3652778  16.0837145  52.8980603  43.8606444  15.3660140  52.8584624
  42.5552554  15.7807943  52.7835090  43.3196672  15.9334791  52.8754329
  29.4401667  17.3607151  50.7724972  28.5747187  17.3492842  50.6607743
  29.5400483  17.1737374  51.6196111  29.3275834  17.3313213  50.8813917
  45.4304597  18.8340833  55.5857732  45.8559669  18.3115254  55.0328157
  45.0661517  19.4321670  55.0646355  45.4391200  18.8451060  55.4266742
  35.0658677  27.1305050  54.3455078  35.3805236  27.9441438  54.3532859
  35.4752090  26.7455269  55.0137237  35.1726775  27.1933752  54.4459169
  42.0183197  22.5475097  51.9158890  42.4894375  23.2615359  52.0848875
  42.3543375  21.9473847  52.4518759  42.1378312  22.5646561  52.0191266
  44.1060181  24.1576410  64.0950962  44.2157147  23.3684971  64.4507709
  44.4351078  24.0682346  63.2925300  44.1712587  24.0282263  64.0293352
  38.9352692   7.3202567  58.8716984  39.0680597   6.5233561  59.1997960
  39.3197844   7.8468970  59.4515260  39.0109020   7.2802484  59.0060487
  42.6557143  22.3393031  58.6786582  42.1078089  21.7150915  58.4106648
  43.1170172  22.5287303  57.9630662  42.6424352  22.2752081  58.5337013
  42.0085047   4.2432893  55.4698078  41.2031010   4.1330623  55.7865916
  41.8791782   4.3445349  54.6127943  41.8705180   4.2416564  55.3906118
  45.4651007  10.4078385  56.0637775  44.8813996  10.9087592  55.6515342
  45.7855301   9.9007942  55.4302098  45.4264183  10.4070220  55.9096282
  38.0045806   9.3218980  46.3396449  38.8261501   9.4917293  46.0978144
  37.5415457   9.4766241  45.6162747  38.0576969   9.3700713  46.1968094
  36.5941138   7.3161742  57.1194878  37.1385551   6.9752869  57.7099220
  36.6478074   8.1747204  57.2616163  36.6830258   7.3917002  57.2276752
  32.4071697  21.0778158  53.9933686  33.0116554  21.0373993  53.3647507
  32.1999010  21.9249310  54.0237742  32.4660594  21.1966161  53.9049803
  42.2215469  23.3444104  55.2095923  43.0413843  23.2007070  55.4712219
  41.9409547  23.9690302  55.7512361  42.3012213  23.4154456  55.3283863
  27.6422979  20.0612776  53.8632609  27.5447257  19.2509047  54.1722666
  28.4251849  20.0404569  53.4778877  27.7439116  19.9379866  53.8519472
  58.6929120  31.0008955  48.1738800  58.6623124  31.8553592  48.3457069
  59.2910468  30.7004248  48.7324943  58.7766278  31.0825452  48.2813602
  51.8928804  30.0884606  52.9291730  51.0366700  30.2493105  52.9800847
  51.9396458  29.2176670  52.9496791  51.7727916  29.9835408  52.9397796
  55.2022521  36.3571132  62.5352186  55.9089288  35.8623163  62.6639121
  55.3910456  36.7980213  61.8054844  55.3350427  36.3489482  62.4461232
  54.7380625  32.1476650  55.5723382  55.2836586  32.8261737  55.6317352
  54.6797502  32.0064111  54.7124963  54.8096540  32.2268652  55.4535442
  43.3509832  27.8271734  53.4828376  42.7314864  27.2364381  53.3138390
  43.2493696  28.4183169  52.8492699  43.2447508  27.8275816  53.3633365
  50.4477728  29.5671275  47.8160839  51.1457892  29.7459403  48.3082302
  50.7630060  29.0441615  47.1931228  50.5973065  29.5165047  47.7962849
  43.0778965  31.3724015  55.7271945  42.9537662  31.9586461  56.3621764
  43.7297250  30.8784211  56.0284220  43.1552614  31.3862820  55.8657874
  48.6204591  24.9363672  51.8982113  48.2907921  25.3874816  51.2285812
  47.9449593  24.8579835  52.4455120  48.4715028  24.9914807  51.8805337
  55.8280999  20.9249195  50.1431724  55.5134440  21.6152673  50.5752146
  55.3107941  20.8693977  49.4417225  55.7045470  21.0184083  50.1028673
  60.6241486  36.5000000  51.6302179  59.7939189  36.7110644  51.7935596
  60.5750738  35.6737055  51.3544463  60.4948221  36.4089607  51.6139545
  60.1195444  29.1470401  55.4252600  59.2823865  29.2172588  55.6600195
  60.0883675  29.1494896  54.5526903  59.9913727  29.1580628  55.3312148
  46.5160173  31.2903437  61.1400969  46.6880677  31.1809331  61.9886251
  47.0529531  31.9357842  60.9032161  46.6205177  31.3695438  61.2306066
  57.8805801  37.1699355  51.7666895  57.4441033  37.1736097  52.5225866
  57.5468716  37.8504854  51.3346472  57.7668421  37.2711810  51.8147727
  52.4534875  39.2107687  63.0910045  53.2375291  39.3238535  63.4565787
  52.2531469  38.3848825  63.2868731  52.5400900  39.1054407  63.1744431
  57.8003284  24.2113182  54.0096323  58.4429192  24.2811287  54.5958238
  58.0526305  23.5442405  53.5075865  57.9325416  24.1239531  54.0223602
  45.5720496  27.4213746  58.6220897  44.8792293  26.9510726  58.8681628
  46.1880824  27.1952050  59.1962604  45.5605026  27.3180878  58.7430049
  61.0150147  33.8880275  50.6586532  61.6766581  33.3270943  50.5582441
  60.3741559  33.3932305  50.9839223  61.0179015  33.7316684  50.6918872
  57.3014978  34.9045657  50.3998521  57.5370567  35.0490856  49.5725372
  57.4504542  35.6688065  50.7930035  57.3580781  35.0384711  50.3362125
  44.2961055  31.3879150  59.7647742  45.0201028  31.3732181  60.2512637
  44.3977192  32.0974505  59.2669710  44.4179264  31.4903853  59.7626529
  59.1305435  33.7447323  48.2368125  59.4613652  34.2774963  47.6308220
  59.7038523  33.7986211  48.8930076  59.2639114  33.8316892  48.2445906
  51.6706005  34.8678234  64.6296689  50.8778986  35.1821746  64.8149309
  51.7854932  35.0829703  63.7917474  51.5701415  34.9462071  64.5335024
  52.5989798  34.7698438  59.5681986  53.1728659  34.1325682  59.7230550
  52.5204601  34.7702521  58.6991643  52.6723032  34.6763550  59.4628397
  53.0354566  25.3050154  51.7207276  52.3310893  24.8159340  51.8791195
  53.0839541  25.3172628  50.8495720  52.9384618  25.2339802  51.6146616
  50.5961517  29.2282815  56.9660456  50.2075950  28.8037033  56.3112648
  49.9316215  29.4764965  57.4737483  50.4408445  29.2021536  56.9448324
  60.2384786  28.9857820  49.7408286  59.9821351  28.1737761  49.5506169
  61.0814100  28.9935387  49.5138474  60.3250812  28.8669817  49.6793103
  54.4187879  22.9257444  54.4784441  54.7998390  22.2435615  54.8652315
  53.6151163  22.6367046  54.2960105  54.3564340  22.7824492  54.5088496
  57.9209945  36.1407416  59.5766839  57.6848583  35.3095481  59.4578900
  58.5653174  36.0893023  60.1621683  57.9804616  36.0105104  59.6452733
  48.3779719  25.4311642  64.3447049  48.0633160  26.2011205  64.0816612
  48.0569652  24.8681898  63.7599276  48.2838638  25.4621911  64.2188399
  58.9446366  35.9251865  55.6395133  58.6392183  36.6579921  56.0008449
  58.2252582  35.5189794  55.3587919  58.7933708  35.9733598  55.6508271
  64.6448158  32.5644865  54.9663478  64.5772659  32.5840824  54.0966064
  64.6303821  33.4075192  55.1919148  64.6326915  32.6918600  54.8715955
  45.9311616  23.8202164  49.9593245  45.0634041  23.8924763  50.0250855
  46.2186820  24.6224243  50.1481220  45.8451364  23.9496311  49.9968012
  55.0544505  23.9680023  58.2904567  55.7998097  23.7789833  57.8767993
  54.6381809  24.4938261  57.7318423  55.1029479  24.0182168  58.1469140
  62.4306776  31.3389251  53.2410072  62.9814697  30.7057321  53.4807164
  62.4150891  31.8704644  53.9325576  62.5091972  31.3238200  53.3788930
  49.0829166  35.1727849  57.7869966  48.5840860  35.8843616  57.8654854
  49.8929391  35.4928515  57.7488128  49.1285273  35.3254697  57.7926534
  56.1335182  29.5785585  52.3514668  55.7899948  28.8575920  52.7021918
  56.2328224  29.3699436  51.5093027  56.0977225  29.4409788  52.2786348
  48.0096224  28.0308893  63.0832264  47.1996000  28.3366673  62.9722106
  48.4870911  28.7514475  63.1984848  47.9599703  28.1823494  63.0839335
  54.6526147  27.4977170  54.2274211  53.8137248  27.5238449  53.9912474
  54.7230514  28.1447905  54.8079558  54.5394541  27.5973296  54.2783328
  44.3440256  33.5671443  57.9531666  44.8561353  33.8455697  57.3040426
  44.0576599  34.3060738  58.3194479  44.3775119  33.7173797  57.9121544
  53.0995425  24.3962547  48.9601827  53.8021778  24.1970295  48.4821785
  52.8339614  23.6238489  49.2670671  53.1642058  24.2525513  48.9347269
  58.5283671  32.7045157  51.5135453  58.4417646  32.8600583  52.3670232
  58.0734151  33.3483232  51.1394858  58.4486928  32.8220912  51.5842560
  47.8623982  25.6597832  58.0132708  47.6707179  25.6752967  58.8632131
  48.7122578  25.8561506  57.9899363  47.9599704  25.6912183  58.1356002
  42.2470895  28.1888814  55.9916524  42.1056387  27.3372754  56.1161032
  42.5311458  28.2317474  55.1678730  42.2678741  28.0688564  55.8884148
  52.4009487  30.0255904  50.1361012  52.1544201  29.9451655  50.9697801
  52.7294610  29.2409372  49.9423540  52.4130731  29.8982169  50.2308536
  56.2957536  36.7339263  53.9247794  56.1571895  37.4320309  54.4296536
  55.5157534  36.5787920  53.5683975  56.1600763  36.8139430  53.9474068
  54.6335621  33.0335638  60.1770175  54.6283660  32.1615455  60.1812602
  55.3396615  33.2323808  59.7039631  54.7380625  32.9339513  60.1077211
  48.3606514  32.7612622  59.5483996  48.5049890  33.3413830  58.9127106
  48.7082163  33.1388919  60.2533850  48.4333976  32.9033326  59.5582990
  50.5326432  31.9602791  57.3309127  49.7849746  32.1533805  56.9257405
  50.6867957  31.1348010  57.0933248  50.4448859  31.8667902  57.2354533
  50.7728209  25.8553341  58.2204531  51.2300823  26.5877316  58.3477323
  50.8484538  25.4319807  58.9791787  50.8519179  25.9010580  58.3505607
  43.0161200  26.1019161  59.3093975  42.4803389  25.4899519  59.6254742
  43.0778965  26.6767297  59.9627641  42.9456833  26.0966089  59.4529401
  55.2455535  19.0343217  52.0898374  55.3639103  19.4919680  51.3565676
  55.0717710  18.2288478  51.8034591  55.2374706  18.9836989  51.9399307
  48.6510587  27.8455445  55.0646355  47.8606661  27.6646905  55.3863691
  49.0471210  27.0682398  55.0476649  48.5927463  27.7042906  55.1098903
  51.1648417  30.3215704  59.5469854  51.1007558  31.1825661  59.4189990
  51.3045605  30.0047698  58.7465405  51.1763887  30.4015871  59.4098067
  55.5446208  37.0960426  65.1034305  56.3581073  36.8245575  65.2639437
  55.3841174  36.7967966  64.2994501  55.6416156  37.0115352  65.0079711
  52.8218370  27.7794083  58.0429693  53.0360339  27.1404998  57.4893047
  52.2052269  28.2239907  57.6137555  52.7623699  27.7504227  57.8980124
  54.9857458  29.3883149  58.9813000  54.1734140  29.0809039  59.0626173
  55.4447392  28.9082149  59.5455712  54.9337843  29.2719641  59.0767594
  52.2133098  20.8894019  53.0317036  51.3426656  20.8632740  52.9850345
  52.4673440  20.7171211  52.2142881  52.1226659  20.8604163  52.9037172
  52.0810965  30.7943220  63.7641702  52.5510596  31.4185336  64.1509576
  52.1272845  30.1260196  64.3234917  52.1578841  30.7877900  63.9041774
  49.2382239  22.9000247  54.4890506  48.7220728  22.2080439  54.6142085
  48.6776168  23.5671024  54.4353105  49.0788752  22.8963505  54.4996572
  51.3074472  23.4393207  56.3183359  50.9206226  23.4642239  57.0996889
  50.8207410  22.8734886  55.8657875  51.1786981  23.3588958  56.3671262
  55.5567452  38.1566716  60.3757145  56.1947172  37.6626912  60.0419601
  54.9141543  38.0844117  59.7909372  55.5561678  38.0725725  60.2399500
  57.2824452  30.0055862  54.9423061  56.8552060  29.9182211  54.1871160
  56.6450505  30.1133638  55.5277905  57.1254059  30.0088522  54.9168502
  50.9731614  20.3260193  58.6093619  51.6024732  20.8620493  58.3314689
  51.1417477  20.2337552  59.4607184  51.0909409  20.3921555  58.6942147
  50.7745529  25.1131388  60.8820030  51.6018958  24.8416537  60.9378645
  50.7953375  25.9092229  61.2383848  50.8998379  25.1911142  60.9435213
  55.6121708  38.8486525  57.0162502  56.4014087  38.4975589  57.1364584
  55.7865306  39.6622913  56.7539136  55.7541990  38.9172382  56.9950370
  54.4655533  22.8596081  51.5778920  54.6705126  22.7918389  52.4235918
  54.1381957  23.6654903  51.5100098  54.4470780  22.9682022  51.6938576
  49.1631684  30.1876650  53.3187888  48.8594821  29.6332638  53.9198296
  48.4611104  30.3668860  52.8315923  49.0147894  30.1321432  53.3357594
  57.7189220  23.4127846  51.0581686  57.1063534  23.8998248  51.4435418
  57.8153395  22.7371337  51.6019337  57.6427118  23.3846154  51.1960544
  51.7208301  25.1690687  46.1579185  52.1752048  25.3401247  46.8827030
  52.1948347  24.5558798  45.7576961  51.8576621  25.1041572  46.2052947
  45.6384450  25.8141011  56.1549941  46.0985931  25.8879940  56.8925065
  45.6840556  26.6122265  55.8049763  45.7135005  25.9435158  56.2122698
  47.2867799  26.4807705  60.7221968  46.8953364  25.8341053  61.1577746
  47.4553662  27.0719141  61.3416224  47.2538710  26.4721973  60.8784674
  61.3614248  34.4844782  56.4859202  61.4197372  34.9331431  57.2319178
  60.7280716  34.8943595  56.0489282  61.2765543  34.6118517  56.5311750
  55.0013343  40.1048324  52.9213948  54.8033032  40.5939139  52.2270159
  54.3801054  40.3089566  53.4998082  54.8800907  40.2064863  52.9037171
  50.9800897  23.6683480  52.2956054  50.1336942  23.8406288  52.1697404
  50.9772029  22.8632824  52.6321882  50.8548047  23.5744509  52.3267181
  52.0499197  27.4458694  53.1618112  51.5759151  26.9200457  53.6723423
  52.4217333  26.8988167  52.5932973  52.0349086  27.2874691  53.1533259
  42.4272227  29.4430201  58.5301658  43.2897840  29.3425910  58.4438987
  42.0964010  28.8624910  57.9687230  42.5057424  29.3421828  58.4347063
  58.3135928  32.5061070  54.5724892  58.0734151  31.6667485  54.5767319
  58.7927935  32.5861237  55.2965666  58.3488111  32.3942470  54.6799695
  53.9782697  28.3395249  46.2243866  53.4505715  28.4223993  45.5349574
  54.4378405  29.0813121  46.2208510  53.9684547  28.4615911  46.1218561
  60.3141115  29.2862527  52.5254151  60.0750885  29.2458362  51.6874936
  60.4775016  30.1333679  52.6519872  60.3031418  29.4054612  52.4207633
  56.9187145  33.6712477  58.4559197  57.6421344  33.2185003  58.2770216
  56.6537107  33.9517142  57.6731524  56.9868418  33.6463445  58.3137912
  45.7874013  28.2672650  55.1912076  45.1627083  28.2791042  54.5838028
  45.4519608  28.7432825  55.8403316  45.6459505  28.3391167  55.1968644
  52.7005934  33.7696355  56.6054212  52.0862927  33.2254405  56.9002847
  53.2173219  33.2560591  56.1260028  52.6861597  33.6132764  56.5778440
  45.0564759  29.8765798  57.4086944  45.2158245  29.1209122  57.8138666
  44.8757652  30.4256738  58.0627682  45.0530118  29.8459612  57.5649650
  52.9985062  22.0427034  57.9637734  52.5025623  22.2390708  57.2729300
  53.7554124  22.4419702  57.7926535  53.0371886  22.1304767  57.8357870
  50.2687941  25.7169379  54.5541044  50.2930428  25.1829492  53.8653824
  50.5199415  25.2086688  55.2166635  50.3097860  25.5630283  54.5505689
  46.5489263  24.4440198  53.9346789  46.5887635  24.9449404  54.6481496
  45.7238928  24.5350591  53.6652712  46.4328789  24.5322014  53.9997327
  48.7318876  34.0100938  62.0367083  47.8814507  34.1472652  62.1724728
  48.8947004  33.2764716  62.4814785  48.6302740  33.9215039  62.1222682
  47.9703627  30.9600708  56.2320688  47.1395557  31.1274526  56.0255936
  47.9155144  30.5836658  57.0169573  47.8393042  30.9290439  56.3169216
  45.7787410  24.4509600  61.8677098  46.4040114  23.9071733  62.1406531
  45.3237890  23.9704518  61.2984889  45.8035671  24.2999082  61.8238692
  59.3522459  32.6338887  56.9589746  59.9440299  33.2736138  56.9907944
  59.7881453  31.9361924  57.2481813  59.5040890  32.6257238  57.0070579
  51.1815849  37.0556260  57.5847640  50.6740940  37.6092107  58.0288271
  50.8842495  37.1164550  56.7666415  51.0620734  37.1462571  57.5296097
  53.3478031  25.4209579  56.4272303  53.7733102  24.9682106  55.8155830
  52.7335024  24.8669650  56.7037091  53.3206676  25.2723556  56.3777328
  51.7872254  21.8924679  49.8362880  51.1440572  21.7422326  50.4048019
  51.4471661  21.6467025  49.0711985  51.6417331  21.8336802  49.8065895
  56.3771600  29.8484106  49.2592889  55.7062790  30.3913808  49.1305954
  57.0711350  30.3178961  49.0174584  56.3800468  29.9982377  49.2048417
  56.5399728  26.3039990  52.1683262  56.8927338  25.8769713  52.8429061
  55.6814529  26.2190833  52.2984338  56.4649172  26.2284730  52.2878272
  54.5382994  29.5675358  56.1168104  54.5180921  29.3858654  56.9702883
  54.5862194  30.4387377  56.0927688  54.5417635  29.6691897  56.2391399
  52.4829323  36.1562550  62.0416581  52.4425178  35.5112227  61.4561737
  53.2952642  36.0999168  62.3541993  52.5972477  36.0521517  62.0013530
  51.0129987  27.9745509  45.5639488  50.4194826  28.2962506  45.0124055
  51.0505265  27.1286605  45.3560594  50.9304376  27.8969838  45.4522259
  57.9723788  21.4258402  53.0967574  57.4654652  20.7187541  53.0288752
  58.7691222  21.0951590  53.2268651  58.0151027  21.2731553  53.1066569
  53.8887804  27.9325014  48.9941238  53.6601497  27.9557715  48.1519596
  54.1485880  27.1082481  49.1136249  53.8933992  27.8141094  48.8866436
  48.1707032  29.7859487  58.5966338  47.6585935  29.1780670  58.9551370
  47.9986528  30.5016079  59.0640314  48.0696669  29.8022786  58.7182562
  43.0172747  28.2297062  61.2468700  42.8475337  28.8898437  60.7016907
  42.5738697  28.4403623  61.9681189  42.9272080  28.3583044  61.2730330
  46.9432566  26.4701560  50.2895434  47.4189932  26.8318640  49.6545615
  46.4421166  27.1258028  50.5695577  46.9397925  26.6195749  50.2372175
  60.1743928  35.9423328  46.0808439  60.5577533  36.6914684  46.3106536
  59.3788041  36.1889148  45.8220428  60.1137710  36.0893022  46.0766012
  52.0476102  27.7083732  61.0368594  52.6047533  27.4797541  60.4047059
  51.7237167  28.4689397  60.7603806  52.0822513  27.7867568  60.9025091
  39.9174811  31.1343928  56.5057190  39.3701531  30.4644573  56.6238058
  40.7067189  30.7673776  56.5700657  39.9526995  30.9808914  56.5325891
  49.7659220  30.7951385  62.0020601  50.5170547  31.1103062  62.3160155
  49.9581796  30.5930556  61.1754523  49.9050634  30.8118767  61.9263997
  56.6144510  26.9224951  49.2444397  56.6138736  26.7673608  50.1028673
  56.4100690  27.7687938  49.1885782  56.5844288  27.0245572  49.3632336
  38.6761781  30.3464736  53.6603213  38.4983542  29.8941345  54.3858129
  38.3880803  31.1490897  53.8441691  38.6074734  30.3987293  53.7946716
  54.3385362  31.6022453  52.8980603  54.8339027  30.8845448  52.8584624
  53.5285138  31.2993251  52.7835090  54.2929255  31.4520099  52.8754329
  56.4037181  34.3526140  55.5857732  56.8292252  33.8300562  55.0328157
  56.0394101  34.9506978  55.0646355  56.4123783  34.3636367  55.4266742
  55.0792765  39.6761718  64.0950962  55.1889730  38.8870279  64.4507709
  55.4083661  39.5867654  63.2925300  55.1445171  39.5467571  64.0293352
  49.9085275  22.8387875  58.8716984  50.0413181  22.0418869  59.1997960
  50.2930428  23.3654278  59.4515260  49.9841604  22.7987792  59.0060487
  53.6289727  37.8578339  58.6786582  53.0810672  37.2336222  58.4106648
  54.0902755  38.0472611  57.9630662  53.6156936  37.7937389  58.5337013
  52.9817630  19.7618201  55.4698078  52.1763594  19.6515931  55.7865916
  52.8524366  19.8630657  54.6127943  52.8437763  19.7601871  55.3906118
  56.4383591  25.9263693  56.0637775  55.8546580  26.4272900  55.6515342
  56.7587885  25.4193249  55.4302098  56.3996766  25.9255528  55.9096282
  47.5673722  22.8347050  57.1194878  48.1118135  22.4938177  57.7099220
  47.6210658  23.6932512  57.2616163  47.6562841  22.9102310  57.2276752
  53.1948053  38.8629412  55.2095923  54.0146427  38.7192378  55.4712219
  52.9142130  39.4875610  55.7512361  53.2744796  38.9339764  55.3283863
  69.6661703  46.5194263  48.1738800  69.6355708  47.3738900  48.3457069
  70.2643052  46.2189556  48.7324943  69.7498861  46.6010760  48.2813602
  62.8661388  45.6069914  52.9291730  62.0099284  45.7678413  52.9800847
  62.9129042  44.7361978  52.9496791  62.7460499  45.5020716  52.9397796
  57.2502528  55.1432632  48.6928962  56.4985427  54.7648170  48.4645007
  57.6988539  55.1751066  47.9447772  57.2052195  55.0918239  48.5486464
  66.1755105  51.8756440  62.5352186  66.8821872  51.3808471  62.6639121
  66.3643040  52.3165521  61.8054844  66.3083010  51.8674790  62.4461232
  62.2431779  57.5172270  50.0625620  62.6271158  58.0859169  49.5230396
  62.1790920  56.7921781  49.5831437  62.2905206  57.4947734  49.9119483
  65.7113209  47.6661958  55.5723382  66.2569169  48.3447045  55.6317352
  65.6530085  47.5249419  54.7124963  65.7829123  47.7453960  55.4535442
  58.8287284  55.1551024  50.9591734  58.9297647  54.3451378  51.2688862
  58.2329029  55.0607971  50.3291413  58.7559823  55.0216052  50.9117973
  67.4878278  49.0946565  46.4457110  67.3717804  49.8454251  46.8749248
  68.2834164  48.8370519  46.6953197  67.5882867  49.1681412  46.5461201
  58.6688024  60.0728613  52.3606590  59.3125479  60.5141777  52.7502749
  58.9944279  59.2682040  52.2736849  58.8119852  60.0193808  52.4052068
  59.3708603  53.0840588  47.7326452  59.6924444  53.6245796  47.1287760
  60.0180700  52.5137360  47.8648742  59.5134658  53.0799763  47.6633487
  61.6098247  51.4727028  47.8040630  62.0491882  50.8644129  48.2495403
  61.4602910  51.0934402  47.0326095  61.6519712  51.3265499  47.7559798
  59.0769890  50.0671040  55.0059456  59.7218892  49.5743483  54.6870404
  59.3171667  50.2095827  55.8325534  59.2080475  50.0148482  55.0808989
  61.6155981  52.9125946  54.6566348  61.8979224  52.1177352  54.4353104
  62.3442141  53.3906533  54.6771409  61.7645545  52.8660543  54.6269363
  59.5937175  40.4548980  51.8982113  59.2640505  40.9060123  51.2285812
  58.9182177  40.3765143  52.4455120  59.4447611  40.5100115  51.8805337
  65.2107583  49.8254210  44.7571399  65.1258878  50.6815176  44.9020968
  65.6991966  49.5498534  45.4253559  65.2696481  49.9111531  44.8773481
  66.8013583  36.4434503  50.1431724  66.4867024  37.1337981  50.5752146
  66.2840524  36.3879285  49.4417225  66.6778053  36.5369391  50.1028673
  66.1426016  46.4439004  46.2569135  65.6137488  46.6598637  46.9166441
  66.6651036  47.1375142  46.1770104  66.1414469  46.5782141  46.3424734
  71.5974069  52.0185308  51.6302179  70.7671772  52.2295952  51.7935596
  71.5483322  51.1922363  51.3544463  71.4680805  51.9274914  51.6139545
  53.5869653  56.0556982  51.8600274  53.1037231  56.7807471  51.8359858
  54.3992971  56.3533112  51.9710432  53.6360401  56.2059335  51.8727553
  59.6583807  54.8489162  54.4650089  59.1410749  54.4896577  53.8611397
  60.3558198  54.3251337  54.4756155  59.6849388  54.7186850  54.3780347
  63.3147399  55.2983976  60.4266262  63.4030745  55.1110117  61.2744472
  63.7437111  54.6521406  60.0271108  63.3909501  55.1746984  60.4938013
  60.8817859  54.5815136  59.4083924  60.3188694  54.1687746  59.9323585
  61.6438882  54.5068042  59.8277067  60.9112307  54.5092537  59.5476924
  56.4413850  56.5713158  52.0120554  57.1434429  56.0565147  52.0693311
  56.3611333  56.8987309  52.8167429  56.5337611  56.5427384  52.1393346
  71.0928028  44.6655709  55.4252600  70.2556449  44.7357896  55.6600195
  71.0616259  44.6680204  54.5526903  70.9646310  44.6765936  55.3312148
  57.4892757  46.8088744  61.1400969  57.6613260  46.6994639  61.9886251
  58.0262114  47.4543150  60.9032161  57.5937761  46.8880746  61.2306066
  56.3917329  53.1820385  55.8219468  56.9315554  53.0391516  56.4922840
  55.7087275  53.5817136  56.1903494  56.3709482  53.2200056  55.9753889
  61.8349913  37.9257998  47.1132198  62.5636073  37.7473953  46.6670354
  61.9244806  38.7676078  47.3239376  61.9556575  38.0241876  47.0785716
  65.8158213  48.8611385  51.0164492  66.5715729  49.2942900  51.0553401
  65.9220538  48.2116155  51.5899128  65.9428384  48.8288869  51.1062518
  68.8538385  52.6884663  51.7666895  68.4173616  52.6921405  52.5225866
  68.5201300  53.3690162  51.3346472  68.7401005  52.7897118  51.8147727
  63.4267458  54.7292995  63.0910045  64.2107875  54.8423843  63.4565787
  63.2264053  53.9034133  63.2868731  63.5133484  54.6239715  63.1744431
  68.7735867  39.7298490  54.0096323  69.4161776  39.7996595  54.5958238
  69.0258888  39.0627713  53.5075865  68.9058000  39.6424839  54.0223602
  63.5837852  56.6403097  56.7376501  62.7853097  56.4002598  56.9950369
  64.0323863  56.6917490  57.4843548  63.5312463  56.6125489  56.8861425
  71.9882731  49.4065582  50.6586532  72.6499165  48.8456251  50.5582441
  71.3474143  48.9117613  50.9839223  71.9911598  49.2501992  50.6918872
  62.8759539  52.7035714  42.9667455  63.2910687  52.3720738  42.2751951
  62.0451468  52.4704616  42.8387592  62.8147547  52.6206970  42.8458303
  68.2747562  50.4230965  50.3998521  68.5103151  50.5676164  49.5725372
  68.4237125  51.1873373  50.7930035  68.3313365  50.5570019  50.3362125
  70.1038018  49.2632631  48.2368125  70.4346235  49.7960271  47.6308220
  70.6771106  49.3171519  48.8930076  70.2371697  49.3502200  48.2445906
  62.6438588  50.3863542  64.6296689  61.8511569  50.7007054  64.8149309
  62.7587516  50.6015011  63.7917474  62.5433999  50.4647379  64.5335024
  65.3169907  47.1097534  48.9191705  65.4116762  47.8486828  49.3731330
  64.6928751  46.6815009  49.3526269  65.2378937  47.1558854  49.0499852
  63.5722381  50.2883746  59.5681986  64.1461243  49.6510990  59.7230550
  63.4937185  50.2887829  58.6991643  63.6455616  50.1948858  59.4628397
  65.5692929  48.9546273  42.1528657  65.4873091  49.0248460  43.0183644
  66.2072649  49.5176017  41.9612397  65.6512766  49.0485244  42.2518606
  58.9286100  48.7207011  51.6203183  58.6705344  47.8878746  51.5934483
  58.9834583  48.9464624  50.7795684  58.8985878  48.6304783  51.4923320
  64.0087150  40.8235462  51.7207276  63.3043477  40.3344647  51.8791195
  64.0572124  40.8357936  50.8495720  63.9117202  40.7525110  51.6146616
  61.5694101  44.7468123  56.9660456  61.1808533  44.3222341  56.3112648
  60.9048799  44.9950273  57.4737483  61.4141028  44.7206844  56.9448324
  71.2117370  44.5043128  49.7408286  70.9553935  43.6923069  49.5506169
  72.0546684  44.5120695  49.5138474  71.2983395  44.3855125  49.6793103
  65.3920462  38.4442752  54.4784441  65.7730974  37.7620923  54.8652315
  64.5883746  38.1552354  54.2960105  65.3296924  38.3009800  54.5088496
  68.8942529  51.6592724  59.5766839  68.6581166  50.8280789  59.4578900
  69.5385758  51.6078331  60.1621683  68.9537200  51.5290412  59.6452733
  58.5440947  52.4488245  50.2909575  59.1814894  52.2099993  50.8361369
  58.9696019  52.6525404  49.5562736  58.7017113  52.4439255  50.2626733
  53.2353590  54.6876582  54.1743879  53.2757735  54.9591433  53.3463659
  53.7948114  55.2118490  54.5901667  53.3236935  54.8052337  54.1135767
  59.3512303  40.9496950  64.3447049  59.0365744  41.7196513  64.0816612
  59.0302235  40.3867206  63.7599276  59.2571222  40.9807219  64.2188399
  69.9178950  51.4437173  55.6395133  69.6124767  52.1765229  56.0008449
  69.1985165  51.0375102  55.3587919  69.7666292  51.4918905  55.6508271
  60.9262419  52.9260668  51.9703362  61.0001427  52.7635840  52.8245212
  61.7431925  53.1150857  51.7263843  61.0578778  52.9297410  52.0601387
  75.6180742  48.0830173  54.9663478  75.5505242  48.1026132  54.0966064
  75.6036404  48.9260500  55.1919148  75.6059498  48.2103908  54.8715955
  66.0277088  39.4865331  58.2904567  66.7730680  39.2975141  57.8767993
  65.6114393  40.0123569  57.7318423  66.0762063  39.5367476  58.1469140
  59.4667005  55.8895411  46.7016835  59.7565303  55.4984392  45.9776062
  60.1970486  56.0712116  47.1422110  59.6173889  55.8589225  46.6599642
  73.4039359  46.8574559  53.2410072  73.9547281  46.2242628  53.4807164
  73.3883475  47.3889952  53.9325576  73.4824556  46.8423508  53.3788930
  60.0561750  50.6913157  57.7869966  59.5573444  51.4028924  57.8654854
  60.8661974  51.0113823  57.7488128  60.1017857  50.8440005  57.7926534
  57.4072920  57.8662793  49.7676985  57.1873216  57.5760148  50.5603652
  57.1867442  57.2077748  49.2394897  57.3420515  57.7262502  49.8065893
  67.1067765  45.0970893  52.3514668  66.7632531  44.3761228  52.7021918
  67.2060808  44.8884744  51.5093027  67.0709808  44.9595096  52.2786348
  59.5740876  59.2392183  48.5507677  60.2264934  58.7068625  48.7798703
  58.8766485  58.8860835  48.9375551  59.5671594  59.1081706  48.6419845
  67.5680794  51.5596597  47.8938656  68.1338827  52.2189807  47.8097199
  66.9208698  51.9046295  48.3655059  67.5559551  51.7078538  47.9511413
  58.9828808  43.5494201  63.0832264  58.1728584  43.8551981  62.9722106
  59.4603495  44.2699783  63.1984848  58.9332287  43.7008802  63.0839335
  57.8420368  52.7639922  53.3315167  57.3201121  52.9040214  54.0167032
  58.2294388  52.0050586  53.5217284  57.8224068  52.6725446  53.4616243
  64.0387373  54.5035381  47.3175736  63.7974048  53.7703242  46.9102801
  64.2188705  55.0522238  46.6642069  64.0294997  54.4757772  47.1605959
  59.2686693  49.7943941  48.7296658  59.0729476  50.4018676  48.1356961
  59.4921039  49.1011885  48.2488332  59.2721334  49.7821467  48.5712739
  65.6258731  43.0162478  54.2274211  64.7869831  43.0423757  53.9912474
  65.6963098  43.6633213  54.8079558  65.5127124  43.1158604  54.2783328
  64.0728009  39.9147855  48.9601827  64.7754362  39.7155603  48.4821785
  63.8072198  39.1423797  49.2670671  64.1374641  39.7710821  48.9347269
  69.5016255  48.2230465  51.5135453  69.4150229  48.3785891  52.3670232
  69.0466735  48.8668540  51.1394858  69.4219511  48.3406220  51.5842560
  58.8356565  41.1783140  58.0132708  58.6439762  41.1938274  58.8632131
  59.6855161  41.3746814  57.9899363  58.9332287  41.2097491  58.1356002
  63.3742071  45.5441212  50.1361012  63.1276785  45.4636963  50.9697801
  63.7027194  44.7594680  49.9423540  63.3863314  45.4167477  50.2308536
  67.2690119  52.2524571  53.9247794  67.1304479  52.9505617  54.4296536
  66.4890117  52.0973228  53.5683975  67.1333346  52.3324738  53.9474068
  65.6068205  48.5520946  60.1770175  65.6016243  47.6800763  60.1812602
  66.3129198  48.7509116  59.7039631  65.7113209  48.4524821  60.1077211
  59.3339098  48.2797930  59.5483996  59.4782474  48.8599138  58.9127106
  59.6814747  48.6574227  60.2533850  59.4066559  48.4218634  59.5582990
  61.5059015  47.4788099  57.3309127  60.7582329  47.6719113  56.9257405
  61.6600541  46.6533318  57.0933248  61.4181443  47.3853210  57.2354533
  58.4066853  56.4700702  56.4145022  58.5556417  55.9103618  55.7618427
  59.1866855  56.5492704  56.7977541  58.5440947  56.3986268  56.3741972
  68.7643492  51.6102825  44.6864293  68.3850301  50.8239963  44.6793582
  68.1009738  52.1589682  44.5435937  68.6101967  51.5747649  44.6645090
  60.9320154  56.6415345  57.6929513  60.8563825  55.9724156  58.2480301
  60.8610013  57.3433133  58.2070179  60.9100760  56.6460252  57.8506361
  61.7460792  41.3738649  58.2204531  62.2033406  42.1062624  58.3477323
  61.8217121  40.9505115  58.9791787  61.8251762  41.4195887  58.3505607
  66.2188118  34.5528525  52.0898374  66.3371686  35.0104988  51.3565676
  66.0450294  33.7473786  51.8034591  66.2107289  34.5022297  51.9399307
  61.5890401  55.1616344  48.5253119  62.3540292  54.8925988  48.2035783
  61.4868490  54.6766354  49.2423182  61.6871896  55.0505908  48.5832947
  59.6243170  43.3640753  55.0646355  58.8339245  43.1832213  55.3863691
  60.0203793  42.5867706  55.0476649  59.5660046  43.2228214  55.1098903
  64.1109061  52.1928528  40.5053068  64.8782046  52.2528653  40.0958920
  63.6640370  51.6208969  40.0209387  64.1582488  52.1165103  40.3730779
  65.0086857  50.9983183  52.7905801  64.3331858  50.7668416  53.2919188
  65.0179233  50.3904366  52.1647906  64.9105361  50.8742109  52.7721953
  62.1381001  45.8401012  59.5469854  62.0740142  46.7010969  59.4189990
  62.2778188  45.5233006  58.7465405  62.1496471  45.9201179  59.4098067
  67.0103591  53.8548316  45.0215979  67.0923429  54.6615302  44.6977430
  67.4953333  53.8744275  45.7456752  67.0940749  53.9768978  45.0802877
  60.8200094  48.5333152  53.6886057  60.3962344  48.7337651  52.9525075
  60.6444950  47.6862000  53.8010357  60.7310975  48.4381933  53.5959747
  60.3211788  60.0483665  56.1507514  60.8107718  59.3494454  55.9683179
  59.7496020  59.7507535  56.7383571  60.3096318  59.9009888  56.2108555
  66.5178791  52.6145734  65.1034305  67.3313657  52.3430883  65.2639437
  66.3573758  52.3153274  64.2994501  66.6148740  52.5300660  65.0079711
  60.8148134  53.7960438  45.2747420  60.8840954  52.9374977  45.4140421
  61.5936589  54.0132319  44.9466445  60.9400984  53.7013302  45.2464578
  63.7950953  43.2979391  58.0429693  64.0092923  42.6590305  57.4893047
  63.1784853  43.7425215  57.6137555  63.7356283  43.2689535  57.8980124
  65.2055621  56.2198140  49.4883914  64.8135413  55.9164855  48.7706780
  65.3608694  57.0567230  49.2988868  65.1709211  56.2981976  49.3540411
  65.9590041  44.9068456  58.9813000  65.1466723  44.5994347  59.0626173
  66.4179976  44.4267457  59.5455712  65.9070426  44.7904949  59.0767594
  65.3695296  52.7848128  49.4289944  65.0109951  52.9562771  50.2053977
  64.8834007  53.2461334  48.8717943  65.2453993  52.8787100  49.4615213
  63.1865682  36.4079327  53.0317036  62.3159240  36.3818048  52.9850345
  63.4406023  36.2356519  52.2142881  63.0959242  36.3789471  52.9037172
  63.0543549  46.3128528  63.7641702  63.5243180  46.9370644  64.1509576
  63.1005429  45.6445503  64.3234917  63.1311425  46.3063208  63.9041774
  60.2114823  38.4185555  54.4890506  59.6953311  37.7265747  54.6142085
  59.6508751  39.0856332  54.4353105  60.0521336  38.4148813  54.4996572
  62.2807056  38.9578515  56.3183359  61.8938809  38.9827547  57.0996889
  61.7939993  38.3920194  55.8657875  62.1519565  38.8774266  56.3671262
  66.5300035  53.6752024  60.3757145  67.1679756  53.1812220  60.0419601
  65.8874127  53.6029425  59.7909372  66.5294262  53.5911033  60.2399500
  68.2557035  45.5241170  54.9423061  67.8284644  45.4367519  54.1871160
  67.6183088  45.6318946  55.5277905  68.0986643  45.5273830  54.9168502
  61.9464198  35.8445501  58.6093619  62.5757316  36.3805801  58.3314689
  62.1150060  35.7522860  59.4607184  62.0641992  35.9106863  58.6942147
  61.7478113  40.6316696  60.8820030  62.5751542  40.3601844  60.9378645
  61.7685959  41.4277537  61.2383848  61.8730963  40.7096450  60.9435213
  66.5854292  54.3671833  57.0162502  67.3746670  54.0160897  57.1364584
  66.7597890  55.1808221  56.7539136  66.7274574  54.4357690  56.9950370
  56.3247602  47.7780558  54.0690291  55.4835609  47.6784433  54.2769185
  56.5337610  48.5476039  54.4204611  56.2312295  47.8772602  54.1517606
  65.4388116  38.3781389  51.5778920  65.6437710  38.3103697  52.4235918
  65.1114540  39.1840211  51.5100098  65.4203364  38.4867330  51.6938576
  60.1364267  45.7061958  53.3187888  59.8327405  45.1517946  53.9198296
  59.4343688  45.8854168  52.8315923  59.9880477  45.6506740  53.3357594
  58.1982618  52.9211678  58.0259986  58.0902973  52.9313740  58.8922044
  58.4078400  53.7466459  57.8364940  58.2132729  53.0452753  58.1264078
  68.6921804  38.9313154  51.0581686  68.0796117  39.4183556  51.4435418
  68.7885979  38.2556644  51.6019337  68.6159702  38.9031462  51.1960544
  56.2156410  50.1724321  55.4881924  55.6244344  50.8133819  55.4584939
  56.9777434  50.5961938  55.4613223  56.2404671  50.3300159  55.4797071
  56.6117033  41.3326318  56.1549941  57.0718515  41.4065248  56.8925065
  56.6573140  42.1307572  55.8049763  56.6867588  41.4620466  56.2122698
  58.2600383  41.9993013  60.7221968  57.8685948  41.3526360  61.1577746
  58.4286246  42.5904449  61.3416224  58.2271293  41.9907281  60.8784674
  72.3346832  50.0030090  56.4859202  72.3929956  50.4516739  57.2319178
  71.7013299  50.4128903  56.0489282  72.2498127  50.1303825  56.5311750
  65.9745927  55.6233632  52.9213948  65.7765615  56.1124447  52.2270159
  65.3533638  55.8274874  53.4998082  65.8533491  55.7250171  52.9037171
  61.9533480  39.1868788  52.2956054  61.1069525  39.3591596  52.1697404
  61.9504613  38.3818132  52.6321882  61.8280630  39.0929817  52.3267181
  63.0231781  42.9644002  53.1618112  62.5491735  42.4385764  53.6723423
  63.3949917  42.4173475  52.5932973  63.0081670  42.8059999  53.1533259
  69.2868511  48.0246378  54.5724892  69.0466734  47.1852793  54.5767319
  69.7660518  48.1046545  55.2965666  69.3220695  47.9127778  54.6799695
  64.9515280  43.8580557  46.2243866  64.4238299  43.9409301  45.5349574
  65.4110989  44.5998428  46.2208510  64.9417131  43.9801219  46.1218561
  71.2873698  44.8047835  52.5254151  71.0483468  44.7643669  51.6874936
  71.4507600  45.6518987  52.6519872  71.2764002  44.9239920  52.4207633
  67.8919728  49.1897785  58.4559197  68.6153927  48.7370311  58.2770216
  67.6269691  49.4702450  57.6731524  67.9601002  49.1648753  58.3137912
  64.5052363  52.4284121  45.3553523  65.2286562  52.8942234  45.2118096
  64.0652954  52.4957730  44.6051120  64.5468055  52.5067957  45.2238304
  63.6738518  49.2881663  56.6054212  63.0595511  48.7439713  56.9002847
  64.1905803  48.7745899  56.1260028  63.6594180  49.1318072  56.5778440
  62.9134815  50.3585933  54.3398510  62.4862423  49.7335652  53.9063946
  62.9059760  50.0760855  55.1657517  62.8493956  50.2238714  54.3978338
  63.9717645  37.5612341  57.9637734  63.4758206  37.7576016  57.2729300
  64.7286707  37.9605010  57.7926535  64.0104470  37.6490075  57.8357870
  61.2420525  41.2354687  54.5541044  61.2663012  40.7014800  53.8653824
  61.4931998  40.7271996  55.2166635  61.2830444  41.0815591  54.5505689
  57.5221847  39.9625506  53.9346789  57.5620219  40.4634712  54.6481496
  56.6971512  40.0535899  53.6652712  57.4061373  40.0507322  53.9997327
  59.7051460  49.5286246  62.0367083  58.8547090  49.6657960  62.1724728
  59.8679588  48.7950024  62.4814785  59.6035323  49.4400347  62.1222682
  58.9436210  46.4786015  56.2320688  58.1128140  46.6459833  56.0255936
  58.8887728  46.1021966  57.0169573  58.8125625  46.4475747  56.3169216
  56.7519994  39.9694908  61.8677098  57.3772697  39.4257041  62.1406531
  56.2970474  39.4889826  61.2984889  56.7768254  39.8184390  61.8238692
  70.3255042  48.1524195  56.9589746  70.9172883  48.7921446  56.9907944
  70.7614037  47.4547232  57.2481813  70.4773474  48.1442546  57.0070579
  62.1548432  52.5741568  57.5847640  61.6473523  53.1277415  58.0288271
  61.8575078  52.6349858  56.7666415  62.0353317  52.6647879  57.5296097
  64.3210614  40.9394887  56.4272303  64.7465686  40.4867414  55.8155830
  63.7067608  40.3854958  56.7037091  64.2939260  40.7908864  56.3777328
  64.7656213  56.4904825  45.5151584  64.0485522  56.3165688  45.0498821
  65.4162950  56.2557398  44.9827070  64.7558063  56.4300618  45.3680802
  62.7604837  37.4109987  49.8362880  62.1173155  37.2607634  50.4048019
  62.4204244  37.1652332  49.0711985  62.6149915  37.3522110  49.8065895
  67.3504184  45.3669414  49.2592889  66.6795374  45.9099116  49.1305954
  68.0443934  45.8364269  49.0174584  67.3533051  45.5167685  49.2048417
  61.3990918  57.5066126  54.4904647  61.1756572  56.7484955  54.8588673
  60.9100761  57.5364147  53.7685087  61.2934367  57.3988351  54.4381388
  67.5132311  41.8225298  52.1683262  67.8659921  41.3955021  52.8429061
  66.6547113  41.7376141  52.2984338  67.4381756  41.7470038  52.2878272
  65.5115577  45.0860666  56.1168104  65.4913504  44.9043961  56.9702883
  65.5594778  45.9572685  56.0927688  65.5150218  45.1877205  56.2391399
  63.4561907  51.6747858  62.0416581  63.4157762  51.0297535  61.4561737
  64.2685225  51.6184476  62.3541993  63.5705060  51.5706825  62.0013530
  60.0469374  57.7266584  51.9441732  59.6329773  57.0640714  51.5545573
  60.7316749  57.8744443  51.4237426  60.0867746  57.6507242  51.8098229
  63.4134669  56.8856669  52.6965348  63.0150952  56.9958940  51.9286169
  62.7985888  57.0938736  53.2791908  63.2633558  56.9330237  52.6696648
  68.9456371  36.9443709  53.0967574  68.4387236  36.2372849  53.0288752
  69.7423805  36.6136898  53.2268651  68.9883611  36.7916861  53.1066569
  64.8620387  43.4510322  48.9941238  64.6334080  43.4743023  48.1519596
  65.1218463  42.6267789  49.1136249  64.8666575  43.3326402  48.8866436
  59.1439616  45.3044795  58.5966338  58.6318519  44.6965978  58.9551370
  58.9719112  46.0201387  59.0640314  59.0429253  45.3208094  58.7182562
  53.9905330  43.7482370  61.2468700  53.8207921  44.4083745  60.7016907
  53.5471280  43.9588931  61.9681189  53.9004664  43.8768352  61.2730330
  71.1476511  51.4608636  46.0808439  71.5310117  52.2099992  46.3106536
  70.3520625  51.7074456  45.8220428  71.0870294  51.6078330  46.0766012
  63.0208686  43.2269039  61.0368594  63.5780116  42.9982849  60.4047059
  62.6969751  43.9874705  60.7603806  63.0555096  43.3052876  60.9025091
  60.7391803  46.3136693  62.0020601  61.4903130  46.6288370  62.3160155
  60.9314380  46.1115864  61.1754523  60.8783217  46.3304075  61.9263997
  67.5877093  42.4410259  49.2444397  67.5871320  42.2858916  50.1028673
  67.3833273  43.2873246  49.1885782  67.5576871  42.5430880  49.3632336
  65.3117945  47.1207761  52.8980603  65.8071611  46.4030756  52.8584624
  64.5017721  46.8178559  52.7835090  65.2661839  46.9705407  52.8754329
  67.3769764  49.8711448  55.5857732  67.8024836  49.3485870  55.0328157
  67.0126684  50.4692286  55.0646355  67.3856367  49.8821675  55.4266742
  57.0123844  58.1675666  54.3455078  57.3270403  58.9812054  54.3532859
  57.4217257  57.7825885  55.0137237  57.1191942  58.2304368  54.4459169
  63.9648364  53.5845713  51.9158890  64.4359542  54.2985975  52.0848875
  64.3008542  52.9844463  52.4518759  64.0843479  53.6017177  52.0191266
  66.0525348  55.1947026  64.0950962  66.1622314  54.4055587  64.4507709
  66.3816245  55.1052962  63.2925300  66.1177754  55.0652879  64.0293352
  60.8817859  38.3573183  58.8716984  61.0145764  37.5604177  59.1997960
  61.2663011  38.8839586  59.4515260  60.9574188  38.3173100  59.0060487
  64.6022310  53.3763647  58.6786582  64.0543256  52.7521530  58.4106648
  65.0635339  53.5657919  57.9630662  64.5889520  53.3122697  58.5337013
  63.9550214  35.2803509  55.4698078  63.1496178  35.1701239  55.7865916
  63.8256949  35.3815965  54.6127943  63.8170347  35.2787179  55.3906118
  67.4116174  41.4449001  56.0637775  66.8279163  41.9458208  55.6515342
  67.7320468  40.9378557  55.4302098  67.3729350  41.4440836  55.9096282
  58.5406305  38.3532358  57.1194878  59.0850718  38.0123485  57.7099220
  58.5943241  39.2117820  57.2616163  58.6295425  38.4287618  57.2276752
  54.3536864  52.1148774  53.9933686  54.9581722  52.0744608  53.3647507
  54.1464177  52.9619926  54.0237742  54.4125762  52.2336777  53.9049803
  64.1680636  54.3814719  55.2095923  64.9879010  54.2377685  55.4712219
  63.8874714  55.0060918  55.7512361  64.2477380  54.4525071  55.3283863
  73.8393972  61.1255222  52.9291730  72.9831867  61.2863720  52.9800847
  73.8861625  60.2547286  52.9496791  73.7193083  61.0206024  52.9397796
  68.2235111  70.6617940  48.6928962  67.4718011  70.2833478  48.4645007
  68.6721123  70.6936374  47.9447772  68.1784778  70.6103547  48.5486464
  76.6845793  63.1847266  55.5723382  77.2301753  63.8632353  55.6317352
  76.6262669  63.0434727  54.7124963  76.7561707  63.2639268  55.4535442
  69.8019867  70.6736332  50.9591734  69.9030230  69.8636686  51.2688862
  69.2061613  70.5793279  50.3291413  69.7292406  70.5401360  50.9117973
  62.9984912  66.6956619  50.5844068  62.7635096  65.8624271  50.4776337
  63.1370553  66.9761284  49.7705269  62.9840574  66.6140122  50.4486423
  65.2974999  58.8642349  53.4828376  64.6780031  58.2734997  53.3138390
  65.1958863  59.4553785  52.8492699  65.1912675  58.8646432  53.3633365
  70.3441187  68.6025896  47.7326452  70.6657028  69.1431104  47.1287760
  70.9913283  68.0322668  47.8648742  70.4867242  68.5985071  47.6633487
  72.3942895  60.6041891  47.8160839  73.0923060  60.7830019  48.3082302
  72.7095227  60.0812231  47.1931228  72.5438232  60.5535663  47.7962849
  65.0244132  62.4094631  55.7271945  64.9002829  62.9957077  56.3621764
  65.6762417  61.9154827  56.0284220  65.1017782  62.4233436  55.8657874
  72.5830830  66.9912336  47.8040630  73.0224466  66.3829437  48.2495403
  72.4335493  66.6119710  47.0326095  72.6252296  66.8450807  47.7559798
  70.0502473  65.5856348  55.0059456  70.6951476  65.0928791  54.6870404
  70.2904250  65.7281135  55.8325534  70.1813058  65.5333790  55.0808989
  72.5888565  68.4311254  54.6566348  72.8711807  67.6362660  54.4353104
  73.3174725  68.9091841  54.6771409  72.7378128  68.3845851  54.6269363
  70.5669758  55.9734288  51.8982113  70.2373088  56.4245431  51.2285812
  69.8914760  55.8950451  52.4455120  70.4180195  56.0285423  51.8805337
  76.1840167  65.3439517  44.7571399  76.0991462  66.2000484  44.9020968
  76.6724550  65.0683842  45.4253559  76.2429064  65.4296839  44.8773481
  77.7746166  51.9619811  50.1431724  77.4599607  52.6523289  50.5752146
  77.2573108  51.9064593  49.4417225  77.6510637  52.0554699  50.1028673
  77.1158600  61.9624312  46.2569135  76.5870072  62.1783945  46.9166441
  77.6383620  62.6560450  46.1770104  77.1147053  62.0967449  46.3424734
  69.0058208  65.8587528  45.0576603  68.4215423  66.3637560  45.4642467
  68.6028303  65.6329915  44.3173195  68.8597512  65.8995777  45.0081628
  64.5602236  71.5742290  51.8600274  64.0769815  72.2992779  51.8359858
  65.3725555  71.8718420  51.9710432  64.6092984  71.7244643  51.8727553
  70.6316391  70.3674470  54.4650089  70.1143332  70.0081885  53.8611397
  71.3290782  69.8436645  54.4756155  70.6581972  70.2372158  54.3780347
  73.4635422  62.1053181  43.5345523  73.7031426  62.3131164  42.7220866
  73.7851263  61.3010689  43.6434468  73.5472580  62.0167282  43.4306076
  68.7725713  54.0346576  47.3805061  69.5271681  54.4024893  47.1422111
  68.5953247  54.4086131  48.1484241  68.8580191  54.1444764  47.4589950
  67.4146434  72.0898465  52.0120554  68.1167013  71.5750455  52.0693311
  67.3343917  72.4172617  52.8167429  67.5070194  72.0612692  52.1393346
  68.4625340  62.3274052  61.1400969  68.6345844  62.2179947  61.9886251
  68.9994698  62.9728458  60.9032161  68.5670344  62.4066054  61.2306066
  67.1282777  56.4416895  44.0783174  66.9458350  56.6588776  43.2524167
  67.9908390  56.5555908  44.1341789  67.2287367  56.4906793  43.9637661
  66.7397209  68.2804817  51.5206162  67.5786109  68.5127750  51.5679924
  66.7708978  67.4109129  51.4513197  66.8678927  68.1861764  51.5170807
  67.3649912  68.7005693  55.8219468  67.9048137  68.5576824  56.4922840
  66.6819858  69.1002443  56.1903494  67.3442066  68.7385364  55.9753889
  72.8082496  53.4443306  47.1132198  73.5368657  53.2659261  46.6670354
  72.8977389  54.2861386  47.3239376  72.9289158  53.5427184  47.0785716
  76.7890797  64.3796693  51.0164492  77.5448312  64.8128208  51.0553401
  76.8953121  63.7301463  51.5899128  76.9160968  64.3474177  51.1062518
  62.7687057  64.9205983  55.9753889  62.5025472  64.1045100  56.1344879
  62.7825621  64.9659139  55.1049405  62.7311780  64.8062888  55.8707371
  66.6744804  59.7191068  42.5905647  65.9602981  59.4329247  43.0028080
  67.1588773  60.0587694  43.2312035  66.6404168  59.7272718  42.7461282
  67.5185664  58.4584362  58.6220897  66.8257460  57.9881341  58.8681628
  68.1345991  58.2322666  59.1962604  67.5070194  58.3551494  58.7430049
  73.8492122  68.2221022  42.9667455  74.2643271  67.8906046  42.2751951
  73.0184052  67.9889924  42.8387592  73.7880131  68.1392278  42.8458303
  63.1780471  65.7064763  53.2565633  62.9956044  65.6811649  52.4037926
  63.9130140  66.1763701  53.2954542  63.2594535  65.7726125  53.1363552
  66.2426223  62.4249766  59.7647742  66.9666195  62.4102796  60.2512637
  66.3442359  63.1345121  59.2669710  66.3644432  62.5274469  59.7626529
  76.2902491  62.6282841  48.9191705  76.3849345  63.3672136  49.3731330
  75.6661334  62.2000317  49.3526269  76.2111521  62.6744162  49.0499852
  63.1451381  62.5858264  53.4064700  63.7224884  62.4494714  54.0456945
  62.4465443  62.1294048  53.6610284  63.1272403  62.4980530  53.5386990
  76.5425512  64.4731581  42.1528657  76.4605675  64.5433768  43.0183644
  77.1805233  65.0361325  41.9612397  76.6245350  64.5670552  42.2518606
  69.9018683  64.2392319  51.6203183  69.6437928  63.4064054  51.5934483
  69.9567166  64.4649932  50.7795684  69.8718461  64.1490090  51.4923320
  74.9819734  56.3420770  51.7207276  74.2776060  55.8529955  51.8791195
  75.0304708  56.3543244  50.8495720  74.8849785  56.2710418  51.6146616
  68.8753396  61.7930082  52.1068078  68.3002987  61.9522250  52.7432039
  68.4989072  61.1565491  51.6436528  68.7356208  61.7227895  52.1322636
  72.5426684  60.2653431  56.9660456  72.1541117  59.8407649  56.3112648
  71.8781383  60.5135581  57.4737483  72.3873612  60.2392152  56.9448324
  58.6210214  61.4370156  50.1212519  58.7070466  61.0602025  50.9026048
  59.2486012  61.0630602  49.6432477  58.7266765  61.3255639  50.1657996
  76.3653046  53.9628060  54.4784441  76.7463557  53.2806231  54.8652315
  75.5616330  53.6737662  54.2960105  76.3029507  53.8195108  54.5088496
  73.6465622  64.4952036  45.1637263  74.4606261  64.7866928  45.0520035
  73.5824764  63.8411898  44.5895556  73.7568361  64.4417230  45.0626101
  69.5173531  67.9673553  50.2909575  70.1547478  67.7285301  50.8361369
  69.9428602  68.1710712  49.5562736  69.6749697  67.9624563  50.2626733
  64.2086173  70.2061889  54.1743879  64.2490318  70.4776741  53.3463659
  64.7680697  70.7303798  54.5901667  64.2969519  70.3237645  54.1135767
  70.1576346  63.1875843  44.6284465  70.5421498  62.9683549  45.3801010
  69.9087966  64.0138788  44.7585541  70.1778418  63.2773989  44.7585541
  70.3244886  56.4682258  64.3447049  70.0098327  57.2381821  64.0816612
  70.0034819  55.9052514  63.7599276  70.2303805  56.4992527  64.2188399
  71.8995003  68.4445976  51.9703362  71.9734011  68.2821147  52.8245212
  72.7164509  68.6336165  51.7263843  72.0311361  68.4482718  52.0601387
  65.6600759  68.7903838  48.9997805  64.8338877  69.0365576  48.8732084
  65.7212751  68.7115919  49.8659863  65.5474926  68.8148787  49.1086750
  67.8776783  54.8572779  49.9593245  67.0099209  54.9295379  50.0250855
  68.1651987  55.6594858  50.1481220  67.7916531  54.9866927  49.9968012
  77.0009672  55.0050639  58.2904567  77.7463264  54.8160449  57.8767993
  76.5846976  55.5308877  57.7318423  77.0494646  55.0552784  58.1469140
  70.4399588  71.4080719  46.7016835  70.7297887  71.0169700  45.9776062
  71.1703069  71.5897424  47.1422110  70.5906473  71.3774532  46.6599642
  71.0294334  66.2098465  57.7869966  70.5306027  66.9214232  57.8654854
  71.8394558  66.5299131  57.7488128  71.0750440  66.3625313  57.7926534
  68.3805504  73.3848101  49.7676985  68.1605799  73.0945456  50.5603652
  68.1600026  72.7263056  49.2394897  68.3153098  73.2447809  49.8065893
  67.2922451  65.4721418  52.0332686  67.0035700  64.8458889  52.5678414
  68.1605799  65.4141705  52.0997367  67.3782703  65.3708962  52.1223641
  78.0800349  60.6156201  52.3514668  77.7365115  59.8946536  52.7021918
  78.1793391  60.4070052  51.5093027  78.0442392  60.4780404  52.2786348
  67.4954725  67.1116669  47.9575051  68.2500693  67.4929708  48.1710514
  66.9025337  67.5627812  48.4121748  67.5191438  67.2345496  48.0557930
  69.9561392  59.0679509  63.0832264  69.1461167  59.3737289  62.9722106
  70.4336078  59.7885091  63.1984848  69.9064870  59.2194110  63.0839335
  68.8152951  68.2825230  53.3315167  68.2933705  68.4225522  54.0167032
  69.2026971  67.5235894  53.5217284  68.7956652  68.1910754  53.4616243
  65.8044135  58.3331039  47.4010122  65.5168931  57.9632309  46.6642069
  66.4914603  58.8025894  47.1393826  65.8633032  58.3478008  47.2525197
  70.2419277  65.3129249  48.7296658  70.0462059  65.9203984  48.1356961
  70.4653622  64.6197193  48.2488332  70.2453918  65.3006775  48.5712739
  68.6397807  62.1983987  48.8477526  69.3620459  62.3625145  48.3881332
  68.1605800  62.9193652  48.7416866  68.6761537  62.3282217  48.7643140
  76.5991314  58.5347786  54.2274211  75.7602415  58.5609065  53.9912474
  76.6695682  59.1818521  54.8079558  76.4859708  58.6343912  54.2783328
  66.2905423  64.6042059  57.9531666  66.8026520  64.8826313  57.3040426
  66.0041766  65.3431353  58.3194479  66.3240287  64.7544413  57.9121544
  75.0460593  55.4333163  48.9601827  75.7486945  55.2340911  48.4821785
  74.7804781  54.6609105  49.2670671  75.1107225  55.2896129  48.9347269
  63.3772330  59.1112251  48.2495403  63.4788466  59.9138413  48.5776378
  64.1728217  58.9099587  47.9518483  63.5100235  59.1998150  48.2530758
  69.8089149  56.6968448  58.0132708  69.6172346  56.7123582  58.8632131
  70.6587745  56.8932122  57.9899363  69.9064871  56.7282799  58.1356002
  64.1936062  59.2259429  55.9916524  64.0521554  58.3743370  56.1161032
  64.4776625  59.2688090  55.1678730  64.2143908  59.1059179  55.8884148
  74.3474654  61.0626520  50.1361012  74.1009369  60.9822271  50.9697801
  74.6759777  60.2779987  49.9423540  74.3595898  60.9352785  50.2308536
  70.3071682  63.7983238  59.5483996  70.4515057  64.3784446  58.9127106
  70.6547330  64.1759535  60.2533850  70.3799143  63.9403942  59.5582990
  72.4791599  62.9973407  57.3309127  71.7314913  63.1904421  56.9257405
  72.6333124  62.1718626  57.0933248  72.3914026  62.9038518  57.2354533
  72.7193376  56.8923957  58.2204531  73.1765990  57.6247932  58.3477323
  72.7949705  56.4690423  58.9791787  72.7984346  56.9381195  58.3505607
  64.9626367  57.1389777  59.3093975  64.4268557  56.5270135  59.6254742
  65.0244132  57.7137913  59.9627641  64.8922000  57.1336705  59.4529401
  77.1920702  50.0713833  52.0898374  77.3104270  50.5290296  51.3565676
  77.0182878  49.2659094  51.8034591  77.1839873  50.0207605  51.9399307
  72.5622984  70.6801652  48.5253119  73.3272875  70.4111296  48.2035783
  72.4601074  70.1951662  49.2423182  72.6604480  70.5691216  48.5832947
  70.5975754  58.8826061  55.0646355  69.8071829  58.7017521  55.3863691
  70.9936377  58.1053014  55.0476649  70.5392630  58.7413522  55.1098903
  75.0841645  67.7113836  40.5053068  75.8514630  67.7713961  40.0958920
  74.6372954  67.1394277  40.0209387  75.1315072  67.6350411  40.3730779
  75.9819440  66.5168491  52.7905801  75.3064442  66.2853724  53.2919188
  75.9911816  65.9089674  52.1647906  75.8837945  66.3927417  52.7721953
  73.1113584  61.3586320  59.5469854  73.0472725  62.2196277  59.4189990
  73.2510772  61.0418314  58.7465405  73.1229054  61.4386487  59.4098067
  71.7932678  64.0518460  53.6886057  71.3694927  64.2522959  52.9525075
  71.6177533  63.2047308  53.8010357  71.7043559  63.9567241  53.5959747
  67.0815123  64.5470511  49.1214029  67.2379742  64.4817314  49.9770021
  67.4215716  65.3219064  48.9092709  67.1548358  64.6519709  49.2168623
  73.6194268  63.9228395  47.9907392  74.1609813  63.4198776  48.4546013
  73.9340827  63.8693589  47.1796878  73.7458665  63.8407816  47.9391205
  71.7880717  69.3145746  45.2747420  71.8573538  68.4560285  45.4140421
  72.5669172  69.5317627  44.9466445  71.9133567  69.2198610  45.2464578
  74.7683537  58.8164699  58.0429693  74.9825507  58.1775613  57.4893047
  74.1517436  59.2610523  57.6137555  74.7088866  58.7874843  57.8980124
  63.6549384  61.7305462  49.4374796  64.0348349  62.1490007  48.7735064
  63.0804749  62.3118917  49.7443640  63.6260709  61.8783320  49.3851537
  76.9322625  60.4253764  58.9813000  76.1199307  60.1179655  59.0626173
  77.3912560  59.9452765  59.5455712  76.8803010  60.3090257  59.0767594
  76.3427880  68.3033436  49.4289944  75.9842534  68.4748079  50.2053977
  75.8566590  68.7646642  48.8717943  76.2186577  68.3972407  49.4615213
  74.1598266  51.9264635  53.0317036  73.2891824  51.9003356  52.9850345
  74.4138607  51.7541827  52.2142881  74.0691826  51.8974779  52.9037172
  71.1316245  63.9832602  41.9690179  71.4208770  64.7597484  42.2433753
  71.2188044  63.4721333  42.6704678  71.1870501  64.0224520  42.1132677
  71.1847406  53.9370863  54.4890506  70.6685895  53.2451055  54.6142085
  70.6241335  54.6041640  54.4353105  71.0253919  53.9334121  54.4996572
  73.2539640  54.4763823  56.3183359  72.8671393  54.5012855  57.0996889
  72.7672577  53.9105502  55.8657875  73.1252148  54.3959574  56.3671262
  72.9196781  51.3630809  58.6093619  73.5489899  51.8991109  58.3314689
  73.0882644  51.2708168  59.4607184  73.0374576  51.4292171  58.6942147
  72.7210696  56.1502004  60.8820030  73.5484126  55.8787152  60.9378645
  72.7418542  56.9462845  61.2383848  72.8463546  56.2281758  60.9435213
  67.2980186  63.2965866  54.0690291  66.4568193  63.1969741  54.2769185
  67.5070194  64.0661347  54.4204611  67.2044879  63.3957910  54.1517606
  64.7755753  60.9185403  51.8975041  64.3812451  60.9928415  51.1225151
  64.2195870  61.3043350  52.4483403  64.6358565  60.9867178  51.8642701
  76.4120700  53.8966697  51.5778920  76.6170293  53.8289005  52.4235918
  76.0847124  54.7025519  51.5100098  76.3935948  54.0052638  51.6938576
  71.1096851  61.2247266  53.3187888  70.8059988  60.6703254  53.9198296
  70.4076272  61.4039476  52.8315923  70.9613061  61.1692048  53.3357594
  70.1662948  58.5347785  47.8832590  70.4422682  57.8166698  47.4710158
  70.7661617  59.1332705  47.6753696  70.2956213  58.5168156  47.7913351
  69.1715202  68.4396986  58.0259986  69.0635557  68.4499048  58.8922044
  69.3810983  69.2651767  57.8364940  69.1865313  68.5638061  58.1264078
  73.6673468  56.2061303  46.1579185  74.1217215  56.3771863  46.8827030
  74.1413514  55.5929413  45.7576961  73.8041789  56.1412188  46.2052947
  67.1888994  65.6909629  55.4881924  66.5976927  66.3319127  55.4584939
  67.9510017  66.1147246  55.4613223  67.2137254  65.8485467  55.4797071
  67.5849617  56.8511626  56.1549941  68.0451098  56.9250556  56.8925065
  67.6305723  57.6492880  55.8049763  67.6600172  56.9805773  56.2122698
  69.2332966  57.5178321  60.7221968  68.8418532  56.8711668  61.1577746
  69.4018829  58.1089757  61.3416224  69.2003877  57.5092589  60.8784674
  71.0086488  62.9103837  47.2624192  71.7528533  63.2978113  47.5007142
  71.1547185  62.0661262  47.4264680  71.1397074  62.8434310  47.3218162
  72.9266064  54.7054096  52.2956054  72.0802109  54.8776904  52.1697404
  72.9237196  53.9003440  52.6321882  72.8013214  54.6115125  52.3267181
  73.9964364  58.4829310  53.1618112  73.5224319  57.9571072  53.6723423
  74.3682500  57.9358783  52.5932973  73.9814253  58.3245307  53.1533259
  64.3737394  60.4800817  58.5301658  65.2363007  60.3796526  58.4438987
  64.0429177  59.8995526  57.9687230  64.4522591  60.3792444  58.4347063
  75.9247864  59.3765865  46.2243866  75.3970883  59.4594609  45.5349574
  76.3843572  60.1183736  46.2208510  75.9149714  59.4986527  46.1218561
  67.7339180  59.3043266  55.1912076  67.1092251  59.3161658  54.5838028
  67.3984775  59.7803441  55.8403316  67.5924672  59.3761783  55.1968644
  67.9180929  57.6468385  41.2484761  67.5693733  58.2988110  41.7116310
  67.4377375  57.6325498  40.5208632  67.7951173  57.7411438  41.2095852
  64.4464856  67.3643726  56.6315840  63.9164781  66.6736165  56.6810815
  64.7189949  67.3553911  55.8028549  64.4089578  67.2610858  56.5163256
  75.4784946  67.9469429  45.3553523  76.2019145  68.4127541  45.2118096
  75.0385538  68.0143038  44.6051120  75.5200639  68.0253265  45.2238304
  74.6471102  64.8066971  56.6054212  74.0328095  64.2625021  56.9002847
  75.1638386  64.2931207  56.1260028  74.6326764  64.6503380  56.5778440
  73.8867399  65.8771241  54.3398510  73.4595007  65.2520959  53.9063946
  73.8792343  65.5946163  55.1657517  73.8226540  65.7424021  54.3978338
  67.0029926  60.9136414  57.4086944  67.1623413  60.1579738  57.8138666
  66.8222819  61.4627353  58.0627682  66.9995285  60.8830228  57.5649650
  74.9450229  53.0797649  57.9637734  74.4490790  53.2761324  57.2729300
  75.7019291  53.4790318  57.7926535  74.9837053  53.1675383  57.8357870
  72.2153108  56.7539995  54.5541044  72.2395596  56.2200108  53.8653824
  72.4664582  56.2457304  55.2166635  72.2563027  56.6000899  54.5505689
  59.7260698  64.0371490  53.9884188  59.6204147  63.9918335  53.1236272
  58.9760918  64.3825271  54.2698473  59.5996301  64.0812398  53.9021518
  68.4954431  55.4810814  53.9346789  68.5352802  55.9820020  54.6481496
  67.6704095  55.5721207  53.6652712  68.3793957  55.5692630  53.9997327
  69.9168794  61.9971323  56.2320688  69.0860724  62.1645141  56.0255936
  69.8620311  61.6207274  57.0169573  69.7858209  61.9661055  56.3169216
  67.7252577  55.4880216  61.8677098  68.3505281  54.9442349  62.1406531
  67.2703057  55.0075134  61.2984889  67.7500838  55.3369698  61.8238692
  68.2904838  60.2726915  46.7610805  68.4307799  60.7699379  47.4639447
  68.7887371  59.5713209  46.9025019  68.3845919  60.2428894  46.8862384
  68.3205060  61.1394026  44.0903382  68.9550140  61.7354451  44.0252844
  68.4030671  60.8397484  44.9049252  68.4261611  61.1834934  44.2006469
  69.8984043  57.0708001  44.0648824  70.2199884  56.5911084  43.4108086
  70.1610987  57.8807647  43.8739636  69.9850069  57.1197899  43.9404316
  75.2943198  56.4580195  56.4272303  75.7198270  56.0052722  55.8155830
  74.6800191  55.9040266  56.7037091  75.2671843  56.3094172  56.3777328
  64.8258048  63.3361867  47.3592928  65.3350277  63.9326374  47.7404234
  65.2992320  63.0687840  46.6769348  64.9701424  63.3847682  47.3147451
  73.7337421  52.9295295  49.8362880  73.0905739  52.7792941  50.4048019
  73.3936828  52.6837640  49.0711985  73.5882498  52.8707418  49.8065895
  67.1848580  59.9718125  50.2266109  66.4660569  60.3882258  50.4938972
  67.5560942  60.5372364  49.6757747  67.1340512  60.1167407  50.1848916
  76.4848161  60.6045974  56.1168104  76.4646088  60.4229269  56.9702883
  76.5327361  61.4757993  56.0927688  76.4882802  60.7062512  56.2391399
  72.9595154  59.0116125  45.5639488  72.3659994  59.3333122  45.0124055
  72.9970432  58.1657221  45.3560594  72.8769543  58.9340453  45.4522259
  75.8352971  58.9695630  48.9941238  75.6066664  58.9928331  48.1519596
  76.0951047  58.1453097  49.1136249  75.8399159  58.8511710  48.8866436
  70.1172199  60.8230103  58.5966338  69.6051102  60.2151286  58.9551370
  69.9451695  61.5386695  59.0640314  70.0161836  60.8393402  58.7182562
  64.9637914  59.2667678  61.2468700  64.7940504  59.9269053  60.7016907
  64.5203864  59.4774239  61.9681189  64.8737248  59.3953660  61.2730330
  68.8897733  57.5072176  50.2895434  69.3655100  57.8689256  49.6545615
  68.3886333  58.1628644  50.5695577  68.8863092  57.6566365  50.2372175
  73.9941270  58.7454347  61.0368594  74.5512700  58.5168157  60.4047059
  73.6702335  59.5060013  60.7603806  74.0287680  58.8238184  60.9025091
  61.8639978  62.1714544  56.5057190  61.3166698  61.5015189  56.6238058
  62.6532357  61.8044391  56.5700657  61.8992162  62.0179530  56.5325891
  70.9324386  59.6513376  43.6568818  71.3123351  59.6693005  42.8719933
  70.1916983  60.0967365  43.5359665  70.8793224  59.7195150  43.5232386
  78.5609677  57.9595567  49.2444397  78.5603903  57.8044224  50.1028673
  78.3565857  58.8058554  49.1885782  78.5309455  58.0616188  49.3632336
  60.6226948  61.3835351  53.6603213  60.4448709  60.9311960  54.3858129
  60.3345970  62.1861513  53.8441691  60.5539901  61.4357909  53.7946716
  76.2850529  62.6393069  52.8980603  76.7804194  61.9216064  52.8584624
  75.4750305  62.3363866  52.7835090  76.2394422  62.4890715  52.8754329
  71.7309141  66.4890882  45.0477608  70.9220463  66.1657556  45.0010917
  72.2384049  65.7824104  44.9805857  71.6858807  66.3372198  45.0307902
  62.3599418  63.9163075  50.7724972  61.4944937  63.9048766  50.6607743
  62.4598234  63.7293298  51.6196111  62.2473585  63.8869136  50.8813917
  67.9856428  73.6860974  54.3455078  68.3002987  74.4997362  54.3532859
  68.3949841  73.3011192  55.0137237  68.0924526  73.7489676  54.4459169
  74.9380947  69.1031021  51.9158890  75.4092126  69.8171283  52.0848875
  75.2741126  68.5029771  52.4518759  75.0576062  69.1202485  52.0191266
  71.8550442  53.8758491  58.8716984  71.9878348  53.0789485  59.1997960
  72.2395595  54.4024894  59.4515260  71.9306771  53.8358408  59.0060487
  74.9282797  50.7988817  55.4698078  74.1228761  50.6886547  55.7865916
  74.7989533  50.9001273  54.6127943  74.7902930  50.7972487  55.3906118
  78.3848758  56.9634309  56.0637775  77.8011747  57.4643516  55.6515342
  78.7053052  56.4563865  55.4302098  78.3461933  56.9626144  55.9096282
  70.9243557  55.8774904  46.3396449  71.7459252  56.0473217  46.0978144
  70.4613208  56.0322165  45.6162747  70.9774719  55.9256637  46.1968094
  69.5138889  53.8717666  57.1194878  70.0583302  53.5308793  57.7099220
  69.5675825  54.7303128  57.2616163  69.6028008  53.9472926  57.2276752
  65.3269448  67.6334082  53.9933686  65.9314305  67.5929916  53.3647507
  65.1196760  68.4805234  54.0237742  65.3858345  67.7522085  53.9049803
  60.5620730  66.6168700  53.8632609  60.4645008  65.8064971  54.1722666
  61.3449600  66.5960493  53.4778877  60.6636867  66.4935790  53.8519472
  34.9988185   1.0440147  35.6269009  34.2471084   0.6655686  35.3985054
  35.4474196   1.0758581  34.8787819  34.9537851   0.9925755  35.4826511
  40.4513144   1.4665517  31.0554556  40.1164513   2.1442439  30.6198778
  40.9640015   1.0770828  30.4671427  40.4778726   1.5090095  30.9041347
  39.9917436   3.4179786  36.9965667  40.3756815   3.9866684  36.4570443
  39.9276577   2.6929296  36.5171483  40.0390863   3.3955249  36.8459530
  36.5772941   1.0558540  37.8931781  36.6783304   0.2458894  38.2028909
  35.9814686   0.9615486  37.2631460  36.5045479   0.9223568  37.8458020
  36.4173680   5.9736129  39.2946637  37.0611136   6.4149293  39.6842796
  36.7429936   5.1689555  39.2076896  36.5605509   5.9201324  39.3392114
  29.7737985  -2.9221174  37.5184115  29.5388169  -3.7553521  37.4116384
  29.9123626  -2.6416508  36.7045316  29.7593647  -3.0037670  37.3826470
  37.1194260  -1.0151896  34.6666499  37.4410101  -0.4746689  34.0627807
  37.7666357  -1.5855125  34.7988789  37.2620315  -1.0192721  34.5973534
  31.3355310   1.9564497  38.7940321  30.8522888   2.6814987  38.7699905
  32.1478628   2.2540627  38.9050479  31.3846057   2.1066851  38.8067600
  37.4069464   0.7496678  41.3990135  36.8896405   0.3904093  40.7951444
  38.1043855   0.2258852  41.4096202  37.4335045   0.6194366  41.3120394
  41.0633056   1.1991492  47.3606308  41.1516402   1.0117632  48.2084519
  41.4922768   0.5528921  46.9611155  41.1395158   1.0754499  47.4278060
  38.6303515   0.4822652  46.3423971  38.0674350   0.0695262  46.8663632
  39.3924539   0.4075557  46.7617114  38.6597964   0.4100052  46.4816971
  34.1899507   2.4720673  38.9460601  34.8920086   1.9572662  39.0033357
  34.1096990   2.7994824  39.7507476  34.2823267   2.4434899  39.0733393
  33.5150282  -1.3372975  38.4546209  34.3539182  -1.1050042  38.5019970
  33.5462052  -2.2068664  38.3853244  33.6432000  -1.4316029  38.4510854
  34.1402985  -0.9172100  42.7559514  34.6801210  -1.0600969  43.4262887
  33.4572932  -0.5175349  43.1243541  34.1195139  -0.8792429  42.9093936
  41.1753115   0.6300511  50.0250092  41.9593532   0.7431359  50.3905834
  40.9749710  -0.1958352  50.2208778  41.2619140   0.5247230  50.1084478
  41.3323508   2.5410613  43.6716548  40.5338754   2.3010113  43.9290416
  41.7809520   2.5925006  44.4183595  41.2798120   2.5133004  43.8201472
  29.9533544  -3.9113030  40.1905680  29.7709117  -3.9366144  39.3377972
  30.6883213  -3.4414092  40.2294589  30.0347608  -3.8451668  40.0703599
  36.2926604  -1.6504240  37.2249622  36.9300551  -1.8892492  37.7701416
  36.7181675  -1.4467081  36.4902783  36.4502770  -1.6553229  37.1966780
  30.9839246   0.5884097  41.1083926  31.0243392   0.8598948  40.2803706
  31.5433770   1.1126005  41.5241714  31.0722592   0.7059852  41.0475814
  38.6748076  -1.1731817  38.9043408  38.7487084  -1.3356645  39.7585258
  39.4917582  -0.9841627  38.6603890  38.8064434  -1.1695075  38.9941434
  32.4353833  -0.8273954  35.9337852  31.6091950  -0.5812217  35.8072131
  32.4965824  -0.9061873  36.7999910  32.3228000  -0.8029005  36.0426796
  37.2152662   1.7902926  33.6356882  37.5050960   1.3991907  32.9116108
  37.9456142   1.9719631  34.0762157  37.3659546   1.7596740  33.5939689
  35.1558577   3.7670308  36.7017032  34.9358873   3.4767663  37.4943699
  34.9353099   3.1085264  36.1734944  35.0906171   3.6270017  36.7405940
  37.3226533   5.1399698  35.4847724  37.9750591   4.6076141  35.7138750
  36.6252142   4.7868351  35.8715598  37.3157251   5.0089221  35.5759892
  34.2707798  -2.5061124  34.8915098  35.0253766  -2.1248085  35.1050561
  33.6778410  -2.0549980  35.3461795  34.2944511  -2.3832297  34.9897977
  35.5906024  -1.3352563  40.2655214  35.0686778  -1.1952271  40.9507078
  35.9780045  -2.0941898  40.4557331  35.5709725  -1.4267039  40.3956290
  41.7873029   0.4042897  34.2515782  41.5459705  -0.3289243  33.8442847
  41.9674362   0.9529754  33.5982116  41.7780653   0.3765288  34.0946005
  36.1552510   2.3708217  43.3485069  36.3042073   1.8111133  42.6958474
  36.9352512   2.4500219  43.7317588  36.2926603   2.2993783  43.3082018
  38.6805810   2.5422860  44.6269560  38.6049481   1.8731671  45.1820348
  38.6095669   3.2440648  45.1410226  38.6586417   2.5467768  44.7846408
  39.3376057   1.0623859  35.4593166  40.1025948   0.7933503  35.1375830
  39.2354147   0.5773870  36.1763229  39.4357553   0.9513424  35.5172994
  38.0697445   5.9491180  43.0847561  38.5593375   5.2501969  42.9023225
  37.4981677   5.6515050  43.6723618  38.0581975   5.8017404  43.1448602
  38.5633790  -0.3032046  32.2087467  38.6326611  -1.1617508  32.3480468
  39.3422246  -0.0860165  31.8806492  38.6886641  -0.3979182  32.1804625
  42.9541278   2.1205655  36.4223961  42.5621070   1.8172370  35.7046827
  43.1094350   2.9574745  36.2328914  42.9194868   2.1989492  36.2880458
  35.9468275  -1.1780806  44.9600033  35.8388630  -1.1678744  45.8262091
  36.1564057  -0.3526026  44.7704987  35.9618386  -1.0539732  45.0604125
  43.7231583   1.5241148  39.8553995  43.5251272   2.0131962  39.1610206
  43.1019294   1.7282389  40.4338128  43.6019148   1.6257686  39.8377218
  31.2217929  -2.2534066  43.5655887  30.6917854  -2.9441628  43.6150862
  31.4943023  -2.2623881  42.7368595  31.1842652  -2.3566935  43.4503303
  26.5013771  -5.5806302  40.9224235  26.3957221  -5.6259458  40.0576319
  25.7513991  -5.2352522  41.2038520  26.3749374  -5.5365394  40.8361565
  39.9034089  -1.5250917  44.5187687  39.3959180  -0.9715070  44.9628318
  39.6060735  -1.4642627  43.7006462  39.7838974  -1.4344606  44.4636144
  42.5141869   2.3912341  32.4491631  41.7971179   2.2173203  31.9838868
  43.1648607   2.1564913  31.9167117  42.5043720   2.3308133  32.3020848
  39.1476574   3.4073641  41.4244694  38.9242229   2.6492471  41.7928720
  38.6586418   3.4371663  40.7025134  39.0420023   3.2995866  41.3721435
  37.7955031   3.6274099  38.8781779  37.3815430   2.9648230  38.4885620
  38.4802406   3.7751958  38.3577473  37.8353403   3.5514758  38.7438276
  41.1620325   2.7864185  39.6305395  40.7636609   2.8966455  38.8626215
  40.5471545   2.9946251  40.2131955  41.0119215   2.8337753  39.6036694
  34.7609501   4.0683181  41.2795125  35.0756060   4.8819570  41.2872906
  35.1702914   3.6833400  41.9477284  34.8677599   4.1311884  41.3799216
  43.8011005   1.0954541  51.0291009  43.9107971   0.3063102  51.3847756
  44.1301902   1.0060478  50.2265347  43.8663411   0.9660394  50.9633399
  32.1022521  -1.9843710  40.9273733  32.7067378  -2.0247876  40.2987554
  31.8949834  -1.1372558  40.9577789  32.1611418  -1.8655708  40.8389849
  41.9166293   0.2822235  42.1435970  42.7364667   0.1385201  42.4052265
  41.6360371   0.9068434  42.6852408  41.9963037   0.3532587  42.2623910
  27.3373803  -3.0009093  40.7972656  27.2398081  -3.8112821  41.1062713
  28.1202673  -3.0217299  40.4118924  27.4389940  -3.1242003  40.7859519
  58.3879944   7.9387086  35.1078847  58.3573948   8.7931723  35.2797116
  58.9861292   7.6382379  35.6664990  58.4717101   8.0203583  35.2153649
  51.5879628   7.0262737  39.8631777  50.7317524   7.1871236  39.9140894
  51.6347282   6.1554801  39.8836838  51.4678740   6.9213539  39.8737843
  54.8973345  13.2949263  49.4692233  55.6040112  12.8001294  49.5979168
  55.0861280  13.7358345  48.7394891  55.0301251  13.2867613  49.3801279
  51.4245728  16.9850825  31.0554556  51.0897096  17.6627746  30.6198778
  51.9372598  16.5956136  30.4671427  51.4511309  17.0275403  30.9041347
  50.9650019  18.9365094  36.9965667  51.3489399  19.5051992  36.4570443
  50.9009161  18.2114604  36.5171483  51.0123447  18.9140557  36.8459530
  54.4331449   9.0854781  42.5063429  54.9787409   9.7639868  42.5657398
  54.3748326   8.9442242  41.6465010  54.5047364   9.1646783  42.3875489
  56.2096518  10.5139389  33.3797157  56.0936044  11.2647075  33.8089295
  57.0052405  10.2563342  33.6293244  56.3101108  10.5874235  33.4801248
  40.7470569  12.5964134  37.5184115  40.5120753  11.7631786  37.4116384
  40.8856209  12.8768800  36.7045316  40.7326231  12.5147637  37.3826470
  43.0460656   4.7649865  40.4168423  42.4265688   4.1742512  40.2478437
  42.9444520   5.3561300  39.7832746  42.9398332   4.7653947  40.2973412
  50.1428552   6.5049406  34.7500886  50.8408716   6.6837534  35.2422349
  50.4580884   5.9819746  34.1271275  50.2923889   6.4543179  34.7302896
  42.7729789   8.3102146  42.6611991  42.6488486   8.8964592  43.2961810
  43.4248074   7.8162342  42.9624266  42.8503438   8.3240951  42.7997921
  47.7988130  11.4863863  41.9399503  48.4437133  10.9936306  41.6210451
  48.0389907  11.6288650  42.7665581  47.9298715  11.4341306  42.0149036
  50.3374221  14.3318769  41.5906395  50.6197464  13.5370175  41.3693151
  51.0660382  14.8099357  41.6111456  50.4863785  14.2853366  41.5609410
  48.3155415   1.8741803  38.8322160  47.9858745   2.3252947  38.1625859
  47.6400417   1.7957966  39.3795167  48.1665852   1.9292938  38.8145384
  53.9325824  11.2447033  31.6911446  53.8477119  12.1007999  31.8361015
  54.4210207  10.9691357  32.3593605  53.9914721  11.3304354  31.8113528
  54.8644257   7.8631827  33.1909181  54.3355728   8.0791460  33.8506488
  55.3869277   8.5567965  33.1110151  54.8632710   7.9974964  33.2764781
  60.3192310  13.4378131  38.5642226  59.4890013  13.6488775  38.7275642
  60.2701562  12.6115186  38.2884510  60.1899045  13.3467738  38.5479591
  46.7543865  11.7595044  31.9916649  46.1701080  12.2645075  32.3982513
  46.3513960  11.5337431  31.2513241  46.6083168  11.8003292  31.9421675
  52.0365639  16.7176800  47.3606308  52.1248985  16.5302940  48.2084519
  52.4655352  16.0714229  46.9611155  52.1127742  16.5939807  47.4278060
  51.2121079   8.0060696  30.4685570  51.4517083   8.2138680  29.6560913
  51.5336920   7.2018205  30.5774515  51.2958237   7.9174797  30.3646123
  59.8146268   6.0848532  42.3592647  58.9774689   6.1550719  42.5940242
  59.7834499   6.0873027  41.4866950  59.6864550   6.0958759  42.2652195
  46.2110997   8.2281568  48.0741016  46.3831501   8.1187462  48.9226297
  46.7480355   8.8735973  47.8372208  46.3156001   8.3073569  48.1646113
  44.8768434   2.3424411  31.0123221  44.6944007   2.5596291  30.1864214
  45.7394047   2.4563423  31.0681835  44.9773023   2.3914308  30.8977708
  54.5376454  10.2804209  37.9504539  55.2933969  10.7135723  37.9893447
  54.6438778   9.6308978  38.5239175  54.6646624  10.2481692  38.0402564
  57.5756625  14.1077486  38.7006942  57.1391857  14.1114228  39.4565913
  57.2419540  14.7882985  38.2686519  57.4619245  14.2089942  38.7487774
  52.1485699  16.1485819  50.0250092  52.9326115  16.2616666  50.3905834
  51.9482293  15.3226956  50.2208778  52.2351724  16.0432538  50.1084478
  40.5172714  10.8213499  42.9093936  40.2511129  10.0052615  43.0684926
  40.5311278  10.8666654  42.0389451  40.4797436  10.7070404  42.8047418
  44.4230461   5.6198583  29.5245694  43.7088638   5.3336763  29.9368126
  44.9074430   5.9595209  30.1652081  44.3889824   5.6280233  29.6801329
  45.2671320   4.3591877  45.5560944  44.5743117   3.8888857  45.8021675
  45.8831648   4.1330182  46.1302651  45.2555850   4.2559009  45.6770096
  60.7100971  10.8258406  37.5926579  61.3717405  10.2649074  37.4922487
  60.0692383  10.3310436  37.9179270  60.7129839  10.6694815  37.6258919
  51.5977779  14.1228537  29.9007502  52.0128927  13.7913561  29.2091998
  50.7669709  13.8897439  29.7727639  51.5365788  14.0399793  29.7798350
  40.9266128  11.6072278  40.1905680  40.7441701  11.5819164  39.3377972
  41.6615797  12.0771216  40.2294589  41.0080192  11.6733640  40.0703599
  56.9965802  11.8423788  37.3338568  57.2321391  11.9868987  36.5065418
  57.1455366  12.6066196  37.7270081  57.0531605  11.9762843  37.2702172
  43.9911879   8.3257281  46.6987789  44.7151852   8.3110312  47.1852684
  44.0928016   9.0352636  46.2009757  44.1130088   8.4281984  46.6966576
  58.8256259  10.6825454  35.1708172  59.1564476  11.2153094  34.5648266
  59.3989347  10.7364342  35.8270122  58.9589938  10.7695023  35.1785953
  51.3656829  11.8056366  51.5636736  50.5729810  12.1199877  51.7489355
  51.4805756  12.0207834  50.7257520  51.2652239  11.8840202  51.4675071
  54.0388148   8.5290357  35.8531752  54.1335002   9.2679651  36.3071377
  53.4146991   8.1007832  36.2866316  53.9597178   8.5751677  35.9839899
  52.2940622  11.7076569  46.5022033  52.8679483  11.0703814  46.6570596
  52.2155425  11.7080652  45.6331690  52.3673856  11.6141681  46.3968443
  40.8937038   8.4865779  40.3404747  41.4710541   8.3502230  40.9796992
  40.1951100   8.0301563  40.5950331  40.8758059   8.3988045  40.4727036
  54.2911169  10.3739097  29.0868704  54.2091332  10.4441284  29.9523691
  54.9290890  10.9368840  28.8952444  54.3731006  10.4678068  29.1858653
  47.6504340  10.1399835  38.5543230  47.3923584   9.3071569  38.5274529
  47.7052823  10.3657448  37.7135730  47.6204118  10.0497606  38.4263367
  46.6239052   7.6937597  39.0408125  46.0488644   7.8529765  39.6772086
  46.2474729   7.0573006  38.5776575  46.4841865   7.6235410  39.0662683
  50.2912341   6.1660946  43.9000503  49.9026774   5.7415164  43.2452694
  49.6267039   6.4143096  44.4077530  50.1359269   6.1399667  43.8788371
  36.3695871   7.3377672  37.0552565  36.4556123   6.9609540  37.8366095
  36.9971669   6.9638117  36.5772524  36.4752422   7.2263154  37.0998043
  51.3951279  10.3959551  32.0977310  52.2091918  10.6874444  31.9860081
  51.3310421   9.7419413  31.5235603  51.5054018  10.3424746  31.9966147
  57.6160769  13.0785547  46.5106886  57.3799407  12.2473612  46.3918946
  58.2603998  13.0271154  47.0961730  57.6755440  12.9483235  46.5792779
  47.9062003   9.0883358  31.5624512  48.2907155   8.8691065  32.3141057
  47.6573623   9.9146303  31.6925588  47.9264075   9.1781504  31.6925588
  48.0730543   2.3689773  51.2787096  47.7583984   3.1389336  51.0156659
  47.7520475   1.8060029  50.6939323  47.9789462   2.4000042  51.1528446
  58.6397190  12.8629996  42.5735180  58.3343007  13.5958053  42.9348496
  57.9203406  12.4567925  42.2927966  58.4884532  12.9111729  42.5848317
  64.3398982   9.5022996  41.9003524  64.2723482   9.5218956  41.0306111
  64.3254645  10.3453324  42.1259195  64.3277739   9.6296731  41.8056001
  43.4086416  14.6911354  35.9337852  42.5824534  14.9373091  35.8072131
  43.4698407  14.6123435  36.7999910  43.2960583  14.7156303  36.0426796
  45.6262440   0.7580295  36.8933292  44.7584865   0.8302894  36.9590901
  45.9137644   1.5602374  37.0821267  45.5402188   0.8874442  36.9308059
  62.1257600   8.2767383  40.1750119  62.6765521   7.6435452  40.4147211
  62.1101715   8.8082775  40.8665623  62.2042796   8.2616331  40.3128977
  48.7779990  12.1105980  44.7210012  48.2791684  12.8221748  44.7994901
  49.5880215  12.4306647  44.6828175  48.8236097  12.2632829  44.7266581
  45.0408108  11.3728933  38.9672733  44.7521357  10.7466404  39.5018461
  45.9091456  11.3149220  39.0337414  45.1268360  11.2716477  39.0563688
  55.8286006   6.5163716  39.2854715  55.4850772   5.7954052  39.6361965
  55.9279048   6.3077567  38.4433073  55.7928049   6.3787920  39.2126395
  45.2440381  13.0124184  34.8915098  45.9986349  13.3937223  35.1050561
  44.6510994  13.4635328  35.3461795  45.2677095  13.1353011  34.9897977
  56.2899035  12.9789420  34.8278703  56.8557067  13.6382630  34.7437246
  55.6426938  13.3239118  35.2995105  56.2777791  13.1271362  34.8851460
  47.7047048   4.9687024  50.0172311  46.8946824   5.2744804  49.9062153
  48.1821735   5.6892607  50.1324895  47.6550527   5.1201625  50.0179382
  43.5529792   4.2338554  34.3350168  43.2654588   3.8639824  33.5982116
  44.2400260   4.7033409  34.0733873  43.6118689   4.2485523  34.1865244
  52.7605613  15.9228205  34.2515782  52.5192289  15.1896065  33.8442847
  52.9406946  16.4715062  33.5982116  52.7513237  15.8950596  34.0946005
  46.3883464   8.0991502  35.7817573  47.1106115   8.2632660  35.3221379
  45.9091456   8.8201167  35.6756913  46.4247194   8.2289732  35.6983187
  54.3476971   4.4355301  41.1614258  53.5088072   4.4616580  40.9252521
  54.4181338   5.0826037  41.7419605  54.2345365   4.5351427  41.2123375
  44.0391080  10.5049575  44.8871713  44.5512177  10.7833828  44.2380473
  43.7527423  11.2438869  45.2534526  44.0725943  10.6551928  44.8461591
  58.2234495   9.6423288  38.4475500  58.1368469   9.7978714  39.3010279
  57.7684975  10.2861363  38.0734905  58.1437752   9.7599043  38.5182607
  41.1257987   5.0119767  35.1835449  41.2274123   5.8145928  35.5116425
  41.9213873   4.8107102  34.8858530  41.2585892   5.1005665  35.1870805
  47.5574806   2.5975963  44.9472755  47.3658003   2.6131098  45.7972178
  48.4073402   2.7939638  44.9239409  47.6550528   2.6290314  45.0696049
  41.9421719   5.1266945  42.9256571  41.8007210   4.2750885  43.0501079
  42.2262282   5.1695605  42.1018777  41.9629565   5.0066695  42.8224195
  52.0960311   6.9634035  37.0701059  51.8495025   6.8829786  37.9037848
  52.4245434   6.1787503  36.8763587  52.1081555   6.8360300  37.1648582
  55.9908360  13.6717394  40.8587841  55.8522719  14.3698440  41.3636583
  55.2108358  13.5166051  40.5024022  55.8551587  13.7517561  40.8814115
  54.3286445   9.9713770  47.1110222  54.3234483   9.0993586  47.1152649
  55.0347439  10.1701939  46.6379678  54.4331449   9.8717644  47.0417258
  48.0557338   9.6990754  46.4824042  48.2000714  10.2791962  45.8467152
  48.4032987  10.0767050  47.1873897  48.1284800   9.8411458  46.4923037
  50.2277256   8.8980922  44.2649174  49.4800570   9.0911936  43.8597452
  50.3818781   8.0726141  44.0273295  50.1399683   8.8046033  44.1694580
  57.4861733  13.0295648  31.6204340  57.1068541  12.2432786  31.6133629
  56.8227978  13.5782505  31.4775984  57.3320207  12.9940472  31.5985137
  50.4679033   2.7931473  45.1544578  50.9251647   3.5255447  45.2817370
  50.5435361   2.3697938  45.9131833  50.5470003   2.8388711  45.2845654
  42.7112024   3.0397292  46.2434021  42.1754213   2.4277650  46.5594789
  42.7729789   3.6145428  46.8967688  42.6407657   3.0344220  46.3869448
  48.3461411   4.7833577  41.9986402  47.5557485   4.6025037  42.3203738
  48.7422033   4.0060529  41.9816696  48.2878287   4.6421037  42.0438950
  52.8327301  13.6121351  27.4393115  53.6000287  13.6721476  27.0298967
  52.3858610  13.0401792  26.9549434  52.8800729  13.5357927  27.3070826
  53.7305097  12.4176007  39.7245848  53.0550099  12.1861239  40.2259235
  53.7397473  11.8097190  39.0987953  53.6323601  12.2934932  39.7062000
  50.8599241   7.2593836  46.4809901  50.7958382   8.1203792  46.3530037
  50.9996429   6.9425829  45.6805452  50.8714711   7.3394002  46.3438113
  55.7321831  15.2741139  31.9556026  55.8141669  16.0808125  31.6317476
  56.2171574  15.2937098  32.6796799  55.8158989  15.3961801  32.0142924
  49.5418335   9.9525975  40.6226104  49.1180584  10.1530474  39.8865122
  49.3663190   9.1054823  40.7350403  49.4529215   9.8574756  40.5299794
  44.8300780  10.4478026  36.0554076  44.9865399  10.3824829  36.9110068
  45.1701373  11.2226579  35.8432756  44.9034015  10.5527225  36.1508670
  51.3679924   9.8235910  34.9247439  51.9095470   9.3206291  35.3886060
  51.6826483   9.7701105  34.1136925  51.4944321   9.7415331  34.8731251
  55.2397032  14.0338557  52.0374351  56.0531897  13.7623706  52.1979484
  55.0791998  13.7346097  51.2334547  55.3366980  13.9493483  51.9419757
  52.5169194   4.7172215  44.9769740  52.7311163   4.0783129  44.4233094
  51.9003093   5.1618038  44.5477601  52.4574523   4.6882358  44.8320171
  53.9273862  17.6390963  36.4223961  53.5353653  17.3357678  35.7046827
  54.0826934  18.4760053  36.2328914  53.8927451  17.7174800  36.2880458
  41.4035041   7.6312977  36.3714843  41.7834006   8.0497522  35.7075111
  40.8290406   8.2126433  36.6783687  41.3746366   7.7790836  36.3191584
  54.6808282   6.3261280  45.9153047  53.8684963   6.0187170  45.9966220
  55.1398216   5.8460280  46.4795759  54.6288667   6.2097772  46.0107641
  54.0913536  14.2040952  36.3629991  53.7328191  14.3755595  37.1394024
  53.6052247  14.6654157  35.8057990  53.9672233  14.2979923  36.3955260
  48.8801902   9.8840117  28.9030226  49.1694427  10.6605000  29.1773800
  48.9673701   9.3728849  29.6044725  48.9356158   9.9232035  29.0472723
  51.7761789   7.7321351  50.6981749  52.2461420   8.3563468  51.0849623
  51.8223669   7.0638327  51.2574964  51.8529665   7.7256031  50.8381821
  55.2518276  15.0944848  47.3097192  55.8897996  14.6005043  46.9759648
  54.6092367  15.0222248  46.7249419  55.2512502  15.0103856  47.1739547
  56.9775276   6.9433994  41.8763108  56.5502884   6.8560342  41.1211207
  56.3401329   7.0511769  42.4617952  56.8204883   6.9466653  41.8508549
  55.3072532  15.7864656  43.9502549  56.0964911  15.4353721  44.0704630
  55.4816130  16.6001044  43.6879183  55.4492814  15.8550513  43.9290417
  45.0465843   9.1973382  41.0030338  44.2053849   9.0977256  41.2109231
  45.2555851   9.9668862  41.3544658  44.9530535   9.2965425  41.0857653
  42.5241410   6.8192919  38.8315088  42.1298107   6.8935930  38.0565198
  41.9681527   7.2050865  39.3823450  42.3844222   6.8874693  38.7982748
  48.8582508   7.1254781  40.2527935  48.5545645   6.5710769  40.8538343
  48.1561928   7.3046991  39.7655969  48.7098717   7.0699563  40.2697641
  47.9148605   4.4355301  34.8172637  48.1908339   3.7174213  34.4050205
  48.5147274   5.0340221  34.6093743  48.0441869   4.4175671  34.7253398
  44.9374651  11.5917144  42.4221971  44.3462584  12.2326642  42.3924986
  45.6995674  12.0154761  42.3953270  44.9622911  11.7492982  42.4137118
  45.3335273   2.7519142  43.0889988  45.7936755   2.8258071  43.8265112
  45.3791380   3.5500396  42.7389810  45.4085829   2.8813289  43.1462745
  46.9818623   3.4185837  47.6562015  46.5904188   2.7719184  48.0917793
  47.1504486   4.0097272  48.2756271  46.9489534   3.4100104  47.8124721
  61.0565072  11.4222914  43.4199249  61.1148196  11.8709562  44.1659225
  60.4231540  11.8321726  42.9829329  60.9716367  11.5496648  43.4651797
  54.6964167  17.0426456  39.8553995  54.4983856  17.5317270  39.1610206
  54.0751878  17.2467697  40.4338128  54.5751731  17.1442994  39.8377218
  48.7572145   8.8111352  34.1964239  49.5014190   9.1985629  34.4347189
  48.9032841   7.9668778  34.3604727  48.8882730   8.7441825  34.2558209
  51.7450021   4.3836826  40.0958159  51.2709975   3.8578588  40.6063470
  52.1168157   3.8366299  39.5273020  51.7299910   4.2252822  40.0873306
  42.1223051   6.3808332  45.4641704  42.9848664   6.2804042  45.3779034
  41.7914834   5.8003042  44.9027277  42.2008248   6.2799959  45.3687110
  58.0086752   9.4439201  41.5064939  57.7684975   8.6045617  41.5107366
  58.4878759   9.5239368  42.2305713  58.0438935   9.3320601  41.6139741
  53.6733521   5.2773380  33.1583912  53.1456539   5.3602124  32.4689621
  54.1329229   6.0191252  33.1548557  53.6635371   5.3994043  33.0558608
  60.0091939   6.2240659  39.4594198  59.7701709   6.1836493  38.6214983
  60.1725840   7.0711811  39.5859919  59.9982242   6.3432744  39.3547680
  56.6137969  10.6090608  45.3899243  57.3372168  10.1563134  45.2110263
  56.3487931  10.8895274  44.6071571  56.6819242  10.5841576  45.2477959
  45.4824837   5.2050781  42.1252123  44.8577907   5.2169173  41.5178075
  45.1470432   5.6810957  42.7743363  45.3410329   5.2769298  42.1308691
  45.6666586   3.5475900  28.1824808  45.3179390   4.1995625  28.6456357
  45.1863032   3.5333013  27.4548679  45.5436830   3.6418953  28.1435899
  42.1950513  13.2651241  43.5655887  41.6650437  12.5743680  43.6150862
  42.4675606  13.2561427  42.7368595  42.1575235  13.1618373  43.4503303
  53.2270603  13.8476944  32.2893569  53.9504802  14.3135057  32.1458143
  52.7871194  13.9150553  31.5391166  53.2686295  13.9260781  32.1578351
  52.3956758  10.7074486  43.5394258  51.7813751  10.1632536  43.8342894
  52.9124043  10.1938723  43.0600075  52.3812421  10.5510895  43.5118487
  51.6353055  11.7778756  41.2738557  51.2080664  11.1528475  40.8403992
  51.6278000  11.4953678  42.0997564  51.5712197  11.6431537  41.3318385
  44.7515583   6.8143929  44.3426991  44.9109069   6.0587253  44.7478713
  44.5708476   7.3634869  44.9967729  44.7480942   6.7837743  44.4989697
  49.9638765   2.6547511  41.4881091  49.9881252   2.1207623  40.7993871
  50.2150239   2.1464819  42.1506682  50.0048684   2.5008415  41.4845736
  37.4746355   9.9379006  40.9224235  37.3689804   9.8925850  40.0576319
  36.7246575  10.2832786  41.2038520  37.3481958   9.9819914  40.8361565
  46.2440087   1.3818329  40.8686835  46.2838459   1.8827535  41.5821543
  45.4189752   1.4728723  40.5992758  46.1279613   1.4700145  40.9337374
  48.4269700  10.9479069  48.9707130  47.5765331  11.0850783  49.1064775
  48.5897828  10.2142847  49.4154832  48.3253564  10.8593170  49.0562729
  47.6654451   7.8978839  43.1660734  46.8346380   8.0652657  42.9595983
  47.6105968   7.5214790  43.9509620  47.5343866   7.8668570  43.2509263
  45.4738234   1.3887732  48.8017145  46.0990937   0.8449864  49.0746577
  45.0188714   0.9082649  48.2324935  45.4986495   1.2377213  48.7578739
  46.0390495   6.1734430  33.6950852  46.1793456   6.6706895  34.3979493
  46.5373027   5.4720725  33.8365066  46.1331576   6.1436409  33.8202431
  46.0690717   7.0401541  31.0243429  46.7035796   7.6361966  30.9592891
  46.1516328   6.7404999  31.8389299  46.1747268   7.0842449  31.1346515
  59.0473283   9.5717019  43.8929793  59.6391123  10.2114269  43.9247991
  59.4832277   8.8740055  44.1821860  59.1991714   9.5635369  43.9410626
  47.6469700   2.9715517  30.9988871  47.9685541   2.4918599  30.3448133
  47.9096644   3.7815163  30.8079683  47.7335725   3.0205415  30.8744363
  50.8766673  13.9934391  44.5187687  50.3691764  14.5470238  44.9628318
  50.5793319  14.0542681  43.7006462  50.7571558  14.0840702  44.4636144
  42.5743705   9.2369382  34.2932975  43.0835934   9.8333890  34.6744280
  43.0477977   8.9695356  33.6109395  42.7187081   9.2855198  34.2487498
  53.4874453  17.9097649  32.4491631  52.7703763  17.7358511  31.9838868
  54.1381191  17.6750221  31.9167117  53.4776303  17.8493441  32.3020848
  56.0722424   6.7862237  36.1932936  55.4013614   7.3291940  36.0646001
  56.7662174   7.2557093  35.9514630  56.0751292   6.9360509  36.1388463
  44.9334237   5.8725641  37.1606155  44.2146226   6.2889773  37.4279019
  45.3046599   6.4379879  36.6097794  44.8826168   6.0174922  37.1188962
  54.2333817   6.5053490  43.0508151  54.2131745   6.3236785  43.9042930
  54.2813018   7.3765508  43.0267735  54.2368458   6.6070028  43.1731446
  52.1780147  13.0940682  48.9756628  52.1376002  12.4490358  48.3901784
  52.9903466  13.0377299  49.2882040  52.2923301  12.9899648  48.9353577
  52.1352909  18.3049493  39.6305395  51.7369192  18.4151763  38.8626215
  51.5204129  18.5131559  40.2131955  51.9851798  18.3523061  39.6036694
  50.7080811   4.9123641  32.4979535  50.1145650   5.2340637  31.9464102
  50.7456089   4.0664736  32.2900641  50.6255200   4.8347969  32.3862306
  53.5838628   4.8703145  35.9281285  53.3552321   4.8935846  35.0859643
  53.8436704   4.0460612  36.0476296  53.5884816   4.7519225  35.8206483
  47.8657856   6.7237618  45.5306385  47.3536759   6.1158801  45.8891417
  47.6937352   7.4394211  45.9980361  47.7647493   6.7400917  45.6522609
  42.7123571   5.1675193  48.1808747  42.5426161   5.8276568  47.6356954
  42.2689521   5.3781755  48.9021236  42.6222904   5.2961175  48.2070377
  46.6383390   3.4079691  37.2235481  47.1140756   3.7696771  36.5885662
  46.1371990   4.0636159  37.5035623  46.6348749   3.5573880  37.1712222
  59.8694752  12.8801459  33.0148486  60.2528357  13.6292816  33.2446583
  59.0738865  13.1267279  32.7560475  59.8088534  13.0271153  33.0106059
  51.7426926   4.6461863  47.9708641  52.2998357   4.4175672  47.3387106
  51.4187991   5.4067528  47.6943853  51.7773337   4.7245699  47.8365138
  39.6125635   8.0722059  43.4397237  39.0652355   7.4022704  43.5578105
  40.4018013   7.7051907  43.5040704  39.6477819   7.9187045  43.4665937
  49.4610044   7.7329516  48.9360648  50.2121371   8.0481193  49.2500202
  49.6532620   7.5308687  48.1094570  49.6001458   7.7496898  48.8604044
  48.6810043   5.5520891  30.5908865  49.0609008   5.5700520  29.8059979
  47.9402639   5.9974880  30.4699712  48.6278881   5.6202666  30.4572433
  38.3712605   7.2842867  40.5943260  38.1934366   6.8319476  41.3198176
  38.0831627   8.0869028  40.7781737  38.3025558   7.3365425  40.7286763
  54.0336186   8.5400584  39.8320650  54.5289851   7.8223579  39.7924671
  53.2235962   8.2371382  39.7175137  53.9880079   8.3898230  39.8094376
  49.4794797  12.3898397  31.9817655  48.6706120  12.0665071  31.9350964
  49.9869706  11.6831619  31.9145903  49.4344464  12.2379714  31.9647949
  40.1085075   9.8170590  37.7065019  39.2430594   9.8056281  37.5947790
  40.2083890   9.6300813  38.5536158  39.9959242   9.7876652  37.8153963
  56.0988005  11.2904272  42.5197779  56.5243076  10.7678693  41.9668204
  55.7344925  11.8885109  41.9986402  56.1074607  11.3014499  42.3606789
  52.6866604  15.0038536  38.8498936  53.1577782  15.7178798  39.0188922
  53.0226783  14.4037286  39.3858806  52.8061719  15.0210000  38.9531312
  54.7743589  16.6139849  51.0291009  54.8840554  15.8248410  51.3847756
  55.1034485  16.5245785  50.2265347  54.8395995  16.4845702  50.9633399
  53.3240550  14.7956470  45.6126629  52.7761496  14.1714354  45.3446694
  53.7853579  14.9850742  44.8970709  53.3107760  14.7315520  45.4677060
  48.6729214   1.7782419  33.2736496  49.4944908   1.9480732  33.0318191
  48.2098865   1.9329680  32.5502794  48.7260376   1.8264152  33.1308141
  43.0755105  13.5341598  40.9273733  43.6799962  13.4937432  40.2987554
  42.8682417  14.3812750  40.9577789  43.1344002  13.6529600  40.8389849
  52.8898877  15.8007543  42.1435970  53.7097251  15.6570509  42.4052265
  52.6092954  16.4253742  42.6852408  52.9695620  15.8717895  42.2623910
  38.3106387  12.5176215  40.7972656  38.2130665  11.7072487  41.1062713
  39.0935257  12.4968008  40.4118924  38.4122523  12.3943305  40.7859519
  62.5612212  22.5448045  39.8631777  61.7050107  22.7056544  39.9140894
  62.6079866  21.6740109  39.8836838  62.4411323  22.4398847  39.8737843
  65.8705929  28.8134571  49.4692233  66.5772696  28.3186602  49.5979168
  66.0593864  29.2543653  48.7394891  66.0033834  28.8052921  49.3801279
  62.3978312  32.5036133  31.0554556  62.0629680  33.1813054  30.6198778
  62.9105182  32.1141444  30.4671427  62.4243893  32.5460711  30.9041347
  61.9382603  34.4550401  36.9965667  62.3221982  35.0237300  36.4570443
  61.8741744  33.7299912  36.5171483  61.9856030  34.4325865  36.8459530
  65.4064033  24.6040089  42.5063429  65.9519993  25.2825176  42.5657398
  65.3480909  24.4627550  41.6465010  65.4779947  24.6832091  42.3875489
  58.5238108  32.0929155  37.8931781  58.6248471  31.2829509  38.2028909
  57.9279853  31.9986102  37.2631460  58.4510647  31.9594184  37.8458020
  67.1829102  26.0324696  33.3797157  67.0668628  26.7832383  33.8089295
  67.9784988  25.7748650  33.6293244  67.2833691  26.1059543  33.4801248
  54.0193240  20.2835173  40.4168423  53.3998271  19.6927820  40.2478437
  53.9177103  20.8746608  39.7832746  53.9130915  20.2839255  40.2973412
  59.0659427  30.0218719  34.6666499  59.3875268  30.5623927  34.0627807
  59.7131524  29.4515491  34.7988789  59.2085482  30.0177895  34.5973534
  61.1161135  22.0234714  34.7500886  61.8141300  22.2022842  35.2422349
  61.4313468  21.5005054  34.1271275  61.2656472  21.9728487  34.7302896
  53.7462373  23.8287454  42.6611991  53.6221069  24.4149900  43.2961810
  54.3980657  23.3347650  42.9624266  53.8236022  23.8426259  42.7997921
  61.3049071  28.4105159  34.7380677  61.7442706  27.8022260  35.1835450
  61.1553733  28.0312533  33.9666142  61.3470536  28.2643631  34.6899844
  58.7720714  27.0049171  41.9399503  59.4169716  26.5121614  41.6210451
  59.0122491  27.1473958  42.7665581  58.9031299  26.9526613  42.0149036
  61.3106805  29.8504077  41.5906395  61.5930048  29.0555483  41.3693151
  62.0392965  30.3284665  41.6111456  61.4596369  29.8038674  41.5609410
  59.2887999  17.3927111  38.8322160  58.9591329  17.8438255  38.1625859
  58.6133001  17.3143274  39.3795167  59.1398435  17.4478246  38.8145384
  64.9058407  26.7632341  31.6911446  64.8209702  27.6193307  31.8361015
  65.3942790  26.4876665  32.3593605  64.9647304  26.8489662  31.8113528
  66.4964407  13.3812634  37.0771771  66.1817848  14.0716113  37.5092193
  65.9791348  13.3257416  36.3757272  66.3728877  13.4747523  37.0368720
  65.8376840  23.3817135  33.1909181  65.3088312  23.5976768  33.8506488
  66.3601860  24.0753273  33.1110151  65.8365293  23.5160272  33.2764781
  71.2924893  28.9563439  38.5642226  70.4622596  29.1674083  38.7275642
  71.2434146  28.1300494  38.2884510  71.1631629  28.8653046  38.5479591
  57.7276448  27.2780352  31.9916649  57.1433663  27.7830383  32.3982513
  57.3246543  27.0522739  31.2513241  57.5815752  27.3188600  31.9421675
  59.3534631  31.7867294  41.3990135  58.8361573  31.4274709  40.7951444
  60.0509022  31.2629468  41.4096202  59.3800212  31.6564981  41.3120394
  63.0098223  32.2362108  47.3606308  63.0981569  32.0488248  48.2084519
  63.4387935  31.5899537  46.9611155  63.0860325  32.1125115  47.4278060
  60.5768683  31.5193268  46.3423971  60.0139517  31.1065877  46.8663632
  61.3389706  31.4446173  46.7617114  60.6063131  31.4470668  46.4816971
  62.1853663  23.5246004  30.4685570  62.4249666  23.7323988  29.6560913
  62.5069504  22.7203512  30.5774515  62.2690821  23.4360105  30.3646123
  57.4943953  15.4539399  34.3145108  58.2489921  15.8217717  34.0762158
  57.3171487  15.8278954  35.0824288  57.5798431  15.5637587  34.3929996
  70.7878852  21.6033840  42.3592647  69.9507273  21.6736027  42.5940242
  70.7567083  21.6058335  41.4866950  70.6597134  21.6144067  42.2652195
  57.1843581  23.7466876  48.0741016  57.3564084  23.6372770  48.9226297
  57.7212938  24.3921281  47.8372208  57.2888585  23.8258877  48.1646113
  55.8501018  17.8609718  31.0123221  55.6676591  18.0781599  30.1864214
  56.7126631  17.9748731  31.0681835  55.9505607  17.9099616  30.8977708
  56.0868153  30.1198516  42.7559514  56.6266377  29.9769647  43.4262887
  55.4038099  30.5195267  43.1243541  56.0660306  30.1578187  42.9093936
  61.5300737  14.8636129  34.0472245  62.2586897  14.6852084  33.6010401
  61.6195630  15.7054209  34.2579423  61.6507399  14.9620008  34.0125762
  65.5109037  25.7989517  37.9504539  66.2666552  26.2321031  37.9893447
  65.6171362  25.1494286  38.5239175  65.6379208  25.7667000  38.0402564
  68.5489209  29.6262794  38.7006942  68.1124440  29.6299536  39.4565913
  68.2152124  30.3068293  38.2686519  68.4351828  29.7275250  38.7487774
  63.1218282  31.6671127  50.0250092  63.9058699  31.7801974  50.3905834
  62.9214877  30.8412264  50.2208778  63.2084308  31.5617846  50.1084478
  68.4686691  16.6676622  40.9436370  69.1112600  16.7374726  41.5298285
  68.7209712  16.0005844  40.4415912  68.6008824  16.5802970  40.9563649
  55.3963045  21.1383891  29.5245694  54.6821222  20.8522071  29.9368126
  55.8807013  21.4780517  30.1652081  55.3622408  21.1465541  29.6801329
  56.2403904  19.8777185  45.5560944  55.5475701  19.4074165  45.8021675
  56.8564231  19.6515489  46.1302651  56.2288434  19.7744317  45.6770096
  63.2788675  33.5781229  43.6716548  62.4803921  33.3380729  43.9290416
  63.7274687  33.6295622  44.4183595  63.2263287  33.5503620  43.8201472
  71.6833555  26.3443714  37.5926579  72.3449989  25.7834382  37.4922487
  71.0424967  25.8495744  37.9179270  71.6862422  26.1880123  37.6258919
  62.5710362  29.6413845  29.9007502  62.9861511  29.3098869  29.2091998
  61.7402292  29.4082747  29.7727639  62.5098371  29.5585101  29.7798350
  67.9698385  27.3609096  37.3338568  68.2053975  27.5054295  36.5065418
  68.1187949  28.1251504  37.7270081  68.0264189  27.4948150  37.2702172
  54.9644463  23.8442589  46.6987789  55.6884435  23.8295620  47.1852684
  55.0660599  24.5537944  46.2009757  55.0862672  23.9467292  46.6966576
  69.7988842  26.2010762  35.1708172  70.1297059  26.7338402  34.5648266
  70.3721930  26.2549650  35.8270122  69.9322521  26.2880331  35.1785953
  62.3389412  27.3241674  51.5636736  61.5462393  27.6385185  51.7489355
  62.4538339  27.5393142  50.7257520  62.2384823  27.4025510  51.4675071
  65.0120731  24.0475665  35.8531752  65.1067586  24.7864959  36.3071377
  64.3879575  23.6193140  36.2866316  64.9329761  24.0936985  35.9839899
  63.2673205  27.2261877  46.5022033  63.8412067  26.5889122  46.6570596
  63.1888009  27.2265960  45.6331690  63.3406440  27.1326989  46.3968443
  65.2643753  25.8924405  29.0868704  65.1823915  25.9626592  29.9523691
  65.9023473  26.4554148  28.8952444  65.3463590  25.9863376  29.1858653
  58.6236924  25.6585142  38.5543230  58.3656168  24.8256877  38.5274529
  58.6785407  25.8842755  37.7135730  58.5936702  25.5682914  38.4263367
  63.7037974  17.7613593  38.6547323  62.9994301  17.2722779  38.8131242
  63.7522948  17.7736068  37.7835767  63.6068025  17.6903241  38.5486662
  57.5971636  23.2122905  39.0408125  57.0221227  23.3715073  39.6772086
  57.2207312  22.5758314  38.5776575  57.4574448  23.1420718  39.0662683
  61.2644925  21.6846254  43.9000503  60.8759357  21.2600472  43.2452694
  60.5999623  21.9328404  44.4077530  61.1091852  21.6584975  43.8788371
  70.9068194  21.4421259  36.6748333  70.6504759  20.6301200  36.4846216
  71.7497508  21.4498826  36.4478520  70.9934219  21.3233256  36.6133150
  65.0871286  15.3820883  41.4124487  65.4681798  14.6999054  41.7992362
  64.2834570  15.0930485  41.2300152  65.0247748  15.2387931  41.4428543
  62.3683863  25.9144859  32.0977310  63.1824502  26.2059752  31.9860081
  62.3043004  25.2604721  31.5235603  62.4786602  25.8610054  31.9966147
  68.5893353  28.5970855  46.5106886  68.3531990  27.7658920  46.3918946
  69.2336582  28.5456462  47.0961730  68.6488024  28.4668543  46.5792779
  58.2391771  29.3866376  37.2249622  58.8765718  29.1478124  37.7701416
  58.6646843  29.5903535  36.4902783  58.3967937  29.3817386  37.1966780
  58.8794586  24.6068666  31.5624512  59.2639739  24.3876373  32.3141057
  58.6306206  25.4331611  31.6925588  58.8996659  24.6966812  31.6925588
  59.0463127  17.8875081  51.2787096  58.7316568  18.6574644  51.0156659
  58.7253059  17.3245337  50.6939323  58.9522046  17.9185350  51.1528446
  69.6129774  28.3815304  42.5735180  69.3075591  29.1143361  42.9348496
  68.8935989  27.9753233  42.2927966  69.4617116  28.4297037  42.5848317
  60.6213243  29.8638799  38.9043408  60.6952251  29.7013971  39.7585258
  61.4382749  30.0528988  38.6603890  60.7529602  29.8675541  38.9941434
  75.3131566  25.0208304  41.9003524  75.2456066  25.0404263  41.0306111
  75.2987228  25.8638632  42.1259195  75.3010322  25.1482039  41.8056001
  56.5995023  16.2765603  36.8933292  55.7317449  16.3488202  36.9590901
  56.8870228  17.0787682  37.0821267  56.5134772  16.4059750  36.9308059
  65.7227912  16.4243462  45.2244614  66.4681504  16.2353272  44.8108039
  65.3065217  16.9501700  44.6658470  65.7712886  16.4745607  45.0809187
  59.1617829  32.8273542  33.6356882  59.4516127  32.4362523  32.9116108
  59.8921310  33.0090247  34.0762157  59.3124713  32.7967356  33.5939689
  73.0990183  23.7952691  40.1750119  73.6498105  23.1620760  40.4147211
  73.0834298  24.3268083  40.8665623  73.1775379  23.7801639  40.3128977
  59.7512574  27.6291288  44.7210012  59.2524268  28.3407056  44.7994901
  60.5612798  27.9491954  44.6828175  59.7968681  27.7818136  44.7266581
  56.0140692  26.8914241  38.9672733  55.7253940  26.2651712  39.5018461
  56.8824040  26.8334528  39.0337414  56.1000943  26.7901785  39.0563688
  66.8018589  22.0349024  39.2854715  66.4583355  21.3139359  39.6361965
  66.9011632  21.8262875  38.4433073  66.7660632  21.8973227  39.2126395
  59.2691700  36.1770314  35.4847724  59.9215758  35.6446757  35.7138750
  58.5717309  35.8238967  35.8715598  59.2622418  36.0459837  35.5759892
  56.2172965  28.5309492  34.8915098  56.9718933  28.9122531  35.1050561
  55.6243578  28.9820636  35.3461795  56.2409678  28.6538319  34.9897977
  67.2631618  28.4974728  34.8278703  67.8289651  29.1567938  34.7437246
  66.6159522  28.8424426  35.2995105  67.2510375  28.6456670  34.8851460
  58.6779632  20.4872332  50.0172311  57.8679408  20.7930112  49.9062153
  59.1554319  21.2077915  50.1324895  58.6283111  20.6386933  50.0179382
  57.5371192  29.7018053  40.2655214  57.0151945  29.8418345  40.9507078
  57.9245212  28.9428718  40.4557331  57.5174892  29.6103577  40.3956290
  54.5262376  19.7523862  34.3350168  54.2387171  19.3825132  33.5982116
  55.2132844  20.2218717  34.0733873  54.5851273  19.7670831  34.1865244
  63.7338196  31.4413512  34.2515782  63.4924872  30.7081373  33.8442847
  63.9139529  31.9900369  33.5982116  63.7245820  31.4135904  34.0946005
  58.9637517  26.7322072  35.6636705  58.7680300  27.3396807  35.0697008
  59.1871863  26.0390016  35.1828379  58.9672158  26.7199598  35.5052786
  57.3616047  23.6176810  35.7817573  58.0838699  23.7817968  35.3221379
  56.8824040  24.3386475  35.6756913  57.3979778  23.7475040  35.6983187
  65.3209555  19.9540609  41.1614258  64.4820655  19.9801888  40.9252521
  65.3913922  20.6011344  41.7419605  65.2077948  20.0536735  41.2123375
  55.0123664  26.0234883  44.8871713  55.5244761  26.3019136  44.2380473
  54.7260006  26.7624177  45.2534526  55.0458527  26.1737236  44.8461591
  63.7678833  16.8525986  35.8941874  64.4705186  16.6533734  35.4161832
  63.5023022  16.0801928  36.2010717  63.8325465  16.7088952  35.8687316
  69.1967079  25.1608596  38.4475500  69.1101053  25.3164022  39.3010279
  68.7417558  25.8046671  38.0734905  69.1170335  25.2784351  38.5182607
  52.0990570  20.5305074  35.1835449  52.2006707  21.3331236  35.5116425
  52.8946457  20.3292410  34.8858530  52.2318476  20.6190973  35.1870805
  58.5307389  18.1161271  44.9472755  58.3390586  18.1316406  45.7972178
  59.3805985  18.3124945  44.9239409  58.6283111  18.1475622  45.0696049
  52.9154302  20.6452253  42.9256571  52.7739794  19.7936193  43.0501079
  53.1994866  20.6880913  42.1018777  52.9362148  20.5252003  42.8224195
  63.0692895  22.4819343  37.0701059  62.8227609  22.4015094  37.9037848
  63.3978018  21.6972811  36.8763587  63.0814138  22.3545608  37.1648582
  66.9640943  29.1902702  40.8587841  66.8255303  29.8883748  41.3636583
  66.1840941  29.0351359  40.5024022  66.8284170  29.2702869  40.8814115
  65.3019029  25.4899078  47.1110222  65.2967067  24.6178894  47.1152649
  66.0080022  25.6887247  46.6379678  65.4064033  25.3902952  47.0417258
  59.0289922  25.2176061  46.4824042  59.1733298  25.7977270  45.8467152
  59.3765570  25.5952358  47.1873897  59.1017383  25.3596765  46.4923037
  61.2009839  24.4166230  44.2649174  60.4533153  24.6097244  43.8597452
  61.3551364  23.5911449  44.0273295  61.1132267  24.3231341  44.1694580
  58.1017677  33.4078833  43.3485069  58.2507241  32.8481749  42.6958474
  58.8817679  33.4870835  43.7317588  58.2391771  33.3364399  43.3082018
  68.4594316  28.5480956  31.6204340  68.0801125  27.7618094  31.6133629
  67.7960562  29.0967813  31.4775984  68.3052791  28.5125780  31.5985137
  60.6270978  33.5793476  44.6269560  60.5514649  32.9102287  45.1820348
  60.5560837  34.2811264  45.1410226  60.6051584  33.5838383  44.7846408
  61.4411616  18.3116781  45.1544578  61.8984230  19.0440755  45.2817370
  61.5167945  17.8883246  45.9131833  61.5202586  18.3574019  45.2845654
  53.6844607  18.5582600  46.2434021  53.1486797  17.9462958  46.5594789
  53.7462372  19.1330736  46.8967688  53.6140240  18.5529528  46.3869448
  65.9138942  11.4906656  39.0238421  66.0322510  11.9483119  38.2905723
  65.7401118  10.6851917  38.7374638  65.9058113  11.4400428  38.8739354
  61.2841224  32.0994475  35.4593166  62.0491116  31.8304119  35.1375830
  61.1819314  31.6144485  36.1763229  61.3822720  31.9884040  35.5172994
  59.3193994  20.3018884  41.9986402  58.5290069  20.1210345  42.3203738
  59.7154617  19.5245837  41.9816696  59.2610870  20.1606345  42.0438950
  63.8059885  29.1306659  27.4393115  64.5732870  29.1906784  27.0298967
  63.3591194  28.5587100  26.9549434  63.8533312  29.0543234  27.3070826
  64.7037680  27.9361315  39.7245848  64.0282682  27.7046547  40.2259235
  64.7130057  27.3282498  39.0987953  64.6056185  27.8120240  39.7062000
  61.8331824  22.7779144  46.4809901  61.7690966  23.6389100  46.3530037
  61.9729012  22.4611137  45.6805452  61.8447295  22.8579310  46.3438113
  66.7054415  30.7926447  31.9556026  66.7874252  31.5993433  31.6317476
  67.1904157  30.8122406  32.6796799  66.7891573  30.9147109  32.0142924
  60.5150918  25.4711283  40.6226104  60.0913167  25.6715782  39.8865122
  60.3395774  24.6240131  40.7350403  60.4261799  25.3760064  40.5299794
  55.8033363  25.9663334  36.0554076  55.9597982  25.9010137  36.9110068
  56.1433956  26.7411887  35.8432756  55.8766598  26.0712532  36.1508670
  62.3412508  25.3421218  34.9247439  62.8828053  24.8391599  35.3886060
  62.6559067  25.2886413  34.1136925  62.4676905  25.2600639  34.8731251
  66.2129615  29.5523865  52.0374351  67.0264481  29.2809014  52.1979484
  66.0524582  29.2531405  51.2334547  66.3099564  29.4678791  51.9419757
  60.5098958  30.7338569  32.2087467  60.5791778  29.8753108  32.3480468
  61.2887413  30.9510450  31.8806492  60.6351808  30.6391433  32.1804625
  63.4901777  20.2357522  44.9769740  63.7043747  19.5968437  44.4233094
  62.8735676  20.6803346  44.5477601  63.4307107  20.2067666  44.8320171
  64.9006445  33.1576271  36.4223961  64.5086237  32.8542986  35.7046827
  65.0559517  33.9945361  36.2328914  64.8660035  33.2360107  36.2880458
  52.3767625  23.1498285  36.3714843  52.7566590  23.5682830  35.7075111
  51.8022990  23.7311741  36.6783687  52.3478950  23.2976144  36.3191584
  65.6540865  21.8446588  45.9153047  64.8417547  21.5372478  45.9966220
  66.1130800  21.3645588  46.4795759  65.6021250  21.7283080  46.0107641
  65.0646120  29.7226260  36.3629991  64.7060775  29.8940902  37.1394024
  64.5784831  30.1839465  35.8057990  64.9404817  29.8165231  36.3955260
  62.8816506  13.3457458  39.9657083  62.0110064  13.3196179  39.9190392
  63.1356847  13.1734650  39.1482928  62.7910066  13.3167602  39.8377219
  59.8534485  25.4025425  28.9030226  60.1427010  26.1790308  29.1773800
  59.9406284  24.8914156  29.6044725  59.9088742  25.4417343  29.0472723
  62.7494373  23.2506659  50.6981749  63.2194004  23.8748775  51.0849623
  62.7956253  22.5823635  51.2574964  62.8262249  23.2441339  50.8381821
  59.9065646  15.3563687  41.4230553  59.3904135  14.6643878  41.5482132
  59.3459575  16.0234464  41.3693152  59.7472160  15.3526944  41.4336619
  61.9757880  15.8956647  43.2523405  61.5889633  15.9205678  44.0336935
  61.4890817  15.3298325  42.7997922  61.8470389  15.8152397  43.3011309
  66.2250859  30.6130156  47.3097192  66.8630580  30.1190351  46.9759648
  65.5824951  30.5407556  46.7249419  66.2245086  30.5289164  47.1739547
  67.9507859  22.4619302  41.8763108  67.5235468  22.3745650  41.1211207
  67.3133912  22.5697077  42.4617952  67.7937467  22.4651961  41.8508549
  61.6415022  12.7823632  45.5433665  62.2708140  13.3183932  45.2654736
  61.8100884  12.6900991  46.3947231  61.7592816  12.8484994  45.6282194
  61.4428937  17.5694827  47.8160077  62.2702366  17.2979976  47.8718691
  61.4636783  18.3655668  48.1723895  61.5681787  17.6474581  47.8775260
  66.2805116  31.3049964  43.9502549  67.0697494  30.9539029  44.0704630
  66.4548714  32.1186352  43.6879183  66.4225398  31.3735821  43.9290417
  56.0198426  24.7158690  41.0030338  55.1786433  24.6162564  41.2109231
  56.2288434  25.4854170  41.3544658  55.9263119  24.8150733  41.0857653
  53.4973993  22.3378227  38.8315088  53.1030691  22.4121238  38.0565198
  52.9414110  22.7236173  39.3823450  53.3576806  22.4060001  38.7982748
  65.1338940  15.3159521  38.5118967  65.3388533  15.2481828  39.3575964
  64.8065364  16.1218342  38.4440145  65.1154188  15.4245461  38.6278622
  59.8315091  22.6440089  40.2527935  59.5278229  22.0896077  40.8538343
  59.1294512  22.8232299  39.7655969  59.6831301  22.5884871  40.2697641
  58.8881188  19.9540609  34.8172637  59.1640923  19.2359521  34.4050205
  59.4879858  20.5525528  34.6093743  59.0174453  19.9360979  34.7253398
  57.8933442  29.8589809  44.9600033  57.7853797  29.8691872  45.8262091
  58.1029224  30.6844590  44.7704987  57.9083553  29.9830884  45.0604125
  68.3872628  15.8691285  37.9921733  67.7746941  16.3561687  38.3775465
  68.4836803  15.1934776  38.5359384  68.3110525  15.8409594  38.1300591
  62.3891709  17.6254126  33.0919232  62.8435455  17.7964686  33.8167077
  62.8631755  17.0122237  32.6917008  62.5260029  17.5605011  33.1392994
  55.9107234  27.1102452  42.4221971  55.3195167  27.7511950  42.3924986
  56.6728258  27.5340069  42.3953270  55.9355495  27.2678290  42.4137118
  56.3067857  18.2704450  43.0889988  56.7669339  18.3443379  43.8265112
  56.3523964  19.0685704  42.7389810  56.3818412  18.3998597  43.1462745
  57.9551207  18.9371145  47.6562015  57.5636772  18.2904492  48.0917793
  58.1237070  19.5282580  48.2756271  57.9222117  18.9285412  47.8124721
  72.0297656  26.9408222  43.4199249  72.0880779  27.3894870  44.1659225
  71.3964123  27.3507034  42.9829329  71.9448951  27.0681956  43.4651797
  65.6696750  32.5611763  39.8553995  65.4716439  33.0502578  39.1610206
  65.0484462  32.7653005  40.4338128  65.5484315  32.6628302  39.8377218
  59.7304729  24.3296660  34.1964239  60.4746774  24.7170937  34.4347189
  59.8765425  23.4854086  34.3604727  59.8615314  24.2627133  34.2558209
  61.6484304  16.1246919  39.2296101  60.8020349  16.2969727  39.1037450
  61.6455437  15.3196263  39.5661929  61.5231454  16.0307948  39.2607228
  62.7182605  19.9022134  40.0958159  62.2442559  19.3763896  40.6063470
  63.0900740  19.3551606  39.5273020  62.7032494  19.7438130  40.0873306
  53.0955635  21.8993640  45.4641704  53.9581248  21.7989350  45.3779034
  52.7647418  21.3188350  44.9027277  53.1740831  21.7985267  45.3687110
  68.9819335  24.9624509  41.5064939  68.7417558  24.1230924  41.5107366
  69.4611342  25.0424676  42.2305713  69.0171519  24.8505909  41.6139741
  64.6466104  20.7958688  33.1583912  64.1189123  20.8787432  32.4689621
  65.1061812  21.5376560  33.1548557  64.6367955  20.9179351  33.0558608
  70.9824522  21.7425966  39.4594198  70.7434292  21.7021801  38.6214983
  71.1458424  22.5897119  39.5859919  70.9714826  21.8618051  39.3547680
  67.5870552  26.1275916  45.3899243  68.3104751  25.6748442  45.2110263
  67.3220515  26.4080581  44.6071571  67.6551826  26.1026884  45.2477959
  56.4557421  20.7236089  42.1252123  55.8310491  20.7354481  41.5178075
  56.1203016  21.1996264  42.7743363  56.3142913  20.7954606  42.1308691
  56.6399169  19.0661208  28.1824808  56.2911974  19.7180933  28.6456357
  56.1595615  19.0518321  27.4548679  56.5169413  19.1604261  28.1435899
  53.1683096  28.7836549  43.5655887  52.6383021  28.0928988  43.6150862
  53.4408190  28.7746735  42.7368595  53.1307819  28.6803681  43.4503303
  64.2003187  29.3662252  32.2893569  64.9237386  29.8320365  32.1458143
  63.7603778  29.4335861  31.5391166  64.2418879  29.4446088  32.1578351
  63.3689342  26.2259794  43.5394258  62.7546335  25.6817844  43.8342894
  63.8856627  25.7124030  43.0600075  63.3545004  26.0696203  43.5118487
  62.6085639  27.2964064  41.2738557  62.1813247  26.6713783  40.8403992
  62.6010583  27.0138986  42.0997564  62.5444780  27.1616845  41.3318385
  55.7248166  22.3329237  44.3426991  55.8841653  21.5772561  44.7478713
  55.5441060  22.8820177  44.9967729  55.7213525  22.3023051  44.4989697
  63.6668469  14.4990473  44.8977781  63.1709030  14.6954147  44.2069347
  64.4237531  14.8983141  44.7266582  63.7055294  14.5868206  44.7697917
  60.9371349  18.1732819  41.4881091  60.9613836  17.6392931  40.7993871
  61.1882822  17.6650127  42.1506682  60.9781267  18.0193723  41.4845736
  57.2172671  16.9003637  40.8686835  57.2571043  17.4012843  41.5821543
  56.3922336  16.9914031  40.5992758  57.1012197  16.9885453  40.9337374
  59.4002284  26.4664377  48.9707130  58.5497914  26.6036091  49.1064775
  59.5630412  25.7328155  49.4154832  59.2986147  26.3778478  49.0562729
  58.6387034  23.4164147  43.1660734  57.8078964  23.5837965  42.9595983
  58.5838552  23.0400097  43.9509620  58.5076449  23.3853878  43.2509263
  56.4470818  16.9073040  48.8017145  57.0723521  16.3635172  49.0746577
  55.9921298  16.4267957  48.2324935  56.4719078  16.7562521  48.7578739
  57.0123078  21.6919738  33.6950852  57.1526039  22.1892202  34.3979493
  57.5105611  20.9906033  33.8365066  57.1064159  21.6621717  33.8202431
  57.0423301  22.5586849  31.0243429  57.6768380  23.1547274  30.9592891
  57.1248911  22.2590307  31.8389299  57.1479852  22.6027757  31.1346515
  70.0205866  25.0902327  43.8929793  70.6123707  25.7299577  43.9247991
  70.4564861  24.3925363  44.1821860  70.1724298  25.0820677  43.9410626
  58.6202283  18.4900825  30.9988871  58.9418125  18.0103907  30.3448133
  58.8829227  19.3000471  30.8079683  58.7068309  18.5390723  30.8744363
  61.8499256  29.5119699  44.5187687  61.3424347  30.0655546  44.9628318
  61.5525902  29.5727989  43.7006462  61.7304141  29.6026010  44.4636144
  64.0161438  17.8773019  43.3612350  64.4416510  17.4245545  42.7495876
  63.4018432  17.3233089  43.6377137  63.9890084  17.7286995  43.3117375
  53.5476288  24.7554690  34.2932975  54.0568518  25.3519198  34.6744280
  54.0210561  24.4880664  33.6109395  53.6919664  24.8040505  34.2487498
  64.4607037  33.4282957  32.4491631  63.7436346  33.2543819  31.9838868
  65.1113774  33.1935529  31.9167117  64.4508887  33.3678749  32.3020848
  62.4555661  14.3488118  36.7702927  61.8123979  14.1985765  37.3388065
  62.1155068  14.1030464  36.0052032  62.3100739  14.2900241  36.7405942
  67.0455008  22.3047545  36.1932936  66.3746198  22.8477247  36.0646001
  67.7394758  22.7742401  35.9514630  67.0483875  22.4545816  36.1388463
  61.0941741  34.4444257  41.4244694  60.8707396  33.6863086  41.7928720
  60.6051585  34.4742278  40.7025134  60.9885191  34.3366482  41.3721435
  67.2083135  18.7603429  39.1023309  67.5610745  18.3333152  39.7769108
  66.3497937  18.6754272  39.2324385  67.1332580  18.6848170  39.2218319
  55.9066820  21.3910949  37.1606155  55.1878809  21.8075081  37.4279019
  56.2779182  21.9565187  36.6097794  55.8558752  21.5360230  37.1188962
  65.2066401  22.0238797  43.0508151  65.1864328  21.8422093  43.9042930
  65.2545602  22.8950816  43.0267735  65.2101042  22.1255336  43.1731446
  63.1512731  28.6125989  48.9756628  63.1108586  27.9675666  48.3901784
  63.9636049  28.5562607  49.2882040  63.2655884  28.5084956  48.9353577
  59.7420198  34.6644715  38.8781779  59.3280597  34.0018846  38.4885620
  60.4267573  34.8122574  38.3577473  59.7818570  34.5885374  38.7438276
  63.1085493  33.8234801  39.6305395  62.7101776  33.9337071  38.8626215
  62.4936712  34.0316867  40.2131955  62.9584382  33.8708369  39.6036694
  61.6813395  20.4308948  32.4979535  61.0878234  20.7525945  31.9464102
  61.7188672  19.5850044  32.2900641  61.5987784  20.3533277  32.3862306
  68.6407195  13.8821841  40.0307621  68.1338060  13.1750980  39.9628799
  69.4374629  13.5515030  40.1608698  68.6834435  13.7294992  40.0406616
  64.5571211  20.3888453  35.9281285  64.3284904  20.4121154  35.0859643
  64.8169287  19.5645920  36.0476296  64.5617399  20.2704533  35.8206483
  58.8390440  22.2422926  45.5306385  58.3269343  21.6344109  45.8891417
  58.6669936  22.9579519  45.9980361  58.7380077  22.2586225  45.6522609
  53.6856154  20.6860501  48.1808747  53.5158745  21.3461876  47.6356954
  53.2422104  20.8967063  48.9021236  53.5955488  20.8146483  48.2070377
  57.6115974  18.9264999  37.2235481  58.0873340  19.2882079  36.5885662
  57.1104573  19.5821467  37.5035623  57.6081333  19.0759188  37.1712222
  70.8427335  28.3986767  33.0148486  71.2260941  29.1478123  33.2446583
  70.0471449  28.6452587  32.7560475  70.7821117  28.5456461  33.0106059
  62.7159510  20.1647171  47.9708641  63.2730940  19.9360980  47.3387106
  62.3920575  20.9252836  47.6943853  62.7505920  20.2431007  47.8365138
  60.4342627  23.2514824  48.9360648  61.1853954  23.5666501  49.2500202
  60.6265204  23.0493995  48.1094570  60.5734041  23.2682206  48.8604044
  59.6542627  21.0706199  30.5908865  60.0341592  21.0885828  29.8059979
  58.9135223  21.5160188  30.4699712  59.6011465  21.1387974  30.4572433
  67.2827917  19.3788390  36.1784443  67.2822144  19.2237047  37.0368720
  67.0784097  20.2251377  36.1225829  67.2527695  19.4809011  36.2972383
  65.0068769  24.0585892  39.8320650  65.5022435  23.3408887  39.7924671
  64.1968545  23.7556690  39.7175137  64.9612663  23.9083538  39.8094376
  60.4527381  27.9083705  31.9817655  59.6438704  27.5850379  31.9350964
  60.9602290  27.2016927  31.9145903  60.4077048  27.7565022  31.9647949
  67.0720588  26.8089580  42.5197779  67.4975660  26.2864001  41.9668204
  66.7077508  27.4070417  41.9986402  67.0807191  26.8199807  42.3606789
  63.6599188  30.5223844  38.8498936  64.1310366  31.2364106  39.0188922
  63.9959366  29.9222594  39.3858806  63.7794303  30.5395308  38.9531312
  65.7476172  32.1325157  51.0291009  65.8573138  31.3433718  51.3847756
  66.0767069  32.0431093  50.2265347  65.8128578  32.0031010  50.9633399
  60.5768683  15.2951314  45.8057031  60.7096588  14.4982308  46.1338007
  60.9613835  15.8217717  46.3855307  60.6525012  15.2551231  45.9400534
  64.2973134  30.3141778  45.6126629  63.7494080  29.6899662  45.3446694
  64.7586163  30.5036050  44.8970709  64.2840343  30.2500828  45.4677060
  63.6501038  12.2181641  42.4038125  62.8447002  12.1079370  42.7205963
  63.5207773  12.3194096  41.5467990  63.5121171  12.2165311  42.3246165
  67.1066998  18.3827132  42.9977821  66.5229987  18.8836339  42.5855389
  67.4271292  17.8756689  42.3642145  67.0680174  18.3818967  42.8436329
  59.6461798  17.2967727  33.2736496  60.4677492  17.4666040  33.0318191
  59.1831448  17.4514988  32.5502794  59.6992960  17.3449460  33.1308141
  58.2357129  15.2910489  44.0534925  58.7801542  14.9501616  44.6439267
  58.2894065  16.1495951  44.1956210  58.3246249  15.3665749  44.1616798
  54.0487688  29.0526905  40.9273733  54.6532546  29.0122740  40.2987554
  53.8415001  29.8998057  40.9577789  54.1076585  29.1714908  40.8389849
  63.8631460  31.3192851  42.1435970  64.6829834  31.1755817  42.4052265
  63.5825538  31.9439050  42.6852408  63.9428204  31.3903203  42.2623910
  73.5344796  38.0633353  39.8631777  72.6782691  38.2241852  39.9140894
  73.5812449  37.1925417  39.8836838  73.4143907  37.9584155  39.8737843
  67.9185935  47.5996071  35.6269009  67.1668835  47.2211610  35.3985054
  68.3671947  47.6314505  34.8787819  67.8735602  47.5481678  35.4826511
  76.8438512  44.3319879  49.4692233  77.5505279  43.8371910  49.5979168
  77.0326448  44.7728960  48.7394891  76.9766418  44.3238229  49.3801279
  73.3710895  48.0221441  31.0554556  73.0362264  48.6998362  30.6198778
  73.8837766  47.6326752  30.4671427  73.3976476  48.0646019  30.9041347
  72.9115186  49.9735709  36.9965667  73.2954566  50.5422608  36.4570443
  72.8474328  49.2485220  36.5171483  72.9588614  49.9511173  36.8459530
  76.3796617  40.1225397  42.5063429  76.9252577  40.8010484  42.5657398
  76.3213493  39.9812858  41.6465010  76.4512531  40.2017399  42.3875489
  69.4970691  47.6114463  37.8931781  69.5981054  46.8014817  38.2028909
  68.9012437  47.5171410  37.2631460  69.4243230  47.4779491  37.8458020
  69.3371431  52.5292053  39.2946637  69.9808887  52.9705217  39.6842796
  69.6627687  51.7245479  39.2076896  69.4803260  52.4757247  39.3392114
  64.9925823  35.8020481  40.4168423  64.3730855  35.2113128  40.2478437
  64.8909687  36.3931916  39.7832746  64.8863499  35.8024563  40.2973412
  70.0392011  45.5404027  34.6666499  70.3607852  46.0809235  34.0627807
  70.6864107  44.9700799  34.7988789  70.1818066  45.5363203  34.5973534
  72.0893719  37.5420022  34.7500886  72.7873884  37.7208150  35.2422349
  72.4046051  37.0190362  34.1271275  72.2389056  37.4913794  34.7302896
  72.2781654  43.9290467  34.7380677  72.7175290  43.3207568  35.1835450
  72.1286317  43.5497841  33.9666142  72.3203120  43.7828938  34.6899844
  69.7453297  42.5234479  41.9399503  70.3902300  42.0306922  41.6210451
  69.9855074  42.6659266  42.7665581  69.8763882  42.4711921  42.0149036
  72.2839389  45.3689385  41.5906395  72.5662631  44.5740791  41.3693151
  73.0125549  45.8469973  41.6111456  72.4328952  45.3223982  41.5609410
  70.2620582  32.9112419  38.8322160  69.9323912  33.3623563  38.1625859
  69.5865584  32.8328582  39.3795167  70.1131019  32.9663554  38.8145384
  75.8790991  42.2817649  31.6911446  75.7942286  43.1378615  31.8361015
  76.3675374  42.0061973  32.3593605  75.9379888  42.3674970  31.8113528
  77.4696990  28.8997942  37.0771771  77.1550431  29.5901421  37.5092193
  76.9523932  28.8442724  36.3757272  77.3461461  28.9932830  37.0368720
  76.8109424  38.9002443  33.1909181  76.2820895  39.1162076  33.8506488
  77.3334444  39.5938581  33.1110151  76.8097877  39.0345580  33.2764781
  68.7009032  42.7965660  31.9916649  68.1166247  43.3015691  32.3982513
  68.2979127  42.5708047  31.2513241  68.5548336  42.8373908  31.9421675
  64.2553060  48.5120421  38.7940321  63.7720639  49.2370910  38.7699905
  65.0676379  48.8096551  38.9050479  64.3043808  48.6622774  38.8067600
  70.3267214  47.3052601  41.3990135  69.8094156  46.9460016  40.7951444
  71.0241606  46.7814776  41.4096202  70.3532796  47.1750289  41.3120394
  73.9830806  47.7547416  47.3606308  74.0714152  47.5673556  48.2084519
  74.4120519  47.1084845  46.9611155  74.0592909  47.6310423  47.4278060
  71.5501266  47.0378575  46.3423971  70.9872101  46.6251185  46.8663632
  72.3122290  46.9631481  46.7617114  71.5795715  46.9655976  46.4816971
  73.1586246  39.0431312  30.4685570  73.3982250  39.2509295  29.6560913
  73.4802087  38.2388820  30.5774515  73.2423404  38.9545413  30.3646123
  68.4676536  30.9724707  34.3145108  69.2222505  31.3403024  34.0762158
  68.2904071  31.3464262  35.0824288  68.5531015  31.0822895  34.3929996
  67.1097258  49.0276597  38.9460601  67.8117837  48.5128586  39.0033357
  67.0294741  49.3550748  39.7507476  67.2021018  48.9990823  39.0733393
  68.1576164  39.2652184  48.0741016  68.3296668  39.1558078  48.9226297
  68.6945522  39.9106589  47.8372208  68.2621168  39.3444185  48.1646113
  66.8233601  33.3795026  31.0123221  66.6409174  33.5966907  30.1864214
  67.6859214  33.4934039  31.0681835  66.9238191  33.4284924  30.8977708
  67.0600736  45.6383824  42.7559514  67.5998961  45.4954955  43.4262887
  66.3770682  46.0380575  43.1243541  67.0392890  45.6763495  42.9093936
  72.5033320  30.3821437  34.0472245  73.2319481  30.2037392  33.6010401
  72.5928213  31.2239517  34.2579423  72.6239982  30.4805315  34.0125762
  76.4841621  41.3174824  37.9504539  77.2399136  41.7506339  37.9893447
  76.5903945  40.6679594  38.5239175  76.6111792  41.2852308  38.0402564
  74.0950866  47.1856435  50.0250092  74.8791282  47.2987282  50.3905834
  73.8947460  46.3597572  50.2208778  74.1816891  47.0803154  50.1084478
  66.3695628  36.6569199  29.5245694  65.6553805  36.3707379  29.9368126
  66.8539597  36.9965825  30.1652081  66.3354991  36.6650849  29.6801329
  67.2136488  35.3962493  45.5560944  66.5208284  34.9259473  45.8021675
  67.8296815  35.1700797  46.1302651  67.2021017  35.2929625  45.6770096
  74.2521259  49.0966537  43.6716548  73.4536505  48.8566037  43.9290416
  74.7007271  49.1480929  44.4183595  74.1995870  49.0688928  43.8201472
  73.5442946  45.1599153  29.9007502  73.9594095  44.8284177  29.2091998
  72.7134876  44.9268055  29.7727639  73.4830955  45.0770409  29.7798350
  65.9377046  39.3627897  46.6987789  66.6617019  39.3480928  47.1852684
  66.0393183  40.0723252  46.2009757  66.0595256  39.4652600  46.6966576
  73.3121996  42.8426981  51.5636736  72.5194977  43.1570493  51.7489355
  73.4270923  43.0578450  50.7257520  73.2117406  42.9210818  51.4675071
  75.9853315  39.5660973  35.8531752  76.0800169  40.3050267  36.3071377
  75.3612158  39.1378448  36.2866316  75.9062345  39.6122293  35.9839899
  74.2405789  42.7447185  46.5022033  74.8144650  42.1074429  46.6570596
  74.1620592  42.7451268  45.6331690  74.3139024  42.6512297  46.3968443
  76.2376336  41.4109712  29.0868704  76.1556499  41.4811900  29.9523691
  76.8756057  41.9739456  28.8952444  76.3196174  41.5048684  29.1858653
  69.5969507  41.1770450  38.5543230  69.3388752  40.3442185  38.5274529
  69.6517990  41.4028063  37.7135730  69.5669285  41.0868222  38.4263367
  74.6770558  33.2798901  38.6547323  73.9726884  32.7908087  38.8131242
  74.7255532  33.2921375  37.7835767  74.5800609  33.2088549  38.5486662
  68.5704219  38.7308213  39.0408125  67.9953811  38.8900381  39.6772086
  68.1939896  38.0943622  38.5776575  68.4307032  38.6606026  39.0662683
  72.2377508  37.2031562  43.9000503  71.8491941  36.7785780  43.2452694
  71.5732206  37.4513712  44.4077530  72.0824436  37.1770283  43.8788371
  76.0603870  30.9006191  41.4124487  76.4414381  30.2184362  41.7992362
  75.2567154  30.6115793  41.2300152  75.9980331  30.7573239  41.4428543
  73.3416446  41.4330167  32.0977310  74.1557085  41.7245060  31.9860081
  73.2775588  40.7790029  31.5235603  73.4519185  41.3795361  31.9966147
  69.2124355  44.9051684  37.2249622  69.8498302  44.6663432  37.7701416
  69.6379426  45.1088843  36.4902783  69.3700521  44.9002694  37.1966780
  69.8527170  40.1253974  31.5624512  70.2372322  39.9061681  32.3141057
  69.6038790  40.9516919  31.6925588  69.8729242  40.2152120  31.6925588
  70.0195710  33.4060389  51.2787096  69.7049151  34.1759952  51.0156659
  69.6985643  32.8430645  50.6939323  69.9254629  33.4370658  51.1528446
  71.5945827  45.3824107  38.9043408  71.6684835  45.2199279  39.7585258
  72.4115333  45.5714296  38.6603890  71.7262185  45.3860849  38.9941434
  67.5727607  31.7950911  36.8933292  66.7050032  31.8673510  36.9590901
  67.8602811  32.5972990  37.0821267  67.4867355  31.9245058  36.9308059
  76.6960496  31.9428770  45.2244614  77.4414088  31.7538580  44.8108039
  76.2797800  32.4687008  44.6658470  76.7445470  31.9930915  45.0809187
  70.1350412  48.3458850  33.6356882  70.4248711  47.9547831  32.9116108
  70.8653893  48.5275555  34.0762157  70.2857297  48.3152664  33.5939689
  70.7245158  43.1476596  44.7210012  70.2256851  43.8592363  44.7994901
  71.5345382  43.4677262  44.6828175  70.7701264  43.3003444  44.7266581
  68.0756328  50.3226232  36.7017032  67.8556623  50.0323587  37.4943699
  67.8550850  49.6641187  36.1734944  68.0103922  50.1825941  36.7405940
  77.7751173  37.5534332  39.2854715  77.4315939  36.8324667  39.6361965
  77.8744215  37.3448183  38.4433073  77.7393216  37.4158535  39.2126395
  70.2424284  51.6955622  35.4847724  70.8948342  51.1632065  35.7138750
  69.5449892  51.3424275  35.8715598  70.2355002  51.5645145  35.5759892
  69.6512215  36.0057640  50.0172311  68.8411991  36.3115420  49.9062153
  70.1286902  36.7263223  50.1324895  69.6015694  36.1572241  50.0179382
  68.5103775  45.2203361  40.2655214  67.9884529  45.3603653  40.9507078
  68.8977795  44.4614025  40.4557331  68.4907476  45.1288885  40.3956290
  65.4994959  35.2709170  34.3350168  65.2119755  34.9010440  33.5982116
  66.1865427  35.7404025  34.0733873  65.5583856  35.2856139  34.1865244
  74.7070780  46.9598820  34.2515782  74.4657456  46.2266681  33.8442847
  74.8872113  47.5085677  33.5982116  74.6978404  46.9321212  34.0946005
  69.9370101  42.2507380  35.6636705  69.7412883  42.8582115  35.0697008
  70.1604446  41.5575324  35.1828379  69.9404742  42.2384906  35.5052786
  68.3348631  39.1362118  35.7817573  69.0571283  39.3003276  35.3221379
  67.8556623  39.8571783  35.6756913  68.3712361  39.2660348  35.6983187
  76.2942138  35.4725917  41.1614258  75.4553239  35.4987196  40.9252521
  76.3646506  36.1196652  41.7419605  76.1810532  35.5722043  41.2123375
  65.9856247  41.5420191  44.8871713  66.4977344  41.8204444  44.2380473
  65.6992590  42.2809485  45.2534526  66.0191111  41.6922544  44.8461591
  74.7411417  32.3711294  35.8941874  75.4437769  32.1719042  35.4161832
  74.4755605  31.5987236  36.2010717  74.8058049  32.2274260  35.8687316
  63.0723154  36.0490382  35.1835449  63.1739290  36.8516544  35.5116425
  63.8679040  35.8477718  34.8858530  63.2051059  36.1376281  35.1870805
  69.5039973  33.6346579  44.9472755  69.3123170  33.6501714  45.7972178
  70.3538569  33.8310253  44.9239409  69.6015695  33.6660930  45.0696049
  63.8886886  36.1637561  42.9256571  63.7472378  35.3121501  43.0501079
  64.1727449  36.2066221  42.1018777  63.9094732  36.0437311  42.8224195
  74.0425478  38.0004651  37.0701059  73.7960192  37.9200402  37.9037848
  74.3710601  37.2158119  36.8763587  74.0546722  37.8730916  37.1648582
  77.9373527  44.7088010  40.8587841  77.7987886  45.4069056  41.3636583
  77.1573525  44.5536667  40.5024022  77.8016754  44.7888177  40.8814115
  76.2751612  41.0084386  47.1110222  76.2699651  40.1364202  47.1152649
  76.9812606  41.2072555  46.6379678  76.3796616  40.9088260  47.0417258
  70.0022505  40.7361369  46.4824042  70.1465881  41.3162578  45.8467152
  70.3498154  41.1137666  47.1873897  70.0749967  40.8782073  46.4923037
  72.1742423  39.9351538  44.2649174  71.4265737  40.1282552  43.8597452
  72.3283948  39.1096757  44.0273295  72.0864850  39.8416649  44.1694580
  69.0750260  48.9264141  43.3485069  69.2239824  48.3667057  42.6958474
  69.8550263  49.0056143  43.7317588  69.2124354  48.8549707  43.3082018
  71.6003561  49.0978784  44.6269560  71.5247232  48.4287595  45.1820348
  71.5293420  49.7996572  45.1410226  71.5784168  49.1023691  44.7846408
  72.4144200  33.8302088  45.1544578  72.8716814  34.5626063  45.2817370
  72.4900529  33.4068554  45.9131833  72.4935170  33.8759327  45.2845654
  64.6577191  34.0767908  46.2434021  64.1219381  33.4648266  46.5594789
  64.7194956  34.6516044  46.8967688  64.5872824  34.0714836  46.3869448
  76.8871526  27.0091964  39.0238421  77.0055094  27.4668427  38.2905723
  76.7133701  26.2037225  38.7374638  76.8790697  26.9585736  38.8739354
  72.2573808  47.6179783  35.4593166  73.0223699  47.3489427  35.1375830
  72.1551898  47.1329793  36.1763229  72.3555303  47.5069348  35.5172994
  70.2926578  35.8204192  41.9986402  69.5022653  35.6395653  42.3203738
  70.6887201  35.0431145  41.9816696  70.2343454  35.6791653  42.0438950
  74.7792469  44.6491967  27.4393115  75.5465454  44.7092092  27.0298967
  74.3323778  44.0772408  26.9549434  74.8265896  44.5728542  27.3070826
  75.6770264  43.4546623  39.7245848  75.0015266  43.2231855  40.2259235
  75.6862640  42.8467805  39.0987953  75.5788769  43.3305548  39.7062000
  72.8064408  38.2964452  46.4809901  72.7423549  39.1574408  46.3530037
  72.9461596  37.9796445  45.6805452  72.8179878  38.3764618  46.3438113
  77.6786999  46.3111755  31.9556026  77.7606836  47.1178741  31.6317476
  78.1636741  46.3307714  32.6796799  77.7624157  46.4332417  32.0142924
  71.4883502  40.9896591  40.6226104  71.0645751  41.1901090  39.8865122
  71.3128357  40.1425439  40.7350403  71.3994383  40.8945372  40.5299794
  70.9895195  52.5047104  43.0847561  71.4791126  51.8057893  42.9023225
  70.4179428  52.2070974  43.6723618  70.9779725  52.3573328  43.1448602
  66.7765947  41.4848642  36.0554076  66.9330566  41.4195445  36.9110068
  67.1166540  42.2597195  35.8432756  66.8499182  41.5897840  36.1508670
  73.3145092  40.8606526  34.9247439  73.8560637  40.3576907  35.3886060
  73.6291651  40.8071721  34.1136925  73.4409489  40.7785947  34.8731251
  77.1862199  45.0709173  52.0374351  77.9997064  44.7994322  52.1979484
  77.0257165  44.7716713  51.2334547  77.2832147  44.9864099  51.9419757
  71.4831541  46.2523877  32.2087467  71.5524362  45.3938416  32.3480468
  72.2619996  46.4695758  31.8806492  71.6084391  46.1576741  32.1804625
  74.4634361  35.7542830  44.9769740  74.6776330  35.1153745  44.4233094
  73.8468260  36.1988654  44.5477601  74.4039690  35.7252974  44.8320171
  75.8739029  48.6761579  36.4223961  75.4818821  48.3728294  35.7046827
  76.0292101  49.5130669  36.2328914  75.8392619  48.7545415  36.2880458
  63.3500208  38.6683593  36.3714843  63.7299173  39.0868138  35.7075111
  62.7755573  39.2497048  36.6783687  63.3211533  38.8161452  36.3191584
  76.6273449  37.3631896  45.9153047  75.8150131  37.0557786  45.9966220
  77.0863383  36.8830896  46.4795759  76.5753834  37.2468388  46.0107641
  76.0378704  45.2411568  36.3629991  75.6793358  45.4126210  37.1394024
  75.5517414  45.7024773  35.8057990  75.9137400  45.3350539  36.3955260
  73.8549090  28.8642766  39.9657083  72.9842647  28.8381487  39.9190392
  74.1089431  28.6919958  39.1482928  73.7642650  28.8352910  39.8377219
  70.8267069  40.9210733  28.9030226  71.1159594  41.6975615  29.1773800
  70.9138868  40.4099464  29.6044725  70.8821325  40.9602651  29.0472723
  73.7226956  38.7691967  50.6981749  74.1926588  39.3934083  51.0849623
  73.7688837  38.1008943  51.2574964  73.7994832  38.7626647  50.8381821
  70.8798230  30.8748994  41.4230553  70.3636719  30.1829186  41.5482132
  70.3192159  31.5419772  41.3693152  70.7204743  30.8712252  41.4336619
  72.9490464  31.4141955  43.2523405  72.5622217  31.4390986  44.0336935
  72.4623401  30.8483633  42.7997922  72.8202972  31.3337705  43.3011309
  77.1983443  46.1315463  47.3097192  77.8363163  45.6375659  46.9759648
  76.5557534  46.0592864  46.7249419  77.1977669  46.0474472  47.1739547
  72.6147605  28.3008940  45.5433665  73.2440723  28.8369240  45.2654736
  72.7833468  28.2086299  46.3947231  72.7325400  28.3670302  45.6282194
  72.4161520  33.0880135  47.8160077  73.2434949  32.8165284  47.8718691
  72.4369366  33.8840976  48.1723895  72.5414370  33.1659889  47.8775260
  77.2537700  46.8235272  43.9502549  78.0430078  46.4724336  44.0704630
  77.4281297  47.6371660  43.6879183  77.3957981  46.8921129  43.9290417
  66.9931010  40.2343998  41.0030338  66.1519017  40.1347872  41.2109231
  67.2021018  41.0039478  41.3544658  66.8995703  40.3336041  41.0857653
  64.4706577  37.8563534  38.8315088  64.0763275  37.9306546  38.0565198
  63.9146694  38.2421481  39.3823450  64.3309389  37.9245309  38.7982748
  76.1071524  30.8344828  38.5118967  76.3121117  30.7667136  39.3575964
  75.7797948  31.6403650  38.4440145  76.0886772  30.9430769  38.6278622
  70.8047675  38.1625397  40.2527935  70.5010812  37.6081385  40.8538343
  70.1027096  38.3417607  39.7655969  70.6563885  38.1070179  40.2697641
  69.8613772  35.4725916  34.8172637  70.1373506  34.7544829  34.4050205
  70.4612441  36.0710836  34.6093743  69.9907037  35.4546287  34.7253398
  68.8666026  45.3775117  44.9600033  68.7586381  45.3877180  45.8262091
  69.0761807  46.2029898  44.7704987  68.8816137  45.5016192  45.0604125
  73.3624292  33.1439434  33.0919232  73.8168039  33.3149994  33.8167077
  73.8364338  32.5307545  32.6917008  73.4992613  33.0790319  33.1392994
  67.2800441  33.7889758  43.0889988  67.7401922  33.8628687  43.8265112
  67.3256547  34.5871012  42.7389810  67.3550996  33.9183905  43.1462745
  68.9283790  34.4556452  47.6562015  68.5369355  33.8089800  48.0917793
  69.0969653  35.0467888  48.2756271  68.8954701  34.4470720  47.8124721
  76.6429334  48.0797071  39.8553995  76.4449023  48.5687886  39.1610206
  76.0217045  48.2838313  40.4338128  76.5216898  48.1813610  39.8377218
  70.7037312  39.8481968  34.1964239  71.4479357  40.2356245  34.4347189
  70.8498009  39.0039394  34.3604727  70.8347898  39.7812441  34.2558209
  72.6216888  31.6432227  39.2296101  71.7752933  31.8155035  39.1037450
  72.6188020  30.8381571  39.5661929  72.4964038  31.5493256  39.2607228
  73.6915188  35.4207442  40.0958159  73.2175143  34.8949204  40.6063470
  74.0633324  34.8736914  39.5273020  73.6765077  35.2623438  40.0873306
  64.0688218  37.4178948  45.4641704  64.9313831  37.3174657  45.3779034
  63.7380001  36.8373658  44.9027277  64.1473415  37.3170575  45.3687110
  75.6198688  36.3143996  33.1583912  75.0921707  36.3972740  32.4689621
  76.0794396  37.0561868  33.1548557  75.6100538  36.4364659  33.0558608
  67.4290004  36.2421397  42.1252123  66.8043075  36.2539789  41.5178075
  67.0935599  36.7181572  42.7743363  67.2875496  36.3139914  42.1308691
  67.6131753  34.5846516  28.1824808  67.2644557  35.2366241  28.6456357
  67.1328199  34.5703629  27.4548679  67.4901997  34.6789569  28.1435899
  75.1735770  44.8847560  32.2893569  75.8969969  45.3505673  32.1458143
  74.7336361  44.9521169  31.5391166  75.2151463  44.9631396  32.1578351
  74.3421925  41.7445102  43.5394258  73.7278919  41.2003152  43.8342894
  74.8589210  41.2309338  43.0600075  74.3277588  41.5881511  43.5118487
  73.5818223  42.8149372  41.2738557  73.1545831  42.1899091  40.8403992
  73.5743167  42.5324294  42.0997564  73.5177364  42.6802153  41.3318385
  66.6980750  37.8514545  44.3426991  66.8574236  37.0957869  44.7478713
  66.5173643  38.4005485  44.9967729  66.6946109  37.8208359  44.4989697
  74.6401053  30.0175781  44.8977781  74.1441614  30.2139455  44.2069347
  75.3970115  30.4168449  44.7266582  74.6787877  30.1053514  44.7697917
  71.9103932  33.6918127  41.4881091  71.9346420  33.1578239  40.7993871
  72.1615406  33.1835435  42.1506682  71.9513851  33.5379030  41.4845736
  68.1905255  32.4188945  40.8686835  68.2303626  32.9198151  41.5821543
  67.3654919  32.5099338  40.5992758  68.0744781  32.5070761  40.9337374
  70.3734867  41.9849685  48.9707130  69.5230498  42.1221399  49.1064775
  70.5362995  41.2513463  49.4154832  70.2718731  41.8963786  49.0562729
  69.6119618  38.9349455  43.1660734  68.7811548  39.1023273  42.9595983
  69.5571135  38.5585405  43.9509620  69.4809033  38.9039186  43.2509263
  67.4203401  32.4258348  48.8017145  68.0456105  31.8820480  49.0746577
  66.9653881  31.9453265  48.2324935  67.4451662  32.2747829  48.7578739
  67.9855662  37.2105046  33.6950852  68.1258623  37.7077510  34.3979493
  68.4838195  36.5091341  33.8365066  68.0796743  37.1807025  33.8202431
  68.0155884  38.0772157  31.0243429  68.6500964  38.6732582  30.9592891
  68.0981495  37.7775615  31.8389299  68.1212435  38.1213065  31.1346515
  69.5934867  34.0086133  30.9988871  69.9150708  33.5289215  30.3448133
  69.8561811  34.8185779  30.8079683  69.6800892  34.0576030  30.8744363
  72.8231840  45.0305007  44.5187687  72.3156931  45.5840854  44.9628318
  72.5258486  45.0913297  43.7006462  72.7036725  45.1211318  44.4636144
  74.9894022  33.3958327  43.3612350  75.4149094  32.9430853  42.7495876
  74.3751015  32.8418397  43.6377137  74.9622667  33.2472303  43.3117375
  75.4339620  48.9468265  32.4491631  74.7168930  48.7729127  31.9838868
  76.0846358  48.7120837  31.9167117  75.4241471  48.8864057  32.3020848
  73.4288245  29.8673426  36.7702927  72.7856563  29.7171073  37.3388065
  73.0887652  29.6215772  36.0052032  73.2833322  29.8085549  36.7405942
  78.0187591  37.8232853  36.1932936  77.3478781  38.3662555  36.0646001
  78.7127342  38.2927708  35.9514630  78.0216459  37.9731124  36.1388463
  72.0674325  49.9629565  41.4244694  71.8439979  49.2048394  41.7928720
  71.5784168  49.9927586  40.7025134  71.9617774  49.8551790  41.3721435
  78.1815719  34.2788737  39.1023309  78.5343329  33.8518460  39.7769108
  77.3230520  34.1939580  39.2324385  78.1065163  34.2033477  39.2218319
  66.8799404  36.9096256  37.1606155  66.1611393  37.3260389  37.4279019
  67.2511766  37.4750495  36.6097794  66.8291336  37.0545538  37.1188962
  76.1798985  37.5424105  43.0508151  76.1596912  37.3607401  43.9042930
  76.2278185  38.4136124  43.0267735  76.1833626  37.6440644  43.1731446
  74.1245314  44.1311297  48.9756628  74.0841169  43.4860974  48.3901784
  74.9368633  44.0747915  49.2882040  74.2388468  44.0270264  48.9353577
  70.7152782  50.1830023  38.8781779  70.3013181  49.5204153  38.4885620
  71.4000156  50.3307882  38.3577473  70.7551154  50.1070681  38.7438276
  74.0818076  49.3420109  39.6305395  73.6834359  49.4522379  38.8626215
  73.4669296  49.5502175  40.2131955  73.9316965  49.3893677  39.6036694
  72.6545978  35.9494256  32.4979535  72.0610817  36.2711253  31.9464102
  72.6921256  35.1035352  32.2900641  72.5720367  35.8718585  32.3862306
  75.5303795  35.9073761  35.9281285  75.3017488  35.9306462  35.0859643
  75.7901871  35.0831228  36.0476296  75.5349983  35.7889841  35.8206483
  69.8123023  37.7608234  45.5306385  69.3001926  37.1529417  45.8891417
  69.6402519  38.4764826  45.9980361  69.7112660  37.7771533  45.6522609
  64.6588738  36.2045809  48.1808747  64.4891328  36.8647184  47.6356954
  64.2154688  36.4152370  48.9021236  64.5688071  36.3331791  48.2070377
  68.5848557  34.4450307  37.2235481  69.0605924  34.8067387  36.5885662
  68.0837157  35.1006775  37.5035623  68.5813916  34.5944496  37.1712222
  73.6892094  35.6832479  47.9708641  74.2463524  35.4546288  47.3387106
  73.3653159  36.4438144  47.6943853  73.7238504  35.7616315  47.8365138
  71.4075211  38.7700132  48.9360648  72.1586538  39.0851809  49.2500202
  71.5997787  38.5679303  48.1094570  71.5466625  38.7867514  48.8604044
  70.6275210  36.5891507  30.5908865  71.0074175  36.6071136  29.8059979
  69.8867806  37.0345496  30.4699712  70.5744048  36.6573282  30.4572433
  78.2560501  34.8973698  36.1784443  78.2554727  34.7422355  37.0368720
  78.0516681  35.7436685  36.1225829  78.2260279  34.9994319  36.2972383
  75.9801353  39.5771200  39.8320650  76.4755018  38.8594195  39.7924671
  75.1701129  39.2741998  39.7175137  75.9345246  39.4268846  39.8094376
  71.4259964  43.4269013  31.9817655  70.6171287  43.1035687  31.9350964
  71.9334873  42.7202235  31.9145903  71.3809631  43.2750330  31.9647949
  78.0453172  42.3274887  42.5197779  78.4708243  41.8049309  41.9668204
  77.6810092  42.9255725  41.9986402  78.0539774  42.3385114  42.3606789
  67.6807252  50.6239105  41.2795125  67.9953811  51.4375493  41.2872906
  68.0900665  50.2389324  41.9477284  67.7875350  50.6867807  41.3799216
  74.6331771  46.0409152  38.8498936  75.1042949  46.7549414  39.0188922
  74.9691950  45.4407902  39.3858806  74.7526886  46.0580616  38.9531312
  76.7208756  47.6510465  51.0291009  76.8305721  46.8619026  51.3847756
  77.0499652  47.5616401  50.2265347  76.7861162  47.5216318  50.9633399
  71.5501266  30.8136622  45.8057031  71.6829172  30.0167616  46.1338007
  71.9346419  31.3403025  46.3855307  71.6257595  30.7736539  45.9400534
  75.2705718  45.8327086  45.6126629  74.7226664  45.2084970  45.3446694
  75.7318746  46.0221358  44.8970709  75.2572927  45.7686136  45.4677060
  74.6233621  27.7366948  42.4038125  73.8179585  27.6264678  42.7205963
  74.4940357  27.8379404  41.5467990  74.4853754  27.7350619  42.3246165
  78.0799582  33.9012440  42.9977821  77.4962571  34.4021647  42.5855389
  78.4003876  33.3941997  42.3642145  78.0412757  33.9004275  42.8436329
  70.6194381  32.8153035  33.2736496  71.4410075  32.9851348  33.0318191
  70.1564032  32.9700296  32.5502794  70.6725543  32.8634768  33.1308141
  69.2089713  30.8095797  44.0534925  69.7534126  30.4686924  44.6439267
  69.2626649  31.6681259  44.1956210  69.2978832  30.8851057  44.1616798
  74.8364044  46.8378159  42.1435970  75.6562418  46.6941125  42.4052265
  74.5558122  47.4624357  42.6852408  74.9160787  46.9088511  42.2623910
  73.6668319  59.1520058  37.5184115  73.4318504  58.3187710  37.4116384
  73.8053960  59.4324724  36.7045316  73.6523982  59.0703561  37.3826470
  75.9658407  51.3205789  40.4168423  75.3463438  50.7298436  40.2478437
  75.8642270  51.9117224  39.7832746  75.8596082  51.3209871  40.2973412
  75.6927540  54.8658070  42.6611991  75.5686237  55.4520516  43.2961810
  76.3445824  54.3718266  42.9624266  75.7701189  54.8796875  42.7997921
  75.2285644  64.0305729  38.7940321  74.7453222  64.7556218  38.7699905
  76.0408962  64.3281859  38.9050479  75.2776392  64.1808082  38.8067600
  77.7966185  48.8980334  31.0123221  77.6141758  49.1152215  30.1864214
  78.6591798  49.0119347  31.0681835  77.8970774  48.9470232  30.8977708
  77.4080617  60.7368257  38.4546209  78.2469516  60.9691189  38.5019970
  77.4392386  59.8672568  38.3853244  77.5362334  60.6425203  38.4510854
  78.0333320  61.1569132  42.7559514  78.5731545  61.0140263  43.4262887
  77.3503266  61.5565883  43.1243541  78.0125474  61.1948803  42.9093936
  73.4370465  57.3769423  42.9093936  73.1708880  56.5608539  43.0684926
  73.4509029  57.4222578  42.0389451  73.3995187  57.2626327  42.8047418
  77.3428212  52.1754507  29.5245694  76.6286389  51.8892686  29.9368126
  77.8272180  52.5151133  30.1652081  77.3087575  52.1836157  29.6801329
  73.8463878  58.1628202  40.1905680  73.6639452  58.1375088  39.3377972
  74.5813547  58.6327140  40.2294589  73.9277942  58.2289564  40.0703599
  76.9109630  54.8813205  46.6987789  77.6349602  54.8666235  47.1852684
  77.0125767  55.5908560  46.2009757  77.0327839  54.9837908  46.6966576
  73.8134789  55.0421703  40.3404747  74.3908291  54.9058153  40.9796992
  73.1148850  54.5857487  40.5950331  73.7955810  54.9543969  40.4727036
  69.2893622  53.8933596  37.0552565  69.3753874  53.5165464  37.8366095
  69.9169419  53.5194041  36.5772524  69.3950173  53.7819078  37.0998043
  74.8769581  62.6625329  41.1083926  74.9173726  62.9340180  40.2803706
  75.4364105  63.1867237  41.5241714  74.9652927  62.7801084  41.0475814
  76.3284167  61.2467278  35.9337852  75.5022285  61.4929015  35.8072131
  76.3896158  61.1679358  36.7999910  76.2158334  61.2712227  36.0426796
  76.4727543  50.7894478  34.3350168  76.1852338  50.4195748  33.5982116
  77.1598011  51.2589333  34.0733873  76.5316440  50.8041447  34.1865244
  76.9588831  57.0605498  44.8871713  77.4709928  57.3389752  44.2380473
  76.6725174  57.7994793  45.2534526  76.9923694  57.2107852  44.8461591
  74.0455737  51.5675690  35.1835449  74.1471874  52.3701852  35.5116425
  74.8411624  51.3663026  34.8858530  74.1783643  51.6561589  35.1870805
  74.8619469  51.6822869  42.9256571  74.7204961  50.8306809  43.0501079
  75.1460033  51.7251529  42.1018777  74.8827315  51.5622619  42.8224195
  75.6309775  49.5953216  46.2434021  75.0951964  48.9833574  46.5594789
  75.6927539  50.1701352  46.8967688  75.5605407  49.5900144  46.3869448
  77.7498530  57.0033950  36.0554076  77.9063150  56.9380753  36.9110068
  78.0899124  57.7782503  35.8432756  77.8231765  57.1083148  36.1508670
  74.3232792  54.1868901  36.3714843  74.7031757  54.6053446  35.7075111
  73.7488157  54.7682356  36.6783687  74.2944117  54.3346760  36.3191584
  77.9663594  55.7529305  41.0030338  77.1251600  55.6533180  41.2109231
  78.1753601  56.5224786  41.3544658  77.8728286  55.8521349  41.0857653
  75.4439160  53.3748842  38.8315088  75.0495858  53.4491854  38.0565198
  74.8879277  53.7606789  39.3823450  75.3041973  53.4430617  38.7982748
  77.8572401  58.1473068  42.4221971  77.2660335  58.7882566  42.3924986
  78.6193425  58.5710685  42.3953270  77.8820662  58.3048906  42.4137118
  78.2533024  49.3075065  43.0889988  78.7134506  49.3813995  43.8265112
  78.2989131  50.1056320  42.7389810  78.3283580  49.4369213  43.1462745
  75.0420802  52.9364256  45.4641704  75.9046415  52.8359965  45.3779034
  74.7112585  52.3558965  44.9027277  75.1205998  52.8355883  45.3687110
  78.4022588  51.7606705  42.1252123  77.7775658  51.7725097  41.5178075
  78.0668183  52.2366880  42.7743363  78.2608080  51.8325222  42.1308691
  78.5864337  50.1031824  28.1824808  78.2377141  50.7551549  28.6456357
  78.1060782  50.0888937  27.4548679  78.4634581  50.1974877  28.1435899
  75.1148263  59.8207165  43.5655887  74.5848188  59.1299604  43.6150862
  75.3873357  59.8117351  42.7368595  75.0772986  59.7174297  43.4503303
  77.6713333  53.3699853  44.3426991  77.8306820  52.6143177  44.7478713
  77.4906227  53.9190792  44.9967729  77.6678692  53.3393667  44.4989697
  70.3944106  56.4934929  40.9224235  70.2887555  56.4481774  40.0576319
  69.6444326  56.8388710  41.2038520  70.2679709  56.5375838  40.8361565
  75.4941456  55.7925306  34.2932975  76.0033685  56.3889813  34.6744280
  75.9675728  55.5251279  33.6109395  75.6384831  55.8411121  34.2487498
  77.8531987  52.4281564  37.1606155  77.1343976  52.8445697  37.4279019
  78.2244350  52.9935803  36.6097794  77.8023919  52.5730846  37.1188962
  75.6321321  51.7231117  48.1808747  75.4623912  52.3832492  47.6356954
  75.1887271  51.9337678  48.9021236  75.5420655  51.8517099  48.2070377
  72.5323386  54.6277983  43.4397237  71.9850105  53.9578628  43.5578105
  73.3215764  54.2607831  43.5040704  72.5675570  54.4742969  43.4665937
  71.2910355  53.8398791  40.5943260  71.1132117  53.3875400  41.3198176
  71.0029378  54.6424952  40.7781737  71.2223309  53.8921348  40.7286763
  73.0282825  56.3726514  37.7065019  72.1628345  56.3612205  37.5947790
  73.1281641  56.1856737  38.5536158  72.9156992  56.3432576  37.8153963
  75.9952855  60.0897521  40.9273733  76.5997713  60.0493355  40.2987554
  75.7880168  60.9368673  40.9577789  76.0541753  60.2085524  40.8389849
  71.2304138  59.0732139  40.7972656  71.1328416  58.2628410  41.1062713
  72.0133007  59.0523932  40.4118924  71.3320274  58.9499229  40.7859519
  56.6404176   9.0188894  22.5609055  55.8887075   8.6404433  22.3325101
  57.0890187   9.0507328  21.8127866  56.5953842   8.9674502  22.4166558
  62.0929136   9.4414264  17.9894603  61.7580504  10.1191186  17.5538825
  62.6056006   9.0519575  17.4011474  62.1194717   9.4838842  17.8381394
  61.6333427  11.3928533  23.9305714  62.0172806  11.9615431  23.3910489
  61.5692568  10.6678043  23.4511530  61.6806854  11.3703996  23.7799577
  58.2188932   9.0307287  24.8271828  58.3199295   8.2207641  25.1368956
  57.6230677   8.9364233  24.1971506  58.1461470   8.8972315  24.7798066
  58.0589671  13.9484876  26.2286684  58.7027127  14.3898040  26.6182842
  58.3845927  13.1438302  26.1416943  58.2021500  13.8950071  26.2732161
  51.4153976   5.0527573  24.4524162  51.1804161   4.2195226  24.3456430
  51.5539617   5.3332239  23.6385363  51.4009639   4.9711077  24.3166517
  58.7610251   6.9596851  21.6006546  59.0826092   7.5002058  20.9967854
  59.4082348   6.3893622  21.7328835  58.9036306   6.9556026  21.5313581
  61.0057629   6.7882208  28.5246442  61.2880872   5.9933614  28.3033198
  61.7343789   7.2662796  28.5451503  61.1547193   6.7416805  28.4949457
  52.9771301   9.9313244  25.7280368  52.4938879  10.6563734  25.7039951
  53.7894619  10.2289374  25.8390525  53.0262048  10.0815598  25.7407647
  59.0485455   8.7245425  28.3330182  58.5312396   8.3652840  27.7291490
  59.7459846   8.2007599  28.3436248  59.0751036   8.5943113  28.2460441
  62.7049047   9.1740239  34.2946355  62.7932393   8.9866379  35.1424566
  63.1338759   8.5277668  33.8951202  62.7811149   9.0503246  34.3618107
  60.2719507   8.4571399  33.2764017  59.7090341   8.0444009  33.8003679
  61.0340530   8.3824304  33.6957161  60.3013955   8.3848799  33.4157018
  55.8315498  10.4469420  25.8800648  56.5336077   9.9321409  25.9373404
  55.7512981  10.7743571  26.6847523  55.9239258  10.4183646  26.0073440
  55.1566273   6.6375772  25.3886256  55.9955173   6.8698705  25.4360017
  55.1878043   5.7680083  25.3193291  55.2847991   6.5432718  25.3850900
  55.7818976   7.0576647  29.6899561  56.3217201   6.9147778  30.3602934
  55.0988923   7.4573398  30.0583587  55.7611130   7.0956318  29.8433983
  62.8169106   8.6049258  36.9590139  63.6009523   8.7180106  37.3245881
  62.6165701   7.7790395  37.1548825  62.9035131   8.4995977  37.0424525
  51.1856122   3.2776938  29.8433983  50.9194537   2.4616055  30.0024973
  51.1994686   3.3230093  28.9729498  51.1480844   3.1633843  29.7387465
  62.9739499  10.5159360  30.6056594  62.1754745  10.2758860  30.8630463
  63.4225511  10.5673753  31.3523642  62.9214111  10.4881751  30.7541519
  51.5949535   4.0635717  27.1245727  51.4125108   4.0382603  26.2718019
  52.3299204   4.5334655  27.1634636  51.6763599   4.1297080  27.0043645
  57.9342595   6.3244507  24.1589669  58.5716542   6.0856255  24.7041462
  58.3597667   6.5281666  23.4242830  58.0918761   6.3195518  24.1306826
  52.6255237   8.5632844  28.0423973  52.6659383   8.8347695  27.2143752
  53.1849761   9.0874752  28.4581761  52.7138583   8.6808599  27.9815861
  60.3164067   6.8016930  25.8383455  60.3903075   6.6392102  26.6925305
  61.1333573   6.9907120  25.5943937  60.4480426   6.8053672  25.9281481
  54.0769824   7.1474793  22.8677899  53.2507941   7.3936530  22.7412178
  54.1381815   7.0686874  23.7339957  53.9643991   7.1719742  22.9766843
  58.8568653   9.7651673  20.5696929  59.1466951   9.3740654  19.8456155
  59.5872134   9.9468378  21.0102204  59.0075537   9.7345487  20.5279736
  56.7974568  11.7419056  23.6357078  56.5774864  11.4516410  24.4283745
  56.5769090  11.0834011  23.1074991  56.7322162  11.6018764  23.6745987
  58.9642524  13.1148445  22.4187771  59.6166582  12.5824888  22.6478797
  58.2668133  12.7617098  22.8055645  58.9573242  12.9837968  22.5099939
  55.9123789   5.4687623  21.8255145  56.6669757   5.8500662  22.0390608
  55.3194402   5.9198767  22.2801842  55.9360502   5.5916450  21.9238024
  57.2322015   6.6396184  27.1995261  56.7102769   6.7796476  27.8847125
  57.6196036   5.8806849  27.3897378  57.2125716   6.5481708  27.3296337
  63.4289020   8.3791644  21.1855829  63.1875696   7.6459504  20.7782894
  63.6090353   8.9278501  20.5322163  63.4196644   8.3514035  21.0286052
  57.7968501  10.3456964  30.2825116  57.9458065   9.7859880  29.6298520
  58.5768503  10.4248966  30.6657635  57.9342594  10.2742530  30.2422065
  60.3221801  10.5171607  31.5609607  60.2465473   9.8480418  32.1160395
  60.2511661  11.2189395  32.0750273  60.3002408  10.5216515  31.7186455
  60.9792048   9.0372606  22.3933213  61.7441939   8.7682250  22.0715877
  60.8770138   8.5522617  23.1103276  61.0773544   8.9262171  22.4513040
  59.7113436  13.9239927  30.0187608  60.2009366  13.2250716  29.8363272
  59.1397668  13.6263797  30.6063665  59.6997966  13.7766151  30.0788648
  60.2049782   7.6716701  19.1427514  60.2742602   6.8131239  19.2820515
  60.9838237   7.8888582  18.8146539  60.3302632   7.5769565  19.1144671
  64.5957269  10.0954402  23.3564007  64.2037061   9.7921117  22.6386874
  64.7510341  10.9323492  23.1668961  64.5610859  10.1738239  23.2220505
  65.9755940   8.2428095  30.8842596  66.7648318   7.8917160  31.0044677
  66.1499538   9.0564483  30.6219229  66.1176222   8.3113952  30.8630464
  57.5884266   6.7967941  31.8940080  57.4804621   6.8070003  32.7602138
  57.7980048   7.6222721  31.7045034  57.6034377   6.9209015  31.9944171
  55.6058058   4.0480583  29.3562017  55.0145991   4.6890081  29.3265032
  56.3679082   4.4718200  29.3293317  55.6306319   4.2056421  29.3477165
  65.3647574   9.4989895  26.7894042  65.1667263   9.9880709  26.0950253
  64.7435285   9.7031136  27.3678175  65.2435139   9.6006433  26.7717265
  52.8633920   5.7214681  30.4995934  52.3333845   5.0307120  30.5490908
  53.1359014   5.7124866  29.6708642  52.8258643   5.6181812  30.3843350
  48.1429763   2.3942445  27.8564282  48.0373212   2.3489289  26.9916366
  47.3929983   2.7396225  28.1378567  48.0165365   2.4383353  27.7701612
  61.5450080   6.4497830  31.4527734  61.0375171   7.0033677  31.8968364
  61.2476726   6.5106120  30.6346508  61.4254965   6.5404141  31.3976191
  64.1557860  10.3661088  19.3831677  63.4387170  10.1921950  18.9178915
  64.8064598  10.1313660  18.8507163  64.1459711  10.3056880  19.2360895
  60.7892565  11.3822388  28.3584741  60.5658220  10.6241218  28.7268767
  60.3002409  11.4120410  27.6365180  60.6836014  11.2744613  28.3061482
  59.4371022  11.6022847  25.8121825  59.0231421  10.9396977  25.4225667
  60.1218397  11.7500705  25.2917519  59.4769394  11.5263505  25.6778322
  62.8036317  10.7612932  26.5645442  62.4052600  10.8715202  25.7966262
  62.1887536  10.9694998  27.1472002  62.6535206  10.8086500  26.5376741
  56.4025492  12.0431928  28.2135171  56.7172051  12.8568317  28.2212953
  56.8118905  11.6582147  28.8817330  56.5093590  12.1060631  28.3139263
  63.3550012   7.4601975  25.7838983  63.8261190   8.1742238  25.9528968
  63.6910190   6.8600725  26.3198853  63.4745127   7.4773439  25.8871359
  65.4426996   9.0703288  37.9631055  65.5523962   8.2811849  38.3187803
  65.7717893   8.9809225  37.1605393  65.5079402   8.9409141  37.8973446
  53.7438512   5.9905037  27.8613780  54.3483370   5.9500871  27.2327600
  53.5365825   6.8376189  27.8917836  53.8027409   6.1093039  27.7729896
  63.5582284   8.2570982  29.0776017  64.3780658   8.1133948  29.3392312
  63.2776362   8.8817181  29.6192455  63.6379028   8.3281334  29.1963957
  48.9789794   4.9739654  27.7312703  48.8814072   4.1635926  28.0402760
  49.7618664   4.9531448  27.3458971  49.0805931   4.8506744  27.7199566
  73.2295620  15.0011485  26.7971824  72.3733515  15.1619983  26.8480941
  73.2763273  14.1303548  26.8176885  73.1094731  14.8962286  26.8077890
  67.6136759  24.5374202  22.5609055  66.8619659  24.1589741  22.3325101
  68.0622771  24.5692636  21.8127866  67.5686426  24.4859810  22.4166558
  76.5389336  21.2698010  36.4032280  77.2456103  20.7750041  36.5319214
  76.7277271  21.7107092  35.6734938  76.6717242  21.2616361  36.3141325
  73.0661719  24.9599572  17.9894603  72.7313088  25.6376493  17.5538825
  73.5788590  24.5704883  17.4011474  73.0927300  25.0024150  17.8381394
  72.6066010  26.9113841  23.9305714  72.9905390  27.4800739  23.3910489
  72.5425152  26.1863351  23.4511530  72.6539438  26.8889304  23.7799577
  76.0747441  17.0603528  29.4403475  76.6203401  17.7388615  29.4997445
  76.0164317  16.9190989  28.5805057  76.1463355  17.1395530  29.3215536
  69.1921515  24.5492595  24.8271828  69.2931878  23.7392949  25.1368956
  68.5963261  24.4549541  24.1971506  69.1194054  24.4157623  24.7798066
  77.8512509  18.4888136  20.3137203  77.7352035  19.2395822  20.7429341
  78.6468396  18.2312089  20.5633290  77.9517099  18.5622982  20.4141295
  69.0322255  29.4670184  26.2286684  69.6759710  29.9083348  26.6182842
  69.3578511  28.6623610  26.1416943  69.1754084  29.4135378  26.2732161
  62.3886560  20.5712881  24.4524162  62.1536744  19.7380533  24.3456430
  62.5272200  20.8517547  23.6385363  62.3742222  20.4896385  24.3166517
  64.6876647  12.7398612  27.3508469  64.0681679  12.1491259  27.1818484
  64.5860511  13.3310047  26.7172793  64.5814323  12.7402694  27.2313459
  69.7342835  22.4782159  21.6006546  70.0558676  23.0187366  20.9967854
  70.3814931  21.9078930  21.7328835  69.8768890  22.4741334  21.5313581
  71.7844543  14.4798154  21.6840932  72.4824707  14.6586281  22.1762396
  72.0996875  13.9568493  21.0611322  71.9339880  14.4291926  21.6642943
  64.4145780  16.2850893  29.5952038  64.2904477  16.8713339  30.2301857
  65.0664065  15.7911089  29.8964313  64.4919429  16.2989698  29.7337968
  71.9732478  20.8668599  21.6720724  72.4126114  20.2585699  22.1175497
  71.8237141  20.4875972  20.9006189  72.0153944  20.7207070  21.6239891
  69.4404121  19.4612610  28.8739549  70.0853124  18.9685054  28.5550498
  69.6805898  19.6037397  29.7005628  69.5714706  19.4090053  28.9489083
  71.9790213  22.3067516  28.5246442  72.2613455  21.5118922  28.3033198
  72.7076373  22.7848104  28.5451503  72.1279776  22.2602113  28.4949457
  69.9571406   9.8490550  25.7662207  69.6274736  10.3001694  25.0965906
  69.2816408   9.7706714  26.3135213  69.8081843   9.9041685  25.7485430
  75.5741815  19.2195780  18.6251493  75.4893110  20.0756746  18.7701062
  76.0626198  18.9440104  19.2933652  75.6330712  19.3053101  18.7453575
  76.5060248  15.8380574  20.1249228  75.9771719  16.0540208  20.7846534
  77.0285268  16.5316712  20.0450198  76.5048701  15.9723711  20.2104827
  68.3959856  19.7343791  18.9256696  67.8117071  20.2393822  19.3322560
  67.9929951  19.5086178  18.1853288  68.2499160  19.7752039  18.8761721
  63.9503884  25.4498552  25.7280368  63.4671463  26.1749042  25.7039951
  64.7627203  25.7474682  25.8390525  63.9994632  25.6000906  25.7407647
  70.0218038  24.2430733  28.3330182  69.5044980  23.8838148  27.7291490
  70.7192430  23.7192907  28.3436248  70.0483620  24.1128421  28.2460441
  73.6781630  24.6925547  34.2946355  73.7664976  24.5051687  35.1424566
  74.1071343  24.0462976  33.8951202  73.7543733  24.5688554  34.3618107
  71.2452090  23.9756707  33.2764017  70.6822925  23.5629316  33.8003679
  72.0073114  23.9009612  33.6957161  71.2746539  23.9034107  33.4157018
  66.8048082  25.9654728  25.8800648  67.5068661  25.4506717  25.9373404
  66.7245565  26.2928879  26.6847523  66.8971842  25.9368954  26.0073440
  67.8526988  16.2030315  35.0081063  68.0247492  16.0936209  35.8566344
  68.3896346  16.8484720  34.7712255  67.9571992  16.2822316  35.0986159
  66.5184425  10.3173158  17.9463268  66.3359998  10.5345038  17.1204261
  67.3810038  10.4312170  18.0021882  66.6189015  10.3663056  17.8317755
  66.1298857  22.1561080  25.3886256  66.9687756  22.3884013  25.4360017
  66.1610626  21.2865391  25.3193291  66.2580575  22.0618026  25.3850900
  66.7551560  22.5761955  29.6899561  67.2949785  22.4333086  30.3602934
  66.0721506  22.9758706  30.0583587  66.7343714  22.6141626  29.8433983
  76.1792445  18.2552956  24.8844586  76.9349960  18.6884470  24.9233494
  76.2854769  17.6057725  25.4579222  76.3062616  18.2230439  24.9742611
  73.7901690  24.1234566  36.9590139  74.5742106  24.2365413  37.3245881
  73.5898284  23.2975703  37.1548825  73.8767715  24.0181285  37.0424525
  62.1588705  18.7962246  29.8433983  61.8927120  17.9801362  30.0024973
  62.1727269  18.8415401  28.9729498  62.1213427  18.6819151  29.7387465
  66.0646452  13.5947330  16.4585741  65.3504629  13.3085510  16.8708173
  66.5490421  13.9343956  17.0992128  66.0305815  13.6028980  16.6141376
  66.9087311  12.3340624  32.4900990  66.2159108  11.8637604  32.7361722
  67.5247639  12.1078929  33.0642698  66.8971841  12.2307756  32.6110143
  73.9472083  26.0344668  30.6056594  73.1487329  25.7944168  30.8630463
  74.3958095  26.0859061  31.3523642  73.8946694  26.0067059  30.7541519
  73.2393770  22.0977284  16.8347549  73.6544918  21.7662308  16.1432045
  72.4085700  21.8646186  16.7067686  73.1781779  22.0148540  16.7138396
  62.5682119  19.5821025  27.1245727  62.3857692  19.5567911  26.2718019
  63.3031788  20.0519963  27.1634636  62.6496183  19.6482387  27.0043645
  65.6327870  16.3006028  33.6327836  66.3567843  16.2859059  34.1192730
  65.7344007  17.0101383  33.1349804  65.7546080  16.4030731  33.6306622
  73.0072820  19.7805113  38.4976783  72.2145801  20.0948625  38.6829402
  73.1221747  19.9956581  37.6597567  72.9068230  19.8588949  38.4015117
  75.6804139  16.5039104  22.7871798  75.7750993  17.2428398  23.2411424
  75.0562982  16.0756579  23.2206363  75.6013169  16.5500424  22.9179946
  73.9356613  19.6825316  33.4362079  74.5095474  19.0452561  33.5910643
  73.8571416  19.6829399  32.5671737  74.0089848  19.5890428  33.3308490
  62.5353029  16.4614526  27.2744794  63.1126532  16.3250977  27.9137039
  61.8367091  16.0050310  27.5290378  62.5174051  16.3736792  27.4067083
  69.2920331  18.1148582  25.4883277  69.0339576  17.2820316  25.4614576
  69.3468814  18.3406195  24.6475777  69.2620109  18.0246353  25.3603414
  68.2655043  15.6686344  25.9748172  67.6904635  15.8278512  26.6112132
  67.8890720  15.0321753  25.5116622  68.1257856  15.5984157  26.0002730
  71.9328332  14.1409693  30.8340550  71.5442765  13.7163911  30.1792741
  71.2683030  14.3891843  31.3417577  71.7775260  14.1148414  30.8128418
  58.0111862  15.3126419  23.9892612  58.0972114  14.9358287  24.7706142
  58.6387660  14.9386864  23.5112570  58.1168413  15.2011901  24.0338089
  73.0367270  18.3708298  19.0317357  73.8507909  18.6623191  18.9200128
  72.9726412  17.7168160  18.4575650  73.1470009  18.3173493  18.9306194
  68.9075179  21.8429815  24.1589669  69.5449126  21.6041563  24.7041462
  69.3330250  22.0466974  23.4242830  69.0651345  21.8380826  24.1306826
  63.5987821  24.0818152  28.0423973  63.6391966  24.3533003  27.2143752
  64.1582345  24.6060060  28.4581761  63.6871167  24.1993907  27.9815861
  69.5477994  17.0632105  18.4964558  69.9323146  16.8439812  19.2481103
  69.2989614  17.8895051  18.6265635  69.5680066  17.1530251  18.6265635
  69.7146534  10.3438520  38.2127143  69.3999975  11.1138083  37.9496705
  69.3936467   9.7808776  37.6279370  69.6205453  10.3748789  38.0868493
  71.2896651  22.3202238  25.8383455  71.3635659  22.1577410  26.6925305
  72.1066157  22.5092428  25.5943937  71.4213009  22.3238980  25.9281481
  65.0502407  22.6660101  22.8677899  64.2240525  22.9121838  22.7412178
  65.1114398  22.5872182  23.7339957  64.9376574  22.6905050  22.9766843
  67.2678431   8.7329042  23.8273339  66.4000856   8.8051641  23.8930948
  67.5553635   9.5351121  24.0161314  67.1818179   8.8623189  23.8648106
  69.8301236  25.2836981  20.5696929  70.1199535  24.8925962  19.8456155
  70.5604717  25.4653686  21.0102204  69.9808120  25.2530795  20.5279736
  70.4195981  20.0854727  31.6550059  69.9207675  20.7970495  31.7334948
  71.2296206  20.4055394  31.6168222  70.4652088  20.2381576  31.6606628
  67.7707152  27.2604363  23.6357078  67.5507447  26.9701718  24.4283745
  67.5501674  26.6019318  23.1074991  67.7054746  27.1204072  23.6745987
  66.6824099  19.3477680  25.9012780  66.3937348  18.7215151  26.4358507
  67.5507447  19.2897967  25.9677461  66.7684351  19.2465224  25.9903735
  77.4701997  14.4912463  26.2194762  77.1266763  13.7702799  26.5702012
  77.5695039  14.2826315  25.3773120  77.4344040  14.3536667  26.1466442
  69.9375108  28.6333753  22.4187771  70.5899166  28.1010196  22.6478797
  69.2400716  28.2802406  22.8055645  69.9305826  28.5023276  22.5099939
  66.8856372  20.9872931  21.8255145  67.6402340  21.3685970  22.0390608
  66.2926985  21.4384075  22.2801842  66.9093086  21.1101758  21.9238024
  77.9315026  20.9538167  21.7618750  78.4973059  21.6131377  21.6777293
  77.2842929  21.2987866  22.2335152  77.9193782  21.1020109  21.8191507
  69.3463039  12.9435771  36.9512357  68.5362815  13.2493551  36.8402200
  69.8237726  13.6641354  37.0664941  69.2966518  13.0950373  36.9519428
  68.2054599  22.1581492  27.1995261  67.6835353  22.2981784  27.8847125
  68.5928619  21.3992157  27.3897378  68.1858300  22.0667016  27.3296337
  65.1945783  12.2087301  21.2690215  64.9070579  11.8388572  20.5322162
  65.8816251  12.6782156  21.0073920  65.2534680  12.2234270  21.1205291
  74.4021604  23.8976952  21.1855829  74.1608280  23.1644812  20.7782894
  74.5822937  24.4463809  20.5322163  74.3929228  23.8699343  21.0286052
  69.6320925  19.1885511  22.5976752  69.4363707  19.7960246  22.0037055
  69.8555270  18.4953455  22.1168425  69.6355566  19.1763037  22.4392832
  68.0299455  16.0740249  22.7157620  68.7522107  16.2381407  22.2561426
  67.5507447  16.7949914  22.6096960  68.0663185  16.2038479  22.6323234
  75.9892962  12.4104048  28.0954305  75.1504063  12.4365327  27.8592568
  76.0597330  13.0574784  28.6759651  75.8761356  12.5100174  28.1463422
  65.6807071  18.4798322  31.8211760  66.1928168  18.7582575  31.1720520
  65.3943414  19.2187616  32.1874573  65.7141934  18.6300675  31.7801638
  62.7673978  12.9868514  22.1175496  62.8690114  13.7894675  22.4456472
  63.5629864  12.7855849  21.8198577  62.9001883  13.0754412  22.1210852
  69.1990797  10.5724710  31.8812801  69.0073994  10.5879845  32.7312225
  70.0489393  10.7688385  31.8579456  69.2966519  10.6039062  32.0036096
  63.5837710  13.1015692  29.8596618  63.4423202  12.2499632  29.9841126
  63.8678273  13.1444352  29.0358824  63.6045556  12.9815442  29.7564242
  73.7376302  14.9382782  24.0041106  73.4911016  14.8578533  24.8377895
  74.0661425  14.1536250  23.8103634  73.7497546  14.8109047  24.0988629
  77.6324351  21.6466141  27.7927887  77.4938710  22.3447187  28.2976630
  76.8524349  21.4914798  27.4364069  77.4967578  21.7266308  27.8154161
  75.9702436  17.9462517  34.0450269  75.9650475  17.0742333  34.0492695
  76.6763430  18.1450686  33.5719725  76.0747440  17.8466391  33.9757304
  69.6973329  17.6739501  33.4164089  69.8416705  18.2540709  32.7807199
  70.0448978  18.0515797  34.1213944  69.7700791  17.8160205  33.4263084
  71.8693247  16.8729669  31.1989221  71.1216561  17.0660683  30.7937499
  72.0234772  16.0474888  30.9613342  71.7815674  16.7794780  31.1034627
  68.7701084  25.8642272  30.2825116  68.9190648  25.3045188  29.6298520
  69.5501086  25.9434274  30.6657635  68.9075178  25.7927838  30.2422065
  71.2954385  26.0356915  31.5609607  71.2198056  25.3665726  32.1160395
  71.2244244  26.7374703  32.0750273  71.2734992  26.0401823  31.7186455
  72.1095024  10.7680220  32.0884625  72.5667638  11.5004194  32.2157417
  72.1851353  10.3446685  32.8471880  72.1885994  10.8137458  32.2185701
  64.3528015  11.0146039  33.1774068  63.8170204  10.4026398  33.4934835
  64.4145780  11.5894175  33.8307735  64.2823648  11.0092967  33.3209495
  71.9524632  24.5557914  22.3933213  72.7174523  24.2867558  22.0715877
  71.8502722  24.0707924  23.1103276  72.0506127  24.4447479  22.4513040
  69.9877402  12.7582324  28.9326449  69.1973476  12.5773784  29.2543784
  70.3838025  11.9809276  28.9156743  69.9294278  12.6169785  28.9778997
  75.3721088  20.3924754  26.6585894  74.6966090  20.1609986  27.1599281
  75.3813464  19.7845937  26.0327999  75.2739593  20.2683679  26.6402047
  72.5015232  15.2342583  33.4149947  72.4374373  16.0952539  33.2870084
  72.6412420  14.9174576  32.6145499  72.5130702  15.3142749  33.2778160
  77.3737823  23.2489886  18.8896072  77.4557660  24.0556872  18.5657523
  77.8587565  23.2685845  19.6136846  77.4574980  23.3710549  18.9482971
  71.1834326  17.9274722  27.5566150  70.7596575  18.1279221  26.8205169
  71.0079181  17.0803570  27.6690450  71.0945206  17.8323504  27.4639840
  70.6846019  29.4425235  30.0187608  71.1741950  28.7436024  29.8363272
  70.1130252  29.1449105  30.6063665  70.6730549  29.2951459  30.0788648
  66.4716771  18.4226773  22.9894123  66.6281390  18.3573576  23.8450115
  66.8117364  19.1975326  22.7772802  66.5450006  18.5275972  23.0848717
  73.0095915  17.7984657  21.8587486  73.5511461  17.2955038  22.3226107
  73.3242474  17.7449852  21.0476971  73.1360313  17.7164078  21.8071298
  76.8813023  22.0087304  38.9714398  77.6947888  21.7372453  39.1319531
  76.7207989  21.7094844  38.1674594  76.9782971  21.9242230  38.8759804
  71.1782365  23.1902009  19.1427514  71.2475185  22.3316547  19.2820515
  71.9570820  23.4073889  18.8146539  71.3035215  23.0954873  19.1144671
  74.1585185  12.6920962  31.9109787  74.3727154  12.0531876  31.3573141
  73.5419084  13.1366785  31.4817648  74.0990514  12.6631105  31.7660218
  75.5689853  25.6139710  23.3564007  75.1769644  25.3106425  22.6386874
  75.7242925  26.4508800  23.1668961  75.5343443  25.6923547  23.2220505
  63.0451032  15.6061724  23.3054890  63.4249997  16.0246269  22.6415157
  62.4706397  16.1875180  23.6123733  63.0162357  15.7539583  23.2531631
  76.3224273  14.3010027  32.8493094  75.5100955  13.9935917  32.9306266
  76.7814207  13.8209027  33.4135806  76.2704658  14.1846519  32.9447688
  75.7329528  22.1789699  23.2970038  75.3744182  22.3504342  24.0734070
  75.2468238  22.6402904  22.7398036  75.6088224  22.2728670  23.3295307
  70.5217893  17.8588864  15.8370272  70.8110418  18.6353747  16.1113847
  70.6089692  17.3477596  16.5384772  70.5772149  17.8980782  15.9812770
  73.4177780  15.7070098  37.6321796  73.8877412  16.3312215  38.0189670
  73.4639661  15.0387074  38.1915011  73.4945656  15.7004778  37.7721867
  76.8934267  23.0693595  34.2437239  77.5313987  22.5753790  33.9099695
  76.2508358  22.9970995  33.6589466  76.8928493  22.9852603  34.1079594
  78.6191267  14.9182741  28.8103154  78.1918875  14.8309089  28.0551254
  77.9817320  15.0260516  29.3957999  78.4620874  14.9215400  28.7848596
  76.9488523  23.7613403  30.8842596  77.7380902  23.4102468  31.0044677
  77.1232121  24.5749791  30.6219229  77.0908805  23.8299260  30.8630464
  66.6881834  17.1722129  27.9370384  65.8469840  17.0726003  28.1449278
  66.8971842  17.9417609  28.2884705  66.5946526  17.2714172  28.0197699
  64.1657401  14.7941666  25.7655135  63.7714099  14.8684677  24.9905245
  63.6097518  15.1799612  26.3163497  64.0260213  14.8623440  25.7322795
  69.5564596  12.4104048  21.7512684  69.8324330  11.6922960  21.3390251
  70.1563265  13.0088968  21.5433790  69.6857860  12.3924418  21.6593445
  68.5616850  22.3153249  31.8940080  68.4537205  22.3255311  32.7602138
  68.7712631  23.1408029  31.7045034  68.5766961  22.4394323  31.9944171
  66.5790642  19.5665891  29.3562017  65.9878575  20.2075389  29.3265032
  67.3411665  19.9903508  29.3293317  66.6038902  19.7241729  29.3477165
  66.9751265  10.7267889  30.0230035  67.4352746  10.8006818  30.7605159
  67.0207371  11.5249143  29.6729856  67.0501820  10.8562036  30.0802791
  68.6234614  11.3934584  34.5902062  68.2320179  10.7467931  35.0257840
  68.7920477  11.9846019  35.2096317  68.5905525  11.3848851  34.7464768
  76.3380158  25.0175203  26.7894042  76.1399847  25.5066017  26.0950253
  75.7167869  25.2216444  27.3678175  76.2167722  25.1191741  26.7717265
  70.3988136  16.7860099  21.1304286  71.1430181  17.1734376  21.3687236
  70.5448833  15.9417525  21.2944774  70.5298721  16.7190572  21.1898256
  73.3866012  12.3585573  27.0298205  72.9125966  11.8327335  27.5403516
  73.7584148  11.8115046  26.4613067  73.3715901  12.2001569  27.0213353
  63.7639042  14.3557079  32.3981751  64.6264655  14.2552789  32.3119081
  63.4330825  13.7751789  31.8367323  63.8424239  14.2548706  32.3027157
  67.1240828  13.1799528  29.0592169  66.4993898  13.1917920  28.4518122
  66.7886423  13.6559704  29.7083410  66.9826320  13.2518045  29.0648738
  67.3082577  11.5224647  15.1164854  66.9595381  12.1744372  15.5796404
  66.8279023  11.5081760  14.3888726  67.1852821  11.6167700  15.0775946
  63.8366504  21.2399989  30.4995934  63.3066428  20.5492427  30.5490908
  64.1091597  21.2310174  29.6708642  63.7991226  21.1367120  30.3843350
  74.8686594  21.8225691  19.2233616  75.5920793  22.2883804  19.0798190
  74.4287185  21.8899300  18.4731213  74.9102287  21.9009528  19.0918398
  74.0372749  18.6823233  30.4734305  73.4229743  18.1381283  30.7682941
  74.5540034  18.1687470  29.9940121  74.0228412  18.5259642  30.4458534
  73.2769047  19.7527503  28.2078604  72.8496655  19.1277222  27.7744039
  73.2693991  19.4702425  29.0337611  73.2128188  19.6180284  28.2658431
  66.3931574  14.7892676  31.2767038  66.5525060  14.0336000  31.6818760
  66.2124467  15.3383616  31.9307776  66.3896933  14.7586490  31.4329744
  71.6054756  10.6296258  28.4221138  71.6297243  10.0956370  27.7333918
  71.8566230  10.1213567  29.0846728  71.6464675  10.4757162  28.4185783
  59.1162346  17.9127753  27.8564282  59.0105795  17.8674597  26.9916366
  58.3662566  18.2581533  28.1378567  58.9897949  17.9568661  27.7701612
  67.8856078   9.3567076  27.8026882  67.9254450   9.8576283  28.5161590
  67.0605743   9.4477470  27.5332805  67.7695604   9.4448892  27.8677420
  70.0685691  18.9227816  35.9047177  69.2181322  19.0599530  36.0404822
  70.2313819  18.1891594  36.3494878  69.9669555  18.8341917  35.9902776
  69.3070442  15.8727586  30.1000781  68.4762372  16.0401404  29.8936029
  69.2521959  15.4963537  30.8849666  69.1759857  15.8417317  30.1849309
  67.1154225   9.3636479  35.7357192  67.7406929   8.8198611  36.0086624
  66.6604705   8.8831396  35.1664982  67.1402486   9.2125960  35.6918786
  67.6806486  14.1483177  20.6290899  67.8209447  14.6455642  21.3319540
  68.1789019  13.4469472  20.7705113  67.7747567  14.1185156  20.7542478
  67.7106708  15.0150288  17.9583476  68.3451788  15.6110713  17.8932937
  67.7932319  14.7153746  18.7729346  67.8163259  15.0591197  18.0686562
  69.2885691  10.9464264  17.9328918  69.6101532  10.4667346  17.2788180
  69.5512635  11.7563910  17.7419729  69.3751716  10.9954162  17.8084410
  72.5182664  21.9683138  31.4527734  72.0107755  22.5218985  31.8968364
  72.2209310  22.0291428  30.6346508  72.3987549  22.0589449  31.3976191
  64.2159696  17.2118129  21.2273022  64.7251925  17.8082637  21.6084327
  64.6893968  16.9444103  20.5449441  64.3603072  17.2603945  21.1827544
  75.1290444  25.8846396  19.3831677  74.4119754  25.7107258  18.9178915
  75.7797182  25.6498968  18.8507163  75.1192295  25.8242188  19.2360895
  77.7138415  14.7610984  23.1272982  77.0429605  15.3040687  22.9986048
  78.4078166  15.2305840  22.8854677  77.7167283  14.9109256  23.0728510
  71.7625149  26.9007696  28.3584741  71.5390803  26.1426526  28.7268767
  71.2734992  26.9305718  27.6365180  71.6568598  26.7929921  28.3061482
  66.5750228  13.8474388  24.0946202  65.8562217  14.2638520  24.3619066
  66.9462590  14.4128626  23.5437840  66.5242160  13.9923669  24.0529009
  75.8749809  14.4802237  29.9848198  75.8547736  14.2985532  30.8382977
  75.9229009  15.3514255  29.9607782  75.8784450  14.5818775  30.1071493
  73.8196138  21.0689429  35.9096674  73.7791993  20.4239106  35.3241830
  74.6319457  21.0126046  36.2222086  73.9339292  20.9648395  35.8693624
  70.4103606  27.1208154  25.8121825  69.9964005  26.4582285  25.4225667
  71.0950980  27.2686013  25.2917519  70.4501978  27.0448813  25.6778322
  73.7768900  26.2798240  26.5645442  73.3785183  26.3900510  25.7966262
  73.1620120  26.4880306  27.1472002  73.6267789  26.3271808  26.5376741
  72.3496802  12.8872388  19.4319582  71.7561641  13.2089384  18.8804149
  72.3872080  12.0413483  19.2240688  72.2671191  12.8096716  19.3202353
  75.2254619  12.8451892  22.8621332  74.9968312  12.8684594  22.0199690
  75.4852695  12.0209359  22.9816342  75.2300807  12.7267972  22.7546530
  69.5073847  14.6986365  32.4646432  68.9952750  14.0907548  32.8231463
  69.3353343  15.4142958  32.9320408  69.4063484  14.7149664  32.5862656
  64.3539562  13.1423940  35.1148794  64.1842152  13.8025315  34.5697000
  63.9105512  13.3530502  35.8361283  64.2638895  13.2709923  35.1410423
  68.2799381  11.3828438  24.1575528  68.7556747  11.7445518  23.5225709
  67.7787981  12.0384906  24.4375670  68.2764740  11.5322627  24.1052268
  73.3842917  12.6210610  34.9048688  73.9414348  12.3924419  34.2727153
  73.0603982  13.3816275  34.6283900  73.4189328  12.6994446  34.7705185
  61.2541626  16.0470806  30.3737284  60.7068346  15.3771452  30.4918152
  62.0434005  15.6800654  30.4380751  61.2893810  15.8935792  30.4005984
  71.1026035  15.7078263  35.8700695  71.8537362  16.0229940  36.1840249
  71.2948611  15.5057434  35.0434616  71.2417449  15.7245645  35.7944090
  70.3226034  13.5269638  17.5248911  70.7024999  13.5449267  16.7400026
  69.5818630  13.9723627  17.4039759  70.2694872  13.5951413  17.3912480
  60.0128596  15.2591614  27.5283307  59.8350357  14.8068223  28.2538222
  59.7247618  16.0617775  27.7121784  59.9441549  15.3114172  27.6626810
  75.6752177  16.5149331  26.7660697  76.1705842  15.7972326  26.7264717
  74.8651953  16.2120129  26.6515184  75.6296070  16.3646977  26.7434423
  71.1210788  20.3647144  18.9157701  70.3122111  20.0413818  18.8691011
  71.6285697  19.6580366  18.8485950  71.0760455  20.2128461  18.8987996
  61.7501066  17.7919338  24.6405066  60.8846585  17.7805028  24.5287837
  61.8499882  17.6049560  25.4876205  61.6375233  17.7625399  24.7494010
  77.7403996  19.2653019  29.4537826  78.1659067  18.7427440  28.9008251
  77.3760916  19.8633856  28.9326449  77.7490598  19.2763246  29.2946836
  67.3758076  27.5617236  28.2135171  67.6904635  28.3753625  28.2212953
  67.7851489  27.1767455  28.8817330  67.4826174  27.6245939  28.3139263
  74.3282595  22.9787283  25.7838983  74.7993773  23.6927546  25.9528968
  74.6642774  22.3786033  26.3198853  74.4477710  22.9958747  25.8871359
  76.4159580  24.5888596  37.9631055  76.5256545  23.7997157  38.3187803
  76.7450476  24.4994532  37.1605393  76.4811986  24.4594449  37.8973446
  74.9656542  22.7705217  32.5466676  74.4177488  22.1463101  32.2786741
  75.4269570  22.9599489  31.8310755  74.9523751  22.7064267  32.4017107
  70.3145205   9.7531166  20.2076543  71.1360899   9.9229479  19.9658238
  69.8514856   9.9078427  19.4842841  70.3676367   9.8012899  20.0648187
  64.7171096  21.5090345  27.8613780  65.3215953  21.4686179  27.2327600
  64.5098408  22.3561497  27.8917836  64.7759993  21.6278347  27.7729896
  74.5314868  23.7756290  29.0776017  75.3513242  23.6319256  29.3392312
  74.2508945  24.4002489  29.6192455  74.6111611  23.8466642  29.1963957
  59.9522378  20.4924962  27.7312703  59.8546656  19.6821234  28.0402760
  60.7351248  20.4716755  27.3458971  60.0538514  20.3692052  27.7199566
  73.3619143  36.0898189  24.4524162  73.1269328  35.2565841  24.3456430
  73.5004784  36.3702855  23.6385363  73.3474806  36.0081692  24.3166517
  75.6609231  28.2583920  27.3508469  75.0414262  27.6676567  27.1818484
  75.5593094  28.8495355  26.7172793  75.5546906  28.2588002  27.2313459
  75.3878364  31.8036201  29.5952038  75.2637061  32.3898647  30.2301857
  76.0396648  31.3096397  29.8964313  75.4652013  31.8175006  29.7337968
  74.9236468  40.9683860  25.7280368  74.4404046  41.6934349  25.7039951
  75.7359786  41.2659990  25.8390525  74.9727216  41.1186214  25.7407647
  77.7780665  41.4840036  25.8800648  78.4801244  40.9692025  25.9373404
  77.6978148  41.8114187  26.6847523  77.8704426  41.4554262  26.0073440
  77.4917009  25.8358465  17.9463268  77.3092582  26.0530346  17.1204261
  78.3542622  25.9497478  18.0021882  77.5921598  25.8848363  17.8317755
  77.1031441  37.6746388  25.3886256  77.9420340  37.9069321  25.4360017
  77.1343210  36.8050699  25.3193291  77.2313158  37.5803334  25.3850900
  77.7284144  38.0947263  29.6899561  78.2682369  37.9518394  30.3602934
  77.0454090  38.4944014  30.0583587  77.7076298  38.1326934  29.8433983
  73.1321289  34.3147554  29.8433983  72.8659704  33.4986670  30.0024973
  73.1459853  34.3600709  28.9729498  73.0946011  34.2004459  29.7387465
  77.0379036  29.1132638  16.4585741  76.3237213  28.8270818  16.8708173
  77.5223004  29.4529264  17.0992128  77.0038399  29.1214288  16.6141376
  77.8819895  27.8525932  32.4900990  77.1891692  27.3822912  32.7361722
  78.4980222  27.6264237  33.0642698  77.8704425  27.7493064  32.6110143
  73.5414702  35.1006333  27.1245727  73.3590276  35.0753219  26.2718019
  74.2764371  35.5705271  27.1634636  73.6228766  35.1667695  27.0043645
  76.6060454  31.8191336  33.6327836  77.3300426  31.8044367  34.1192730
  76.7076591  32.5286691  33.1349804  76.7278663  31.9216039  33.6306622
  73.5085613  31.9799834  27.2744794  74.0859115  31.8436285  27.9137039
  72.8099674  31.5235618  27.5290378  73.4906634  31.8922100  27.4067083
  68.9844446  30.8311727  23.9892612  69.0704698  30.4543595  24.7706142
  69.6120243  30.4572172  23.5112570  69.0900997  30.7197209  24.0338089
  74.5720405  39.6003460  28.0423973  74.6124550  39.8718311  27.2143752
  75.1314929  40.1245368  28.4581761  74.6603750  39.7179215  27.9815861
  76.0234991  38.1845409  22.8677899  75.1973108  38.4307146  22.7412178
  76.0846982  38.1057490  23.7339957  75.9109158  38.2090358  22.9766843
  78.2411015  24.2514350  23.8273339  77.3733440  24.3236949  23.8930948
  78.5286219  25.0536429  24.0161314  78.1550763  24.3808497  23.8648106
  78.7439735  42.7789671  23.6357078  78.5240031  42.4887026  24.4283745
  78.5234257  42.1204626  23.1074991  78.6787330  42.6389380  23.6745987
  77.6556683  34.8662988  25.9012780  77.3669931  34.2400459  26.4358507
  78.5240031  34.8083275  25.9677461  77.7416935  34.7650532  25.9903735
  77.8588956  36.5058239  21.8255145  78.6134924  36.8871278  22.0390608
  77.2659569  36.9569383  22.2801842  77.8825670  36.6287066  21.9238024
  76.1678367  27.7272609  21.2690215  75.8803162  27.3573879  20.5322162
  76.8548835  28.1967464  21.0073920  76.2267264  27.7419578  21.1205291
  76.6539655  33.9983630  31.8211760  77.1660752  34.2767883  31.1720520
  76.3675998  34.7372924  32.1874573  76.6874518  34.1485983  31.7801638
  73.7406561  28.5053821  22.1175496  73.8422698  29.3079983  22.4456472
  74.5362448  28.3041157  21.8198577  73.8734467  28.5939720  22.1210852
  74.5570293  28.6201000  29.8596618  74.4155785  27.7684940  29.9841126
  74.8410857  28.6629660  29.0358824  74.5778139  28.5000750  29.7564242
  75.3260599  26.5331347  33.1774068  74.7902788  25.9211705  33.4934835
  75.3878363  27.1079483  33.8307735  75.2556231  26.5278275  33.3209495
  77.4449354  33.9412081  22.9894123  77.6013974  33.8758884  23.8450115
  77.7849948  34.7160634  22.7772802  77.5182589  34.0461280  23.0848717
  74.0183616  31.1247032  23.3054890  74.3982581  31.5431577  22.6415157
  73.4438981  31.7060488  23.6123733  73.9894941  31.2724891  23.2531631
  77.6614417  32.6907437  27.9370384  76.8202424  32.5911311  28.1449278
  77.8704425  33.4602917  28.2884705  77.5679110  32.7899480  28.0197699
  75.1389984  30.3126974  25.7655135  74.7446682  30.3869985  24.9905245
  74.5830101  30.6984920  26.3163497  74.9992797  30.3808748  25.7322795
  77.5523225  35.0851199  29.3562017  76.9611159  35.7260697  29.3265032
  78.3144249  35.5088816  29.3293317  77.5771486  35.2427037  29.3477165
  77.9483848  26.2453197  30.0230035  78.4085330  26.3192126  30.7605159
  77.9939955  27.0434451  29.6729856  78.0234403  26.3747344  30.0802791
  74.7371626  29.8742387  32.3981751  75.5997239  29.7738097  32.3119081
  74.4063409  29.2937097  31.8367323  74.8156822  29.7734014  32.3027157
  78.0973412  28.6984836  29.0592169  77.4726482  28.7103228  28.4518122
  77.7619007  29.1745011  29.7083410  77.9558904  28.7703353  29.0648738
  78.2815161  27.0409955  15.1164854  77.9327965  27.6929680  15.5796404
  77.8011606  27.0267068  14.3888726  78.1585405  27.1353008  15.0775946
  74.8099087  36.7585296  30.4995934  74.2799012  36.0677735  30.5490908
  75.0824181  36.7495482  29.6708642  74.7723810  36.6552428  30.3843350
  77.3664157  30.3077984  31.2767038  77.5257644  29.5521308  31.6818760
  77.1857051  30.8568924  31.9307776  77.3629516  30.2771798  31.4329744
  70.0894930  33.4313061  27.8564282  69.9838379  33.3859905  26.9916366
  69.3395150  33.7766841  28.1378567  69.9630533  33.4753969  27.7701612
  78.0886809  24.8821787  35.7357192  78.7139512  24.3383919  36.0086624
  77.6337289  24.4016704  35.1664982  78.1135069  24.7311268  35.6918786
  75.1892280  32.7303437  21.2273022  75.6984509  33.3267945  21.6084327
  75.6626552  32.4629411  20.5449441  75.3335655  32.7789252  21.1827544
  77.5482811  29.3659696  24.0946202  76.8294800  29.7823828  24.3619066
  77.9195174  29.9313934  23.5437840  77.4974743  29.5108977  24.0529009
  75.3272145  28.6609248  35.1148794  75.1574736  29.3210623  34.5697000
  74.8838095  28.8715810  35.8361283  75.2371479  28.7895230  35.1410423
  72.2274210  31.5656114  30.3737284  71.6800929  30.8956759  30.4918152
  73.0166588  31.1985962  30.4380751  72.2626394  31.4121100  30.4005984
  70.9861179  30.7776922  27.5283307  70.8082940  30.3253531  28.2538222
  70.6980202  31.5803083  27.7121784  70.9174133  30.8299480  27.6626810
  72.7233649  33.3104645  24.6405066  71.8579169  33.2990336  24.5287837
  72.8232465  33.1234868  25.4876205  72.6107816  33.2810707  24.7494010
  78.3490659  43.0802544  28.2135171  78.6637218  43.8938933  28.2212953
  78.7584072  42.6952763  28.8817330  78.4558757  43.1431246  28.3139263
  75.6903679  37.0275653  27.8613780  76.2948537  36.9871487  27.2327600
  75.4830992  37.8746805  27.8917836  75.7492577  37.1463655  27.7729896
  70.9254962  36.0110270  27.7312703  70.8279240  35.2006542  28.0402760
  71.7083831  35.9902063  27.3458971  71.0271098  35.8877360  27.7199566
   4.5180911  22.7526863  60.9664113   4.4874915  23.6071500  61.1382383
   5.1162260  22.4522156  61.5250257   4.6018069  22.8343360  61.0738916
   2.3397486  25.3279166  59.2382423   2.2237012  26.0786852  59.6674561
   3.1353372  25.0703119  59.4878510   2.4402075  25.4014012  59.3386515
   0.9945224  22.6771604  59.0494448   0.4656696  22.8931237  59.7091754
   1.5170244  23.3707742  58.9695418   0.9933677  22.8114741  59.1350047
   6.4493277  28.2517908  64.4227493   5.6190980  28.4628552  64.5860909
   6.4002530  27.4254963  64.1469776   6.3200013  28.1607515  64.4064858
   3.7057592  28.9217263  64.5592209   3.2692824  28.9254005  65.3151180
   3.3720508  29.6022762  64.1271786   3.5920212  29.0229719  64.6073041
   6.8401939  25.6398183  63.4511846   7.5018373  25.0788851  63.3507754
   6.1993351  25.1450213  63.7764537   6.8430806  25.4834592  63.4844186
   3.1266769  26.6563565  63.1923835   3.3622359  26.8008764  62.3650685
   3.2756333  27.4205973  63.5855348   3.1832573  26.7902620  63.1287438
   4.9557226  25.4965231  61.0293438   5.2865443  26.0292871  60.4233533
   5.5290314  25.5504119  61.6855389   5.0890905  25.5834800  61.0371220
   2.4200002  27.7929197  60.6863970   2.9858035  28.4522407  60.6022513
   1.7727906  28.1378895  61.1580372   2.4078759  27.9411139  60.7436727
   3.6162700  27.8435425  57.4789607   3.2369509  27.0572563  57.4718896
   2.9528946  28.3922282  57.3361251   3.4621175  27.8080249  57.4570403
   1.8622799  30.0880916  57.8141292   1.9442636  30.8947902  57.4902743
   2.3472541  30.1076875  58.5382066   1.9459957  30.2101578  57.8728191
   5.9995719  27.6941236  58.8733753   6.3829325  28.4432593  59.1031850
   5.2039833  27.9407056  58.6145742   5.9389501  27.8410930  58.8691326
  15.4913495  38.2712171  60.9664113  15.4607499  39.1256808  61.1382383
  16.0894843  37.9707464  61.5250257  15.5750653  38.3528668  61.0738916
   8.6913180  37.3587822  65.7217044   7.8351075  37.5196321  65.7726161
   8.7380833  36.4879886  65.7422105   8.5712291  37.2538624  65.7323110
   3.0754319  46.8950540  61.4854275   2.3237219  46.5166079  61.2570321
   3.5240331  46.9268974  60.7373086   3.0303986  46.8436147  61.3411778
  12.0006896  43.6274348  75.3277500  12.7073663  43.1326379  75.4564434
  12.1894831  44.0683430  74.5980158  12.1334802  43.6192698  75.2386545
   8.5279279  47.3175910  56.9139823   8.1930648  47.9952831  56.4784045
   9.0406150  46.9281221  56.3256694   8.5544860  47.3600488  56.7626614
   8.0683570  49.2690178  62.8550934   8.4522950  49.8377077  62.3155709
   8.0042712  48.5439689  62.3756750   8.1156998  49.2465642  62.7044797
  11.5365001  39.4179866  68.3648696  12.0820961  40.0964953  68.4242665
  11.4781877  39.2767327  67.5050277  11.6080915  39.4971868  68.2460756
   4.6539075  46.9068932  63.7517048   4.7549438  46.0969286  64.0614176
   4.0580821  46.8125879  63.1216726   4.5811614  46.7733961  63.7043286
  13.3130069  40.8464473  59.2382423  13.1969595  41.5972160  59.6674561
  14.1085956  40.5888427  59.4878510  13.4134659  40.9199320  59.3386515
   4.4939815  51.8246522  65.1531904   5.1377270  52.2659686  65.5428062
   4.8196071  51.0199948  65.0662163   4.6371644  51.7711716  65.1977381
   5.1960395  44.8358496  60.5251766   5.5176236  45.3763704  59.9213074
   5.8432491  44.2655268  60.6574056   5.3386450  44.8317672  60.4558801
   7.2462103  36.8374491  60.6086152   7.9442267  37.0162619  61.1007616
   7.5614435  36.3144831  59.9856542   7.3957440  36.7868264  60.5888163
   7.4350038  43.2244936  60.5965944   7.8743674  42.6162037  61.0420717
   7.2854701  42.8452310  59.8251409   7.4771504  43.0783408  60.5485111
   4.9021681  41.8188948  67.7984769   5.5470684  41.3261391  67.4795718
   5.1423458  41.9613735  68.6250848   5.0332266  41.7666390  67.8734303
   7.4407773  44.6643854  67.4491662   7.7231015  43.8695260  67.2278418
   8.1693933  45.1424442  67.4696723   7.5897336  44.6178451  67.4194677
   5.4188966  32.2066888  64.6907427   5.0892296  32.6578032  64.0211126
   4.7433968  32.1283051  65.2380433   5.2699403  32.2618023  64.6730650
  11.0359375  41.5772118  57.5496713  10.9510670  42.4333084  57.6946282
  11.5243758  41.3016442  58.2178872  11.0948272  41.6629439  57.6698795
  12.6265374  28.1952411  62.9357038  12.3118815  28.8855890  63.3677460
  12.1092316  28.1397193  62.2342538  12.5029845  28.2887300  62.8953987
  11.9677808  38.1956912  59.0494448  11.4389279  38.4116545  59.7091754
  12.4902828  38.8893050  58.9695418  11.9666261  38.3300049  59.1350047
  17.4225861  43.7703216  64.4227493  16.5923564  43.9813860  64.5860909
  17.3735113  42.9440271  64.1469776  17.2932596  43.6792823  64.4064858
   3.8577416  42.0920129  57.8501916   3.2734631  42.5970160  58.2567780
   3.4547511  41.8662516  57.1098508   3.7116720  42.1328377  57.8006941
   5.4835598  46.6007071  67.2575402   4.9662540  46.2414486  66.6536710
   6.1809990  46.0769245  67.2681468   5.5101180  46.4704758  67.1705661
   9.1399190  47.0501885  73.2191575   9.2282536  46.8628025  74.0669786
   9.5688903  46.4039314  72.8196422   9.2161293  46.9264892  73.2863327
   6.7069650  46.3333045  72.2009237   6.1440485  45.9205654  72.7248899
   7.4690674  46.2585950  72.6202381   6.7364099  46.2610445  72.3402238
   8.3154630  38.3385781  56.3270837   8.5550634  38.5463764  55.5146180
   8.6370471  37.5343289  56.4359781   8.3991788  38.2499882  56.2231390
   3.6244920  30.2679176  60.1730375   4.3790888  30.6357494  59.9347425
   3.4472455  30.6418731  60.9409554   3.7099399  30.3777364  60.2515263
   2.2665642  48.3231066  64.8045868   2.9686221  47.8083055  64.8618624
   2.1863125  48.6505217  65.6092743   2.3589402  48.2945292  64.9318660
  16.9179819  36.4173617  68.2177914  16.0808240  36.4875804  68.4525509
  16.8868050  36.4198112  67.3452216  16.7898102  36.4283844  68.1237462
   1.9801985  32.6749495  56.8708488   1.7977558  32.8921376  56.0449481
   2.8427598  32.7888508  56.9267102   2.0806575  32.7239393  56.7562975
   1.5916417  44.5137418  64.3131476   2.4305316  44.7460350  64.3605237
   1.6228186  43.6441729  64.2438511   1.7198135  44.4194364  64.3096120
   2.2169120  44.9338293  68.6144781   2.7567345  44.7909424  69.2848154
   1.5339066  45.3335044  68.9828807   2.1961274  44.9717964  68.7679203
   7.6601704  29.6775906  59.9057512   8.3887865  29.4991861  59.4595668
   7.7496597  30.5193986  60.1164690   7.7808366  29.7759785  59.8711029
  11.6410005  40.6129294  63.8089806  12.3967520  41.0460808  63.8478714
  11.7472329  39.9634063  64.3824442  11.7680176  40.5806777  63.8987831
  14.6790176  44.4402571  64.5592209  14.2425408  44.4439313  65.3151180
  14.3453092  45.1208070  64.1271786  14.5652796  44.5415027  64.6073041
  14.5987659  31.4816399  66.8021636  15.2413567  31.5514503  67.3883552
  14.8510680  30.8145621  66.3001178  14.7309791  31.3942747  66.8148916
   1.5264012  35.9523668  55.3830961   0.8122189  35.6661848  55.7953393
   2.0107981  36.2920294  56.0237348   1.4923375  35.9605318  55.5386596
   9.4089643  48.3921006  69.5301814   8.6104889  48.1520506  69.7875683
   9.8575655  48.4435399  70.2768862   9.3564254  48.3643397  69.6786739
  17.8134522  41.1583491  63.4511846  18.4750956  40.5974159  63.3507754
  17.1725934  40.6635521  63.7764537  17.8163390  41.0019900  63.4844186
   8.7011330  44.4553622  55.7592769   9.1162478  44.1238646  55.0677265
   7.8703260  44.2222524  55.6312906   8.6399339  44.3724878  55.6383616
  14.0999353  42.1748873  63.1923835  14.3354942  42.3194072  62.3650685
  14.2488917  42.9391281  63.5855348  14.1565156  42.3087927  63.1287438
  15.9289810  41.0150539  61.0293438  16.2598027  41.5478179  60.4233533
  16.5022898  41.0689427  61.6855389  16.0623489  41.1020108  61.0371220
  11.1421699  38.8615442  61.7117018  11.2368553  39.6004736  62.1656644
  10.5180542  38.4332917  62.1451583  11.0630729  38.9076762  61.8425166
   9.3974173  42.0401654  72.3607299   9.9713034  41.4028899  72.5155863
   9.3188976  42.0405737  71.4916957   9.4707408  41.9466766  72.2553710
  11.3944720  40.7064182  54.9453970  11.3124883  40.7766369  55.8108957
  12.0324441  41.2693925  54.7537711  11.4764558  40.8003153  55.0443920
   4.7537891  40.4724919  64.4128497   4.4957136  39.6396654  64.3859796
   4.8086374  40.6982532  63.5720997   4.7237669  40.3822691  64.2848634
   9.8338941  32.5753370  64.5132589   9.1295268  32.0862556  64.6716509
   9.8823916  32.5875845  63.6421034   9.7368993  32.5043018  64.4071929
   3.7272603  38.0262682  64.8993392   3.1522195  38.1854850  65.5357352
   3.3508280  37.3898091  64.4361842   3.5875416  37.9560495  64.9247950
   7.3945892  36.4986031  69.7585770   7.0060325  36.0740249  69.1037961
   6.7300590  36.7468181  70.2662797   7.2392820  36.4724752  69.7373638
  17.0369161  36.2561036  62.5333600  16.7805726  35.4440977  62.3431483
  17.8798475  36.2638603  62.3063787  17.1235187  36.1373033  62.4718417
  11.2172254  30.1960660  67.2709754  11.5982765  29.5138831  67.6577628
  10.4135538  29.9070262  67.0885419  11.1548715  30.0527708  67.3013810
   8.4984830  40.7284636  57.9562577   9.3125469  41.0199529  57.8445348
   8.4343972  40.0744498  57.3820870   8.6087569  40.6749831  57.8551414
  14.7194320  43.4110632  72.3692153  14.4832958  42.5798697  72.2504213
  15.3637549  43.3596239  72.9546997  14.7788991  43.2808320  72.4378046
   4.3692739  44.2006153  63.0834889   5.0066686  43.9617901  63.6286682
   4.7947810  44.4043312  62.3488050   4.5268905  44.1957163  63.0552046
   5.0095554  39.4208443  57.4209778   5.3940706  39.2016150  58.1726324
   4.7607174  40.2471388  57.5510855   5.0297626  39.5106589  57.5510855
  15.7430741  43.1955081  68.4320447  15.4376558  43.9283138  68.7933763
  15.0236957  42.7893010  68.1513233  15.5918083  43.2436814  68.4433584
   6.7514211  44.6778576  64.7628675   6.8253219  44.5153748  65.6170525
   7.5683717  44.8668765  64.5189157   6.8830569  44.6815318  64.8526701
  21.4432533  39.8348081  67.7588791  21.3757034  39.8544040  66.8891378
  21.4288196  40.6778409  67.9844462  21.4311290  39.9621816  67.6641268
   2.7295991  31.0905380  62.7518559   1.8618416  31.1627979  62.8176168
   3.0171195  31.8927459  62.9406534   2.6435739  31.2199527  62.7893326
  11.8528880  31.2383239  71.0829881  12.5982472  31.0493049  70.6693306
  11.4366184  31.7641477  70.5243737  11.9013854  31.2885384  70.9394454
   5.2918796  47.6413319  59.4942149   5.5817095  47.2502300  58.7701375
   6.0222277  47.8230024  59.9347424   5.4425680  47.6107133  59.4524956
  19.2291151  38.6092468  66.0335386  19.7799072  37.9760537  66.2732478
  19.2135266  39.1407860  66.7250890  19.3076347  38.5941416  66.1714244
   5.8813541  42.4431065  70.5795279   5.3825235  43.1546833  70.6580168
   6.6913766  42.7631731  70.5413442   5.9269648  42.5957913  70.5851848
   3.2324712  49.6180701  62.5602298   3.0125007  49.3278056  63.3528965
   3.0119234  48.9595656  62.0320211   3.1672306  49.4780410  62.5991207
   2.1441659  41.7054018  64.8258000   1.8554908  41.0791489  65.3603727
   3.0125007  41.6474305  64.8922681   2.2301911  41.6041562  64.9148955
  12.9319557  36.8488801  65.1439982  12.5884323  36.1279136  65.4947232
  13.0312599  36.6402652  64.3018340  12.8961600  36.7113004  65.0711662
   5.3992668  50.9910091  61.3432991   6.0516726  50.4586534  61.5724017
   4.7018276  50.6378744  61.7300865   5.3923386  50.8599614  61.4345159
   2.3473932  43.3449269  60.7500365   3.1019900  43.7262308  60.9635828
   1.7544545  43.7960413  61.2047062   2.3710646  43.4678096  60.8483244
  13.3932586  43.3114505  60.6863970  13.9590619  43.9707715  60.6022513
  12.7460489  43.6564203  61.1580372  13.3811342  43.4596447  60.7436727
   3.6672159  44.5157830  66.1240481   3.1452913  44.6558122  66.8092345
   4.0546179  43.7568495  66.3142598   3.6475860  44.4243354  66.2541557
   5.0938485  41.5461849  61.5221972   4.8981267  42.1536584  60.9282275
   5.3172830  40.8529793  61.0413646   5.0973126  41.5339375  61.3638052
   3.4917015  38.4316587  61.6402840   4.2139667  38.5957745  61.1806646
   3.0125007  39.1526252  61.5342180   3.5280745  38.5614817  61.5568454
  11.4510522  34.7680386  67.0199525  10.6121623  34.7941665  66.7837788
  11.5214890  35.4151121  67.6004871  11.3378916  34.8676512  67.0708642
   9.8979801  31.6665763  61.7527141  10.6006153  31.4673511  61.2747099
   9.6323989  30.8941705  62.0595984   9.9626433  31.5228729  61.7272582
  15.3268046  39.9748373  64.3060767  15.2402021  40.1303799  65.1595545
  14.8718526  40.6186448  63.9320172  15.2471303  40.0924128  64.3767873
   9.1993862  37.2959120  62.9286326   8.9528576  37.2154871  63.7623115
   9.5278985  36.5112588  62.7348854   9.2115106  37.1685385  63.0233849
  13.0941911  44.0042479  66.7173107  12.9556270  44.7023525  67.2221850
  12.3141909  43.8491136  66.3609289  12.9585138  44.0842646  66.7399382
  11.4319996  40.3038855  72.9695489  11.4268035  39.4318671  72.9737916
  12.1380990  40.5027024  72.4964945  11.5365000  40.2042729  72.9002524
   5.1590889  40.0315838  72.3409309   5.3034265  40.6117047  71.7052419
   5.5066538  40.4092135  73.0459164   5.2318351  40.1736542  72.3508304
   7.3310807  39.2306007  70.1234441   6.5834121  39.4237021  69.7182719
   7.4852332  38.4051226  69.8858562   7.2433234  39.1371118  70.0279847
   4.2318644  48.2218610  69.2070336   4.3808208  47.6621526  68.5543740
   5.0118646  48.3010612  69.5902855   4.3692738  48.1504176  69.1667285
  14.5895284  43.3620733  57.4789607  14.2102093  42.5757871  57.4718896
  13.9261529  43.9107590  57.3361251  14.4353759  43.3265557  57.4570403
   6.7571945  48.3933253  70.4854827   6.6815616  47.7242064  71.0405615
   6.6861804  49.0951041  70.9995493   6.7352552  48.3978160  70.6431675
  12.0439910  26.3046433  64.8823687  12.1623478  26.7622896  64.1490990
  11.8702085  25.4991694  64.5959905  12.0359081  26.2540205  64.7324621
   7.4142192  46.9134252  61.3178433   8.1792083  46.6443896  60.9961097
   7.3120282  46.4284262  62.0348496   7.5123687  46.8023817  61.3758260
   5.4494962  35.1158661  67.8571669   4.6591036  34.9350122  68.1789004
   5.8455585  34.3385614  67.8401963   5.3911838  34.9746122  67.9024217
   9.9360852  43.9446436  53.2978382  10.7033838  44.0046561  52.8884234
   9.4892161  43.3726877  52.8134701   9.9834280  43.8683011  53.1656092
  10.8338648  42.7501092  65.5831114  10.1583650  42.5186324  66.0844501
  10.8431024  42.1422275  64.9573219  10.7357153  42.6260017  65.5647267
   7.9632792  37.5918921  72.3395167   7.8991933  38.4528877  72.2115304
   8.1029980  37.2750914  71.5390719   7.9748262  37.6719087  72.2023380
  12.8355383  45.6066224  57.8141292  12.9175220  46.4133210  57.4902743
  13.3205125  45.6262183  58.5382066  12.9192540  45.7286886  57.8728191
   6.6451886  40.2851060  66.4811370   6.2214135  40.4855559  65.7450389
   6.4696741  39.4379908  66.5935670   6.5562766  40.1899841  66.3885060
   1.9334331  40.7803111  61.9139343   2.0898950  40.7149914  62.7695335
   2.2734924  41.5551664  61.7018023   2.0067566  40.8852309  62.0093937
   8.4713475  40.1560995  60.7832706   9.0129021  39.6531376  61.2471327
   8.7860034  40.1026190  59.9722191   8.5977873  40.0740416  60.7316518
  12.3430583  44.3663642  77.8959618  13.1565448  44.0948791  78.0564751
  12.1825549  44.0671182  77.0919814  12.4400531  44.2818568  77.8005024
   6.6399925  45.5478346  58.0672734   6.7092745  44.6892885  58.2065735
   7.4188380  45.7650227  57.7391759   6.7652775  45.4531210  58.0389891
   9.6202745  35.0497299  70.8355007   9.8344714  34.4108214  70.2818361
   9.0036644  35.4943123  70.4062868   9.5608074  35.0207443  70.6905438
  11.0307413  47.9716048  62.2809227  10.6387204  47.6682763  61.5632094
  11.1860485  48.8085138  62.0914181  10.9961003  48.0499884  62.1465725
  11.7841833  36.6586365  71.7738314  10.9718515  36.3512255  71.8551486
  12.2431767  36.1785365  72.3381026  11.7322218  36.5422857  71.8692908
  11.1947088  44.5366037  62.2215258  10.8361742  44.7080679  62.9979290
  10.7085798  44.9979242  61.6643256  11.0705784  44.6305008  62.2540527
   9.0117473  28.1597235  65.8242349   8.1411031  28.1335956  65.7775659
   9.2657815  27.9874427  65.0068195   8.9211034  28.1307379  65.6962486
   5.9835453  40.2165202  54.7615492   6.2727978  40.9930085  55.0359067
   6.0707252  39.7053933  55.4629992   6.0389709  40.2557120  54.9057990
   6.0366614  30.1703464  67.2815820   5.5205103  29.4783655  67.4067399
   5.4760543  30.8374241  67.2278418   5.8773127  30.1666721  67.2921886
  12.3551827  45.4269933  73.1682459  12.9931547  44.9330128  72.8344915
  11.7125918  45.3547333  72.5834686  12.3546053  45.3428941  73.0324814
  14.0808827  37.2759079  67.7348374  13.6536435  37.1885427  66.9796474
  13.4434880  37.3836854  68.3203219  13.9238434  37.2791738  67.7093816
  12.4106083  46.1189741  69.8087816  13.1998462  45.7678806  69.9289897
  12.5849681  46.9326129  69.5464449  12.5526365  46.1875598  69.7875684
   2.1499394  39.5298467  66.8615604   1.3087400  39.4302341  67.0694498
   2.3589402  40.2993947  67.2129925   2.0564086  39.6290510  66.9442919
  11.2639908  30.1299298  64.3704234  11.4689501  30.0621605  65.2161231
  10.9366332  30.9358119  64.3025411  11.2455156  30.2385238  64.4863889
   5.9616059  37.4579866  66.1113202   5.6579196  36.9035854  66.7123610
   5.2595480  37.6372076  65.6241236   5.8132269  37.4024648  66.1282908
   5.0182156  34.7680386  60.6757904   5.2941890  34.0499298  60.2635471
   5.6180825  35.3665305  60.4679010   5.1475420  34.7500756  60.5838665
  14.5173595  30.6831062  63.8506999  13.9047909  31.1701464  64.2360731
  14.6137770  30.0074553  64.3944651  14.4411493  30.6549371  63.9885858
   8.5192676  32.4393903  58.9504499   8.9736423  32.6104463  59.6752343
   8.9932722  31.8262014  58.5502275   8.6560996  32.3744788  58.9978260
   2.0408202  41.9242229  68.2807237   1.4496135  42.5651727  68.2510252
   2.8029225  42.3479846  68.2538537   2.0656462  42.0818067  68.2722385
  18.1598623  41.7547999  69.2784516  18.2181747  42.2034647  70.0244492
  17.5265091  42.1646811  68.8414596  18.0749918  41.8821733  69.3237064
  11.7997718  47.3751540  65.7139262  11.6017407  47.8642355  65.0195473
  11.1785429  47.5792782  66.2923395  11.6785282  47.4768079  65.6962485
   5.8605696  39.1436437  60.0549506   6.6047741  39.5310714  60.2932456
   6.0066393  38.2993863  60.2189994   5.9916281  39.0766910  60.1143476
   7.7785272  30.9386696  65.0881367   6.9321317  31.1109504  64.9622717
   7.7756404  30.1336040  65.4247196   7.6532422  30.8447725  65.1192494
   8.8483572  34.7161911  65.9543425   8.3743526  34.1903673  66.4648736
   9.2201708  34.1691383  65.3858287   8.8333461  34.5577907  65.9458573
  15.1120303  39.7764286  67.3650206  14.8718526  38.9370701  67.3692632
  15.5912310  39.8564453  68.0890979  15.1472486  39.6645686  67.4725008
  10.7767072  35.6098465  59.0169179  10.2490090  35.6927209  58.3274888
  11.2362780  36.3516337  59.0133824  10.7668922  35.7319128  58.9143874
  17.1125490  36.5565743  65.3179465  16.8735260  36.5161578  64.4800250
  17.2759391  37.4036896  65.4445186  17.1015793  36.6757828  65.2132947
  13.7171520  40.9415693  71.2484510  14.4405719  40.4888219  71.0695530
  13.4521482  41.2220358  70.4656838  13.7852793  40.9166661  71.1063226
   2.5858388  35.5375866  67.9837389   1.9611458  35.5494258  67.3763342
   2.2503983  36.0136041  68.6328630   2.4443880  35.6094383  67.9893958
   2.7700137  33.8800985  54.0410074   2.4212941  34.5320710  54.5041624
   2.2896583  33.8658098  53.3133946   2.6470381  33.9744038  54.0021166
  10.3304154  44.1802029  58.1478836  11.0538353  44.6460142  58.0043410
   9.8904745  44.2475638  57.3976433  10.3719847  44.2585865  58.0163618
   9.4990309  41.0399571  69.3979525   8.8847303  40.4957621  69.6928161
  10.0157594  40.5263807  68.9185341   9.4845972  40.8835980  69.3703754
   8.7386607  42.1103841  67.1323824   8.3114215  41.4853560  66.6989259
   8.7311551  41.8278763  67.9582831   8.6745748  41.9756622  67.1903651
   7.0672316  32.9872596  67.3466358   7.0914803  32.4532708  66.6579138
   7.3183790  32.4789904  68.0091948   7.1082235  32.8333500  67.3431003
   3.3473638  31.7143414  66.7272102   3.3872010  32.2152620  67.4406810
   2.5223303  31.8053808  66.4578025   3.2313164  31.8025230  66.7922640
   4.7688002  38.2303924  69.0246001   3.9379932  38.3977742  68.8181249
   4.7139519  37.8539874  69.8094887   4.6377417  38.1993655  69.1094529
   3.1424046  36.5059515  59.5536119   3.2827007  37.0031979  60.2564760
   3.6406579  35.8045810  59.6950333   3.2365127  36.4761494  59.6787698
   3.1724268  37.3726626  56.8828696   3.8069348  37.9687051  56.8178158
   3.2549879  37.0730084  57.6974566   3.2780819  37.4167534  56.9931782
  16.1506834  39.9042104  69.7515060  16.7424674  40.5439354  69.7833258
  16.5865828  39.2065140  70.0407127  16.3025265  39.8960454  69.7995893
   4.7503251  33.3040602  56.8574138   5.0719092  32.8243684  56.2033400
   5.0130195  34.1140248  56.6664949   4.8369276  33.3530500  56.7329630
   7.9800224  44.3259476  70.3772954   7.4725315  44.8795323  70.8213584
   7.6826870  44.3867766  69.5591728   7.8605109  44.4165787  70.3221411
  10.1462406  32.6912796  69.2197617  10.5717478  32.2385322  68.6081143
   9.5319399  32.1372866  69.4962404  10.1191051  32.5426772  69.1702642
  10.5908004  48.2422734  58.3076897   9.8737314  48.0683596  57.8424135
  11.2414742  48.0075306  57.7752383  10.5809855  48.1818526  58.1606115
   8.5856629  29.1627895  62.6288194   7.9424947  29.0125542  63.1973332
   8.2456036  28.9170241  61.8637298   8.4401706  29.1040018  62.5991209
  13.1755975  37.1187322  62.0518202  12.5047165  37.6617024  61.9231268
  13.8695726  37.5882178  61.8099897  13.1784843  37.2685593  61.9973730
   7.2242709  49.2584034  67.2829961   7.0008363  48.5002863  67.6513987
   6.7352552  49.2882055  66.5610400   7.1186158  49.1506259  67.2306702
  13.3384103  33.5743206  64.9608576  13.6911713  33.1472929  65.6354374
  12.4798904  33.4894049  65.0909652  13.2633547  33.4987947  65.0803586
   2.0367788  36.2050726  63.0191422   1.3179777  36.6214858  63.2864286
   2.4080150  36.7704964  62.4683060   1.9859720  36.3500007  62.9774229
  11.3367369  36.8378574  68.9093418  11.3165296  36.6561870  69.7628197
  11.3846569  37.7090593  68.8853002  11.3402010  36.9395113  69.0316713
   9.2813698  43.4265766  74.8341894   9.2409553  42.7815443  74.2487050
  10.0937017  43.3702384  75.1467306   9.3956852  43.3224733  74.7938844
   5.8721166  49.4784492  64.7367045   5.4581565  48.8158623  64.3470887
   6.5568540  49.6262351  64.2162740   5.9119538  49.4025151  64.6023542
   9.2386460  48.6374578  65.4890662   8.8402743  48.7476848  64.7211482
   8.6237680  48.8456644  66.0717222   9.0885349  48.6848146  65.4621961
   7.8114362  35.2448725  58.3564802   7.2179201  35.5665722  57.8049369
   7.8489640  34.3989821  58.1485908   7.7288751  35.1673054  58.2447573
  14.7708163  28.6961618  65.8892888  14.2639027  27.9890757  65.8214066
  15.5675597  28.3654807  66.0193965  14.8135402  28.5434769  65.8991883
  10.6872179  35.2028230  61.7866552  10.4585872  35.2260931  60.9444910
  10.9470255  34.3785697  61.9061562  10.6918367  35.0844310  61.6791750
   3.7416941  33.7404776  63.0820748   4.2174307  34.1021856  62.4470929
   3.2405541  34.3961244  63.3620890   3.7382300  33.8898965  63.0297489
  16.9728303  43.2126544  58.8733753  17.3561909  43.9617900  59.1031850
  16.1772416  43.4592364  58.6145742  16.9122085  43.3596238  58.8691326
   5.7843594  35.8845976  56.4494132   6.1642559  35.9025605  55.6645246
   5.0436190  36.3299965  56.3284979   5.7312432  35.9527751  56.3157700
  13.4128885  34.1928167  62.0369710  13.4123111  34.0376824  62.8953987
  13.2085065  35.0391154  61.9811096  13.3828663  34.2948788  62.1557650
  11.1369737  38.8725669  65.6905917  11.6323402  38.1548664  65.6509937
  10.3269513  38.5696467  65.5760404  11.0913630  38.7223315  65.6679643
   6.5828348  42.7223482  57.8402922   5.7739671  42.3990156  57.7936231
   7.0903257  42.0156704  57.7731170   6.5378015  42.5704799  57.8233216
  13.2021556  41.6229357  68.3783046  13.6276627  41.1003778  67.8253471
  12.8378476  42.2210194  67.8571669  13.2108158  41.6339584  68.2192056
   2.8375636  49.9193574  67.1380391   3.1522195  50.7329962  67.1458173
   3.2469049  49.5343793  67.8062550   2.9443734  49.9822276  67.2384483
   9.7900155  45.3363621  64.7084203  10.2611333  46.0503883  64.8774189
  10.1260334  44.7362371  65.2444073   9.9095270  45.3535085  64.8116579
  10.4274102  45.1281555  71.4711896   9.8795048  44.5039439  71.2031961
  10.8887130  45.3175827  70.7555975  10.4141311  45.0640605  71.3262327
  13.2367966  33.1966909  68.8563088  12.6530955  33.6976116  68.4440656
  13.5572260  32.6896466  68.2227412  13.1981141  33.1958744  68.7021595
   5.7762765  32.1107504  59.1321763   6.5978459  32.2805817  58.8903458
   5.3132416  32.2654765  58.4088061   5.8293927  32.1589237  58.9893407
   9.9932428  46.1332628  68.0021237  10.8130802  45.9895594  68.2637532
   9.7126506  46.7578827  68.5437675  10.0729171  46.2042980  68.1209177
  26.4646078  53.7897479  60.9664113  26.4340083  54.6442116  61.1382383
  27.0627427  53.4892772  61.5250257  26.5483236  53.8713976  61.0738916
  19.6645763  52.8773130  65.7217044  18.8083659  53.0381629  65.7726161
  19.7113417  52.0065194  65.7422105  19.5444875  52.7723932  65.7323110
  14.0486903  62.4135848  61.4854275  13.2969802  62.0351387  61.2570321
  14.4972914  62.4454282  60.7373086  14.0036570  62.3621455  61.3411778
  22.9739480  59.1459656  75.3277500  23.6806247  58.6511687  75.4564434
  23.1627415  59.5868737  74.5980158  23.1067385  59.1378006  75.2386545
  19.5011863  62.8361218  56.9139823  19.1663231  63.5138139  56.4784045
  20.0138733  62.4466529  56.3256694  19.5277444  62.8785796  56.7626614
  19.0416154  64.7875486  62.8550934  19.4255533  65.3562385  62.3155709
  18.9775295  64.0624997  62.3756750  19.0889581  64.7650950  62.7044797
  22.5097584  54.9365174  68.3648696  23.0553544  55.6150261  68.4242665
  22.4514460  54.7952635  67.5050277  22.5813498  55.0157176  68.2460756
  15.6271659  62.4254240  63.7517048  15.7282022  61.6154594  64.0614176
  15.0313404  62.3311187  63.1216726  15.5544198  62.2919268  63.7043286
  24.2862653  56.3649781  59.2382423  24.1702179  57.1157467  59.6674561
  25.0818539  56.1073735  59.4878510  24.3867242  56.4384628  59.3386515
  15.4672399  67.3431830  65.1531904  16.1109854  67.7844994  65.5428062
  15.7928654  66.5385256  65.0662163  15.6104227  67.2897024  65.1977381
   8.8236703  58.4474527  63.3769382   8.5886888  57.6142179  63.2701650
   8.9622344  58.7279193  62.5630583   8.8092366  58.3658030  63.2411737
  11.1226791  50.6160258  66.2753689  10.5031822  50.0252905  66.1063704
  11.0210654  51.2071693  65.6418013  11.0164466  50.6164340  66.1558679
  16.1692978  60.3543804  60.5251766  16.4908819  60.8949012  59.9213074
  16.8165075  59.7840576  60.6574056  16.3119033  60.3502980  60.4558801
  18.2194686  52.3559799  60.6086152  18.9174851  52.5347927  61.1007616
  18.5347019  51.8330139  59.9856542  18.3690024  52.3053571  60.5888163
  10.8495924  54.1612539  68.5197258  10.7254621  54.7474985  69.1547077
  11.5014208  53.6672735  68.8209533  10.9269573  54.1751344  68.6583188
  18.4082622  58.7430244  60.5965944  18.8476257  58.1347345  61.0420717
  18.2587285  58.3637618  59.8251409  18.4504087  58.5968715  60.5485111
  15.8754265  57.3374256  67.7984769  16.5203267  56.8446699  67.4795718
  16.1156042  57.4799043  68.6250848  16.0064850  57.2851698  67.8734303
  18.4140356  60.1829162  67.4491662  18.6963599  59.3880568  67.2278418
  19.1426516  60.6609750  67.4696723  18.5629920  60.1363759  67.4194677
  16.3921550  47.7252196  64.6907427  16.0624880  48.1763340  64.0211126
  15.7166552  47.6468359  65.2380433  16.2431986  47.7803331  64.6730650
  22.0091958  57.0957426  57.5496713  21.9243253  57.9518392  57.6946282
  22.4976342  56.8201750  58.2178872  22.0680856  57.1814747  57.6698795
  23.5997958  43.7137719  62.9357038  23.2851399  44.4041197  63.3677460
  23.0824899  43.6582501  62.2342538  23.4762428  43.8072607  62.8953987
  22.9410391  53.7142220  59.0494448  22.4121863  53.9301853  59.7091754
  23.4635411  54.4078358  58.9695418  22.9398844  53.8485357  59.1350047
  28.3958444  59.2888524  64.4227493  27.5656148  59.4999168  64.5860909
  28.3467697  58.4625579  64.1469776  28.2665180  59.1978131  64.4064858
  14.8309999  57.6105437  57.8501916  14.2467215  58.1155468  58.2567780
  14.4280094  57.3847824  57.1098508  14.6849303  57.6513685  57.8006941
  10.3854028  63.3260198  64.6525588   9.9021606  64.0510687  64.6285171
  11.1977346  63.6236328  64.7635745  10.4344776  63.4762551  64.6652867
  16.4568182  62.1192378  67.2575402  15.9395124  61.7599793  66.6536710
  17.1542573  61.5954553  67.2681468  16.4833763  61.9890066  67.1705661
  20.1131774  62.5687193  73.2191575  20.2015120  62.3813333  74.0669786
  20.5421487  61.9224622  72.8196422  20.1893876  62.4450200  73.2863327
  17.6802234  61.8518352  72.2009237  17.1173069  61.4390962  72.7248899
  18.4423257  61.7771258  72.6202381  17.7096682  61.7795753  72.3402238
  19.2887214  53.8571089  56.3270837  19.5283217  54.0649072  55.5146180
  19.6103055  53.0528597  56.4359781  19.3724372  53.7685190  56.2231390
  14.5977504  45.7864484  60.1730375  15.3523472  46.1542801  59.9347425
  14.4205039  46.1604039  60.9409554  14.6831982  45.8962672  60.2515263
  13.2398225  63.8416374  64.8045868  13.9418804  63.3268363  64.8618624
  13.1595708  64.1690525  65.6092743  13.3321986  63.8130600  64.9318660
  27.8912403  51.9358925  68.2177914  27.0540824  52.0061112  68.4525509
  27.8600634  51.9383420  67.3452216  27.7630685  51.9469152  68.1237462
  14.2877132  54.0791961  73.9326283  14.4597635  53.9697855  74.7811564
  14.8246489  54.7246366  73.6957475  14.3922136  54.1583962  74.0231379
  12.9534569  48.1934803  56.8708488  12.7710142  48.4106684  56.0449481
  13.8160182  48.3073816  56.9267102  13.0539158  48.2424701  56.7562975
  12.5649001  60.0322726  64.3131476  13.4037900  60.2645658  64.3605237
  12.5960770  59.1627037  64.2438511  12.6930718  59.9379672  64.3096120
  13.1901704  60.4523601  68.6144781  13.7299929  60.3094732  69.2848154
  12.5071650  60.8520352  68.9828807  13.1693858  60.4903272  68.7679203
  18.6334288  45.1961214  59.9057512  19.3620448  45.0177169  59.4595668
  18.7229181  46.0379294  60.1164690  18.7540950  45.2945092  59.8711029
  22.6142589  56.1314601  63.8089806  23.3700104  56.5646116  63.8478714
  22.7204913  55.4819371  64.3824442  22.7412759  56.0992085  63.8987831
  25.6522760  59.9587879  64.5592209  25.2157992  59.9624621  65.3151180
  25.3185675  60.6393378  64.1271786  25.5385380  60.0600334  64.6073041
  25.5720243  47.0001707  66.8021636  26.2146151  47.0699811  67.3883552
  25.8243263  46.3330929  66.3001178  25.7042375  46.9128055  66.8148916
  12.4996596  51.4708976  55.3830961  11.7854773  51.1847156  55.7953393
  12.9840564  51.8105602  56.0237348  12.4655959  51.4790626  55.5386596
  13.3437455  50.2102270  71.4146210  12.6509252  49.7399250  71.6606942
  13.9597782  49.9840574  71.9887918  13.3321985  50.1069402  71.5355363
  20.3822227  63.9106314  69.5301814  19.5837472  63.6705814  69.7875683
  20.8308238  63.9620706  70.2768862  20.3296838  63.8828705  69.6786739
  28.7867106  56.6768799  63.4511846  29.4483540  56.1159467  63.3507754
  28.1458518  56.1820829  63.7764537  28.7895973  56.5205208  63.4844186
  19.6743914  59.9738930  55.7592769  20.0895062  59.6423954  55.0677265
  18.8435843  59.7407832  55.6312906  19.6131922  59.8910186  55.6383616
   9.0032262  57.4582671  66.0490947   8.8207836  57.4329557  65.1963239
   9.7381931  57.9281609  66.0879856   9.0846326  57.5244033  65.9288865
  25.0731937  57.6934181  63.1923835  25.3087526  57.8379380  62.3650685
  25.2221500  58.4576589  63.5855348  25.1297740  57.8273235  63.1287438
  12.0678014  54.1767674  72.5573056  12.7917986  54.1620705  73.0437950
  12.1694151  54.8863029  72.0595024  12.1896223  54.2792377  72.5551842
  26.9022393  56.5335847  61.0293438  27.2330610  57.0663487  60.4233533
  27.4755481  56.5874735  61.6855389  27.0356072  56.6205416  61.0371220
  22.1154282  54.3800750  61.7117018  22.2101137  55.1190044  62.1656644
  21.4913126  53.9518225  62.1451583  22.0363313  54.4262070  61.8425166
  20.3706756  57.5586962  72.3607299  20.9445618  56.9214206  72.5155863
  20.2921560  57.5591045  71.4916957  20.4439991  57.4652074  72.2553710
   8.9703173  54.3376172  66.1990014   9.5476675  54.2012622  66.8382259
   8.2717234  53.8811956  66.4535598   8.9524194  54.2498438  66.3312303
  22.3677304  56.2249489  54.9453970  22.2857466  56.2951677  55.8108957
  23.0057024  56.7879233  54.7537711  22.4497141  56.3188461  55.0443920
  15.7270475  55.9910227  64.4128497  15.4689719  55.1581962  64.3859796
  15.7818958  56.2167840  63.5720997  15.6970253  55.9007999  64.2848634
  20.8071525  48.0938678  64.5132589  20.1027852  47.6047864  64.6716509
  20.8556499  48.1061152  63.6421034  20.7101577  48.0228326  64.4071929
  14.7005187  53.5447990  64.8993392  14.1254778  53.7040158  65.5357352
  14.3240863  52.9083399  64.4361842  14.5607999  53.4745803  64.9247950
  18.3678476  52.0171339  69.7585770  17.9792908  51.5925557  69.1037961
  17.7033174  52.2653489  70.2662797  18.2125403  51.9910060  69.7373638
  28.0101745  51.7746344  62.5333600  27.7538310  50.9626285  62.3431483
  28.8531059  51.7823911  62.3063787  28.0967770  51.6558341  62.4718417
   4.4462006  53.1888065  62.9137832   4.5322258  52.8119933  63.6951362
   5.0737803  52.8148510  62.4357790   4.5518557  53.0773547  62.9583309
  22.1904837  45.7145968  67.2709754  22.5715349  45.0324139  67.6577628
  21.3868121  45.4255570  67.0885419  22.1281299  45.5713016  67.3013810
  19.4717414  56.2469944  57.9562577  20.2858053  56.5384836  57.8445348
  19.4076555  55.5929806  57.3820870  19.5820153  56.1935138  57.8551414
  25.6926904  58.9295940  72.3692153  25.4565541  58.0984005  72.2504213
  26.3370133  58.8781547  72.9546997  25.7521575  58.7993628  72.4378046
  15.3425322  59.7191461  63.0834889  15.9799269  59.4803209  63.6286682
  15.7680394  59.9228620  62.3488050  15.5001488  59.7142471  63.0552046
  15.9828137  54.9393751  57.4209778  16.3673290  54.7201458  58.1726324
  15.7339758  55.7656696  57.5510855  16.0030210  55.0291897  57.5510855
  16.1496678  48.2200166  77.1372363  15.8350119  48.9899729  76.8741925
  15.8286610  47.6570422  76.5524590  16.0555597  48.2510435  77.0113713
  26.7163325  58.7140389  68.4320447  26.4109142  59.4468445  68.7933763
  25.9969540  58.3078318  68.1513233  26.5650667  58.7622122  68.4433584
  17.7246794  60.1963884  64.7628675  17.7985802  60.0339056  65.6170525
  18.5416300  60.3854073  64.5189157  17.8563153  60.2000626  64.8526701
  32.4165117  55.3533389  67.7588791  32.3489617  55.3729348  66.8891378
  32.4020779  56.1963717  67.9844462  32.4043873  55.4807124  67.6641268
  11.4852551  60.5421747  61.7923119  10.6590668  60.7883484  61.6657398
  11.5464542  60.4633827  62.6585177  11.3726718  60.5666696  61.9012063
  13.7028575  46.6090688  62.7518559  12.8351000  46.6813287  62.8176168
  13.9903779  47.4112767  62.9406534  13.6168323  46.7384835  62.7893326
  22.8261463  46.7568547  71.0829881  23.5715055  46.5678357  70.6693306
  22.4098768  47.2826785  70.5243737  22.8746438  46.8070692  70.9394454
  16.2651380  63.1598627  59.4942149  16.5549678  62.7687608  58.7701375
  16.9954861  63.3415332  59.9347424  16.4158264  63.1292441  59.4524956
  30.2023734  54.1277775  66.0335386  30.7531656  53.4945845  66.2732478
  30.1867850  54.6593168  66.7250890  30.2808931  54.1126724  66.1714244
  16.8546125  57.9616373  70.5795279  16.3557819  58.6732140  70.6580168
  17.6646349  58.2817039  70.5413442  16.9002232  58.1143221  70.5851848
  14.2057295  65.1366009  62.5602298  13.9857591  64.8463364  63.3528965
  13.9851817  64.4780964  62.0320211  14.1404890  64.9965718  62.5991207
  13.1174243  57.2239326  64.8258000  12.8287491  56.5976797  65.3603727
  13.9857591  57.1659613  64.8922681  13.2034495  57.1226870  64.9148955
  23.9052140  52.3674109  65.1439982  23.5616906  51.6464444  65.4947232
  24.0045183  52.1587960  64.3018340  23.8694183  52.2298312  65.0711662
  16.3725251  66.5095399  61.3432991  17.0249309  65.9771842  61.5724017
  15.6750860  66.1564052  61.7300865  16.3655969  66.3784922  61.4345159
  13.3206516  58.8634577  60.7500365  14.0752484  59.2447616  60.9635828
  12.7277129  59.3145720  61.2047062  13.3443230  58.9863404  60.8483244
  24.3665169  58.8299813  60.6863970  24.9323202  59.4893023  60.6022513
  23.7193073  59.1749511  61.1580372  24.3543926  58.9781755  60.7436727
  15.7813183  50.8197417  75.8757577  14.9712959  51.1255197  75.7647420
  16.2587870  51.5403000  75.9910162  15.7316662  50.9712018  75.8764649
  14.6404743  60.0343138  66.1240481  14.1185496  60.1743430  66.8092345
  15.0278763  59.2753802  66.3142598  14.6208444  59.9428662  66.2541557
  11.6295927  50.0848947  60.1935435  11.3420722  49.7150217  59.4567383
  12.3166395  50.5543802  59.9319140  11.6884824  50.0995916  60.0450511
  20.8371748  61.7738597  60.1101049  20.5958423  61.0406458  59.7028114
  21.0173080  62.3225454  59.4567383  20.8279372  61.7460989  59.9531272
  16.0671068  57.0647157  61.5221972  15.8713851  57.6721892  60.9282275
  16.2905414  56.3715101  61.0413646  16.0705709  57.0524683  61.3638052
  14.4649598  53.9501895  61.6402840  15.1872250  54.1143053  61.1806646
  13.9857591  54.6711560  61.5342180  14.5013329  54.0800125  61.5568454
  22.4243106  50.2865694  67.0199525  21.5854206  50.3126973  66.7837788
  22.4947473  50.9336429  67.6004871  22.3111499  50.3861820  67.0708642
  20.8712384  47.1851071  61.7527141  21.5738737  46.9858819  61.2747099
  20.6056573  46.4127013  62.0595984  20.9359016  47.0414037  61.7272582
  26.3000630  55.4933681  64.3060767  26.2134604  55.6489107  65.1595545
  25.8451110  56.1371756  63.9320172  26.2203886  55.6109436  64.3767873
   9.2024121  50.8630159  61.0420716   9.3040258  51.6656321  61.3701692
   9.9980008  50.6617495  60.7443797   9.3352027  50.9516058  61.0456072
  15.6340940  48.4486356  70.8058021  15.4424137  48.4641491  71.6557445
  16.4839536  48.6450030  70.7824676  15.7316662  48.4800707  70.9281316
  10.0187853  50.9777338  68.7841838   9.8773345  50.1261278  68.9086346
  10.3028417  51.0205998  67.9604044  10.0395699  50.8577088  68.6809462
  20.1726446  52.8144428  62.9286326  19.9261160  52.7340179  63.7623115
  20.5011569  52.0297896  62.7348854  20.1847689  52.6870693  63.0233849
  24.0674495  59.5227787  66.7173107  23.9288854  60.2208833  67.2221850
  23.2874492  59.3676444  66.3609289  23.9317721  59.6027954  66.7399382
  22.4052580  55.8224162  72.9695489  22.4000618  54.9503979  72.9737916
  23.1113574  56.0212332  72.4964945  22.5097584  55.7228037  72.9002524
  16.1323473  55.5501146  72.3409309  16.2766849  56.1302355  71.7052419
  16.4799122  55.9277443  73.0459164  16.2050934  55.6921850  72.3508304
  18.3043390  54.7491315  70.1234441  17.5566704  54.9422329  69.7182719
  18.4584916  53.9236534  69.8858562  18.2165818  54.6556426  70.0279847
  15.2051228  63.7403918  69.2070336  15.3540792  63.1806834  68.5543740
  15.9851230  63.8195920  69.5902855  15.3425322  63.6689484  69.1667285
  25.5627867  58.8806041  57.4789607  25.1834676  58.0943179  57.4718896
  24.8994113  59.4292898  57.3361251  25.4086342  58.8450865  57.4570403
  17.7304529  63.9118561  70.4854827  17.6548200  63.2427372  71.0405615
  17.6594388  64.6136349  70.9995493  17.7085135  63.9163468  70.6431675
  18.5445167  48.6441865  71.0129845  19.0017781  49.3765840  71.1402637
  18.6201496  48.2208331  71.7717100  18.6236137  48.6899104  71.1430921
  10.7878159  48.8907685  72.1019288  10.2520348  48.2788043  72.4180055
  10.8495923  49.4655821  72.7552955  10.7173791  48.8854613  72.2454715
  23.0172493  41.8231741  64.8823687  23.1356061  42.2808204  64.1490990
  22.8434669  41.0177002  64.5959905  23.0091664  41.7725513  64.7324621
  18.3874776  62.4319560  61.3178433  19.1524667  62.1629204  60.9961097
  18.2852866  61.9469570  62.0348496  18.4856271  62.3209125  61.3758260
  16.4227545  50.6343969  67.8571669  15.6323620  50.4535429  68.1789004
  16.8188168  49.8570922  67.8401963  16.3644421  50.4931430  67.9024217
  20.9093436  59.4631744  53.2978382  21.6766421  59.5231869  52.8884234
  20.4624745  58.8912185  52.8134701  20.9566863  59.3868319  53.1656092
  21.8071232  58.2686400  65.5831114  21.1316233  58.0371632  66.0844501
  21.8163608  57.6607582  64.9573219  21.7089736  58.1445325  65.5647267
  18.9365376  53.1104229  72.3395167  18.8724517  53.9714185  72.2115304
  19.0762563  52.7936222  71.5390719  18.9480846  53.1904395  72.2023380
  23.8087966  61.1251532  57.8141292  23.8907804  61.9318518  57.4902743
  24.2937708  61.1447491  58.5382066  23.8925124  61.2472194  57.8728191
  17.6184469  55.8036368  66.4811370  17.1946719  56.0040867  65.7450389
  17.4429325  54.9565216  66.5935670  17.5295350  55.7085149  66.3885060
  12.9066914  56.2988419  61.9139343  13.0631534  56.2335222  62.7695335
  13.2467508  57.0736972  61.7018023  12.9800149  56.4037617  62.0093937
  19.4446059  55.6746303  60.7832706  19.9861605  55.1716684  61.2471327
  19.7592618  55.6211498  59.9722191  19.5710456  55.5925724  60.7316518
  23.3163166  59.8848950  77.8959618  24.1298032  59.6134099  78.0564751
  23.1558133  59.5856490  77.0919814  23.4133115  59.8003876  77.8005024
  17.6132509  61.0663654  58.0672734  17.6825329  60.2078193  58.2065735
  18.3920964  61.2835535  57.7391759  17.7385359  60.9716518  58.0389891
  20.5935328  50.5682607  70.8355007  20.8077298  49.9293522  70.2818361
  19.9769228  51.0128431  70.4062868  20.5340658  50.5392751  70.6905438
  22.0039996  63.4901356  62.2809227  21.6119788  63.1868071  61.5632094
  22.1593069  64.3270446  62.0914181  21.9693586  63.5685192  62.1465725
   9.4801176  53.4823370  62.2300110   9.8600141  53.9007915  61.5660377
   8.9056541  54.0636825  62.5368953   9.4512501  53.6301229  62.1776851
  22.7574416  52.1771673  71.7738314  21.9451098  51.8697563  71.8551486
  23.2164351  51.6970673  72.3381026  22.7054801  52.0608165  71.8692908
  22.1679671  60.0551345  62.2215258  21.8094326  60.2265987  62.9979290
  21.6818382  60.5164550  61.6643256  22.0438368  60.1490316  62.2540527
  19.9850057  43.6782543  65.8242349  19.1143615  43.6521264  65.7775659
  20.2390398  43.5059735  65.0068195  19.8943617  43.6492687  65.6962486
  16.9568036  55.7350510  54.7615492  17.2460561  56.5115392  55.0359067
  17.0439835  55.2239241  55.4629992  17.0122293  55.7742428  54.9057990
  19.8527924  53.5831744  76.5567016  20.3227555  54.2073860  76.9434890
  19.8989804  52.9148720  77.1160231  19.9295800  53.5766424  76.6967087
  17.0099198  45.6888771  67.2815820  16.4937686  44.9968963  67.4067399
  16.4493126  46.3559549  67.2278418  16.8505711  45.6852029  67.2921886
  19.0791431  46.2281731  69.1108672  18.6923184  46.2530763  69.8922202
  18.5924368  45.6623410  68.6583189  18.9503940  46.1477482  69.1596576
  23.3284410  60.9455240  73.1682459  23.9664131  60.4515436  72.8344915
  22.6858502  60.8732641  72.5834686  23.3278637  60.8614249  73.0324814
  25.0541411  52.7944386  67.7348374  24.6269019  52.7070735  66.9796474
  24.4167463  52.9022162  68.3203219  24.8971018  52.7977046  67.7093816
  18.7448573  43.1148717  71.4018932  19.3741691  43.6509017  71.1240003
  18.9134435  43.0226076  72.2532498  18.8626367  43.1810079  71.4867460
  18.5462488  47.9019912  73.6745344  19.3735917  47.6305061  73.7303958
  18.5670334  48.6980753  74.0309162  18.6715338  47.9799666  73.7360527
  23.3838667  61.6375049  69.8087816  24.1731045  61.2864113  69.9289897
  23.5582265  62.4511437  69.5464449  23.5258949  61.7060906  69.7875684
  13.1231977  55.0483775  66.8615604  12.2819984  54.9487649  67.0694498
  13.3321985  55.8179255  67.2129925  13.0296670  55.1475818  66.9442919
  10.6007544  52.6703311  64.6900355  10.2064242  52.7446323  63.9150465
  10.0447661  53.0561258  65.2408717  10.4610357  52.7385086  64.6568015
  22.2372491  45.6484605  64.3704234  22.4422085  45.5806913  65.2161231
  21.9098915  46.4543427  64.3025411  22.2187739  45.7570546  64.4863889
  16.9348642  52.9765174  66.1113202  16.6311780  52.4221162  66.7123610
  16.2328063  53.1557384  65.6241236  16.7864852  52.9209956  66.1282908
  15.9914739  50.2865693  60.6757904  16.2674474  49.5684606  60.2635471
  16.5913409  50.8850613  60.4679010  16.1208004  50.2686064  60.5838665
  25.4906179  46.2016370  63.8506999  24.8780493  46.6886772  64.2360731
  25.5870354  45.5259861  64.3944651  25.4144077  46.1734678  63.9885858
  19.4925260  47.9579211  58.9504499  19.9469006  48.1289771  59.6752343
  19.9665306  47.3447322  58.5502275  19.6293580  47.8930096  58.9978260
  13.0140785  57.4427537  68.2807237  12.4228719  58.0837035  68.2510252
  13.7761809  57.8665154  68.2538537  13.0389046  57.6003375  68.2722385
  13.4101408  48.6029535  68.9475255  13.8702890  48.6768464  69.6850379
  13.4557515  49.4010789  68.5975076  13.4851963  48.7323682  69.0048011
  15.0584758  49.2696229  73.5147282  14.6670323  48.6229577  73.9503060
  15.2270621  49.8607665  74.1341537  15.0255668  49.2610497  73.6709988
  29.1331207  57.2733306  69.2784516  29.1914331  57.7219955  70.0244492
  28.4997674  57.6832119  68.8414596  29.0482502  57.4007041  69.3237064
  22.7730302  62.8936848  65.7139262  22.5749990  63.3827663  65.0195473
  22.1518013  63.0978090  66.2923395  22.6517866  62.9953387  65.6962485
  16.8338280  54.6621745  60.0549506  17.5780325  55.0496022  60.2932456
  16.9798976  53.8179171  60.2189994  16.9648865  54.5952218  60.1143476
  18.7517855  46.4572004  65.0881367  17.9053900  46.6294812  64.9622717
  18.7488988  45.6521348  65.4247196  18.6265005  46.3633033  65.1192494
  19.8216156  50.2347219  65.9543425  19.3476110  49.7088981  66.4648736
  20.1934292  49.6876691  65.3858287  19.8066045  50.0763215  65.9458573
  10.1989186  52.2318725  71.3226971  11.0614799  52.1314434  71.2364301
   9.8680969  51.6513435  70.7612543  10.2774382  52.1310352  71.2272377
  26.0852886  55.2949594  67.3650206  25.8451109  54.4556009  67.3692632
  26.5644894  55.3749761  68.0890979  26.1205070  55.1830994  67.4725008
  21.7499655  51.1283773  59.0169179  21.2222674  51.2112517  58.3274888
  22.2095364  51.8701645  59.0133824  21.7401506  51.2504436  58.9143874
  28.0858073  52.0751051  65.3179465  27.8467843  52.0346886  64.4800250
  28.2491975  52.9222203  65.4445186  28.0748377  52.1943136  65.2132947
  24.6904103  56.4601001  71.2484510  25.4138302  56.0073527  71.0695530
  24.4254066  56.7405666  70.4656838  24.7585377  56.4351969  71.1063226
  13.5590972  51.0561174  67.9837389  12.9344042  51.0679566  67.3763342
  13.2236567  51.5321349  68.6328630  13.4176464  51.1279691  67.9893958
  13.7432721  49.3986293  54.0410074  13.3945525  50.0506018  54.5041624
  13.2629166  49.3843406  53.3133946  13.6202965  49.4929346  54.0021166
  21.3036738  59.6987337  58.1478836  22.0270937  60.1645450  58.0043410
  20.8637329  59.7660946  57.3976433  21.3452430  59.7771173  58.0163618
  20.4722893  56.5584879  69.3979525  19.8579886  56.0142929  69.6928161
  20.9890178  56.0449115  68.9185341  20.4578555  56.4021288  69.3703754
  19.7119190  57.6289149  67.1323824  19.2846798  57.0038868  66.6989259
  19.7044135  57.3464071  67.9582831  19.6478331  57.4941930  67.1903651
  12.8281717  52.6654322  70.2012258  12.9875204  51.9097646  70.6063980
  12.6474611  53.2145262  70.8552996  12.8247076  52.6348136  70.3574964
  20.7702020  44.8315558  70.7563047  20.2742582  45.0279232  70.0654614
  21.5271082  45.2308226  70.5851849  20.8088845  44.9193291  70.6283184
  18.0404900  48.5057904  67.3466358  18.0647387  47.9718016  66.6579138
  18.2916373  47.9975212  68.0091948  18.0814819  48.3518807  67.3431003
  14.3206222  47.2328722  66.7272102  14.3604594  47.7337928  67.4406810
  13.4955887  47.3239115  66.4578025  14.2045748  47.3210538  66.7922640
  15.7420585  53.7489232  69.0246001  14.9112515  53.9163050  68.8181249
  15.6872103  53.3725182  69.8094887  15.6110000  53.7178963  69.1094529
  13.5504369  47.2398125  74.6602412  14.1757072  46.6960257  74.9331844
  13.0954849  46.7593042  74.0910202  13.5752629  47.0887606  74.6164006
  14.1156629  52.0244823  59.5536119  14.2559590  52.5217287  60.2564760
  14.6139162  51.3231118  59.6950333  14.2097710  51.9946802  59.6787698
  14.1456852  52.8911934  56.8828696  14.7801931  53.4872359  56.8178158
  14.2282462  52.5915392  57.6974566  14.2513403  52.9352842  56.9931782
  27.1239417  55.4227412  69.7515060  27.7157258  56.0624662  69.7833258
  27.5598412  54.7250448  70.0407127  27.2757849  55.4145762  69.7995893
  15.7235835  48.8225910  56.8574138  16.0451676  48.3428992  56.2033400
  15.9862778  49.6325556  56.6664949  15.8101860  48.8715807  56.7329630
  18.9532807  59.8444784  70.3772954  18.4457898  60.3980631  70.8213584
  18.6559454  59.9053074  69.5591728  18.8337692  59.9351095  70.3221411
  21.1194990  48.2098104  69.2197617  21.5450061  47.7570630  68.6081143
  20.5051983  47.6558174  69.4962404  21.0923635  48.0612080  69.1702642
  10.6509840  55.0879775  60.1518242  11.1602069  55.6844282  60.5329547
  11.1244112  54.8205749  59.4694661  10.7953215  55.1365590  60.1072764
  21.5640588  63.7608042  58.3076897  20.8469897  63.5868904  57.8424135
  22.2147325  63.5260614  57.7752383  21.5542438  63.7003834  58.1606115
  19.5589212  44.6813203  62.6288194  18.9157530  44.5310850  63.1973332
  19.2188619  44.4355549  61.8637298  19.4134290  44.6225326  62.5991209
  24.1488559  52.6372630  62.0518202  23.4779749  53.1802332  61.9231268
  24.8428309  53.1067485  61.8099897  24.1517426  52.7870901  61.9973730
  18.1975293  64.7769342  67.2829961  17.9740947  64.0188171  67.6513987
  17.7085136  64.8067363  66.5610400  18.0918742  64.6691567  67.2306702
  24.3116686  49.0928514  64.9608576  24.6644296  48.6658237  65.6354374
  23.4531488  49.0079357  65.0909652  24.2366131  49.0173254  65.0803586
  13.0100371  51.7236033  63.0191422  12.2912360  52.1400166  63.2864286
  13.3812734  52.2890272  62.4683060  12.9592303  51.8685315  62.9774229
  22.3099952  52.3563882  68.9093418  22.2897879  52.1747178  69.7628197
  22.3579153  53.2275901  68.8853002  22.3134593  52.4580421  69.0316713
  20.2546282  58.9451074  74.8341894  20.2142137  58.3000751  74.2487050
  21.0669600  58.8887692  75.1467306  20.3689436  58.8410041  74.7938844
  16.8453750  64.9969800  64.7367045  16.4314148  64.3343930  64.3470887
  17.5301124  65.1447659  64.2162740  16.8852121  64.9210458  64.6023542
  20.2119044  64.1559886  65.4890662  19.8135327  64.2662156  64.7211482
  19.5970263  64.3641952  66.0717222  20.0617933  64.2033454  65.4621961
  18.7846946  50.7634033  58.3564802  18.1911785  51.0851030  57.8049369
  18.8222223  49.9175129  58.1485908  18.7021335  50.6858362  58.2447573
  25.7440746  44.2146926  65.8892888  25.2371611  43.5076065  65.8214066
  26.5408180  43.8840114  66.0193965  25.7867986  44.0620077  65.8991883
  21.6604762  50.7213538  61.7866552  21.4318455  50.7446239  60.9444910
  21.9202838  49.8971005  61.9061562  21.6650950  50.6029618  61.6791750
  15.9423991  52.5748011  71.3891652  15.4302894  51.9669194  71.7476683
  15.7703487  53.2904603  71.8565628  15.8413628  52.5911310  71.5107876
  14.7149525  49.2590084  63.0820748  15.1906891  49.6207164  62.4470929
  14.2138124  49.9146552  63.3620890  14.7114884  49.4084273  63.0297489
  27.9460886  58.7311852  58.8733753  28.3294492  59.4803208  59.1031850
  27.1505000  58.9777672  58.6145742  27.8854669  58.8781546  58.8691326
  19.8193061  50.4972256  73.8293908  20.3764491  50.2686065  73.1972373
  19.4954126  51.2577921  73.5529120  19.8539471  50.5756092  73.6950405
  17.5376178  53.5839909  74.7945915  18.2887505  53.8991586  75.1085469
  17.7298755  53.3819080  73.9679837  17.6767592  53.6007291  74.7189311
  16.7576178  51.4031284  56.4494132  17.1375143  51.4210913  55.6645246
  16.0168774  51.8485273  56.3284979  16.7045016  51.4713059  56.3157700
  24.3861468  49.7113475  62.0369710  24.3855695  49.5562132  62.8953987
  24.1817648  50.5576462  61.9811096  24.3561246  49.8134096  62.1557650
   6.4478739  53.1353260  66.4528527   6.2700500  52.6829869  67.1783442
   6.1597762  53.9379421  66.6367004   6.3791693  53.1875817  66.5872030
  22.1102320  54.3910977  65.6905917  22.6055986  53.6733972  65.6509937
  21.3002096  54.0881775  65.5760404  22.0646214  54.2408623  65.6679643
  17.5560932  58.2408790  57.8402922  16.7472255  57.9175464  57.7936231
  18.0635841  57.5342012  57.7731170  17.5110599  58.0890107  57.8233216
   8.1851209  55.6680983  63.5650286   7.3196729  55.6566674  63.4533057
   8.2850025  55.4811206  64.4121425   8.0725376  55.6387045  63.6739230
  24.1754139  57.1414664  68.3783046  24.6009211  56.6189086  67.8253471
  23.8111059  57.7395502  67.8571669  24.1840742  57.1524891  68.2192056
  13.8108219  65.4378882  67.1380391  14.1254778  66.2515270  67.1458173
  14.2201633  65.0529101  67.8062550  13.9176317  65.5007584  67.2384483
  20.7632739  60.8548929  64.7084203  21.2343917  61.5689191  64.8774189
  21.0992917  60.2547679  65.2444073  20.8827854  60.8720393  64.8116579
  17.6802234  45.6276399  71.6642298  17.8130139  44.8307393  71.9923274
  18.0647387  46.1542802  72.2440574  17.7558563  45.5876316  71.7985801
  21.4006685  60.6466863  71.4711896  20.8527631  60.0224747  71.2031961
  21.8619714  60.8361135  70.7555975  21.3873895  60.5825913  71.3262327
  20.7534589  42.5506725  68.2623391  19.9480553  42.4404455  68.5791230
  20.6241324  42.6519181  67.4053257  20.6154722  42.5490395  68.1831432
  24.2100549  48.7152217  68.8563088  23.6263538  49.2161424  68.4440656
  24.5304844  48.2081774  68.2227412  24.1713725  48.7144052  68.7021595
  16.7495349  47.6292812  59.1321763  17.5711043  47.7991125  58.8903458
  16.2865000  47.7840073  58.4088061  16.8026511  47.6774545  58.9893407
  15.3390681  45.6235574  69.9120192  15.8835094  45.2826701  70.5024534
  15.3927616  46.4821036  70.0541476  15.4279800  45.6990834  70.0202065
  11.1521239  59.3851990  66.7859000  11.7566097  59.3447825  66.1572820
  10.9448552  60.2323142  66.8163056  11.2110137  59.5039993  66.6975116
  20.9665011  61.6517936  68.0021237  21.7863385  61.5080902  68.2637532
  20.6859089  62.2764134  68.5437675  21.0461755  61.7228288  68.1209177
  37.4378662  69.3082787  60.9664113  37.4072666  70.1627424  61.1382383
  38.0360011  69.0078080  61.5250257  37.5215820  69.3899284  61.0738916
  30.6378347  68.3958438  65.7217044  29.7816242  68.5566937  65.7726161
  30.6846000  67.5250502  65.7422105  30.5177458  68.2909240  65.7323110
  33.4830168  70.4550482  68.3648696  34.0286128  71.1335569  68.4242665
  33.4247044  70.3137943  67.5050277  33.5546082  70.5342484  68.2460756
  35.2595236  71.8835089  59.2382423  35.1434762  72.6342775  59.6674561
  36.0551123  71.6259043  59.4878510  35.3599826  71.9569936  59.3386515
  19.7969287  73.9659835  63.3769382  19.5619471  73.1327487  63.2701650
  19.9354928  74.2464501  62.5630583  19.7824949  73.8843338  63.2411737
  22.0959374  66.1345565  66.2753689  21.4764406  65.5438213  66.1063704
  21.9943238  66.7257001  65.6418013  21.9897050  66.1349648  66.1558679
  27.1425562  75.8729112  60.5251766  27.4641403  76.4134320  59.9213074
  27.7897658  75.3025884  60.6574056  27.2851617  75.8688287  60.4558801
  29.1927270  67.8745107  60.6086152  29.8907435  68.0533235  61.1007616
  29.5079602  67.3515447  59.9856542  29.3422607  67.8238879  60.5888163
  21.8228507  69.6797847  68.5197258  21.6987204  70.2660293  69.1547077
  22.4746792  69.1858043  68.8209533  21.9002157  69.6936652  68.6583188
  29.3815205  74.2615552  60.5965944  29.8208841  73.6532653  61.0420717
  29.2319868  73.8822926  59.8251409  29.4236671  74.1154023  60.5485111
  26.8486848  72.8559564  67.7984769  27.4935851  72.3632007  67.4795718
  27.0888625  72.9984351  68.6250848  26.9797433  72.8037006  67.8734303
  29.3872940  75.7014470  67.4491662  29.6696183  74.9065876  67.2278418
  30.1159100  76.1795057  67.4696723  29.5362503  75.6549067  67.4194677
  27.3654133  63.2437504  64.6907427  27.0357464  63.6948648  64.0211126
  26.6899135  63.1653667  65.2380433  27.2164570  63.2988639  64.6730650
  32.9824542  72.6142734  57.5496713  32.8975837  73.4703700  57.6946282
  33.4708925  72.3387058  58.2178872  33.0413439  72.7000055  57.6698795
  34.5730541  59.2323027  62.9357038  34.2583982  59.9226505  63.3677460
  34.0557483  59.1767809  62.2342538  34.4495012  59.3257915  62.8953987
  33.9142975  69.2327528  59.0494448  33.3854447  69.4487161  59.7091754
  34.4367995  69.9263666  58.9695418  33.9131428  69.3670665  59.1350047
  39.3691028  74.8073832  64.4227493  38.5388731  75.0184476  64.5860909
  39.3200280  73.9810887  64.1469776  39.2397763  74.7163439  64.4064858
  25.8042583  73.1290745  57.8501916  25.2199798  73.6340776  58.2567780
  25.4012678  72.9033131  57.1098508  25.6581887  73.1698993  57.8006941
  30.2619797  69.3756397  56.3270837  30.5015801  69.5834380  55.5146180
  30.5835638  68.5713905  56.4359781  30.3456955  69.2870498  56.2231390
  25.5710088  61.3049792  60.1730375  26.3256056  61.6728109  59.9347425
  25.3937622  61.6789347  60.9409554  25.6564566  61.4147980  60.2515263
  38.8644986  67.4544233  68.2177914  38.0273407  67.5246420  68.4525509
  38.8333217  67.4568728  67.3452216  38.7363269  67.4654460  68.1237462
  25.2609715  69.5977268  73.9326283  25.4330219  69.4883163  74.7811564
  25.7979073  70.2431674  73.6957475  25.3654719  69.6769270  74.0231379
  23.9267152  63.7120111  56.8708488  23.7442725  63.9291992  56.0449481
  24.7892765  63.8259124  56.9267102  24.0271742  63.7610009  56.7562975
  23.5381584  75.5508034  64.3131476  24.3770484  75.7830966  64.3605237
  23.5693353  74.6812345  64.2438511  23.6663302  75.4564980  64.3096120
  29.6066871  60.7146522  59.9057512  30.3353032  60.5362477  59.4595668
  29.6961764  61.5564602  60.1164690  29.7273533  60.8130400  59.8711029
  33.5875172  71.6499909  63.8089806  34.3432687  72.0831424  63.8478714
  33.6937497  71.0004679  64.3824442  33.7145343  71.6177393  63.8987831
  36.6255343  75.4773187  64.5592209  36.1890575  75.4809929  65.3151180
  36.2918259  76.1578686  64.1271786  36.5117963  75.5785642  64.6073041
  36.5452826  62.5187014  66.8021636  37.1878735  62.5885119  67.3883552
  36.7975847  61.8516237  66.3001178  36.6774958  62.4313363  66.8148916
  23.4729179  66.9894284  55.3830961  22.7587356  66.7032463  55.7953393
  23.9573148  67.3290910  56.0237348  23.4388543  66.9975934  55.5386596
  24.3170039  65.7287578  71.4146210  23.6241835  65.2584558  71.6606942
  24.9330366  65.5025882  71.9887918  24.3054569  65.6254710  71.5355363
  39.7599689  72.1954107  63.4511846  40.4216124  71.6344775  63.3507754
  39.1191101  71.7006137  63.7764537  39.7628557  72.0390516  63.4844186
  30.6476497  75.4924238  55.7592769  31.0627646  75.1609262  55.0677265
  29.8168427  75.2593140  55.6312906  30.5864506  75.4095494  55.6383616
  19.9764846  72.9767979  66.0490947  19.7940419  72.9514865  65.1963239
  20.7114515  73.4466917  66.0879856  20.0578910  73.0429341  65.9288865
  36.0464520  73.2119489  63.1923835  36.2820109  73.3564688  62.3650685
  36.1954084  73.9761897  63.5855348  36.1030323  73.3458543  63.1287438
  23.0410598  69.6952982  72.5573056  23.7650570  69.6806012  73.0437950
  23.1426734  70.4048337  72.0595024  23.1628807  69.7977685  72.5551842
  37.8754977  72.0521155  61.0293438  38.2063194  72.5848795  60.4233533
  38.4488065  72.1060043  61.6855389  38.0088656  72.1390724  61.0371220
  33.0886866  69.8986058  61.7117018  33.1833720  70.6375352  62.1656644
  32.4645710  69.4703533  62.1451583  33.0095896  69.9447378  61.8425166
  19.9435756  69.8561480  66.1990014  20.5209259  69.7197930  66.8382259
  19.2449818  69.3997264  66.4535598  19.9256778  69.7683746  66.3312303
  33.3409887  71.7434797  54.9453970  33.2590050  71.8136984  55.8108957
  33.9789608  72.3064541  54.7537711  33.4229725  71.8373768  55.0443920
  26.7003058  71.5095535  64.4128497  26.4422303  70.6767270  64.3859796
  26.7551541  71.7353148  63.5720997  26.6702836  71.4193307  64.2848634
  31.7804109  63.6123986  64.5132589  31.0760435  63.1233171  64.6716509
  31.8289083  63.6246460  63.6421034  31.6834160  63.5413634  64.4071929
  25.6737771  69.0633298  64.8993392  25.0987362  69.2225466  65.5357352
  25.2973447  68.4268707  64.4361842  25.5340583  68.9931111  64.9247950
  29.3411059  67.5356647  69.7585770  28.9525492  67.1110865  69.1037961
  28.6765758  67.7838797  70.2662797  29.1857987  67.5095368  69.7373638
  38.9834328  67.2931652  62.5333600  38.7270893  66.4811593  62.3431483
  39.8263642  67.3009219  62.3063787  39.0700354  67.1743649  62.4718417
  15.4194589  68.7073373  62.9137832  15.5054841  68.3305241  63.6951362
  16.0470387  68.3333818  62.4357790  15.5251140  68.5958855  62.9583309
  33.1637421  61.2331276  67.2709754  33.5447933  60.5509447  67.6577628
  32.3600705  60.9440878  67.0885419  33.1013882  61.0898324  67.3013810
  30.4449997  71.7655252  57.9562577  31.2590636  72.0570144  57.8445348
  30.3809139  71.1115114  57.3820870  30.5552737  71.7120446  57.8551414
  26.3157906  75.2376769  63.0834889  26.9531853  74.9988517  63.6286682
  26.7412977  75.4413928  62.3488050  26.4734072  75.2327779  63.0552046
  26.9560721  70.4579059  57.4209778  27.3405874  70.2386766  58.1726324
  26.7072341  71.2842004  57.5510855  26.9762793  70.5477205  57.5510855
  27.1229261  63.7385474  77.1372363  26.8082702  64.5085037  76.8741925
  26.8019194  63.1755730  76.5524590  27.0288180  63.7695743  77.0113713
  28.6979378  75.7149192  64.7628675  28.7718386  75.5524364  65.6170525
  29.5148884  75.9039381  64.5189157  28.8295736  75.7185934  64.8526701
  24.6761158  62.1275996  62.7518559  23.8083584  62.1998595  62.8176168
  24.9636362  62.9298074  62.9406534  24.5900906  62.2570143  62.7893326
  33.7994047  62.2753855  71.0829881  34.5447639  62.0863665  70.6693306
  33.3831352  62.8012093  70.5243737  33.8479021  62.3256000  70.9394454
  41.1756318  69.6463083  66.0335386  41.7264239  69.0131152  66.2732478
  41.1600433  70.1778476  66.7250890  41.2541514  69.6312032  66.1714244
  27.8278709  73.4801681  70.5795279  27.3290402  74.1917448  70.6580168
  28.6378933  73.8002347  70.5413442  27.8734815  73.6328529  70.5851848
  24.0906826  72.7424634  64.8258000  23.8020075  72.1162105  65.3603727
  24.9590174  72.6844921  64.8922681  24.1767078  72.6412178  64.9148955
  34.8784724  67.8859417  65.1439982  34.5349490  67.1649752  65.4947232
  34.9777767  67.6773268  64.3018340  34.8426767  67.7483620  65.0711662
  24.2939100  74.3819885  60.7500365  25.0485068  74.7632924  60.9635828
  23.7009712  74.8331028  61.2047062  24.3175813  74.5048712  60.8483244
  35.3397753  74.3485121  60.6863970  35.9055786  75.0078331  60.6022513
  34.6925656  74.6934819  61.1580372  35.3276509  74.4967062  60.7436727
  26.7545767  66.3382725  75.8757577  25.9445542  66.6440505  75.7647420
  27.2320453  67.0588307  75.9910162  26.7049245  66.4897326  75.8764649
  25.6137326  75.5528446  66.1240481  25.0918080  75.6928738  66.8092345
  26.0011346  74.7939110  66.3142598  25.5941027  75.4613970  66.2541557
  22.6028510  65.6034255  60.1935435  22.3153306  65.2335525  59.4567383
  23.2898978  66.0729110  59.9319140  22.6617408  65.6181224  60.0450511
  31.8104331  77.2923905  60.1101049  31.5691007  76.5591766  59.7028114
  31.9905664  77.8410762  59.4567383  31.8011955  77.2646296  59.9531272
  27.0403652  72.5832465  61.5221972  26.8446434  73.1907200  60.9282275
  27.2637997  71.8900409  61.0413646  27.0438293  72.5709991  61.3638052
  25.4382182  69.4687203  61.6402840  26.1604834  69.6328361  61.1806646
  24.9590175  70.1896868  61.5342180  25.4745912  69.5985433  61.5568454
  33.3975689  65.8051002  67.0199525  32.5586790  65.8312281  66.7837788
  33.4680057  66.4521737  67.6004871  33.2844083  65.9047128  67.0708642
  31.8444968  62.7036379  61.7527141  32.5471320  62.5044127  61.2747099
  31.5789156  61.9312321  62.0595984  31.9091600  62.5599345  61.7272582
  37.2733213  71.0118989  64.3060767  37.1867188  71.1674415  65.1595545
  36.8183693  71.6557064  63.9320172  37.1936470  71.1294744  64.3767873
  20.1756705  66.3815467  61.0420716  20.2772841  67.1841629  61.3701692
  20.9712592  66.1802803  60.7443797  20.3084610  66.4701366  61.0456072
  26.6073524  63.9671664  70.8058021  26.4156721  63.9826798  71.6557445
  27.4572120  64.1635338  70.7824676  26.7049246  63.9986015  70.9281316
  20.9920437  66.4962646  68.7841838  20.8505929  65.6446586  68.9086346
  21.2761000  66.5391306  67.9604044  21.0128283  66.3762396  68.6809462
  31.1459029  68.3329736  62.9286326  30.8993744  68.2525487  63.7623115
  31.4744152  67.5483204  62.7348854  31.1580273  68.2056001  63.0233849
  35.0407078  75.0413095  66.7173107  34.9021437  75.7394141  67.2221850
  34.2607076  74.8861752  66.3609289  34.9050305  75.1213262  66.7399382
  27.1056057  71.0686454  72.3409309  27.2499432  71.6487662  71.7052419
  27.4531705  71.4462751  73.0459164  27.1783518  71.2107158  72.3508304
  29.2775974  70.2676623  70.1234441  28.5299288  70.4607637  69.7182719
  29.4317499  69.4421842  69.8858562  29.1898402  70.1741734  70.0279847
  36.5360451  74.3991349  57.4789607  36.1567260  73.6128487  57.4718896
  35.8726696  74.9478206  57.3361251  36.3818926  74.3636173  57.4570403
  29.5177751  64.1627173  71.0129845  29.9750365  64.8951148  71.1402637
  29.5934080  63.7393639  71.7717100  29.5968721  64.2084411  71.1430921
  21.7610742  64.4092993  72.1019288  21.2252932  63.7973351  72.4180055
  21.8228507  64.9841129  72.7552955  21.6906375  64.4039921  72.2454715
  33.9905077  57.3417049  64.8823687  34.1088645  57.7993512  64.1490990
  33.8167253  56.5362310  64.5959905  33.9824248  57.2910821  64.7324621
  27.3960129  66.1529277  67.8571669  26.6056204  65.9720737  68.1789004
  27.7920752  65.3756230  67.8401963  27.3377005  66.0116738  67.9024217
  31.8826020  74.9817052  53.2978382  32.6499005  75.0417177  52.8884234
  31.4357329  74.4097493  52.8134701  31.9299447  74.9053627  53.1656092
  32.7803815  73.7871707  65.5831114  32.1048817  73.5556940  66.0844501
  32.7896191  73.1792890  64.9573219  32.6822320  73.6630633  65.5647267
  29.9097959  68.6289536  72.3395167  29.8457100  69.4899493  72.2115304
  30.0495147  68.3121530  71.5390719  29.9213429  68.7089703  72.2023380
  34.7820550  76.6436840  57.8141292  34.8640387  77.4503826  57.4902743
  35.2670292  76.6632799  58.5382066  34.8657708  76.7657502  57.8728191
  28.5917053  71.3221676  66.4811370  28.1679302  71.5226175  65.7450389
  28.4161908  70.4750524  66.5935670  28.5027934  71.2270457  66.3885060
  23.8799498  71.8173727  61.9139343  24.0364117  71.7520530  62.7695335
  24.2200091  72.5922280  61.7018023  23.9532733  71.9222925  62.0093937
  30.4178643  71.1931611  60.7832706  30.9594188  70.6901992  61.2471327
  30.7325202  71.1396805  59.9722191  30.5443040  71.1111032  60.7316518
  28.5865092  76.5848962  58.0672734  28.6557913  75.7263501  58.2065735
  29.3653547  76.8020843  57.7391759  28.7117942  76.4901826  58.0389891
  31.5667912  66.0867915  70.8355007  31.7809882  65.4478830  70.2818361
  30.9501811  66.5313739  70.4062868  31.5073241  66.0578059  70.6905438
  20.4533760  69.0008678  62.2300110  20.8332724  69.4193223  61.5660377
  19.8789124  69.5822133  62.5368953  20.4245084  69.1486537  62.1776851
  33.7307000  67.6956980  71.7738314  32.9183682  67.3882871  71.8551486
  34.1896935  67.2155981  72.3381026  33.6787385  67.5793473  71.8692908
  33.1412255  75.5736652  62.2215258  32.7826909  75.7451295  62.9979290
  32.6550965  76.0349858  61.6643256  33.0170952  75.6675624  62.2540527
  30.9582641  59.1967851  65.8242349  30.0876199  59.1706572  65.7775659
  31.2122982  59.0245043  65.0068195  30.8676201  59.1677995  65.6962486
  27.9300620  71.2535818  54.7615492  28.2193145  72.0300700  55.0359067
  28.0172419  70.7424549  55.4629992  27.9854876  71.2927736  54.9057990
  27.9831781  61.2074079  67.2815820  27.4670270  60.5154271  67.4067399
  27.4225710  61.8744856  67.2278418  27.8238294  61.2037337  67.2921886
  30.0524015  61.7467039  69.1108672  29.6655768  61.7716071  69.8922202
  29.5656952  61.1808718  68.6583189  29.9236524  61.6662790  69.1596576
  36.0273994  68.3129694  67.7348374  35.6001602  68.2256043  66.9796474
  35.3900047  68.4207470  68.3203219  35.8703601  68.3162354  67.7093816
  29.7181156  58.6334025  71.4018932  30.3474274  59.1694325  71.1240003
  29.8867019  58.5411384  72.2532498  29.8358951  58.6995387  71.4867460
  29.5195071  63.4205220  73.6745344  30.3468501  63.1490369  73.7303958
  29.5402917  64.2166061  74.0309162  29.6447921  63.4984974  73.7360527
  24.0964561  70.5669082  66.8615604  23.2552568  70.4672957  67.0694498
  24.3054569  71.3364563  67.2129925  24.0029254  70.6661126  66.9442919
  21.5740128  68.1888619  64.6900355  21.1796826  68.2631631  63.9150465
  21.0180245  68.5746566  65.2408717  21.4342940  68.2570394  64.6568015
  33.2105075  61.1669913  64.3704234  33.4154668  61.0992221  65.2161231
  32.8831499  61.9728735  64.3025411  33.1920323  61.2755854  64.4863889
  27.9081226  68.4950482  66.1113202  27.6044363  67.9406470  66.7123610
  27.2060647  68.6742692  65.6241236  27.7597436  68.4395264  66.1282908
  26.9647323  65.8051001  60.6757904  27.2407057  65.0869914  60.2635471
  27.5645992  66.4035921  60.4679010  27.0940588  65.7871372  60.5838665
  36.4638763  61.7201678  63.8506999  35.8513076  62.2072080  64.2360731
  36.5602937  61.0445169  64.3944651  36.3876660  61.6919986  63.9885858
  30.4657843  63.4764519  58.9504499  30.9201590  63.6475079  59.6752343
  30.9397889  62.8632629  58.5502275  30.6026164  63.4115404  58.9978260
  23.9873369  72.9612845  68.2807237  23.3961302  73.6022343  68.2510252
  24.7494392  73.3850462  68.2538537  24.0121630  73.1188683  68.2722385
  24.3833992  64.1214842  68.9475255  24.8435473  64.1953772  69.6850379
  24.4290098  64.9196097  68.5975076  24.4584547  64.2508990  69.0048011
  26.0317341  64.7881537  73.5147282  25.6402907  64.1414884  73.9503060
  26.2003204  65.3792973  74.1341537  25.9988252  64.7795805  73.6709988
  33.7462885  78.4122156  65.7139262  33.5482574  78.9012971  65.0195473
  33.1250596  78.6163398  66.2923395  33.6250450  78.5138695  65.6962485
  27.8070863  70.1807053  60.0549506  28.5512908  70.5681329  60.2932456
  27.9531560  69.3364479  60.2189994  27.9381449  70.1137526  60.1143476
  29.7250439  61.9757312  65.0881367  28.8786484  62.1480120  64.9622717
  29.7221571  61.1706656  65.4247196  29.5997589  61.8818341  65.1192494
  30.7948739  65.7532526  65.9543425  30.3208694  65.2274288  66.4648736
  31.1666875  65.2061999  65.3858287  30.7798628  65.5948523  65.9458573
  21.1721769  67.7504033  71.3226971  22.0347383  67.6499742  71.2364301
  20.8413553  67.1698742  70.7612543  21.2506966  67.6495660  71.2272377
  37.0585470  70.8134902  67.3650206  36.8183693  69.9741317  67.3692632
  37.5377477  70.8935069  68.0890979  37.0937654  70.7016302  67.4725008
  32.7232239  66.6469081  59.0169179  32.1955258  66.7297825  58.3274888
  33.1827947  67.3886952  59.0133824  32.7134089  66.7689743  58.9143874
  39.0590657  67.5936359  65.3179465  38.8200427  67.5532193  64.4800250
  39.2224558  68.4407511  65.4445186  39.0480960  67.7128444  65.2132947
  24.5323555  66.5746482  67.9837389  23.9076626  66.5864874  67.3763342
  24.1969150  67.0506657  68.6328630  24.3909047  66.6464999  67.9893958
  24.7165304  64.9171601  54.0410074  24.3678108  65.5691326  54.5041624
  24.2361750  64.9028714  53.3133946  24.5935548  65.0114654  54.0021166
  32.2769322  75.2172645  58.1478836  33.0003520  75.6830758  58.0043410
  31.8369913  75.2846254  57.3976433  32.3185014  75.2956481  58.0163618
  31.4455477  72.0770187  69.3979525  30.8312470  71.5328237  69.6928161
  31.9622762  71.5634423  68.9185341  31.4311139  71.9206596  69.3703754
  30.6851774  73.1474457  67.1323824  30.2579382  72.5224176  66.6989259
  30.6776718  72.8649379  67.9582831  30.6210915  73.0127238  67.1903651
  31.7434604  60.3500866  70.7563047  31.2475165  60.5464540  70.0654614
  32.5003666  60.7493534  70.5851849  31.7821429  60.4378599  70.6283184
  29.0137483  64.0243211  67.3466358  29.0379971  63.4903324  66.6579138
  29.2648957  63.5160520  68.0091948  29.0547402  63.8704115  67.3431003
  25.2938806  62.7514030  66.7272102  25.3337177  63.2523236  67.4406810
  24.4688470  62.8424423  66.4578025  25.1778332  62.8395846  66.7922640
  26.7153169  69.2674539  69.0246001  25.8845099  69.4348357  68.8181249
  26.6604686  68.8910490  69.8094887  26.5842584  69.2364271  69.1094529
  24.5236952  62.7583432  74.6602412  25.1489656  62.2145565  74.9331844
  24.0687432  62.2778350  74.0910202  24.5485213  62.6072914  74.6164006
  25.0889213  67.5430131  59.5536119  25.2292174  68.0402595  60.2564760
  25.5871746  66.8416425  59.6950333  25.1830294  67.5132110  59.6787698
  25.1189435  68.4097242  56.8828696  25.7534515  69.0057667  56.8178158
  25.2015046  68.1100700  57.6974566  25.2245986  68.4538150  56.9931782
  26.6968418  64.3411217  56.8574138  27.0184259  63.8614300  56.2033400
  26.9595362  65.1510864  56.6664949  26.7834444  64.3901115  56.7329630
  32.0927573  63.7283411  69.2197617  32.5182645  63.2755938  68.6081143
  31.4784566  63.1743482  69.4962404  32.0656218  63.5797388  69.1702642
  21.6242423  70.6065083  60.1518242  22.1334652  71.2029590  60.5329547
  22.0976695  70.3391056  59.4694661  21.7685799  70.6550898  60.1072764
  30.5321796  60.1998511  62.6288194  29.8890114  60.0496158  63.1973332
  30.1921203  59.9540857  61.8637298  30.3866873  60.1410634  62.5991209
  35.1221142  68.1557938  62.0518202  34.4512332  68.6987640  61.9231268
  35.8160893  68.6252793  61.8099897  35.1250010  68.3056209  61.9973730
  35.2849270  64.6113822  64.9608576  35.6376880  64.1843545  65.6354374
  34.4264071  64.5264665  65.0909652  35.2098715  64.5358562  65.0803586
  23.9832955  67.2421341  63.0191422  23.2644944  67.6585474  63.2864286
  24.3545317  67.8075580  62.4683060  23.9324887  67.3870623  62.9774229
  33.2832536  67.8749190  68.9093418  33.2630463  67.6932485  69.7628197
  33.3311736  68.7461209  68.8853002  33.2867177  67.9765729  69.0316713
  29.7579529  66.2819341  58.3564802  29.1644369  66.6036338  57.8049369
  29.7954807  65.4360437  58.1485908  29.6753918  66.2043670  58.2447573
  36.7173330  59.7332234  65.8892888  36.2104195  59.0261373  65.8214066
  37.5140764  59.4025422  66.0193965  36.7600569  59.5805385  65.8991883
  32.6337346  66.2398846  61.7866552  32.4051039  66.2631547  60.9444910
  32.8935422  65.4156313  61.9061562  32.6383534  66.1214926  61.6791750
  26.9156574  68.0933319  71.3891652  26.4035477  67.4854502  71.7476683
  26.7436070  68.8089911  71.8565628  26.8146211  68.1096618  71.5107876
  25.6882108  64.7775392  63.0820748  26.1639475  65.1392472  62.4470929
  25.1870708  65.4331860  63.3620890  25.6847467  64.9269581  63.0297489
  38.9193470  74.2497160  58.8733753  39.3027076  74.9988516  59.1031850
  38.1237583  74.4962980  58.6145742  38.8587252  74.3966854  58.8691326
  30.7925645  66.0157563  73.8293908  31.3497075  65.7871373  73.1972373
  30.4686710  66.7763229  73.5529120  30.8272055  66.0941400  73.6950405
  27.7308761  66.9216592  56.4494132  28.1107726  66.9396221  55.6645246
  26.9901358  67.3670581  56.3284979  27.6777599  66.9898367  56.3157700
  35.3594052  65.2298783  62.0369710  35.3588278  65.0747440  62.8953987
  35.1550232  66.0761770  61.9811096  35.3293830  65.3319404  62.1557650
  17.4211323  68.6538568  66.4528527  17.2433084  68.2015177  67.1783442
  17.1330345  69.4564729  66.6367004  17.3524276  68.7061125  66.5872030
  33.0834904  69.9096285  65.6905917  33.5788569  69.1919280  65.6509937
  32.2734680  69.6067083  65.5760404  33.0378797  69.7593931  65.6679643
  28.5293516  73.7594098  57.8402922  27.7204838  73.4360772  57.7936231
  29.0368424  73.0527320  57.7731170  28.4843182  73.6075414  57.8233216
  19.1583793  71.1866291  63.5650286  18.2929312  71.1751982  63.4533057
  19.2582609  70.9996514  64.4121425  19.0457960  71.1572352  63.6739230
  35.1486723  72.6599972  68.3783046  35.5741794  72.1374394  67.8253471
  34.7843643  73.2580810  67.8571669  35.1573325  72.6710199  68.2192056
  31.7365322  76.3734237  64.7084203  32.2076501  77.0874499  64.8774189
  32.0725501  75.7732987  65.2444073  31.8560437  76.3905701  64.8116579
  28.6534817  61.1461707  71.6642298  28.7862723  60.3492701  71.9923274
  29.0379970  61.6728110  72.2440574  28.7291146  61.1061624  71.7985801
  31.7267172  58.0692033  68.2623391  30.9213136  57.9589763  68.5791230
  31.5973908  58.1704489  67.4053257  31.5887305  58.0675703  68.1831432
  35.1833133  64.2337525  68.8563088  34.5996122  64.7346732  68.4440656
  35.5037427  63.7267081  68.2227412  35.1446308  64.2329360  68.7021595
  27.7227932  63.1478120  59.1321763  28.5443627  63.3176433  58.8903458
  27.2597583  63.3025381  58.4088061  27.7759094  63.1959853  58.9893407
  26.3123264  61.1420882  69.9120192  26.8567677  60.8012009  70.5024534
  26.3660200  62.0006344  70.0541476  26.4012383  61.2176142  70.0202065
  31.9397595  77.1703243  68.0021237  32.7595969  77.0266210  68.2637532
  31.6591673  77.7949442  68.5437675  32.0194338  77.2413596  68.1209177
  38.3386717  78.7622812  64.6907427  38.0090047  79.2133955  64.0211126
  37.6631719  78.6838975  65.2380433  38.1897153  78.8173947  64.6730650
  45.5463125  74.7508335  62.9357038  45.2316566  75.4411813  63.3677460
  45.0290067  74.6953117  62.2342538  45.4227595  74.8443223  62.8953987
  36.5442671  76.8235100  60.1730375  37.2988639  77.1913417  59.9347425
  36.3670206  77.1974655  60.9409554  36.6297150  76.9333288  60.2515263
  34.8999736  79.2305419  56.8708488  34.7175309  79.4477300  56.0449481
  35.7625349  79.3444432  56.9267102  35.0004325  79.2795317  56.7562975
  40.5799455  76.2331830  59.9057512  41.3085615  76.0547785  59.4595668
  40.6694348  77.0749910  60.1164690  40.7006117  76.3315708  59.8711029
  35.6493742  77.6461303  62.7518559  34.7816167  77.7183903  62.8176168
  35.9368946  78.4483382  62.9406534  35.5633490  77.7755451  62.7893326
  42.8177551  78.2221687  61.7527141  43.5203904  78.0229435  61.2747099
  42.5521740  77.4497629  62.0595984  42.8824184  78.0784653  61.7272582
  44.9637660  72.8602357  64.8823687  45.0821229  73.3178820  64.1490990
  44.7899836  72.0547618  64.5959905  44.9556831  72.8096129  64.7324621
  41.9315224  74.7153159  65.8242349  41.0608782  74.6891880  65.7775659
  42.1855565  74.5430351  65.0068195  41.8408784  74.6863303  65.6962486
  41.4390427  78.9949827  58.9504499  41.8934174  79.1660387  59.6752343
  41.9130473  78.3817937  58.5502275  41.5758747  78.9300712  58.9978260
  40.6983023  77.4942620  65.0881367  39.8519068  77.6665428  64.9622717
  40.6954155  76.6891964  65.4247196  40.5730172  77.4003649  65.1192494
  43.6964823  82.1654389  59.0169179  43.1687841  82.2483133  58.3274888
  44.1560531  82.9072260  59.0133824  43.6866673  82.2875051  58.9143874
  37.6701002  79.8596525  56.8574138  37.9916843  79.3799608  56.2033400
  37.9327945  80.6696171  56.6664949  37.7567027  79.9086423  56.7329630
  41.5054380  75.7183819  62.6288194  40.8622697  75.5681466  63.1973332
  41.1653787  75.4726164  61.8637298  41.3599457  75.6595942  62.5991209
  38.6960516  78.6663428  59.1321763  39.5176210  78.8361741  58.8903458
  38.2330167  78.8210689  58.4088061  38.7491678  78.7145161  58.9893407
  15.1864319  15.2090303  47.9004160  15.1558323  16.0634939  48.0722430
  15.7845667  14.9085595  48.4590304  15.2701476  15.2906799  48.0078963
   8.3864003  14.2965954  52.6557091   7.5301899  14.4574452  52.7066208
   8.4331657  13.4258018  52.6762152   8.2663115  14.1916755  52.6663157
   2.7705143  23.8328671  48.4194322   2.0188043  23.4544210  48.1910367
   3.2191155  23.8647105  47.6713133   2.7254810  23.7814279  48.2751824
  11.6957720  20.5652479  62.2617547  12.4024487  20.0704510  62.3904481
  11.8845655  21.0061561  61.5320205  11.8285626  20.5570830  62.1726592
   8.2230103  24.2554041  43.8479869   7.8881472  24.9330963  43.4124092
   8.7356973  23.8659352  43.2596741   8.2495684  24.2978619  43.6966661
   7.7634394  26.2068310  49.7890981   8.1473774  26.7755208  49.2495756
   7.6993536  25.4817820  49.3096797   7.8107822  26.1843773  49.6384844
  11.2315824  16.3557998  55.2988742  11.7771785  17.0343084  55.3582712
  11.1732701  16.2145458  54.4390324  11.3031739  16.4349999  55.1800803
   4.3489899  23.8447064  50.6857095   4.4500262  23.0347418  50.9954223
   3.7531645  23.7504010  50.0556773   4.2762438  23.7112092  50.6383333
  13.0080893  17.7842605  46.1722470  12.8920419  18.5350291  46.6014608
  13.8036780  17.5266558  46.4218557  13.1085483  17.8577452  46.2726562
   4.1890639  28.7624653  52.0871951   4.8328094  29.2037817  52.4768109
   4.5146894  27.9578079  52.0002210   4.3322468  28.7089848  52.1317428
   4.8911219  21.7736628  47.4591813   5.2127060  22.3141835  46.8553121
   5.5383315  21.2033399  47.5914102   5.0337274  21.7695803  47.3898848
   6.9412927  13.7752623  47.5426199   7.6393091  13.9540750  48.0347663
   7.2565259  13.2522962  46.9196589   7.0908264  13.7246395  47.5228209
   7.1300862  20.1623068  47.5305991   7.5694498  19.5540168  47.9760764
   6.9805525  19.7830441  46.7591456   7.1722328  20.0161539  47.4825158
   4.5972505  18.7567079  54.7324816   5.2421508  18.2639523  54.4135765
   4.8374282  18.8991866  55.5590895   4.7283090  18.7044522  54.8074349
   7.1358596  21.6021985  54.3831709   7.4181839  20.8073391  54.1618465
   7.8644757  22.0802573  54.4036770   7.2848160  21.5556582  54.3534724
  10.7310199  18.5150249  44.4836760  10.6461494  19.3711216  44.6286329
  11.2194582  18.2394573  45.1518919  10.7899096  18.6007570  44.6038841
  12.3216198   5.1330542  49.8697085  12.0069639   5.8234021  50.3017507
  11.8043140   5.0775324  49.1682585  12.1980668   5.2265431  49.8294034
  11.6628632  15.1335043  45.9834495  11.1340103  15.3494677  46.6431801
  12.1853652  15.8271182  45.9035464  11.6617085  15.2678180  46.0690094
  17.1176685  20.7081348  51.3567540  16.2874388  20.9191991  51.5200956
  17.0685937  19.8818402  51.0809823  16.9883420  20.6170954  51.3404905
   3.5528240  19.0298260  44.7841963   2.9685455  19.5348291  45.1907827
   3.1498335  18.8040647  44.0438555   3.4067543  19.0706508  44.7346988
   5.1786422  23.5385202  54.1915449   4.6613364  23.1792617  53.5876757
   5.8760814  23.0147376  54.2021515   5.2052003  23.4082890  54.1045708
   8.8350014  23.9880016  60.1531622   8.9233360  23.8006156  61.0009832
   9.2639727  23.3417445  59.7536469   8.9112117  23.8643023  60.2203374
   6.4020474  23.2711176  59.1349284   5.8391309  22.8583786  59.6588946
   7.1641498  23.1964081  59.5542428   6.4314923  23.1988576  59.2742285
   8.0105454  15.2763912  43.2610884   8.2501458  15.4841896  42.4486227
   8.3321295  14.4721421  43.3699828   8.0942612  15.1878013  43.1571437
   1.9616466  25.2609197  51.7385914   2.6637045  24.7461186  51.7958671
   1.8813949  25.5883348  52.5432790   2.0540226  25.2323423  51.8658707
  16.6130643  13.3551748  55.1517961  15.7759064  13.4253935  55.3865555
  16.5818874  13.3576243  54.2792263  16.4848925  13.3661975  55.0577509
   1.2867241  21.4515549  51.2471522   2.1256140  21.6838482  51.2945284
   1.3179010  20.5819860  51.1778558   1.4148959  21.3572495  51.2436167
   1.9119944  21.8716424  55.5484828   2.4518169  21.7287555  56.2188200
   1.2289890  22.2713175  55.9168854   1.8912098  21.9096095  55.7019250
  11.3360829  17.5507425  50.7429852  12.0918344  17.9838939  50.7818761
  11.4423153  16.9012194  51.3164488  11.4630999  17.5184909  50.8327878
  14.3741000  21.3780702  51.4932255  13.9376232  21.3817444  52.2491227
  14.0403915  22.0586201  51.0611833  14.2603620  21.4793158  51.5413088
   8.9470074  23.4189035  62.8175406   9.7310490  23.5319883  63.1831148
   8.7466668  22.5930172  63.0134092   9.0336099  23.3135754  62.9009792
  14.2938483   8.4194530  53.7361683  14.9364391   8.4892634  54.3223599
  14.5461504   7.7523753  53.2341225  14.4260615   8.3320878  53.7488963
   1.2214836  12.8901799  42.3171008   0.5073013  12.6039979  42.7293440
   1.7058805  13.2298425  42.9577395   1.1874199  12.8983449  42.4726643
   9.1040467  25.3299137  56.4641861   8.3055713  25.0898637  56.7215730
   9.5526478  25.3813530  57.2108909   9.0515078  25.3021528  56.6126786
  17.5085346  18.0961622  50.3851893  18.1701780  17.5352290  50.2847801
  16.8676758  17.6013653  50.7104584  17.5114214  17.9398031  50.4184233
   8.3962154  21.3931753  42.6932816   8.8113302  21.0616777  42.0017312
   7.5654084  21.1600656  42.5652953   8.3350163  21.3103009  42.5723663
  13.7950177  19.1127004  50.1263881  14.0305766  19.2572203  49.2990732
  13.9439741  19.8769412  50.5195395  13.8515980  19.2466059  50.0627485
  15.6240634  17.9528670  47.9633485  15.9548851  18.4856310  47.3573580
  16.1973722  18.0067558  48.6195436  15.7574313  18.0398239  47.9711267
  10.8372523  15.7993573  48.6457065  10.9319377  16.5382867  49.0996691
  10.2131366  15.3711048  49.0791630  10.7581553  15.8454893  48.7765213
   9.0924997  18.9779785  59.2947346   9.6663858  18.3407030  59.4495910
   9.0139800  18.9783868  58.4257004   9.1658231  18.8844897  59.1893757
  11.0895544  17.6442313  41.8794017  11.0075707  17.7144500  42.7449004
  11.7275265  18.2072057  41.6877758  11.1715381  17.7381284  41.9783967
   4.4488715  17.4103051  51.3468544   4.1907960  16.5774785  51.3199843
   4.5037198  17.6360664  50.5061044   4.4188493  17.3200822  51.2188680
   9.5289765   9.5131501  51.4472636   8.8246092   9.0240687  51.6056555
   9.5774740   9.5253976  50.5761081   9.4319817   9.4421149  51.3411976
   3.4223427  14.9640813  51.8333438   2.8473019  15.1232981  52.4697399
   3.0459104  14.3276222  51.3701889   3.2826240  14.8938626  51.8587997
   7.0896716  13.4364162  56.6925817   6.7011149  13.0118380  56.0378008
   6.4251414  13.6846312  57.2002843   6.9343644  13.4102883  56.6713685
  16.7319985  13.1939167  49.4673647  16.4756550  12.3819109  49.2771530
  17.5749299  13.2016734  49.2403834  16.8186011  13.0751165  49.4058464
  10.9123078   7.1338791  54.2049801  11.2933589   6.4516962  54.5917675
  10.1086362   6.8448393  54.0225465  10.8499539   6.9905840  54.2353857
   8.1935654  17.6662767  44.8902624   9.0076293  17.9577660  44.7785395
   8.1294796  17.0122629  44.3160917   8.3038393  17.6127962  44.7891461
  14.4145144  20.3488763  59.3032199  14.1783782  19.5176828  59.1844260
  15.0588373  20.2974370  59.8887044  14.4739815  20.2186451  59.3718093
   4.0643563  21.1384284  50.0174936   4.7017509  20.8996032  50.5626729
   4.4898634  21.3421443  49.2828096   4.2219729  21.1335295  49.9892093
   4.7046378  16.3586574  44.3549825   5.0891530  16.1394281  45.1066370
   4.4557998  17.1849520  44.4850902   4.7248450  16.4484720  44.4850902
  15.4381565  20.1333212  55.3660494  15.1327382  20.8661269  55.7273809
  14.7187781  19.7271141  55.0853280  15.2868907  20.1814945  55.3773631
   6.4465034  21.6156707  51.6968722   6.5204043  21.4531879  52.5510572
   7.2634541  21.8046897  51.4529204   6.5781393  21.6193449  51.7866748
  21.1383357  16.7726213  54.6928838  21.0707857  16.7922172  53.8231425
  21.1239020  17.6156540  54.9184509  21.1262114  16.8999947  54.5981315
   4.9869620  24.5791450  46.4282195   5.2767919  24.1880431  45.7041422
   5.7173101  24.7608155  46.8687471   5.1376504  24.5485264  46.3865003
  18.9241975  15.5470599  52.9675433  19.4749896  14.9138668  53.2072525
  18.9086090  16.0785992  53.6590937  19.0027171  15.5319547  53.1054291
   5.5764365  19.3809196  57.5135326   5.0776059  20.0924964  57.5920214
   6.3864590  19.7009863  57.4753488   5.6220472  19.5336045  57.5191895
   2.9275536  26.5558833  49.4942345   2.7075831  26.2656187  50.2869012
   2.7070058  25.8973788  48.9660258   2.8623130  26.4158541  49.5331254
   1.8392483  18.6432149  51.7598047   1.5505732  18.0169620  52.2943774
   2.7075831  18.5852436  51.8262727   1.9252735  18.5419693  51.8489001
  12.6270381  13.7866932  52.0780029  12.2835147  13.0657268  52.4287278
  12.7263423  13.5780784  51.2358387  12.5912424  13.6491136  52.0051709
   5.0943492  27.9288222  48.2773038   5.7467550  27.3964665  48.5064064
   4.3969100  27.5756875  48.6640912   5.0874209  27.7977745  48.3685205
   2.0424756  20.2827400  47.6840412   2.7970724  20.6640439  47.8975874
   1.4495369  20.7338544  48.1387108   2.0661470  20.4056227  47.7823290
  13.0883410  20.2492636  47.6204017  13.6541442  20.9085846  47.5362560
  12.4411313  20.5942335  48.0920419  13.0762166  20.3974578  47.6776773
   3.3622983  21.4535961  53.0580527   2.8403736  21.5936253  53.7432392
   3.7497003  20.6946626  53.2482645   3.3426684  21.3621485  53.1881604
   9.5589988  23.1931421  47.0441096   9.3176664  22.4599281  46.6368161
   9.7391321  23.7418278  46.3907429   9.5497612  23.1653812  46.8871319
   4.7889309  18.4839980  48.4562018   4.5932091  19.0914715  47.8622321
   5.0123654  17.7907924  47.9753692   4.7923950  18.4717506  48.2978099
   3.1867839  15.3694718  48.5742887   3.9090491  15.5335876  48.1146693
   2.7075831  16.0904383  48.4682226   3.2231569  15.4992948  48.4908501
  11.1461346  11.7058517  53.9539572  10.3072447  11.7319796  53.7177835
  11.2165713  12.3529253  54.5344918  11.0329740  11.8054643  54.0048689
   0.8375455  17.7752791  57.6797027   1.3496552  18.0537044  57.0305786
   0.5511798  18.5142085  58.0459840   0.8710318  17.9255144  57.6386905
   9.5930624   8.6043894  48.6867188  10.2956977   8.4051642  48.2087146
   9.3274813   7.8319837  48.9936031   9.6577257   8.4606860  48.6612629
  15.0218870  16.9126504  51.2400813  14.9352845  17.0681930  52.0935592
  14.5669350  17.5564579  50.8660218  14.9422127  17.0302259  51.3107920
   8.8944686  14.2337251  49.8626373   8.6479400  14.1533002  50.6963162
   9.2229809  13.4490719  49.6688900   8.9065930  14.1063516  49.9573896
  12.7892735  20.9420610  53.6513154  12.6507094  21.6401656  54.1561897
  12.0092733  20.7869267  53.2949336  12.6535962  21.0220777  53.6739428
  11.1270820  17.2416986  59.9035536  11.1218859  16.3696802  59.9077962
  11.8331814  17.4405155  59.4304992  11.2315824  17.1420860  59.8342571
   4.8541713  16.9693970  59.2749356   4.9985089  17.5495178  58.6392466
   5.2017362  17.3470266  59.9799211   4.9269175  17.1114674  59.2848351
   7.0261631  16.1684138  57.0574488   6.2784945  16.3615152  56.6522766
   7.1803156  15.3429358  56.8198609   6.9384058  16.0749249  56.9619893
   3.9269468  25.1596741  56.1410383   4.0759032  24.5999657  55.4883787
   4.7069470  25.2388743  56.5242902   4.0643562  25.0882307  56.1007332
  14.2846108  20.2998864  44.4129653  13.9052916  19.5136002  44.4058943
  13.6212353  20.8485721  44.2701298  14.1304583  20.2643688  44.3910450
   6.4522769  25.3311384  57.4194874   6.3766440  24.6620195  57.9745662
   6.3812628  26.0329172  57.9335540   6.4303376  25.3356292  57.5771722
   5.1445786  12.0536793  54.7911715   4.3541860  11.8728253  55.1129051
   5.5406408  11.2763745  54.7742010   5.0862662  11.9124254  54.8364264
   9.6311676  20.8824567  40.2318429  10.3984662  20.9424692  39.8224281
   9.1842985  20.3105008  39.7474747   9.6785104  20.8061143  40.0996139
  10.5289472  19.6879223  52.5171161   9.8534474  19.4564455  53.0184548
  10.5381848  19.0800406  51.8913266  10.4307976  19.5638148  52.4987314
   7.6583616  14.5297052  59.2735214   7.5942757  15.3907008  59.1455351
   7.7980804  14.2129045  58.4730766   7.6699086  14.6097218  59.1363427
  12.5306207  22.5444355  44.7481339  12.6126044  23.3511341  44.4242790
  13.0155949  22.5640314  45.4722113  12.6143364  22.6665018  44.8068238
   6.3402710  17.2229191  53.4151417   5.9164959  17.4233690  52.6790436
   6.1647565  16.3758039  53.5275717   6.2513590  17.1277973  53.3225107
   5.8414403  28.7379704  55.8772874   6.3310334  28.0390493  55.6948539
   5.2698636  28.4403574  56.4648932   5.8298933  28.5905928  55.9373915
   1.6285155  17.7181243  48.8479390   1.7849774  17.6528045  49.7035382
   1.9685748  18.4929795  48.6358069   1.7018390  17.8230441  48.9433984
   8.1664299  17.0939126  47.7172753   8.7079845  16.5909507  48.1811373
   8.4810858  17.0404321  46.9062238   8.2928696  17.0118547  47.6656565
  12.0381407  21.3041773  64.8299665  12.8516272  21.0326922  64.9904798
  11.8776373  21.0049313  64.0259861  12.1351355  21.2196699  64.7345071
   6.3350749  22.4856478  45.0012781   6.4043569  21.6271016  45.1405781
   7.1139204  22.7028359  44.6731806   6.4603599  22.3909342  44.9729938
   9.3153569  11.9875431  57.7695053   9.5295538  11.3486345  57.2158407
   8.6987468  12.4321254  57.3402915   9.2558898  11.9585574  57.6245484
  10.7258237  24.9094179  49.2149274  10.3338028  24.6060894  48.4972140
  10.8811309  25.7463269  49.0254228  10.6911827  24.9878016  49.0805771
  11.4792657  13.5964496  58.7078360  10.6669338  13.2890386  58.7891533
  11.9382591  13.1163496  59.2721073  11.4273042  13.4800988  58.8032955
  10.8897911  21.4744168  49.1555305  10.5312566  21.6458811  49.9319337
  10.4036622  21.9357373  48.5983303  10.7656608  21.5683139  49.1880574
   5.6786277  17.1543333  41.6955539   5.9678802  17.9308216  41.9699113
   5.7658076  16.6432065  42.3970038   5.7340533  17.1935252  41.8398037
  12.0502651  22.3648064  60.1022506  12.6882371  21.8708259  59.7684962
  11.4076742  22.2925464  59.5174733  12.0496877  22.2807072  59.9664861
  13.7759651  14.2137210  54.6688421  13.3487259  14.1263558  53.9136521
  13.1385704  14.3214985  55.2543265  13.6189258  14.2169870  54.6433863
  12.1056907  23.0567872  56.7427862  12.8949286  22.7056937  56.8629944
  12.2800505  23.8704260  56.4804496  12.2477189  23.1253729  56.7215730
   1.8450218  16.4676598  53.7955651   1.0038224  16.3680472  54.0034545
   2.0540226  17.2372078  54.1469972   1.7514910  16.5668641  53.8782966
  10.9590732   7.0677429  51.3044281  11.1640325   6.9999737  52.1501278
  10.6317156   7.8736250  51.2365458  10.9405979   7.1763369  51.4203936
   5.6566883  14.3957997  53.0453249   5.3530020  13.8413985  53.6463656
   4.9546303  14.5750207  52.5581283   5.5083092  14.3402779  53.0622954
   4.7132980  11.7058517  47.6097951   4.9892714  10.9877429  47.1975518
   5.3131649  12.3043437  47.4019057   4.8426244  11.6878887  47.5178712
   3.7185234  21.6107718  57.7525347   3.6105589  21.6209780  58.6187405
   3.9281015  22.4362498  57.5630300   3.7335345  21.7348792  57.8529438
  14.2124419   7.6209193  50.7847046  13.5998733   8.1079595  51.1700778
  14.3088594   6.9452684  51.3284697  14.1362317   7.5927502  50.9225905
   8.2143500   9.3772034  45.8844546   8.6687247   9.5482595  46.6092390
   8.6883546   8.7640145  45.4842321   8.3511820   9.3122919  45.9318307
   1.7359026  18.8620360  55.2147284   1.1446959  19.5029858  55.1850299
   2.4980049  19.2857977  55.1878584   1.7607286  19.0196198  55.2062431
  17.8549447  18.6926130  56.2124562  17.9132571  19.1412779  56.9584539
  17.2215915  19.1024943  55.7754642  17.7700742  18.8199864  56.2577111
  11.4948542  24.3129672  52.6479309  11.2968231  24.8020486  51.9535520
  10.8736253  24.5170913  53.2263442  11.3736106  24.4146210  52.6302532
   5.5556520  16.0814568  46.9889553   6.2998565  16.4688845  47.2272503
   5.7017216  15.2371994  47.1530041   5.6867105  16.0145041  47.0483523
   8.5434396  11.6540042  52.8883472   8.0694350  11.1281804  53.3988783
   8.9152532  11.1069515  52.3198334   8.5284285  11.4956038  52.8798619
  14.8071127  16.7142417  54.2990253  14.5669350  15.8748833  54.3032679
  15.2863134  16.7942584  55.0231026  14.8423310  16.6023817  54.4065055
  10.4717896  12.5476596  45.9509226   9.9440914  12.6305340  45.2614935
  10.9313604  13.2894468  45.9473871  10.4619746  12.6697259  45.8483921
  16.8076314  13.4943875  52.2519512  16.5686084  13.4539709  51.4140296
  16.9710215  14.3415027  52.3785233  16.7966617  13.6135960  52.1472994
  13.4122344  17.8793824  58.1824557  14.1356543  17.4266350  58.0035577
  13.1472306  18.1598490  57.3996885  13.4803617  17.8544792  58.0403272
   2.2809212  12.4753998  54.9177436   1.6562282  12.4872389  54.3103389
   1.9454807  12.9514173  55.5668676   2.1394704  12.5472514  54.9234005
  10.0254978  21.1180160  45.0818883  10.7489177  21.5838273  44.9383456
   9.5855569  21.1853770  44.3316480  10.0670671  21.1963997  44.9503664
   9.1941133  17.9777702  56.3319572   8.5798126  17.4335752  56.6268207
   9.7108418  17.4641939  55.8525388   9.1796796  17.8214111  56.3043800
   8.4337431  19.0481972  54.0663871   8.0065039  18.4231691  53.6329306
   8.4262375  18.7656894  54.8922878   8.3696572  18.9134753  54.1243698
   6.7623140   9.9250727  54.2806405   6.7865627   9.3910839  53.5919185
   7.0134614   9.4168036  54.9431995   6.8033059   9.7711631  54.2771049
   4.4638826  15.1682055  55.9586048   3.6330755  15.3355873  55.7521296
   4.4090343  14.7918006  56.7434933   4.3328241  15.1371786  56.0434576
   2.8374870  13.4437646  46.4876166   2.9777831  13.9410111  47.1904807
   3.3357402  12.7423941  46.6290379   2.9315951  13.4139625  46.6127745
   2.8675092  14.3104757  43.8168743   3.5020172  14.9065182  43.7518204
   2.9500703  14.0108215  44.6314613   2.9731643  14.3545666  43.9271829
  15.8457658  16.8420235  56.6855107  16.4375498  17.4817485  56.7173305
  16.2816652  16.1443272  56.9747174  15.9976089  16.8338585  56.7335939
   4.4454075  10.2418733  43.7914185   4.7669916   9.7621815  43.1373447
   4.7081019  11.0518379  43.6004996   4.5320100  10.2908631  43.6669677
   7.6751048  21.2637607  57.3113001   7.1676139  21.8173454  57.7553631
   7.3777694  21.3245897  56.4931775   7.5555933  21.3543918  57.2561457
   9.8413230   9.6290927  56.1537664  10.2668301   9.1763453  55.5421190
   9.2270223   9.0750997  56.4302451   9.8141875   9.4804903  56.1042689
  10.2858828  25.1800865  45.2416944   9.5688138  25.0061727  44.7764181
  10.9365566  24.9453437  44.7092430  10.2760678  25.1196657  45.0946162
  12.8706799  14.0565453  48.9858249  12.1997989  14.5995156  48.8571315
  13.5646549  14.5260309  48.7439944  12.8735667  14.2063725  48.9313777
   6.9193533  26.1962165  54.2170008   6.6959187  25.4380995  54.5854034
   6.4303376  26.2260187  53.4950447   6.8136982  26.0884390  54.1646748
  13.0334927  10.5121337  51.8948622  13.3862537  10.0851060  52.5694421
  12.1749728  10.4272181  52.0249699  12.9584371  10.4366078  52.0143633
   1.7318612  13.1428857  49.9531469   1.0130601  13.5592989  50.2204333
   2.1030974  13.7083096  49.4023107   1.6810543  13.2878138  49.9114276
  11.0318192  13.7756706  55.8433465  11.0116120  13.5940001  56.6968244
  11.0797393  14.6468724  55.8193048  11.0352833  13.8773244  55.9656759
   8.9764522  20.3643898  61.7681941   8.9360377  19.7193575  61.1827097
   9.7887841  20.3080515  62.0807353   9.0907676  20.2602864  61.7278890
   5.5671990  26.4162624  51.6707092   5.1532389  25.7536754  51.2810934
   6.2519364  26.5640482  51.1502786   5.6070362  26.3403282  51.5363589
   8.9337284  25.5752709  52.4230709   8.5353567  25.6854979  51.6551529
   8.3188504  25.7834775  53.0057269   8.7836173  25.6226277  52.3962008
   7.5065186  12.1826857  45.2904848   6.9130025  12.5043853  44.7389415
   7.5440464  11.3367952  45.0825955   7.4239575  12.1051185  45.1787620
  14.4658987   5.6339749  52.8232935  13.9589851   4.9268888  52.7554112
  15.2626420   5.3032938  52.9534012  14.5086226   5.4812900  52.8331930
  10.3823003  12.1406361  48.7206599  10.1536696  12.1639063  47.8784957
  10.6421079  11.3163828  48.8401609  10.3869191  12.0222441  48.6131796
   3.4367765  10.6782907  50.0160794   3.9125131  11.0399987  49.3810975
   2.9356365  11.3339375  50.2960937   3.4333124  10.8277096  49.9637535
  16.6679127  20.1504675  45.8073799  17.0512732  20.8996032  46.0371896
  15.8723240  20.3970495  45.5485788  16.6072909  20.2974369  45.8031373
   5.4794418  12.8224107  43.3834178   5.8593383  12.8403736  42.5985293
   4.7387014  13.2678096  43.2625026   5.4263256  12.8905882  43.2497746
  13.1079709  11.1306298  48.9709757  13.1073935  10.9754955  49.8294033
  12.9035889  11.9769285  48.9151143  13.0779487  11.2326919  49.0897696
  10.8320561  15.8103800  52.6245964  11.3274226  15.0926795  52.5849984
  10.0220337  15.5074598  52.5100451  10.7864454  15.6601446  52.6019690
   6.2779172  19.6601613  44.7742968   5.4690495  19.3368287  44.7276278
   6.7854081  18.9534836  44.7071217   6.2328839  19.5082930  44.7573263
  12.8972380  18.5607488  55.3123093  13.3227451  18.0381910  54.7593518
  12.5329300  19.1588325  54.7911716  12.9058982  18.5717715  55.1532102
   2.5326460  26.8571705  54.0720438   2.8473018  27.6708094  54.0798220
   2.9419873  26.4721924  54.7402597   2.6394558  26.9200408  54.1724530
   9.4850979  22.2741752  51.6424250   9.9562157  22.9882015  51.8114235
   9.8211158  21.6740502  52.1784120   9.6046094  22.2913216  51.7456626
  11.5727964  23.8843065  63.8216322  11.6824929  23.0951626  64.1773069
  11.9018860  23.7949002  63.0190660  11.6380370  23.7548918  63.7558713
  10.1224925  22.0659686  58.4051943   9.5745871  21.4417570  58.1372008
  10.5837954  22.2553958  57.6896022  10.1092135  22.0018736  58.2602374
  12.9318790  10.1345041  55.7903135  12.3481779  10.6354247  55.3780702
  13.2523084   9.6274597  55.1567458  12.8931965  10.1336876  55.6361642
   5.4713589   9.0485635  46.0661810   6.2929283   9.2183948  45.8243505
   5.0083240   9.2032896  45.3428107   5.5244751   9.0967368  45.9233454
   9.6883252  23.0710759  54.9361284  10.5081626  22.9273725  55.1977579
   9.4077329  23.6956958  55.4777722   9.7679995  23.1421111  55.0549223
  26.1596902  30.7275610  47.9004160  26.1290907  31.5820247  48.0722430
  26.7578251  30.4270903  48.4590304  26.2434060  30.8092107  48.0078963
  19.3596587  29.8151262  52.6557091  18.5034483  29.9759760  52.7066208
  19.4064241  28.9443325  52.6762152  19.2395698  29.7102063  52.6663157
  13.7437727  39.3513979  48.4194322  12.9920626  38.9729518  48.1910367
  14.1923738  39.3832413  47.6713133  13.6987394  39.2999587  48.2751824
  22.6690304  36.0837787  62.2617547  23.3757071  35.5889818  62.3904481
  22.8578239  36.5246869  61.5320205  22.8018209  36.0756137  62.1726592
  19.1962687  39.7739349  43.8479869  18.8614055  40.4516270  43.4124092
  19.7089557  39.3844660  43.2596741  19.2228268  39.8163927  43.6966661
  18.7366978  41.7253618  49.7890981  19.1206357  42.2940516  49.2495756
  18.6726119  41.0003128  49.3096797  18.7840405  41.7029081  49.6384844
  22.2048408  31.8743305  55.2988742  22.7504368  32.5528392  55.3582712
  22.1465284  31.7330766  54.4390324  22.2764322  31.9535307  55.1800803
  15.3222483  39.3632372  50.6857095  15.4232846  38.5532725  50.9954223
  14.7264228  39.2689318  50.0556773  15.2495022  39.2297400  50.6383333
  23.9813477  33.3027913  46.1722470  23.8653003  34.0535599  46.6014608
  24.7769363  33.0451866  46.4218557  24.0818066  33.3762759  46.2726562
  15.1623223  44.2809961  52.0871951  15.8060678  44.7223125  52.4768109
  15.4879478  43.4763387  52.0002210  15.3055051  44.2275155  52.1317428
   8.5187527  35.3852658  50.3109428   8.2837712  34.5520310  50.2041697
   8.6573168  35.6657324  49.4970629   8.5043190  35.3036162  50.1751783
  10.8177615  27.5538389  53.2093736  10.1982646  26.9631036  53.0403751
  10.7161478  28.1449824  52.5758059  10.7115290  27.5542471  53.0898726
  15.8643802  37.2921936  47.4591813  16.1859643  37.8327143  46.8553121
  16.5115899  36.7218707  47.5914102  16.0069857  37.2881111  47.3898848
  17.9145510  29.2937931  47.5426199  18.6125675  29.4726058  48.0347663
  18.2297843  28.7708270  46.9196589  18.0640847  29.2431703  47.5228209
  10.5446748  31.0990670  55.4537305  10.4205445  31.6853116  56.0887124
  11.1965032  30.6050866  55.7549580  10.6220397  31.1129475  55.5923234
  18.1033446  35.6808376  47.5305991  18.5427081  35.0725476  47.9760764
  17.9538109  35.3015749  46.7591456  18.1454911  35.5346847  47.4825158
  15.5705089  34.2752387  54.7324816  16.2154091  33.7824830  54.4135765
  15.8106866  34.4177174  55.5590895  15.7015674  34.2229830  54.8074349
  18.1091180  37.1207293  54.3831709  18.3914423  36.3258699  54.1618465
  18.8377340  37.5987881  54.4036770  18.2580744  37.0741890  54.3534724
  16.0872374  24.6630327  51.6247474  15.7575704  25.1141471  50.9551173
  15.4117376  24.5846491  52.1720480  15.9382810  24.7181462  51.6070697
  21.7042782  34.0335557  44.4836760  21.6194077  34.8896523  44.6286329
  22.1927165  33.7579881  45.1518919  21.7631679  34.1192878  44.6038841
  23.2948782  20.6515850  49.8697085  22.9802223  21.3419329  50.3017507
  22.7775723  20.5960632  49.1682585  23.1713252  20.7450739  49.8294034
  22.6361215  30.6520351  45.9834495  22.1072687  30.8679985  46.6431801
  23.1586235  31.3456489  45.9035464  22.6349668  30.7863488  46.0690094
  14.5260823  34.5483568  44.7841963  13.9418038  35.0533599  45.1907827
  14.1230918  34.3225955  44.0438555  14.3800127  34.5891816  44.7346988
  10.0804852  40.2638329  51.5865635   9.5972430  40.9888819  51.5625218
  10.8928170  40.5614459  51.6975792  10.1295600  40.4140683  51.5992914
  16.1519006  39.0570510  54.1915449  15.6345948  38.6977925  53.5876757
  16.8493397  38.5332684  54.2021515  16.1784587  38.9268198  54.1045708
  19.8082598  39.5065324  60.1531622  19.8965944  39.3191464  61.0009832
  20.2372310  38.8602753  59.7536469  19.8844700  39.3828331  60.2203374
  17.3753058  38.7896484  59.1349284  16.8123892  38.3769093  59.6588946
  18.1374081  38.7149389  59.5542428  17.4047506  38.7173884  59.2742285
  18.9838038  30.7949220  43.2610884  19.2234041  31.0027204  42.4486227
  19.3053879  29.9906729  43.3699828  19.0675196  30.7063321  43.1571437
  14.2928328  22.7242616  47.1070422  15.0474296  23.0920933  46.8687472
  14.1155863  23.0982170  47.8749601  14.3782806  22.8340803  47.1855310
  12.9349049  40.7794505  51.7385914  13.6369628  40.2646494  51.7958671
  12.8546532  41.1068656  52.5432790  13.0272810  40.7508731  51.8658707
  13.9827956  31.0170092  60.8666330  14.1548459  30.9075986  61.7151611
  14.5197313  31.6624497  60.6297522  14.0872960  31.0962093  60.9571426
  12.6485393  25.1312935  43.8048535  12.4660966  25.3484815  42.9789527
  13.5111006  25.2451947  43.8607149  12.7489982  25.1802832  43.6903022
  12.2599825  36.9700857  51.2471522  13.0988724  37.2023790  51.2945284
  12.2911594  36.1005168  51.1778558  12.3881542  36.8757803  51.2436167
  12.8852528  37.3901732  55.5484828  13.4250753  37.2472863  56.2188200
  12.2022474  37.7898483  55.9168854  12.8644681  37.4281403  55.7019250
  18.3285112  22.1339345  46.8397558  19.0571272  21.9555300  46.3935715
  18.4180005  22.9757425  47.0504737  18.4491774  22.2323224  46.8051076
  22.3093412  33.0692733  50.7429852  23.0650927  33.5024247  50.7818761
  22.4155737  32.4197502  51.3164488  22.4363583  33.0370216  50.8327878
  25.3473584  36.8966010  51.4932255  24.9108815  36.9002752  52.2491227
  25.0136499  37.5771509  51.0611833  25.2336204  36.9978466  51.5413088
  19.9202657  38.9374343  62.8175406  20.7043074  39.0505190  63.1831148
  19.7199252  38.1115480  63.0134092  20.0068683  38.8321062  62.9009792
   8.2889673  33.6102023  55.7019250   8.0228088  32.7941139  55.8610240
   8.3028237  33.6555178  54.8314765   8.2514395  33.4958928  55.5972732
  25.2671066  23.9379838  53.7361683  25.9096975  24.0077942  54.3223599
  25.5194087  23.2709061  53.2341225  25.3993199  23.8506186  53.7488963
  12.1947420  28.4087107  42.3171008  11.4805597  28.1225287  42.7293440
  12.6791388  28.7483733  42.9577395  12.1606783  28.4168757  42.4726643
  13.0388279  27.1480401  58.3486257  12.3460076  26.6777381  58.5946989
  13.6548606  26.9218706  58.9227964  13.0272809  27.0447533  58.4695410
  20.0773051  40.8484445  56.4641861  19.2788296  40.6083945  56.7215730
  20.5259062  40.8998838  57.2108909  20.0247662  40.8206836  56.6126786
  19.3694738  36.9117061  42.6932816  19.7845886  36.5802085  42.0017312
  18.5386667  36.6785963  42.5652953  19.3082746  36.8288317  42.5723663
   8.6983086  34.3960802  52.9830994   8.5158660  34.3707688  52.1303286
   9.4332755  34.8659740  53.0219903   8.7797150  34.4622164  52.8628912
  24.7682760  34.6312312  50.1263881  25.0038350  34.7757511  49.2990732
  24.9172324  35.3954720  50.5195395  24.8248564  34.7651367  50.0627485
  11.7628838  31.1145805  59.4913102  12.4868810  31.0998836  59.9777997
  11.8644974  31.8241160  58.9935071  11.8847047  31.2170508  59.4891889
  26.5973217  33.4713978  47.9633485  26.9281434  34.0041618  47.3573580
  27.1706305  33.5252866  48.6195436  26.7306896  33.5583547  47.9711267
  19.1373787  34.5944890  64.3562049  18.3446768  34.9088402  64.5414669
  19.2522714  34.8096358  63.5182834  19.0369198  34.6728726  64.2600384
  21.8105106  31.3178881  48.6457065  21.9051961  32.0568175  49.0996691
  21.1863950  30.8896356  49.0791630  21.7314136  31.3640201  48.7765213
  20.0657580  34.4965093  59.2947346  20.6396442  33.8592338  59.4495910
  19.9872384  34.4969176  58.4257004  20.1390815  34.4030205  59.1893757
   8.6653997  31.2754303  53.1330060   9.2427499  31.1390754  53.7722306
   7.9668058  30.8190087  53.3875645   8.6475018  31.1876569  53.2652350
  22.0628128  33.1627621  41.8794017  21.9808290  33.2329808  42.7449004
  22.7007848  33.7257365  41.6877758  22.1447965  33.2566592  41.9783967
  15.4221299  32.9288359  51.3468544  15.1640543  32.0960093  51.3199843
  15.4769782  33.1545972  50.5061044  15.3921077  32.8386130  51.2188680
  20.5022349  25.0316809  51.4472636  19.7978676  24.5425995  51.6056555
  20.5507323  25.0439284  50.5761081  20.4052401  24.9606457  51.3411976
  14.3956011  30.4826121  51.8333438  13.8205602  30.6418289  52.4697399
  14.0191687  29.8461530  51.3701889  14.2558823  30.4123934  51.8587997
  18.0629300  28.9549470  56.6925817  17.6743732  28.5303688  56.0378008
  17.3983998  29.2031620  57.2002843  17.9076227  28.9288191  56.6713685
  27.7052569  28.7124475  49.4673647  27.4489134  27.9004416  49.2771530
  28.5481883  28.7202042  49.2403834  27.7918594  28.5936472  49.4058464
   4.1412830  30.1266196  49.8477879   4.2273082  29.7498064  50.6291409
   4.7688627  29.7526641  49.3697837   4.2469381  30.0151678  49.8923356
  21.8855661  22.6524099  54.2049801  22.2666173  21.9702270  54.5917675
  21.0818945  22.3633701  54.0225465  21.8232123  22.5091148  54.2353857
  19.1668238  33.1848075  44.8902624  19.9808877  33.4762968  44.7785395
  19.1027379  32.5307937  44.3160917  19.2770977  33.1313270  44.7891461
  25.3877728  35.8674071  59.3032199  25.1516365  35.0362136  59.1844260
  26.0320957  35.8159678  59.8887044  25.4472399  35.7371759  59.3718093
  15.0376146  36.6569592  50.0174936  15.6750093  36.4181340  50.5626729
  15.4631218  36.8606751  49.2828096  15.1952312  36.6520603  49.9892093
   9.7288789  38.8957929  53.9009240   9.7692934  39.1672780  53.0729019
  10.2883313  39.4199837  54.3167028   9.8172134  39.0133684  53.8401128
  15.6778961  31.8771882  44.3549825  16.0624114  31.6579589  45.1066370
  15.4290581  32.7034828  44.4850902  15.6981034  31.9670028  44.4850902
  15.8447502  25.1578297  64.0712409  15.5300943  25.9277860  63.8081972
  15.5237434  24.5948553  63.4864636  15.7506421  25.1888566  63.9453759
  17.4197618  37.1342015  51.6968722  17.4936626  36.9717187  52.5510572
  18.2367124  37.3232205  51.4529204  17.5513977  37.1378757  51.7866748
  11.1803375  37.4799878  48.7263166  10.3541492  37.7261615  48.5997444
  11.2415366  37.4011959  49.5925224  11.0677542  37.5044827  48.8352110
  13.3979399  23.5468819  49.6858606  12.5301824  23.6191418  49.7516215
  13.6854603  24.3490898  49.8746581  13.3119147  23.6762966  49.7233372
  22.5212287  23.6946678  58.0169928  23.2665879  23.5056489  57.6033353
  22.1049592  24.2204916  57.4583784  22.5697261  23.7448824  57.8734501
  15.9602204  40.0976758  46.4282195  16.2500502  39.7065739  45.7041422
  16.6905685  40.2793463  46.8687471  16.1109088  40.0670572  46.3865003
  16.5496949  34.8994504  57.5135326  16.0508643  35.6110272  57.5920214
  17.3597173  35.2195171  57.4753488  16.5953056  35.0521353  57.5191895
  13.9008119  42.0744140  49.4942345  13.6808415  41.7841495  50.2869012
  13.6802641  41.4159095  48.9660258  13.8355714  41.9343849  49.5331254
  12.8125067  34.1617457  51.7598047  12.5238315  33.5354928  52.2943774
  13.6808415  34.1037744  51.8262727  12.8985318  34.0605001  51.8489001
  23.6002964  29.3052240  52.0780029  23.2567730  28.5842576  52.4287278
  23.6996007  29.0966092  51.2358387  23.5645007  29.1676444  52.0051709
  16.0676075  43.4473530  48.2773038  16.7200133  42.9149973  48.5064064
  15.3701684  43.0942183  48.6640912  16.0606793  43.3163053  48.3685205
  13.0157340  35.8012708  47.6840412  13.7703308  36.1825747  47.8975874
  12.4227953  36.2523852  48.1387108  13.0394054  35.9241535  47.7823290
  24.0615993  35.7677944  47.6204017  24.6274026  36.4271154  47.5362560
  23.4143897  36.1127642  48.0920419  24.0494750  35.9159886  47.6776773
  15.4764007  27.7575548  62.8097624  14.6663783  28.0633328  62.6987467
  15.9538694  28.4781131  62.9250208  15.4267486  27.9090150  62.8104695
  14.3355567  36.9721269  53.0580527  13.8136320  37.1121561  53.7432392
  14.7229587  36.2131934  53.2482645  14.3159267  36.8806793  53.1881604
  11.3246751  27.0227078  47.1275482  11.0371546  26.6528349  46.3907429
  12.0117219  27.4921933  46.8659187  11.3835648  27.0374047  46.9790558
  20.5322572  38.7116729  47.0441096  20.2909247  37.9784589  46.6368161
  20.7123904  39.2603586  46.3907429  20.5230195  38.6839120  46.8871319
  15.7621892  34.0025288  48.4562018  15.5664675  34.6100023  47.8622321
  15.9856238  33.3093232  47.9753692  15.7656533  33.9902814  48.2978099
  14.1600422  30.8880026  48.5742887  14.8823074  31.0521184  48.1146693
  13.6808415  31.6089691  48.4682226  14.1964153  31.0178256  48.4908501
  22.1193930  27.2243825  53.9539572  21.2805030  27.2505104  53.7177835
  22.1898297  27.8714561  54.5344918  22.0062323  27.3239951  54.0048689
  11.8108039  33.2938099  57.6797027  12.3229136  33.5722352  57.0305786
  11.5244381  34.0327393  58.0459840  11.8442902  33.4440452  57.6386905
  20.5663208  24.1229202  48.6867188  21.2689561  23.9236950  48.2087146
  20.3007397  23.3505144  48.9936031  20.6309840  23.9792168  48.6612629
   8.8974945  27.8008291  47.9760763   8.9991082  28.6034452  48.3041739
   9.6930832  27.5995626  47.6783844   9.0302851  27.8894189  47.9796118
  15.3291764  25.3864487  57.7398068  15.1374961  25.4019622  58.5897492
  16.1790360  25.5828162  57.7164723  15.4267486  25.4178838  57.8621363
   9.7138677  27.9155469  55.7181885   9.5724169  27.0639409  55.8426393
   9.9979241  27.9584129  54.8944091   9.7346523  27.7955219  55.6149509
  19.8677270  29.7522559  49.8626373  19.6211984  29.6718310  50.6963162
  20.1962393  28.9676027  49.6688900  19.8798513  29.6248824  49.9573896
  23.7625318  36.4605918  53.6513154  23.6239678  37.1586964  54.1561897
  22.9825316  36.3054575  53.2949336  23.6268545  36.5406085  53.6739428
  22.1003404  32.7602294  59.9035536  22.0951442  31.8882110  59.9077962
  22.8064397  32.9590463  59.4304992  22.2048408  32.6606168  59.8342571
  15.8274297  32.4879278  59.2749356  15.9717673  33.0680486  58.6392466
  16.1749945  32.8655574  59.9799211  15.9001758  32.6299982  59.2848351
  17.9994214  31.6869446  57.0574488  17.2517528  31.8800460  56.6522766
  18.1535740  30.8614665  56.8198609  17.9116642  31.5934557  56.9619893
  14.9002052  40.6782049  56.1410383  15.0491616  40.1184965  55.4883787
  15.6802054  40.7574051  56.5242902  15.0376146  40.6067615  56.1007332
  25.2578691  35.8184172  44.4129653  24.8785500  35.0321310  44.4058943
  24.5944937  36.3671029  44.2701298  25.1037166  35.7828996  44.3910450
  17.4255353  40.8496692  57.4194874  17.3499024  40.1805503  57.9745662
  17.3545212  41.5514480  57.9335540  17.4035959  40.8541600  57.5771722
  18.2395991  25.5819997  57.9469891  18.6968605  26.3143971  58.0742684
  18.3152320  25.1586462  58.7057147  18.3186961  25.6277235  58.0770968
  10.4828983  25.8285816  59.0359335   9.9471172  25.2166175  59.3520102
  10.5446747  26.4033952  59.6893002  10.4124615  25.8232744  59.1794762
  22.7123317  18.7609872  51.8163734  22.8306885  19.2186335  51.0831037
  22.5385493  17.9555133  51.5299952  22.7042488  18.7103644  51.6664668
  18.0825599  39.3697691  48.2518480  18.8475491  39.1007335  47.9301144
  17.9803689  38.8847701  48.9688542  18.1807095  39.2587256  48.3098307
  16.1178369  27.5722101  54.7911715  15.3274444  27.3913561  55.1129051
  16.5138992  26.7949053  54.7742010  16.0595245  27.4309561  54.8364264
  21.5022056  35.2064531  52.5171161  20.8267057  34.9749763  53.0184548
  21.5114432  34.5985714  51.8913266  21.4040560  35.0823456  52.4987314
  18.6316200  30.0482360  59.2735214  18.5675341  30.9092316  59.1455351
  18.7713387  29.7314353  58.4730766  18.6431670  30.1282526  59.1363427
  17.3135293  32.7414499  53.4151417  16.8897543  32.9418998  52.6790436
  17.1380149  31.8943347  53.5275717  17.2246174  32.6463281  53.3225107
  16.8146987  44.2565012  55.8772874  17.3042917  43.5575801  55.6948539
  16.2431219  43.9588882  56.4648932  16.8031517  44.1091236  55.9373915
  12.6017738  33.2366550  48.8479390  12.7582358  33.1713353  49.7035382
  12.9418331  34.0115103  48.6358069  12.6750973  33.3415749  48.9433984
  19.1396883  32.6124434  47.7172753  19.6812428  32.1094815  48.1811373
  19.4543442  32.5589629  46.9062238  19.2661280  32.5303855  47.6656565
  23.0113990  36.8227081  64.8299665  23.8248856  36.5512230  64.9904798
  22.8508957  36.5234621  64.0259861  23.1083939  36.7382007  64.7345071
  17.3083333  38.0041786  45.0012781  17.3776153  37.1456324  45.1405781
  18.0871788  38.2213666  44.6731806  17.4336183  37.9094650  44.9729938
  20.2886152  27.5060739  57.7695053  20.5028122  26.8671653  57.2158407
  19.6720052  27.9506562  57.3402915  20.2291482  27.4770882  57.6245484
  21.6990820  40.4279487  49.2149274  21.3070612  40.1246202  48.4972140
  21.8543892  41.2648577  49.0254228  21.6644410  40.5063324  49.0805771
   9.1752000  30.4201501  49.1640157   9.5550965  30.8386046  48.5000424
   8.6007365  31.0014957  49.4709000   9.1463325  30.5679360  49.1116898
  22.4525240  29.1149804  58.7078360  21.6401922  28.8075694  58.7891533
  22.9115175  28.6348804  59.2721073  22.4005625  28.9986296  58.8032955
  21.8630495  36.9929476  49.1555305  21.5045150  37.1644119  49.9319337
  21.3769206  37.4542681  48.5983303  21.7389192  37.0868447  49.1880574
  19.6800881  20.6160674  52.7582396  18.8094439  20.5899395  52.7115706
  19.9341222  20.4437866  51.9408242  19.5894441  20.5870818  52.6302533
  16.6518860  32.6728641  41.6955539  16.9411385  33.4493524  41.9699113
  16.7390659  32.1617373  42.3970038  16.7073117  32.7120559  41.8398037
  19.5478748  30.5209875  63.4907063  20.0178379  31.1451992  63.8774937
  19.5940628  29.8526851  64.0500277  19.6246624  30.5144555  63.6307134
  16.7050021  22.6266903  54.2155867  16.1888510  21.9347094  54.3407446
  16.1443950  23.2937680  54.1618465  16.5456535  22.6230160  54.2261933
  18.7742255  23.1659863  56.0448719  18.3874008  23.1908894  56.8262249
  18.2875192  22.6001541  55.5923236  18.6454764  23.0855614  56.0936623
  23.0235234  37.8833372  60.1022506  23.6614955  37.3893567  59.7684962
  22.3809326  37.8110772  59.5174733  23.0229461  37.7992380  59.9664861
  24.7492234  29.7322518  54.6688421  24.3219843  29.6448866  53.9136521
  24.1118287  29.8400293  55.2543265  24.5921842  29.7355177  54.6433863
  18.4399397  20.0526848  58.3358979  19.0692515  20.5887148  58.0580049
  18.6085259  19.9604207  59.1872545  18.5577191  20.1188210  58.4207507
  18.2413312  24.8398043  60.6085391  19.0686741  24.5683192  60.6644005
  18.2621158  25.6358885  60.9649209  18.3666162  24.9177797  60.6700574
  23.0789491  38.5753180  56.7427862  23.8681869  38.2242245  56.8629944
  23.2533089  39.3889568  56.4804496  23.2209773  38.6439037  56.7215730
  12.8182801  31.9861906  53.7955651  11.9770808  31.8865780  54.0034545
  13.0272809  32.7557386  54.1469972  12.7247494  32.0853949  53.8782966
  10.2958368  29.6081443  51.6240402   9.9015066  29.6824454  50.8490512
   9.7398485  29.9939389  52.1748764  10.1561181  29.6763217  51.5908062
  21.9323315  22.5862737  51.3044281  22.1372909  22.5185045  52.1501278
  21.6049739  23.3921558  51.2365458  21.9138563  22.6948677  51.4203936
  16.6299466  29.9143305  53.0453249  16.3262604  29.3599293  53.6463656
  15.9278887  30.0935515  52.5581283  16.4815676  29.8588087  53.0622954
  15.6865563  27.2243825  47.6097951  15.9625298  26.5062737  47.1975518
  16.2864233  27.8228745  47.4019057  15.8158828  27.2064195  47.5178712
  14.6917817  37.1293026  57.7525347  14.5838172  37.1395088  58.6187405
  14.9013599  37.9547806  57.5630300  14.7067928  37.2534100  57.8529438
  25.1857003  23.1394501  50.7847046  24.5731316  23.6264903  51.1700778
  25.2821178  22.4637992  51.3284697  25.1094900  23.1112810  50.9225905
  19.1876084  24.8957342  45.8844546  19.6419830  25.0667902  46.6092390
  19.6616130  24.2825453  45.4842321  19.3244404  24.8308227  45.9318307
  12.7091609  34.3805668  55.2147284  12.1179543  35.0215166  55.1850299
  13.4712633  34.8043285  55.1878584  12.7339870  34.5381506  55.2062431
  13.1052232  25.5407666  55.8815302  13.5653714  25.6146595  56.6190426
  13.1508339  26.3388920  55.5315123  13.1802787  25.6701813  55.9388058
  14.7535582  26.2074361  60.4487329  14.3621147  25.5607708  60.8843107
  14.9221445  26.7985796  61.0681584  14.7206492  26.1988628  60.6050035
  22.4681126  39.8314980  52.6479309  22.2700814  40.3205794  51.9535520
  21.8468837  40.0356221  53.2263442  22.3468690  39.9331518  52.6302532
  16.5289104  31.5999876  46.9889553  17.2731149  31.9874153  47.2272503
  16.6749800  30.7557302  47.1530041  16.6599689  31.5330349  47.0483523
  18.4468679  23.3950135  52.0221414  17.6004724  23.5672943  51.8962764
  18.4439812  22.5899479  52.3587243  18.3215829  23.3011164  52.0532541
  19.5166980  27.1725350  52.8883472  19.0426934  26.6467112  53.3988783
  19.8885116  26.6254823  52.3198334  19.5016869  27.0141346  52.8798619
   9.8940010  29.1696856  58.2567018  10.7565623  29.0692566  58.1704348
   9.5631793  28.5891566  57.6952590   9.9725206  29.0688483  58.1612424
  21.4450479  28.0661904  45.9509226  20.9173498  28.1490648  45.2614935
  21.9046188  28.8079776  45.9473871  21.4352330  28.1882567  45.8483921
  27.7808897  29.0129183  52.2519512  27.5418667  28.9725017  51.4140296
  27.9442799  29.8600335  52.3785233  27.7699201  29.1321268  52.1472994
  24.3854927  33.3979132  58.1824557  25.1089126  32.9451658  58.0035577
  24.1204890  33.6783798  57.3996885  24.4536201  33.3730100  58.0403272
  13.2541796  27.9939305  54.9177436  12.6294866  28.0057697  54.3103389
  12.9187391  28.4699481  55.5668676  13.1127288  28.0657822  54.9234005
  13.4383545  26.3364424  40.9750121  13.0896349  26.9884149  41.4381671
  12.9579990  26.3221537  40.2473992  13.3153788  26.4307477  40.9361212
   9.9667471  36.0539766  56.3581200   9.4367396  35.3632204  56.4076175
  10.2392565  36.0449951  55.5293909   9.9292194  35.9506897  56.2428616
  20.9987562  36.6365468  45.0818883  21.7221761  37.1023581  44.9383456
  20.5588153  36.7039077  44.3316480  21.0403254  36.7149305  44.9503664
  20.1673717  33.4963010  56.3319572  19.5530710  32.9521060  56.6268207
  20.6841002  32.9827247  55.8525388  20.1529379  33.3399419  56.3043800
  19.4070014  34.5667280  54.0663871  18.9797622  33.9416999  53.6329306
  19.3994958  34.2842202  54.8922878  19.3429155  34.4320061  54.1243698
  12.5232541  29.6032453  57.1352305  12.6826028  28.8475777  57.5404027
  12.3425435  30.1523393  57.7893042  12.5197900  29.5726267  57.2915011
  20.4652844  21.7693689  57.6903094  19.9693405  21.9657363  56.9994661
  21.2221906  22.1686357  57.5191896  20.5039669  21.8571423  57.5623231
  17.7355724  25.4436035  54.2806405  17.7598211  24.9096147  53.5919185
  17.9867197  24.9353344  54.9431995  17.7765642  25.2896939  54.2771049
   5.2463314  32.7267530  53.7149549   5.1406763  32.6814374  52.8501633
   4.4963534  33.0721310  53.9963834   5.1198917  32.7708438  53.6286878
  14.0157046  24.1706853  53.6612149  14.0555418  24.6716060  54.3746856
  13.1906711  24.2617247  53.3918072  13.8996572  24.2588669  53.7262687
  16.1986659  33.7367593  61.7632444  15.3482289  33.8739307  61.8990089
  16.3614787  33.0031371  62.2080145  16.0970522  33.6481694  61.8488043
  15.4371409  30.6867363  55.9586048  14.6063339  30.8541181  55.7521296
  15.3822927  30.3103314  56.7434933  15.3060824  30.6557094  56.0434576
  13.2455193  24.1776256  61.5942459  13.8707896  23.6338388  61.8671891
  12.7905673  23.6971173  61.0250249  13.2703453  24.0265737  61.5504053
  13.8107453  28.9622954  46.4876166  13.9510414  29.4595419  47.1904807
  14.3089986  28.2609249  46.6290379  13.9048534  28.9324933  46.6127745
  13.8407676  29.8290065  43.8168743  14.4752755  30.4250490  43.7518204
  13.9233286  29.5293523  44.6314613  13.9464227  29.8730974  43.9271829
  26.8190241  32.3605543  56.6855107  27.4108082  33.0002793  56.7173305
  27.2549236  31.6628579  56.9747174  26.9708673  32.3523893  56.7335939
  15.4186658  25.7604041  43.7914185  15.7402500  25.2807123  43.1373447
  15.6813602  26.5703687  43.6004996  15.5052684  25.8093939  43.6669677
  18.6483631  36.7822915  57.3113001  18.1408722  37.3358762  57.7553631
  18.3510277  36.8431205  56.4931775  18.5288516  36.8729226  57.2561457
  20.8145813  25.1476235  56.1537664  21.2400885  24.6948761  55.5421190
  20.2002807  24.5936305  56.4302451  20.7874459  24.9990211  56.1042689
  10.3460664  32.0257906  47.0858289  10.8552893  32.6222414  47.4669594
  10.8194936  31.7583880  46.4034708  10.4904039  32.0743722  47.0412811
  21.2591412  40.6986173  45.2416944  20.5420721  40.5247035  44.7764181
  21.9098149  40.4638745  44.7092430  21.2493262  40.6381965  45.0946162
  19.2540036  21.6191335  49.5628241  18.6108354  21.4688981  50.1313379
  18.9139443  21.3733680  48.7977345  19.1085114  21.5603457  49.5331256
  23.8439383  29.5750761  48.9858249  23.1730573  30.1180464  48.8571315
  24.5379133  30.0445617  48.7439944  23.8468250  29.7249033  48.9313777
  17.8926117  41.7147473  54.2170008  17.6691771  40.9566303  54.5854034
  17.4035960  41.7445495  53.4950447  17.7869566  41.6069698  54.1646748
  24.0067510  26.0306645  51.8948622  24.3595120  25.6036368  52.5694421
  23.1482312  25.9457489  52.0249699  23.9316955  25.9551386  52.0143633
  12.7051195  28.6614165  49.9531469  11.9863184  29.0778297  50.2204333
  13.0763558  29.2268403  49.4023107  12.6543127  28.8063446  49.9114276
  22.0050776  29.2942014  55.8433465  21.9848703  29.1125309  56.6968244
  22.0529977  30.1654032  55.8193048  22.0085417  29.3958552  55.9656759
  19.9497106  35.8829206  61.7681941  19.9092961  35.2378883  61.1827097
  20.7620424  35.8265823  62.0807353  20.0640259  35.7788172  61.7278890
  16.5404573  41.9347931  51.6707092  16.1264972  41.2722062  51.2810934
  17.2251948  42.0825790  51.1502786  16.5802945  41.8588590  51.5363589
  19.9069868  41.0938017  52.4230709  19.5086151  41.2040287  51.6551529
  19.2921087  41.3020083  53.0057269  19.7568757  41.1411585  52.3962008
  18.4797770  27.7012165  45.2904848  17.8862609  28.0229161  44.7389415
  18.5173047  26.8553260  45.0825955  18.3972159  27.6236493  45.1787620
  25.4391570  21.1525057  52.8232935  24.9322435  20.4454196  52.7554112
  26.2359004  20.8218246  52.9534012  25.4818810  20.9998208  52.8331930
  21.3555586  27.6591669  48.7206599  21.1269279  27.6824371  47.8784957
  21.6153662  26.8349136  48.8401609  21.3601774  27.5407749  48.6131796
  15.6374815  29.5126142  58.3231699  15.1253718  28.9047325  58.6816730
  15.4654311  30.2282735  58.7905675  15.5364452  29.5289441  58.4447923
  10.4840529  27.9563717  60.9734061  10.3143120  28.6165092  60.4282267
  10.0406479  28.1670279  61.6946550  10.3939863  28.0849700  60.9995690
  14.4100349  26.1968215  50.0160794  14.8857715  26.5585295  49.3810975
  13.9088948  26.8524683  50.2960937  14.4065708  26.3462404  49.9637535
  27.6411710  35.6689983  45.8073799  28.0245316  36.4181340  46.0371896
  26.8455824  35.9155803  45.5485788  27.5805493  35.8159677  45.8031373
  19.5143885  27.4350387  60.7633954  20.0715315  27.2064196  60.1312420
  19.1904950  28.1956052  60.4869167  19.5490295  27.5134223  60.6290452
   7.3842594  30.8610583  56.2322551   6.8369313  30.1911229  56.3503419
   8.1734972  30.4940431  56.2966018   7.4194778  30.7075569  56.2591251
  17.2327002  30.5218040  61.7285962  17.9838329  30.8369717  62.0425516
  17.4249579  30.3197211  60.9019883  17.3718416  30.5385422  61.6529357
  16.4527002  28.3409415  43.3834178  16.8325967  28.3589044  42.5985293
  15.7119598  28.7863404  43.2625026  16.3995840  28.4091190  43.2497746
  24.0812292  26.6491606  48.9709757  24.0806519  26.4940263  49.8294033
  23.8768472  27.4954593  48.9151143  24.0512070  26.7512227  49.0897696
   6.1429563  30.0731391  53.3868574   5.9651324  29.6208000  54.1123489
   5.8548585  30.8757552  53.5707051   6.0742516  30.1253949  53.5212076
  21.8053144  31.3289108  52.6245964  22.3006810  30.6112103  52.5849984
  20.9952920  31.0259906  52.5100451  21.7597038  31.1786754  52.6019690
  17.2511756  35.1786921  44.7742968  16.4423079  34.8553595  44.7276278
  17.7586665  34.4720143  44.7071217  17.2061423  35.0268238  44.7573263
   7.8802033  32.6059115  50.4990333   7.0147553  32.5944805  50.3873104
   7.9800849  32.4189337  51.3461472   7.7676200  32.5765176  50.6079277
  23.8704963  34.0792796  55.3123093  24.2960035  33.5567217  54.7593518
  23.5061883  34.6773633  54.7911716  23.8791566  34.0903023  55.1532102
  13.5059043  42.3757013  54.0720438  13.8205602  43.1893402  54.0798220
  13.9152456  41.9907232  54.7402597  13.6127141  42.4385716  54.1724530
  20.4583563  37.7927060  51.6424250  20.9294741  38.5067322  51.8114235
  20.7943741  37.1925810  52.1784120  20.5778678  37.8098524  51.7456626
  22.5460547  39.4028373  63.8216322  22.6557513  38.6136934  64.1773069
  22.8751444  39.3134309  63.0190660  22.6112953  39.2734226  63.7558713
  17.3753058  22.5654530  58.5982345  17.5080963  21.7685524  58.9263320
  17.7598210  23.0920933  59.1780621  17.4509387  22.5254447  58.7325848
  21.0957509  37.5844994  58.4051943  20.5478455  36.9602878  58.1372008
  21.5570538  37.7739266  57.6896022  21.0824719  37.5204044  58.2602374
  20.4485413  19.4884857  55.1963438  19.6431377  19.3782586  55.5131276
  20.3192148  19.5897312  54.3393304  20.3105546  19.4868527  55.1171479
  23.9051373  25.6530349  55.7903135  23.3214362  26.1539555  55.3780702
  24.2255667  25.1459905  55.1567458  23.8664549  25.6522184  55.6361642
  16.4446173  24.5670943  46.0661810  17.2661867  24.7369256  45.8243505
  15.9815823  24.7218204  45.3428107  16.4977335  24.6152676  45.9233454
  15.0341504  22.5613706  56.8460239  15.5785917  22.2204832  57.4364580
  15.0878440  23.4199167  56.9881523  15.1230624  22.6368965  56.9542112
  10.8472063  36.3230122  53.7199047  11.4516921  36.2825956  53.0912867
  10.6399376  37.1701274  53.7503102  10.9060961  36.4418124  53.6315163
  20.6615835  38.5896067  54.9361284  21.4814209  38.4459033  55.1977579
  20.3809913  39.2142266  55.4777722  20.7412579  38.6606419  55.0549223
   6.0823346  35.3064739  53.5897970   5.9847624  34.4961011  53.8988026
   6.8652215  35.2856532  53.2044238   6.1839482  35.1831829  53.5784833
  30.3329171  45.3336569  52.6557091  29.4767066  45.4945068  52.7066208
  30.3796824  44.4628633  52.6762152  30.2128282  45.2287371  52.6663157
  24.7170310  54.8699287  48.4194322  23.9653210  54.4914826  48.1910367
  25.1656322  54.9017721  47.6713133  24.6719977  54.8184894  48.2751824
  33.6422887  51.6023095  62.2617547  34.3489654  51.1075126  62.3904481
  33.8310823  52.0432177  61.5320205  33.7750793  51.5941445  62.1726592
  30.1695270  55.2924657  43.8479869  29.8346639  55.9701578  43.4124092
  30.6822141  54.9029968  43.2596741  30.1960851  55.3349235  43.6966661
  29.7099561  57.2438926  49.7890981  30.0938941  57.8125824  49.2495756
  29.6458703  56.5188436  49.3096797  29.7572989  57.2214389  49.6384844
  33.1780992  47.3928613  55.2988742  33.7236952  48.0713700  55.3582712
  33.1197868  47.2516074  54.4390324  33.2496906  47.4720615  55.1800803
  26.2955066  54.8817679  50.6857095  26.3965429  54.0718033  50.9954223
  25.6996812  54.7874626  50.0556773  26.2227605  54.7482708  50.6383333
  26.1355806  59.7995269  52.0871951  26.7793262  60.2408433  52.4768109
  26.4612062  58.9948695  52.0002210  26.2787635  59.7460463  52.1317428
  19.4920111  50.9037966  50.3109428  19.2570295  50.0705618  50.2041697
  19.6305752  51.1842632  49.4970629  19.4775773  50.8221469  50.1751783
  21.7910198  43.0723697  53.2093736  21.1715230  42.4816344  53.0403751
  21.6894062  43.6635132  52.5758059  21.6847874  43.0727779  53.0898726
  26.8376386  52.8107243  47.4591813  27.1592227  53.3512451  46.8553121
  27.4848482  52.2404015  47.5914102  26.9802441  52.8066419  47.3898848
  21.5179331  46.6175978  55.4537305  21.3938028  47.2038424  56.0887124
  22.1697616  46.1236174  55.7549580  21.5952981  46.6314783  55.5923234
  29.0766029  51.1993683  47.5305991  29.5159665  50.5910784  47.9760764
  28.9270692  50.8201057  46.7591456  29.1187495  51.0532155  47.4825158
  26.5437672  49.7937695  54.7324816  27.1886675  49.3010138  54.4135765
  26.7839449  49.9362482  55.5590895  26.6748257  49.7415138  54.8074349
  29.0823764  52.6392601  54.3831709  29.3647006  51.8444007  54.1618465
  29.8109924  53.1173189  54.4036770  29.2313327  52.5927198  54.3534724
  32.6775366  49.5520865  44.4836760  32.5926661  50.4081831  44.6286329
  33.1659749  49.2765189  45.1518919  32.7364263  49.6378186  44.6038841
  25.4993407  50.0668876  44.7841963  24.9150622  50.5718907  45.1907827
  25.0963502  49.8411263  44.0438555  25.3532711  50.1077124  44.7346988
  21.0537435  55.7823637  51.5865635  20.5705014  56.5074126  51.5625218
  21.8660754  56.0799767  51.6975792  21.1028183  55.9325991  51.5992914
  27.1251589  54.5755818  54.1915449  26.6078531  54.2163233  53.5876757
  27.8225981  54.0517992  54.2021515  27.1517171  54.4453505  54.1045708
  30.7815181  55.0250632  60.1531622  30.8698527  54.8376772  61.0009832
  31.2104894  54.3788061  59.7536469  30.8577284  54.9013639  60.2203374
  28.3485641  54.3081792  59.1349284  27.7856476  53.8954401  59.6588946
  29.1106665  54.2334697  59.5542428  28.3780090  54.2359192  59.2742285
  23.9081633  56.2979813  51.7385914  24.6102212  55.7831802  51.7958671
  23.8279116  56.6253964  52.5432790  24.0005393  56.2694039  51.8658707
  24.9560539  46.5355400  60.8666330  25.1281043  46.4261294  61.7151611
  25.4929897  47.1809805  60.6297522  25.0605543  46.6147401  60.9571426
  23.2332408  52.4886165  51.2471522  24.0721308  52.7209098  51.2945284
  23.2644177  51.6190476  51.1778558  23.3614126  52.3943111  51.2436167
  23.8585111  52.9087040  55.5484828  24.3983336  52.7658171  56.2188200
  23.1755057  53.3083791  55.9168854  23.8377265  52.9466711  55.7019250
  33.2825996  48.5878041  50.7429852  34.0383511  49.0209555  50.7818761
  33.3888320  47.9382810  51.3164488  33.4096167  48.5555524  50.8327878
  36.3206167  52.4151318  51.4932255  35.8841399  52.4188060  52.2491227
  35.9869083  53.0956817  51.0611833  36.2068787  52.5163774  51.5413088
  30.8935241  54.4559651  62.8175406  31.6775657  54.5690498  63.1831148
  30.6931835  53.6300788  63.0134092  30.9801266  54.3506370  62.9009792
  19.2622256  49.1287331  55.7019250  18.9960671  48.3126447  55.8610240
  19.2760820  49.1740486  54.8314765  19.2246979  49.0144236  55.5972732
  24.0120863  42.6665709  58.3486257  23.3192659  42.1962689  58.5946989
  24.6281190  42.4404014  58.9227964  24.0005393  42.5632841  58.4695410
  31.0505634  56.3669753  56.4641861  30.2520880  56.1269253  56.7215730
  31.4991646  56.4184146  57.2108909  30.9980245  56.3392144  56.6126786
  30.3427321  52.4302369  42.6932816  30.7578470  52.0987393  42.0017312
  29.5119251  52.1971271  42.5652953  30.2815330  52.3473625  42.5723663
  19.6715670  49.9146110  52.9830994  19.4891243  49.8892996  52.1303286
  20.4065339  50.3845048  53.0219903  19.7529734  49.9807472  52.8628912
  22.7361422  46.6331113  59.4913102  23.4601394  46.6184144  59.9777997
  22.8377558  47.3426468  58.9935071  22.8579631  46.7355816  59.4891889
  30.1106371  50.1130198  64.3562049  29.3179352  50.4273709  64.5414669
  30.2255298  50.3281666  63.5182834  30.0101781  50.1914034  64.2600384
  31.0390164  50.0150401  59.2947346  31.6129025  49.3777646  59.4495910
  30.9604967  50.0154484  58.4257004  31.1123399  49.9215513  59.1893757
  19.6386580  46.7939611  53.1330060  20.2160083  46.6576062  53.7722306
  18.9400642  46.3375395  53.3875645  19.6207602  46.7061877  53.2652350
  26.3953882  48.4473666  51.3468544  26.1373127  47.6145401  51.3199843
  26.4502365  48.6731279  50.5061044  26.3653660  48.3571438  51.2188680
  25.3688595  46.0011429  51.8333438  24.7938186  46.1603597  52.4697399
  24.9924271  45.3646838  51.3701889  25.2291407  45.9309242  51.8587997
  29.0361883  44.4734778  56.6925817  28.6476316  44.0488996  56.0378008
  28.3716582  44.7216928  57.2002843  28.8808811  44.4473499  56.6713685
  15.1145413  45.6451504  49.8477879  15.2005665  45.2683372  50.6291409
  15.7421211  45.2711949  49.3697837  15.2201964  45.5336986  49.8923356
  30.1400821  48.7033383  44.8902624  30.9541460  48.9948276  44.7785395
  30.0759963  48.0493245  44.3160917  30.2503560  48.6498578  44.7891461
  36.3610312  51.3859379  59.3032199  36.1248949  50.5547444  59.1844260
  37.0053541  51.3344986  59.8887044  36.4204982  51.2557067  59.3718093
  26.0108730  52.1754900  50.0174936  26.6482677  51.9366648  50.5626729
  26.4363801  52.3792059  49.2828096  26.1684896  52.1705910  49.9892093
  20.7021372  54.4143237  53.9009240  20.7425517  54.6858088  53.0729019
  21.2615896  54.9385145  54.3167028  20.7904718  54.5318992  53.8401128
  26.8180085  40.6763605  64.0712409  26.5033526  41.4463168  63.8081972
  26.4970018  40.1133861  63.4864636  26.7239004  40.7073874  63.9453759
  37.3846732  51.1703828  55.3660494  37.0792549  51.9031885  55.7273809
  36.6652948  50.7641757  55.0853280  37.2334075  51.2185561  55.3773631
  28.3930202  52.6527323  51.6968722  28.4669210  52.4902495  52.5510572
  29.2099708  52.8417512  51.4529204  28.5246560  52.6564065  51.7866748
  22.1535958  52.9985186  48.7263166  21.3274076  53.2446923  48.5997444
  22.2147950  52.9197267  49.5925224  22.0410125  53.0230135  48.8352110
  24.3711982  39.0654127  49.6858606  23.5034408  39.1376726  49.7516215
  24.6587186  39.8676206  49.8746581  24.2851730  39.1948274  49.7233372
  33.4944871  39.2131986  58.0169928  34.2398463  39.0241796  57.6033353
  33.0782175  39.7390224  57.4583784  33.5429845  39.2634131  57.8734501
  26.9334787  55.6162066  46.4282195  27.2233086  55.2251047  45.7041422
  27.6638268  55.7978771  46.8687471  27.0841672  55.5855880  46.3865003
  27.5229533  50.4179812  57.5135326  27.0241226  51.1295580  57.5920214
  28.3329757  50.7380478  57.4753488  27.5685639  50.5706660  57.5191895
  24.8740703  57.5929448  49.4942345  24.6540998  57.3026803  50.2869012
  24.6535225  56.9344403  48.9660258  24.8088297  57.4529157  49.5331254
  23.7857650  49.6802765  51.7598047  23.4970899  49.0540236  52.2943774
  24.6540998  49.6223052  51.8262727  23.8717902  49.5790309  51.8489001
  27.0408659  58.9658838  48.2773038  27.6932717  58.4335281  48.5064064
  26.3434267  58.6127491  48.6640912  27.0339377  58.8348361  48.3685205
  23.9889923  51.3198016  47.6840412  24.7435891  51.7011055  47.8975874
  23.3960536  51.7709160  48.1387108  24.0126637  51.4426843  47.7823290
  35.0348577  51.2863252  47.6204017  35.6006610  51.9456462  47.5362560
  34.3876480  51.6312950  48.0920419  35.0227333  51.4345194  47.6776773
  26.4496591  43.2760856  62.8097624  25.6396366  43.5818636  62.6987467
  26.9271277  43.9966439  62.9250208  26.4000069  43.4275457  62.8104695
  25.3088150  52.4906577  53.0580527  24.7868904  52.6306869  53.7432392
  25.6962170  51.7317242  53.2482645  25.2891851  52.3992101  53.1881604
  22.2979334  42.5412386  47.1275482  22.0104130  42.1713656  46.3907429
  22.9849802  43.0107241  46.8659187  22.3568231  42.5559355  46.9790558
  31.5055155  54.2302037  47.0441096  31.2641831  53.4969897  46.6368161
  31.6856488  54.7788894  46.3907429  31.4962779  54.2024428  46.8871319
  26.7354476  49.5210596  48.4562018  26.5397258  50.1285331  47.8622321
  26.9588821  48.8278540  47.9753692  26.7389117  49.5088122  48.2978099
  25.1333006  46.4065334  48.5742887  25.8555658  46.5706492  48.1146693
  24.6540999  47.1274999  48.4682226  25.1696736  46.5363564  48.4908501
  33.0926513  42.7429133  53.9539572  32.2537614  42.7690412  53.7177835
  33.1630881  43.3899868  54.5344918  32.9794907  42.8425259  54.0048689
  22.7840622  48.8123407  57.6797027  23.2961719  49.0907660  57.0305786
  22.4976965  49.5512701  58.0459840  22.8175486  48.9625760  57.6386905
  19.8707529  43.3193598  47.9760763  19.9723665  44.1219760  48.3041739
  20.6663416  43.1180934  47.6783844  20.0035434  43.4079497  47.9796118
  26.3024348  40.9049795  57.7398068  26.1107545  40.9204930  58.5897492
  27.1522944  41.1013470  57.7164723  26.4000070  40.9364146  57.8621363
  20.6871261  43.4340777  55.7181885  20.5456753  42.5824717  55.8426393
  20.9711824  43.4769437  54.8944091  20.7079107  43.3140527  55.6149509
  34.7357902  51.9791226  53.6513154  34.5972261  52.6772272  54.1561897
  33.9557900  51.8239883  53.2949336  34.6001129  52.0591393  53.6739428
  33.0735987  48.2787602  59.9035536  33.0684026  47.4067418  59.9077962
  33.7796981  48.4775771  59.4304992  33.1780991  48.1791476  59.8342571
  26.8006881  48.0064585  59.2749356  26.9450256  48.5865794  58.6392466
  27.1482529  48.3840882  59.9799211  26.8734342  48.1485290  59.2848351
  28.9726798  47.2054754  57.0574488  28.2250112  47.3985768  56.6522766
  29.1268323  46.3799973  56.8198609  28.8849225  47.1119865  56.9619893
  25.8734635  56.1967357  56.1410383  26.0224199  55.6370273  55.4883787
  26.6534638  56.2759359  56.5242902  26.0108729  56.1252923  56.1007332
  28.3987936  56.3682000  57.4194874  28.3231607  55.6990811  57.9745662
  28.3277795  57.0699788  57.9335540  28.3768543  56.3726908  57.5771722
  29.2128575  41.1005305  57.9469891  29.6701189  41.8329279  58.0742684
  29.2884904  40.6771770  58.7057147  29.2919545  41.1462543  58.0770968
  21.4561566  41.3471124  59.0359335  20.9203756  40.7351482  59.3520102
  21.5179331  41.9219260  59.6893002  21.3857199  41.3418052  59.1794762
  29.0558183  54.8882999  48.2518480  29.8208074  54.6192643  47.9301144
  28.9536273  54.4033009  48.9688542  29.1539679  54.7772564  48.3098307
  27.0910953  43.0907409  54.7911715  26.3007028  42.9098869  55.1129051
  27.4871576  42.3134361  54.7742010  27.0327829  42.9494869  54.8364264
  32.4754639  50.7249839  52.5171161  31.7999641  50.4935071  53.0184548
  32.4847015  50.1171022  51.8913266  32.3773144  50.6008764  52.4987314
  29.6048783  45.5667668  59.2735214  29.5407924  46.4277624  59.1455351
  29.7445971  45.2499661  58.4730766  29.6164253  45.6467834  59.1363427
  34.4771374  53.5814971  44.7481339  34.5591211  54.3881957  44.4242790
  34.9621116  53.6010930  45.4722113  34.5608532  53.7035633  44.8068238
  28.2867877  48.2599807  53.4151417  27.8630126  48.4604306  52.6790436
  28.1112732  47.4128655  53.5275717  28.1978758  48.1648588  53.3225107
  27.7879570  59.7750320  55.8772874  28.2775501  59.0761109  55.6948539
  27.2163803  59.4774190  56.4648932  27.7764100  59.6276544  55.9373915
  23.5750322  48.7551858  48.8479390  23.7314941  48.6898661  49.7035382
  23.9150915  49.5300411  48.6358069  23.6483557  48.8601057  48.9433984
  30.1129467  48.1309742  47.7172753  30.6545012  47.6280123  48.1811373
  30.4276026  48.0774937  46.9062238  30.2393864  48.0489163  47.6656565
  33.9846574  52.3412389  64.8299665  34.7981439  52.0697538  64.9904798
  33.8241540  52.0419929  64.0259861  34.0816522  52.2567315  64.7345071
  28.2815916  53.5227094  45.0012781  28.3508737  52.6641632  45.1405781
  29.0604371  53.7398974  44.6731806  28.4068766  53.4279957  44.9729938
  31.2618736  43.0246046  57.7695053  31.4760705  42.3856961  57.2158407
  30.6452635  43.4691870  57.3402915  31.2024065  42.9956190  57.6245484
  32.6723404  55.9464795  49.2149274  32.2803196  55.6431510  48.4972140
  32.8276476  56.7833885  49.0254228  32.6376994  56.0248632  49.0805771
  20.1484583  45.9386809  49.1640157  20.5283548  46.3571354  48.5000424
  19.5739948  46.5200265  49.4709000  20.1195908  46.0864668  49.1116898
  33.4257824  44.6335112  58.7078360  32.6134506  44.3261002  58.7891533
  33.8847759  44.1534112  59.2721073  33.3738209  44.5171604  58.8032955
  32.8363079  52.5114784  49.1555305  32.4777733  52.6829427  49.9319337
  32.3501789  52.9727989  48.5983303  32.7121776  52.6053755  49.1880574
  30.5211331  46.0395183  63.4907063  30.9910963  46.6637299  63.8774937
  30.5673212  45.3712159  64.0500277  30.5979207  46.0329863  63.6307134
  29.7474839  38.6845171  56.0448719  29.3606592  38.7094202  56.8262249
  29.2607776  38.1186849  55.5923236  29.6187347  38.6040921  56.0936623
  33.9967818  53.4018680  60.1022506  34.6347538  52.9078875  59.7684962
  33.3541910  53.3296080  59.5174733  33.9962044  53.3177688  59.9664861
  29.4131980  35.5712156  58.3358979  30.0425098  36.1072456  58.0580049
  29.5817843  35.4789515  59.1872545  29.5309775  35.6373518  58.4207507
  29.2145895  40.3583351  60.6085391  30.0419324  40.0868500  60.6644005
  29.2353741  41.1544193  60.9649209  29.3398745  40.4363105  60.6700574
  34.0522075  54.0938488  56.7427862  34.8414453  53.7427553  56.8629944
  34.2265672  54.9074876  56.4804496  34.1942356  54.1624345  56.7215730
  23.7915385  47.5047214  53.7955651  22.9503392  47.4051088  54.0034545
  24.0005393  48.2742694  54.1469972  23.6980078  47.6039257  53.8782966
  21.2690952  45.1266751  51.6240402  20.8747650  45.2009762  50.8490512
  20.7131069  45.5124697  52.1748764  21.1293764  45.1948525  51.5908062
  27.6032050  45.4328613  53.0453249  27.2995187  44.8784601  53.6463656
  26.9011471  45.6120823  52.5581283  27.4548260  45.3773395  53.0622954
  25.6650401  52.6478334  57.7525347  25.5570756  52.6580396  58.6187405
  25.8746182  53.4733114  57.5630300  25.6800512  52.7719408  57.8529438
  23.6824193  49.8990976  55.2147284  23.0912126  50.5400474  55.1850299
  24.4445216  50.3228593  55.1878584  23.7072453  50.0566814  55.2062431
  24.0784816  41.0592974  55.8815302  24.5386297  41.1331903  56.6190426
  24.1240922  41.8574228  55.5315123  24.1535371  41.1887121  55.9388058
  25.7268165  41.7259669  60.4487329  25.3353731  41.0793016  60.8843107
  25.8954028  42.3171104  61.0681584  25.6939076  41.7173936  60.6050035
  33.4413709  55.3500288  52.6479309  33.2433398  55.8391102  51.9535520
  32.8201420  55.5541529  53.2263442  33.3201274  55.4516826  52.6302532
  27.5021687  47.1185184  46.9889553  28.2463732  47.5059461  47.2272503
  27.6482384  46.2742610  47.1530041  27.6332273  47.0515657  47.0483523
  20.8672593  44.6882164  58.2567018  21.7298206  44.5877874  58.1704348
  20.5364376  44.1076874  57.6952590  20.9457790  44.5873791  58.1612424
  24.2274379  43.5124613  54.9177436  23.6027450  43.5243005  54.3103389
  23.8919974  43.9884788  55.5668676  24.0859871  43.5843130  54.9234005
  20.9400055  51.5725073  56.3581200  20.4099979  50.8817512  56.4076175
  21.2125148  51.5635259  55.5293909  20.9024777  51.4692205  56.2428616
  31.9720145  52.1550776  45.0818883  32.6954344  52.6208889  44.9383456
  31.5320736  52.2224385  44.3316480  32.0135838  52.2334612  44.9503664
  31.1406301  49.0148318  56.3319572  30.5263294  48.4706368  56.6268207
  31.6573585  48.5012555  55.8525388  31.1261963  48.8584727  56.3043800
  30.3802598  50.0852588  54.0663871  29.9530206  49.4602307  53.6329306
  30.3727542  49.8027510  54.8922878  30.3161739  49.9505369  54.1243698
  23.4965125  45.1217761  57.1352305  23.6558612  44.3661085  57.5404027
  23.3158018  45.6708701  57.7893042  23.4930484  45.0911575  57.2915011
  31.4385428  37.2878997  57.6903094  30.9425989  37.4842671  56.9994661
  32.1954490  37.6871665  57.5191896  31.4772252  37.3756731  57.5623231
  28.7088307  40.9621343  54.2806405  28.7330795  40.4281455  53.5919185
  28.9599781  40.4538651  54.9431995  28.7498226  40.8082247  54.2771049
  16.2195897  48.2452838  53.7149549  16.1139346  48.1999682  52.8501633
  15.4696117  48.5906618  53.9963834  16.0931500  48.2893746  53.6286878
  24.9889630  39.6892161  53.6612149  25.0288001  40.1901367  54.3746856
  24.1639294  39.7802555  53.3918072  24.8729156  39.7773977  53.7262687
  27.1719242  49.2552901  61.7632444  26.3214873  49.3924615  61.8990089
  27.3347370  48.5216679  62.2080145  27.0703106  49.1667002  61.8488043
  26.4103993  46.2052671  55.9586048  25.5795923  46.3726489  55.7521296
  26.3555510  45.8288621  56.7434933  26.2793408  46.1742402  56.0434576
  24.2187776  39.6961564  61.5942459  24.8440480  39.1523696  61.8671891
  23.7638256  39.2156481  61.0250249  24.2436037  39.5451045  61.5504053
  29.6216215  52.3008223  57.3113001  29.1141306  52.8544070  57.7553631
  29.3242861  52.3616513  56.4931775  29.5021100  52.3914534  57.2561457
  31.7878397  40.6661543  56.1537664  32.2133469  40.2134069  55.5421190
  31.1735390  40.1121613  56.4302451  31.7607042  40.5175519  56.1042689
  21.3193247  47.5443214  47.0858289  21.8285476  48.1407722  47.4669594
  21.7927519  47.2769188  46.4034708  21.4636623  47.5929029  47.0412811
  32.2323995  56.2171481  45.2416944  31.5153305  56.0432343  44.7764181
  32.8830733  55.9824053  44.7092430  32.2225846  56.1567273  45.0946162
  28.8658700  57.2332781  54.2170008  28.6424355  56.4751611  54.5854034
  28.3768543  57.2630802  53.4950447  28.7602149  57.1255006  54.1646748
  23.6783779  44.1799473  49.9531469  22.9595768  44.5963605  50.2204333
  24.0496141  44.7453711  49.4023107  23.6275711  44.3248754  49.9114276
  32.9783360  44.8127321  55.8433465  32.9581287  44.6310617  56.6968244
  33.0262560  45.6839340  55.8193048  32.9818001  44.9143860  55.9656759
  30.9229689  51.4014513  61.7681941  30.8825544  50.7564190  61.1827097
  31.7353008  51.3451131  62.0807353  31.0372843  51.2973480  61.7278890
  27.5137157  57.4533239  51.6707092  27.0997556  56.7907370  51.2810934
  28.1984531  57.6011098  51.1502786  27.5535529  57.3773898  51.5363589
  26.6107398  45.0311450  58.3231699  26.0986301  44.4232633  58.6816730
  26.4386894  45.7468043  58.7905675  26.5097035  45.0474749  58.4447923
  21.4573113  43.4749025  60.9734061  21.2875703  44.1350400  60.4282267
  21.0139063  43.6855587  61.6946550  21.3672447  43.6035007  60.9995690
  30.4876469  42.9535695  60.7633954  31.0447899  42.7249504  60.1312420
  30.1637534  43.7141360  60.4869167  30.5222879  43.0319531  60.6290452
  18.3575177  46.3795891  56.2322551  17.8101897  45.7096536  56.3503419
  19.1467556  46.0125739  56.2966018  18.3927361  46.2260877  56.2591251
  28.2059586  46.0403348  61.7285962  28.9570913  46.3555025  62.0425516
  28.3982162  45.8382519  60.9019883  28.3451000  46.0570730  61.6529357
  17.1162147  45.5916699  53.3868574  16.9383908  45.1393308  54.1123489
  16.8281169  46.3942860  53.5707051  17.0475100  45.6439257  53.5212076
  32.7785728  46.8474416  52.6245964  33.2739393  46.1297411  52.5849984
  31.9685504  46.5445214  52.5100451  32.7329621  46.6972062  52.6019690
  28.2244340  50.6972229  44.7742968  27.4155662  50.3738903  44.7276278
  28.7319248  49.9905451  44.7071217  28.1794006  50.5453546  44.7573263
  18.8534617  48.1244422  50.4990333  17.9880136  48.1130113  50.3873104
  18.9533433  47.9374645  51.3461472  18.7408784  48.0950484  50.6079277
  34.8437547  49.5978104  55.3123093  35.2692618  49.0752525  54.7593518
  34.4794467  50.1958941  54.7911716  34.8524149  49.6088331  55.1532102
  24.4791627  57.8942321  54.0720438  24.7938186  58.7078709  54.0798220
  24.8885040  57.5092540  54.7402597  24.5859725  57.9571023  54.1724530
  31.4316146  53.3112368  51.6424250  31.9027324  54.0252630  51.8114235
  31.7676325  52.7111118  52.1784120  31.5511261  53.3283832  51.7456626
  33.5193131  54.9213681  63.8216322  33.6290096  54.1322242  64.1773069
  33.8484028  54.8319617  63.0190660  33.5845537  54.7919534  63.7558713
  28.3485641  38.0839838  58.5982345  28.4813547  37.2870832  58.9263320
  28.7330794  38.6106241  59.1780621  28.4241970  38.0439755  58.7325848
  32.0690093  53.1030302  58.4051943  31.5211039  52.4788186  58.1372008
  32.5303121  53.2924574  57.6896022  32.0557302  53.0389352  58.2602374
  34.8783957  41.1715656  55.7903135  34.2946946  41.6724863  55.3780702
  35.1988251  40.6645213  55.1567458  34.8397132  41.1707491  55.6361642
  26.0074088  38.0799013  56.8460239  26.5518501  37.7390140  57.4364580
  26.0611024  38.9384475  56.9881523  26.0963207  38.1554273  56.9542112
  21.8204647  51.8415429  53.7199047  22.4249504  51.8011264  53.0912867
  21.6131959  52.6886582  53.7503102  21.8793544  51.9603432  53.6315163
  31.6348419  54.1081375  54.9361284  32.4546793  53.9644341  55.1977579
  31.3542497  54.7327574  55.4777722  31.7145162  54.1791727  55.0549223
  17.0555929  50.8250047  53.5897970  16.9580207  50.0146319  53.8988026
  17.8384799  50.8041840  53.2044238  17.1572066  50.7017137  53.5784833
  48.1062069  61.7646226  47.9004160  48.0756074  62.6190863  48.0722430
  48.7043418  61.4641519  48.4590304  48.1899227  61.8462723  48.0078963
  41.3061754  60.8521877  52.6557091  40.4499650  61.0130376  52.7066208
  41.3529408  59.9813941  52.6762152  41.1860866  60.7472679  52.6663157
  35.6902894  70.3884595  48.4194322  34.9385793  70.0100134  48.1910367
  36.1388906  70.4203029  47.6713133  35.6452561  70.3370202  48.2751824
  44.6155471  67.1208403  62.2617547  45.3222238  66.6260434  62.3904481
  44.8043406  67.5617485  61.5320205  44.7483376  67.1126753  62.1726592
  41.1427854  70.8109965  43.8479869  40.8079222  71.4886886  43.4124092
  41.6554724  70.4215276  43.2596741  41.1693435  70.8534543  43.6966661
  40.6832145  72.7624233  49.7890981  41.0671524  73.3311132  49.2495756
  40.6191286  72.0373744  49.3096797  40.7305572  72.7399697  49.6384844
  44.1513575  62.9113921  55.2988742  44.6969535  63.5899008  55.3582712
  44.0930452  62.7701382  54.4390324  44.2229490  62.9905923  55.1800803
  37.2687650  70.4002987  50.6857095  37.3698013  69.5903341  50.9954223
  36.6729395  70.3059934  50.0556773  37.1960189  70.2668015  50.6383333
  45.9278644  64.3398528  46.1722470  45.8118170  65.0906214  46.6014608
  46.7234531  64.0822482  46.4218557  46.0283233  64.4133375  46.2726562
  37.1088390  75.3180577  52.0871951  37.7525845  75.7593741  52.4768109
  37.4344645  74.5134003  52.0002210  37.2520218  75.2645771  52.1317428
  30.4652694  66.4223274  50.3109428  30.2302879  65.5890926  50.2041697
  30.6038335  66.7027940  49.4970629  30.4508357  66.3406777  50.1751783
  32.7642782  58.5909005  53.2093736  32.1447813  58.0001652  53.0403751
  32.6626645  59.1820440  52.5758059  32.6580457  58.5913087  53.0898726
  37.8108969  68.3292551  47.4591813  38.1324810  68.8697759  46.8553121
  38.4581066  67.7589323  47.5914102  37.9535025  68.3251727  47.3898848
  39.8610677  60.3308546  47.5426199  40.5590842  60.5096674  48.0347663
  40.1763010  59.8078886  46.9196589  40.0106015  60.2802318  47.5228209
  32.4911915  62.1361286  55.4537305  32.3670612  62.7223732  56.0887124
  33.1430199  61.6421482  55.7549580  32.5685564  62.1500091  55.5923234
  40.0498613  66.7178991  47.5305991  40.4892248  66.1096092  47.9760764
  39.9003276  66.3386365  46.7591456  40.0920079  66.5717463  47.4825158
  37.5170256  65.3123003  54.7324816  38.1619258  64.8195446  54.4135765
  37.7572033  65.4547790  55.5590895  37.6480841  65.2600445  54.8074349
  40.0556347  68.1577909  54.3831709  40.3379590  67.3629315  54.1618465
  40.7842508  68.6358497  54.4036770  40.2045911  68.1112506  54.3534724
  38.0337541  55.7000943  51.6247474  37.7040871  56.1512087  50.9551173
  37.3582543  55.6217106  52.1720480  37.8847977  55.7552078  51.6070697
  43.6507949  65.0706173  44.4836760  43.5659244  65.9267139  44.6286329
  44.1392333  64.7950497  45.1518919  43.7096847  65.1563494  44.6038841
  44.5826383  61.6890967  45.9834495  44.0537854  61.9050600  46.6431801
  45.1051403  62.3827105  45.9035464  44.5814836  61.8234104  46.0690094
  50.0374436  67.2637271  51.3567540  49.2072139  67.4747915  51.5200956
  49.9883688  66.4374326  51.0809823  49.9081171  67.1726878  51.3404905
  36.4725990  65.5854184  44.7841963  35.8883206  66.0904215  45.1907827
  36.0696086  65.3596571  44.0438555  36.3265294  65.6262432  44.7346988
  32.0270019  71.3008945  51.5865635  31.5437597  72.0259434  51.5625218
  32.8393337  71.5985075  51.6975792  32.0760767  71.4511298  51.5992914
  38.0984173  70.0941125  54.1915449  37.5811115  69.7348540  53.5876757
  38.7958564  69.5703300  54.2021515  38.1249754  69.9638813  54.1045708
  41.7547765  70.5435940  60.1531622  41.8431111  70.3562080  61.0009832
  42.1837478  69.8973369  59.7536469  41.8309867  70.4198947  60.2203374
  39.3218225  69.8267099  59.1349284  38.7589060  69.4139709  59.6588946
  40.0839248  69.7520005  59.5542428  39.3512673  69.7544500  59.2742285
  40.9303205  61.8319836  43.2610884  41.1699209  62.0397819  42.4486227
  41.2519046  61.0277344  43.3699828  41.0140363  61.7433937  43.1571437
  36.2393495  53.7613231  47.1070422  36.9939463  54.1291549  46.8687472
  36.0621030  54.1352786  47.8749601  36.3247973  53.8711419  47.1855310
  34.8814216  71.8165121  51.7385914  35.5834796  71.3017110  51.7958671
  34.8011699  72.1439272  52.5432790  34.9737977  71.7879347  51.8658707
  49.5328394  59.9107672  55.1517961  48.6956815  59.9809859  55.3865555
  49.5016625  59.9132167  54.2792263  49.4046676  59.9217899  55.0577509
  35.9293123  62.0540708  60.8666330  36.1013627  61.9446602  61.7151611
  36.4662480  62.6995113  60.6297522  36.0338127  62.1332709  60.9571426
  34.5950560  56.1683550  43.8048535  34.4126133  56.3855431  42.9789527
  35.4576173  56.2822563  43.8607149  34.6955149  56.2173448  43.6903022
  34.2064992  68.0071473  51.2471522  35.0453891  68.2394405  51.2945284
  34.2376761  67.1375784  51.1778558  34.3346709  67.9128419  51.2436167
  34.8317695  68.4272348  55.5484828  35.3715920  68.2843479  56.2188200
  34.1487641  68.8269099  55.9168854  34.8109849  68.4652019  55.7019250
  44.2558580  64.1063348  50.7429852  45.0116095  64.5394863  50.7818761
  44.3620904  63.4568118  51.3164488  44.3828750  64.0740832  50.8327878
  47.2938751  67.9336626  51.4932255  46.8573983  67.9373368  52.2491227
  46.9601666  68.6142125  51.0611833  47.1801371  68.0349082  51.5413088
  41.8667824  69.9744959  62.8175406  42.6508241  70.0875806  63.1831148
  41.6664419  69.1486096  63.0134092  41.9533850  69.8691678  62.9009792
  30.2354840  64.6472639  55.7019250  29.9693255  63.8311755  55.8610240
  30.2493404  64.6925794  54.8314765  30.1979562  64.5329543  55.5972732
  47.2136234  54.9750454  53.7361683  47.8562142  55.0448558  54.3223599
  47.4659254  54.3079676  53.2341225  47.3458366  54.8876802  53.7488963
  34.1412587  59.4457723  42.3171008  33.4270764  59.1595903  42.7293440
  34.6256555  59.7854349  42.9577395  34.1071950  59.4539373  42.4726643
  34.9853446  58.1851017  58.3486257  34.2925243  57.7147997  58.5946989
  35.6013773  57.9589321  58.9227964  34.9737976  58.0818149  58.4695410
  42.0238218  71.8855061  56.4641861  41.2253463  71.6454561  56.7215730
  42.4724229  71.9369454  57.2108909  41.9712829  71.8577452  56.6126786
  50.4283097  64.6517546  50.3851893  51.0899531  64.0908214  50.2847801
  49.7874509  64.1569576  50.7104584  50.4311964  64.4953955  50.4184233
  41.3159905  67.9487677  42.6932816  41.7311053  67.6172701  42.0017312
  40.4851834  67.7156579  42.5652953  41.2547913  67.8658933  42.5723663
  30.6448253  65.4331418  52.9830994  30.4623827  65.4078304  52.1303286
  31.3797922  65.9030356  53.0219903  30.7262317  65.4992780  52.8628912
  46.7147928  65.6682928  50.1263881  46.9503517  65.8128127  49.2990732
  46.8637491  66.4325336  50.5195395  46.7713731  65.8021982  50.0627485
  33.7094005  62.1516421  59.4913102  34.4333977  62.1369452  59.9777997
  33.8110142  62.8611776  58.9935071  33.8312214  62.2541124  59.4891889
  48.5438384  64.5084594  47.9633485  48.8746601  65.0412234  47.3573580
  49.1171472  64.5623482  48.6195436  48.6772063  64.5954163  47.9711267
  41.0838955  65.6315506  64.3562049  40.2911935  65.9459017  64.5414669
  41.1987882  65.8466974  63.5182834  40.9834365  65.7099342  64.2600384
  43.7570273  62.3549497  48.6457065  43.8517128  63.0938791  49.0996691
  43.1329117  61.9266972  49.0791630  43.6779304  62.4010817  48.7765213
  42.0122747  65.5335709  59.2947346  42.5861609  64.8962953  59.4495910
  41.9337551  65.5339792  58.4257004  42.0855982  65.4400821  59.1893757
  30.6119164  62.3124919  53.1330060  31.1892666  62.1761370  53.7722306
  29.9133225  61.8560703  53.3875645  30.5940185  62.2247185  53.2652350
  44.0093295  64.1998236  41.8794017  43.9273457  64.2700424  42.7449004
  44.6473015  64.7627980  41.6877758  44.0913132  64.2937208  41.9783967
  37.3686466  63.9658974  51.3468544  37.1105710  63.1330709  51.3199843
  37.4234949  64.1916587  50.5061044  37.3386244  63.8756746  51.2188680
  42.4487516  56.0687425  51.4472636  41.7443843  55.5796611  51.6056555
  42.4972490  56.0809900  50.5761081  42.3517568  55.9977073  51.3411976
  36.3421178  61.5196737  51.8333438  35.7670769  61.6788905  52.4697399
  35.9656854  60.8832146  51.3701889  36.2023990  61.4494550  51.8587997
  40.0094467  59.9920086  56.6925817  39.6208899  59.5674304  56.0378008
  39.3449165  60.2402236  57.2002843  39.8541395  59.9658807  56.6713685
  49.6517736  59.7495091  49.4673647  49.3954301  58.9375032  49.2771530
  50.4947050  59.7572658  49.2403834  49.7383761  59.6307088  49.4058464
  26.0877997  61.1636812  49.8477879  26.1738249  60.7868680  50.6291409
  26.7153794  60.7897257  49.3697837  26.1934548  61.0522294  49.8923356
  43.8320828  53.6894715  54.2049801  44.2131340  53.0072886  54.5917675
  43.0284113  53.4004317  54.0225465  43.7697290  53.5461763  54.2353857
  41.1133405  64.2218691  44.8902624  41.9274044  64.5133584  44.7785395
  41.0492546  63.5678553  44.3160917  41.2236144  64.1683885  44.7891461
  47.3342895  66.9044687  59.3032199  47.0981533  66.0732752  59.1844260
  47.9786124  66.8530294  59.8887044  47.3937566  66.7742375  59.3718093
  36.9841313  67.6940208  50.0174936  37.6215260  67.4551956  50.5626729
  37.4096385  67.8977367  49.2828096  37.1417480  67.6891218  49.9892093
  31.6753956  69.9328545  53.9009240  31.7158101  70.2043396  53.0729019
  32.2348480  70.4570453  54.3167028  31.7637302  70.0504300  53.8401128
  37.6244128  62.9142498  44.3549825  38.0089281  62.6950205  45.1066370
  37.3755749  63.7405443  44.4850902  37.6446201  63.0040644  44.4850902
  37.7912669  56.1948913  64.0712409  37.4766110  56.9648476  63.8081972
  37.4702601  55.6319169  63.4864636  37.6971588  56.2259182  63.9453759
  48.3579316  66.6889136  55.3660494  48.0525133  67.4217192  55.7273809
  47.6385531  66.2827065  55.0853280  48.2066658  66.7370869  55.3773631
  39.3662785  68.1712631  51.6968722  39.4401793  68.0087803  52.5510572
  40.1832292  68.3602820  51.4529204  39.4979144  68.1749373  51.7866748
  54.0581108  63.3282136  54.6928838  53.9905608  63.3478095  53.8231425
  54.0436770  64.1712464  54.9184509  54.0459864  63.4555871  54.5981315
  33.1268542  68.5170494  48.7263166  32.3006660  68.7632231  48.5997444
  33.1880533  68.4382574  49.5925224  33.0142709  68.5415443  48.8352110
  35.3444566  54.5839435  49.6858606  34.4766991  54.6562034  49.7516215
  35.6319770  55.3861514  49.8746581  35.2584314  54.7133582  49.7233372
  44.4677454  54.7317294  58.0169928  45.2131046  54.5427104  57.6033353
  44.0514759  55.2575532  57.4583784  44.5162429  54.7819439  57.8734501
  37.9067371  71.1347374  46.4282195  38.1965669  70.7436355  45.7041422
  38.6370852  71.3164079  46.8687471  38.0574255  71.1041188  46.3865003
  51.8439725  62.1026523  52.9675433  52.3947647  61.4694592  53.2072525
  51.8283841  62.6341915  53.6590937  51.9224922  62.0875471  53.1054291
  38.4962116  65.9365120  57.5135326  37.9973810  66.6480887  57.5920214
  39.3062340  66.2565786  57.4753488  38.5418223  66.0891968  57.5191895
  35.8473287  73.1114756  49.4942345  35.6273582  72.8212111  50.2869012
  35.6267809  72.4529711  48.9660258  35.7820881  72.9714465  49.5331254
  34.7590234  65.1988073  51.7598047  34.4703482  64.5725544  52.2943774
  35.6273582  65.1408360  51.8262727  34.8450486  65.0975617  51.8489001
  45.5468132  60.3422856  52.0780029  45.2032897  59.6213191  52.4287278
  45.6461174  60.1336707  51.2358387  45.5110174  60.2047059  52.0051709
  38.0141242  74.4844146  48.2773038  38.6665300  73.9520589  48.5064064
  37.3166851  74.1312799  48.6640912  38.0071960  74.3533669  48.3685205
  34.9622507  66.8383324  47.6840412  35.7168475  67.2196363  47.8975874
  34.3693120  67.2894468  48.1387108  34.9859221  66.9612151  47.7823290
  46.0081161  66.8048560  47.6204017  46.5739193  67.4641770  47.5362560
  45.3609064  67.1498258  48.0920419  45.9959917  66.9530502  47.6776773
  37.4229174  58.7946164  62.8097624  36.6128950  59.1003944  62.6987467
  37.9003861  59.5151747  62.9250208  37.3732653  58.9460765  62.8104695
  33.2711918  58.0597694  47.1275482  32.9836713  57.6898964  46.3907429
  33.9582386  58.5292549  46.8659187  33.3300815  58.0744663  46.9790558
  42.4787739  69.7487344  47.0441096  42.2374415  69.0155205  46.6368161
  42.6589072  70.2974201  46.3907429  42.4695363  69.7209736  46.8871319
  37.7087059  65.0395904  48.4562018  37.5129842  65.6470639  47.8622321
  37.9321405  64.3463848  47.9753692  37.7121700  65.0273430  48.2978099
  36.1065589  61.9250642  48.5742887  36.8288241  62.0891800  48.1146693
  35.6273582  62.6460307  48.4682226  36.1429320  62.0548872  48.4908501
  44.0659097  58.2614441  53.9539572  43.2270198  58.2875720  53.7177835
  44.1363464  58.9085176  54.5344918  43.9527490  58.3610567  54.0048689
  33.7573206  64.3308715  57.6797027  34.2694303  64.6092968  57.0305786
  33.4709549  65.0698009  58.0459840  33.7908069  64.4811068  57.6386905
  47.9416621  63.4682428  51.2400813  47.8550595  63.6237854  52.0935592
  47.4867101  64.1120503  50.8660218  47.8619877  63.5858183  51.3107920
  30.8440112  58.8378906  47.9760763  30.9456249  59.6405068  48.3041739
  31.6395999  58.6366242  47.6783844  30.9768018  58.9264805  47.9796118
  37.2756931  56.4235103  57.7398068  37.0840128  56.4390238  58.5897492
  38.1255527  56.6198777  57.7164723  37.3732653  56.4549454  57.8621363
  31.6603844  58.9526085  55.7181885  31.5189336  58.1010025  55.8426393
  31.9444408  58.9954745  54.8944091  31.6811691  58.8325835  55.6149509
  41.8142437  60.7893175  49.8626373  41.5677151  60.7088926  50.6963162
  42.1427560  60.0046643  49.6688900  41.8263680  60.6619440  49.9573896
  45.7090486  67.4976534  53.6513154  45.5704845  68.1957580  54.1561897
  44.9290484  67.3425191  53.2949336  45.5733712  67.5776701  53.6739428
  44.0468571  63.7972910  59.9035536  44.0416609  62.9252726  59.9077962
  44.7529565  63.9961079  59.4304992  44.1513575  63.6976784  59.8342571
  37.7739464  63.5249893  59.2749356  37.9182840  64.1051102  58.6392466
  38.1215113  63.9026190  59.9799211  37.8466925  63.6670597  59.2848351
  39.9459381  62.7240062  57.0574488  39.1982695  62.9171076  56.6522766
  40.1000907  61.8985281  56.8198609  39.8581809  62.6305173  56.9619893
  36.8467219  71.7152665  56.1410383  36.9956783  71.1555581  55.4883787
  37.6267221  71.7944667  56.5242902  36.9841313  71.6438231  56.1007332
  47.2043858  66.8554788  44.4129653  46.8250667  66.0691926  44.4058943
  46.5410104  67.4041645  44.2701298  47.0502333  66.8199612  44.3910450
  39.3720520  71.8867308  57.4194874  39.2964191  71.2176119  57.9745662
  39.3010379  72.5885096  57.9335540  39.3501127  71.8912215  57.5771722
  40.1861158  56.6190612  57.9469891  40.6433773  57.3514587  58.0742684
  40.2617487  56.1957078  58.7057147  40.2652128  56.6647851  58.0770968
  32.4294150  56.8656432  59.0359335  31.8936339  56.2536790  59.3520102
  32.4911914  57.4404568  59.6893002  32.3589782  56.8603360  59.1794762
  40.0290767  70.4068307  48.2518480  40.7940658  70.1377951  47.9301144
  39.9268857  69.9218317  48.9688542  40.1272262  70.2957872  48.3098307
  38.0643536  58.6092716  54.7911715  37.2739611  58.4284177  55.1129051
  38.4604159  57.8319669  54.7742010  38.0060413  58.4680177  54.8364264
  42.5509427  67.4380491  40.2318429  43.3182412  67.4980616  39.8224281
  42.1040736  66.8660932  39.7474747  42.5982854  67.3617066  40.0996139
  43.4487223  66.2435147  52.5171161  42.7732224  66.0120379  53.0184548
  43.4579599  65.6356330  51.8913266  43.3505727  66.1194072  52.4987314
  40.5781367  61.0852976  59.2735214  40.5140508  61.9462932  59.1455351
  40.7178554  60.7684969  58.4730766  40.5896837  61.1653142  59.1363427
  45.4503957  69.1000279  44.7481339  45.5323795  69.9067265  44.4242790
  45.9353699  69.1196238  45.4722113  45.5341115  69.2220941  44.8068238
  39.2600461  63.7785115  53.4151417  38.8362710  63.9789614  52.6790436
  39.0845316  62.9313963  53.5275717  39.1711341  63.6833896  53.3225107
  38.7612154  75.2935628  55.8772874  39.2508084  74.5946417  55.6948539
  38.1896386  74.9959498  56.4648932  38.7496684  75.1461852  55.9373915
  34.5482906  64.2737166  48.8479390  34.7047525  64.2083969  49.7035382
  34.8883499  65.0485719  48.6358069  34.6216140  64.3786364  48.9433984
  41.0862050  63.6495050  47.7172753  41.6277596  63.1465431  48.1811373
  41.4008609  63.5960245  46.9062238  41.2126447  63.5674471  47.6656565
  44.9579158  67.8597697  64.8299665  45.7714023  67.5882846  64.9904798
  44.7974124  67.5605237  64.0259861  45.0549106  67.7752623  64.7345071
  39.2548500  69.0412401  45.0012781  39.3241320  68.1826940  45.1405781
  40.0336955  69.2584282  44.6731806  39.3801350  68.9465265  44.9729938
  42.2351320  58.5431354  57.7695053  42.4493289  57.9042269  57.2158407
  41.6185219  58.9877178  57.3402915  42.1756649  58.5141498  57.6245484
  43.6455987  71.4650103  49.2149274  43.2535779  71.1616818  48.4972140
  43.8009060  72.3019193  49.0254228  43.6109577  71.5433939  49.0805771
  31.1217167  61.4572117  49.1640157  31.5016132  61.8756662  48.5000424
  30.5472532  62.0385572  49.4709000  31.0928492  61.6049976  49.1116898
  44.3990408  60.1520420  58.7078360  43.5867089  59.8446310  58.7891533
  44.8580342  59.6719420  59.2721073  44.3470792  60.0356912  58.8032955
  43.8095662  68.0300092  49.1555305  43.4510317  68.2014734  49.9319337
  43.3234373  68.4913297  48.5983303  43.6854359  68.1239063  49.1880574
  38.5984028  63.7099257  41.6955539  38.8876552  64.4864139  41.9699113
  38.6855826  63.1987988  42.3970038  38.6538284  63.7491175  41.8398037
  41.4943915  61.5580491  63.4907063  41.9643546  62.1822607  63.8774937
  41.5405795  60.8897467  64.0500277  41.5711791  61.5515171  63.6307134
  40.7207422  54.2030479  56.0448719  40.3339175  54.2279510  56.8262249
  40.2340359  53.6372157  55.5923236  40.5919931  54.1226229  56.0936623
  44.9700402  68.9203988  60.1022506  45.6080122  68.4264183  59.7684962
  44.3274493  68.8481388  59.5174733  44.9694628  68.8362996  59.9664861
  46.6957402  60.7693133  54.6688421  46.2685010  60.6819482  53.9136521
  46.0583455  60.8770909  55.2543265  46.5387009  60.7725793  54.6433863
  40.3864564  51.0897464  58.3358979  41.0157682  51.6257764  58.0580049
  40.5550427  50.9974823  59.1872545  40.5042358  51.1558826  58.4207507
  40.1878479  55.8768659  60.6085391  41.0151908  55.6053808  60.6644005
  40.2086325  56.6729500  60.9649209  40.3131329  55.9548413  60.6700574
  45.0254658  69.6123796  56.7427862  45.8147036  69.2612861  56.8629944
  45.1998256  70.4260184  56.4804496  45.1674940  69.6809653  56.7215730
  34.7647969  63.0232522  53.7955651  33.9235975  62.9236396  54.0034545
  34.9737977  63.7928002  54.1469972  34.6712661  63.1224565  53.8782966
  32.2423536  60.6452058  51.6240402  31.8480233  60.7195070  50.8490512
  31.6863652  61.0310005  52.1748764  32.1026348  60.7133833  51.5908062
  38.5764633  60.9513921  53.0453249  38.2727771  60.3969909  53.6463656
  37.8744054  61.1306131  52.5581283  38.4280843  60.8958703  53.0622954
  37.6330731  58.2614441  47.6097951  37.9090465  57.5433353  47.1975518
  38.2329400  58.8599360  47.4019057  37.7623995  58.2434811  47.5178712
  36.6382984  68.1663641  57.7525347  36.5303339  68.1765704  58.6187405
  36.8478766  68.9918422  57.5630300  36.6533095  68.2904716  57.8529438
  41.1341251  55.9327958  45.8844546  41.5884998  56.1038518  46.6092390
  41.6081297  55.3196069  45.4842321  41.2709571  55.8678843  45.9318307
  34.6556776  65.4176284  55.2147284  34.0644710  66.0585782  55.1850299
  35.4177800  65.8413901  55.1878584  34.6805037  65.5752122  55.2062431
  35.0517399  56.5778282  55.8815302  35.5118881  56.6517211  56.6190426
  35.0973506  57.3759536  55.5315123  35.1267955  56.7072429  55.9388058
  36.7000749  57.2444976  60.4487329  36.3086314  56.5978324  60.8843107
  36.8686612  57.8356412  61.0681584  36.6671659  57.2359244  60.6050035
  50.7747198  65.2482054  56.2124562  50.8330322  65.6968702  56.9584539
  50.1413666  65.6580866  55.7754642  50.6898493  65.3755788  56.2577111
  44.4146293  70.8685595  52.6479309  44.2165981  71.3576410  51.9535520
  43.7934004  71.0726837  53.2263442  44.2933857  70.9702134  52.6302532
  38.4754271  62.6370492  46.9889553  39.2196316  63.0244769  47.2272503
  38.6214967  61.7927918  47.1530041  38.6064856  62.5700965  47.0483523
  41.4632147  58.2095966  52.8883472  40.9892101  57.6837728  53.3988783
  41.8350283  57.6625438  52.3198334  41.4482036  58.0511962  52.8798619
  31.8405177  60.2067472  58.2567018  32.7030790  60.1063181  58.1704348
  31.5096960  59.6262182  57.6952590  31.9190373  60.1059099  58.1612424
  47.7268877  63.2698341  54.2990253  47.4867100  62.4304756  54.3032679
  48.2060885  63.3498508  55.0231026  47.7621061  63.1579741  54.4065055
  43.3915647  59.1032520  45.9509226  42.8638665  59.1861264  45.2614935
  43.8511355  59.8450392  45.9473871  43.3817497  59.2253183  45.8483921
  49.7274064  60.0499798  52.2519512  49.4883834  60.0095633  51.4140296
  49.8907966  60.8970950  52.3785233  49.7164368  60.1691883  52.1472994
  46.3320095  64.4349748  58.1824557  47.0554293  63.9822274  58.0035577
  46.0670057  64.7154413  57.3996885  46.4001368  64.4100716  58.0403272
  35.2006963  59.0309921  54.9177436  34.5760033  59.0428313  54.3103389
  34.8652558  59.5070096  55.5668676  35.0592455  59.1028438  54.9234005
  35.3848712  57.3735040  40.9750121  35.0361516  58.0254765  41.4381671
  34.9045158  57.3592153  40.2473992  35.2618956  57.4678093  40.9361212
  31.9132639  67.0910381  56.3581200  31.3832563  66.4002820  56.4076175
  32.1857732  67.0820567  55.5293909  31.8757361  66.9877513  56.2428616
  42.9452729  67.6736084  45.0818883  43.6686928  68.1394197  44.9383456
  42.5053320  67.7409693  44.3316480  42.9868421  67.7519920  44.9503664
  42.1138884  64.5333626  56.3319572  41.4995877  63.9891676  56.6268207
  42.6306169  64.0197862  55.8525388  42.0994547  64.3770035  56.3043800
  41.3535181  65.6037896  54.0663871  40.9262789  64.9787615  53.6329306
  41.3460126  65.3212818  54.8922878  41.2894322  65.4690677  54.1243698
  34.4697708  60.6403069  57.1352305  34.6291195  59.8846393  57.5404027
  34.2890602  61.1894009  57.7893042  34.4663067  60.6096883  57.2915011
  42.4118011  52.8064305  57.6903094  41.9158573  53.0027979  56.9994661
  43.1687073  53.2056973  57.5191896  42.4504836  52.8942038  57.5623231
  39.6820891  56.4806651  54.2806405  39.7063378  55.9466763  53.5919185
  39.9332365  55.9723959  54.9431995  39.7230810  56.3267554  54.2771049
  27.1928481  63.7638146  53.7149549  27.0871930  63.7184990  52.8501633
  26.4428701  64.1091926  53.9963834  27.0664084  63.8079054  53.6286878
  35.9622213  55.2077469  53.6612149  36.0020585  55.7086675  54.3746856
  35.1371878  55.2987862  53.3918072  35.8461739  55.2959285  53.7262687
  38.1451826  64.7738209  61.7632444  37.2947457  64.9109923  61.8990089
  38.3079954  64.0401987  62.2080145  38.0435690  64.6852310  61.8488043
  37.3836577  61.7237979  55.9586048  36.5528506  61.8911797  55.7521296
  37.3288094  61.3473929  56.7434933  37.2525991  61.6927710  56.0434576
  35.1920360  55.2146872  61.5942459  35.8173063  54.6709004  61.8671891
  34.7370840  54.7341789  61.0250249  35.2168620  55.0636353  61.5504053
  35.7572620  59.9993570  46.4876166  35.8975581  60.4966034  47.1904807
  36.2555153  59.2979865  46.6290379  35.8513701  59.9695549  46.6127745
  35.7872843  60.8660681  43.8168743  36.4217922  61.4621106  43.7518204
  35.8698454  60.5664139  44.6314613  35.8929394  60.9101589  43.9271829
  48.7655409  63.3976159  56.6855107  49.3573249  64.0373409  56.7173305
  49.2014403  62.6999195  56.9747174  48.9173840  63.3894509  56.7335939
  37.3651826  56.7974657  43.7914185  37.6867667  56.3177739  43.1373447
  37.6278769  57.6074303  43.6004996  37.4517851  56.8464555  43.6669677
  40.5948798  67.8193531  57.3113001  40.0873890  68.3729378  57.7553631
  40.2975445  67.8801821  56.4931775  40.4753683  67.9099842  57.2561457
  42.7610981  56.1846851  56.1537664  43.1866052  55.7319377  55.5421190
  42.1467974  55.6306921  56.4302451  42.7339626  56.0360827  56.1042689
  32.2925831  63.0628522  47.0858289  32.8018060  63.6593029  47.4669594
  32.7660103  62.7954496  46.4034708  32.4369206  63.1114337  47.0412811
  43.2056579  71.7356789  45.2416944  42.4885888  71.5617651  44.7764181
  43.8563316  71.5009361  44.7092430  43.1958429  71.6752581  45.0946162
  45.7904550  60.6121377  48.9858249  45.1195740  61.1551079  48.8571315
  46.4844300  61.0816233  48.7439944  45.7933417  60.7619648  48.9313777
  39.8391284  72.7518089  54.2170008  39.6156938  71.9936918  54.5854034
  39.3501127  72.7816110  53.4950447  39.7334733  72.6440314  54.1646748
  45.9532677  57.0677261  51.8948622  46.3060287  56.6406984  52.5694421
  45.0947479  56.9828104  52.0249699  45.8782122  56.9922001  52.0143633
  34.6516362  59.6984781  49.9531469  33.9328352  60.1148913  50.2204333
  35.0228725  60.2639019  49.4023107  34.6008294  59.8434062  49.9114276
  43.9515943  60.3312629  55.8433465  43.9313871  60.1495925  56.6968244
  43.9995144  61.2024648  55.8193048  43.9550584  60.4329168  55.9656759
  41.8962273  66.9199821  61.7681941  41.8558128  66.2749498  61.1827097
  42.7085591  66.8636439  62.0807353  42.0105427  66.8158788  61.7278890
  38.4869741  72.9718547  51.6707092  38.0730139  72.3092678  51.2810934
  39.1717115  73.1196406  51.1502786  38.5268112  72.8959205  51.5363589
  41.8535035  72.1308633  52.4230709  41.4551318  72.2410903  51.6551529
  41.2386254  72.3390699  53.0057269  41.7033924  72.1782201  52.3962008
  40.4262937  58.7382780  45.2904848  39.8327776  59.0599777  44.7389415
  40.4638214  57.8923876  45.0825955  40.3437326  58.6607109  45.1787620
  43.3020753  58.6962285  48.7206599  43.0734446  58.7194986  47.8784957
  43.5618830  57.8719752  48.8401609  43.3066941  58.5778365  48.6131796
  37.5839982  60.5496758  58.3231699  37.0718885  59.9417941  58.6816730
  37.4119478  61.2653350  58.7905675  37.4829619  60.5660057  58.4447923
  32.4305697  58.9934333  60.9734061  32.2608287  59.6535708  60.4282267
  31.9871646  59.2040894  61.6946550  32.3405030  59.1220315  60.9995690
  36.3565516  57.2338831  50.0160794  36.8322882  57.5955911  49.3810975
  35.8554115  57.8895299  50.2960937  36.3530875  57.3833020  49.9637535
  49.5876877  66.7060599  45.8073799  49.9710483  67.4551955  46.0371896
  48.7920991  66.9526419  45.5485788  49.5270660  66.8530293  45.8031373
  41.4609052  58.4721003  60.7633954  42.0180482  58.2434812  60.1312420
  41.1370117  59.2326668  60.4869167  41.4955462  58.5504839  60.6290452
  29.3307761  61.8981199  56.2322551  28.7834480  61.2281844  56.3503419
  30.1200139  61.5311047  56.2966018  29.3659945  61.7446185  56.2591251
  39.1792169  61.5588656  61.7285962  39.9303496  61.8740333  62.0425516
  39.3714746  61.3567827  60.9019883  39.3183584  61.5756038  61.6529357
  38.3992169  59.3780031  43.3834178  38.7791134  59.3959660  42.5985293
  37.6584765  59.8234020  43.2625026  38.3461007  59.4461806  43.2497746
  28.0894730  61.1102007  53.3868574  27.9116492  60.6578616  54.1123489
  27.8013753  61.9128168  53.5707051  28.0207684  61.1624564  53.5212076
  43.7518312  62.3659724  52.6245964  44.2471977  61.6482719  52.5849984
  42.9418087  62.0630522  52.5100451  43.7062205  62.2157370  52.6019690
  39.1976923  66.2157537  44.7742968  38.3888246  65.8924211  44.7276278
  39.7051832  65.5090759  44.7071217  39.1526590  66.0638854  44.7573263
  29.8267200  63.6429730  50.4990333  28.9612720  63.6315421  50.3873104
  29.9266016  63.4559953  51.3461472  29.7141367  63.6135792  50.6079277
  45.8170130  65.1163411  55.3123093  46.2425202  64.5937833  54.7593518
  45.4527050  65.7144249  54.7911716  45.8256733  65.1273639  55.1532102
  35.4524210  73.4127629  54.0720438  35.7670769  74.2264017  54.0798220
  35.8617624  73.0277848  54.7402597  35.5592308  73.4756331  54.1724530
  42.4048730  68.8297676  51.6424250  42.8759908  69.5437938  51.8114235
  42.7408908  68.2296426  52.1784120  42.5243845  68.8469140  51.7456626
  44.4925714  70.4398989  63.8216322  44.6022680  69.6507550  64.1773069
  44.8216611  70.3504925  63.0190660  44.5578120  70.3104842  63.7558713
  39.3218225  53.6025146  58.5982345  39.4546130  52.8056140  58.9263320
  39.7063378  54.1291549  59.1780621  39.3974554  53.5625063  58.7325848
  43.0422676  68.6215610  58.4051943  42.4943622  67.9973494  58.1372008
  43.5035705  68.8109882  57.6896022  43.0289886  68.5574660  58.2602374
  45.8516541  56.6900964  55.7903135  45.2679529  57.1910171  55.3780702
  46.1720835  56.1830521  55.1567458  45.8129716  56.6892799  55.6361642
  38.3911340  55.6041559  46.0661810  39.2127034  55.7739872  45.8243505
  37.9280991  55.7588820  45.3428107  38.4442502  55.6523292  45.9233454
  36.9806672  53.5984321  56.8460239  37.5251085  53.2575448  57.4364580
  37.0343607  54.4569783  56.9881523  37.0695791  53.6739581  56.9542112
  32.7937230  67.3600737  53.7199047  33.3982088  67.3196572  53.0912867
  32.5864543  68.2071889  53.7503102  32.8526128  67.4788740  53.6315163
  42.6081003  69.6266683  54.9361284  43.4279376  69.4829649  55.1977579
  42.3275080  70.2512881  55.4777722  42.6877746  69.6977035  55.0549223
  28.0288513  66.3435355  53.5897970  27.9312791  65.5331626  53.8988026
  28.8117382  66.3227148  53.2044238  28.1304649  66.2202445  53.5784833
  59.0794653  77.2831534  47.9004160  59.0488657  78.1376171  48.0722430
  59.6776002  76.9826827  48.4590304  59.1631811  77.3648031  48.0078963
  52.2794338  76.3707185  52.6557091  51.4232233  76.5315684  52.7066208
  52.3261991  75.4999249  52.6762152  52.1593449  76.2657987  52.6663157
  55.1246159  78.4299229  55.2988742  55.6702119  79.1084316  55.3582712
  55.0663035  78.2886690  54.4390324  55.1962073  78.5091231  55.1800803
  56.9011227  79.8583836  46.1722470  56.7850753  80.6091522  46.6014608
  57.6967114  79.6007790  46.4218557  57.0015817  79.9318683  46.2726562
  43.7375365  74.1094313  53.2093736  43.1180397  73.5186960  53.0403751
  43.6359229  74.7005748  52.5758059  43.6313041  74.1098395  53.0898726
  48.7841553  83.8477859  47.4591813  49.1057394  84.3883067  46.8553121
  49.4313649  83.2774631  47.5914102  48.9267608  83.8437035  47.3898848
  50.8343261  75.8493854  47.5426199  51.5323426  76.0281982  48.0347663
  51.1495594  75.3264194  46.9196589  50.9838598  75.7987626  47.5228209
  43.4644498  77.6546594  55.4537305  43.3403195  78.2409040  56.0887124
  44.1162783  77.1606790  55.7549580  43.5418148  77.6685399  55.5923234
  51.0231196  82.2364299  47.5305991  51.4624832  81.6281400  47.9760764
  50.8735859  81.8571673  46.7591456  51.0652662  82.0902770  47.4825158
  48.4902839  80.8308311  54.7324816  49.1351842  80.3380754  54.4135765
  48.7304616  80.9733098  55.5590895  48.6213424  80.7785753  54.8074349
  51.0288931  83.6763217  54.3831709  51.3112174  82.8814623  54.1618465
  51.7575091  84.1543804  54.4036770  51.1778494  83.6297814  54.3534724
  49.0070125  71.2186251  51.6247474  48.6773455  71.6697395  50.9551173
  48.3315126  71.1402414  52.1720480  48.8580561  71.2737386  51.6070697
  54.6240533  80.5891481  44.4836760  54.5391828  81.4452447  44.6286329
  55.1124916  80.3135805  45.1518919  54.6829430  80.6748802  44.6038841
  56.2146532  67.2071774  49.8697085  55.8999973  67.8975252  50.3017507
  55.6973474  67.1516556  49.1682585  56.0911003  67.3006662  49.8294034
  55.5558966  77.2076275  45.9834495  55.0270438  77.4235908  46.6431801
  56.0783986  77.9012413  45.9035464  55.5547419  77.3419412  46.0690094
  47.4458574  81.1039492  44.7841963  46.8615789  81.6089523  45.1907827
  47.0428669  80.8781878  44.0438555  47.2997878  81.1447740  44.7346988
  51.9035788  77.3505144  43.2610884  52.1431792  77.5583127  42.4486227
  52.2251629  76.5462652  43.3699828  51.9872946  77.2619245  43.1571437
  47.2126079  69.2798539  47.1070422  47.9672047  69.6476856  46.8687472
  47.0353613  69.6538094  47.8749601  47.2980557  69.3896727  47.1855310
  60.5060977  75.4292980  55.1517961  59.6689398  75.4995167  55.3865555
  60.4749208  75.4317475  54.2792263  60.3779260  75.4403207  55.0577509
  46.9025706  77.5726016  60.8666330  47.0746210  77.4631910  61.7151611
  47.4395064  78.2180421  60.6297522  47.0070710  77.6518017  60.9571426
  45.5683143  71.6868858  43.8048535  45.3858717  71.9040739  42.9789527
  46.4308756  71.8007871  43.8607149  45.6687733  71.7358756  43.6903022
  51.2482862  68.6895269  46.8397558  51.9769023  68.5111224  46.3935715
  51.3377755  69.5313349  47.0504737  51.3689525  68.7879147  46.8051076
  55.2291163  79.6248656  50.7429852  55.9848678  80.0580171  50.7818761
  55.3353488  78.9753426  51.3164488  55.3561334  79.5926140  50.8327878
  41.2087423  80.1657947  55.7019250  40.9425839  79.3497063  55.8610240
  41.2225987  80.2111102  54.8314765  41.1712146  80.0514851  55.5972732
  58.1868817  70.4935761  53.7361683  58.8294726  70.5633866  54.3223599
  58.4391838  69.8264984  53.2341225  58.3190949  70.4062110  53.7488963
  45.1145170  74.9643031  42.3171008  44.4003347  74.6781211  42.7293440
  45.5989139  75.3039657  42.9577395  45.0804534  74.9724681  42.4726643
  45.9586030  73.7036325  58.3486257  45.2657826  73.2333305  58.5946989
  46.5746357  73.4774629  58.9227964  45.9470560  73.6003457  58.4695410
  52.2892488  83.4672985  42.6932816  52.7043637  83.1358009  42.0017312
  51.4584418  83.2341887  42.5652953  52.2280497  83.3844241  42.5723663
  41.6180837  80.9516726  52.9830994  41.4356410  80.9263612  52.1303286
  42.3530506  81.4215664  53.0219903  41.6994901  81.0178088  52.8628912
  57.6880511  81.1868236  50.1263881  57.9236100  81.3313435  49.2990732
  57.8370075  81.9510644  50.5195395  57.7446314  81.3207290  50.0627485
  44.6826589  77.6701729  59.4913102  45.4066561  77.6554759  59.9777997
  44.7842725  78.3797084  58.9935071  44.8044798  77.7726432  59.4891889
  59.5170968  80.0269902  47.9633485  59.8479185  80.5597542  47.3573580
  60.0904056  80.0808790  48.6195436  59.6504647  80.1139471  47.9711267
  54.7302857  77.8734805  48.6457065  54.8249711  78.6124099  49.0996691
  54.1061701  77.4452280  49.0791630  54.6511887  77.9196125  48.7765213
  41.5851747  77.8310227  53.1330060  42.1625250  77.6946677  53.7722306
  40.8865809  77.3746011  53.3875645  41.5672769  77.7432493  53.2652350
  54.9825878  79.7183544  41.8794017  54.9006041  79.7885732  42.7449004
  55.6205599  80.2813288  41.6877758  55.0645716  79.8122515  41.9783967
  48.3419050  79.4844282  51.3468544  48.0838294  78.6516017  51.3199843
  48.3967532  79.7101895  50.5061044  48.3118827  79.3942054  51.2188680
  53.4220100  71.5872733  51.4472636  52.7176426  71.0981919  51.6056555
  53.4705074  71.5995207  50.5761081  53.3250151  71.5162381  51.3411976
  47.3153762  77.0382045  51.8333438  46.7403353  77.1974213  52.4697399
  46.9389438  76.4017454  51.3701889  47.1756574  76.9679858  51.8587997
  50.9827050  75.5105394  56.6925817  50.5941483  75.0859612  56.0378008
  50.3181749  75.7587544  57.2002843  50.8273978  75.4844115  56.6713685
  60.6250319  75.2680399  49.4673647  60.3686884  74.4560340  49.2771530
  61.4679633  75.2757966  49.2403834  60.7116345  75.1492396  49.4058464
  37.0610581  76.6822120  49.8477879  37.1470832  76.3053988  50.6291409
  37.6886378  76.3082565  49.3697837  37.1667132  76.5707602  49.8923356
  54.8053412  69.2080023  54.2049801  55.1863924  68.5258194  54.5917675
  54.0016696  68.9189625  54.0225465  54.7429874  69.0647071  54.2353857
  52.0865989  79.7403999  44.8902624  52.9006627  80.0318891  44.7785395
  52.0225130  79.0863861  44.3160917  52.1968728  79.6869193  44.7891461
  47.9573897  83.2125516  50.0174936  48.5947844  82.9737264  50.5626729
  48.3828968  83.4162675  49.2828096  48.1150063  83.2076526  49.9892093
  48.5976712  78.4327806  44.3549825  48.9821865  78.2135513  45.1066370
  48.3488332  79.2590751  44.4850902  48.6178784  78.5225952  44.4850902
  50.3395369  83.6897939  51.6968722  50.4134377  83.5273111  52.5510572
  51.1564875  83.8788128  51.4529204  50.4711727  83.6934681  51.7866748
  46.3177149  70.1024743  49.6858606  45.4499575  70.1747342  49.7516215
  46.6052354  70.9046822  49.8746581  46.2316897  70.2318890  49.7233372
  55.4410038  70.2502602  58.0169928  56.1863630  70.0612412  57.6033353
  55.0247343  70.7760840  57.4583784  55.4895012  70.3004747  57.8734501
  62.8172309  77.6211830  52.9675433  63.3680230  76.9879899  53.2072525
  62.8016424  78.1527223  53.6590937  62.8957505  77.6060779  53.1054291
  49.4694700  81.4550428  57.5135326  48.9706393  82.1666195  57.5920214
  50.2794924  81.7751094  57.4753488  49.5150806  81.6077276  57.5191895
  45.7322817  80.7173381  51.7598047  45.4436066  80.0910852  52.2943774
  46.6006165  80.6593668  51.8262727  45.8183069  80.6160925  51.8489001
  56.5200715  75.8608164  52.0780029  56.1765481  75.1398499  52.4287278
  56.6193758  75.6522015  51.2358387  56.4842758  75.7232367  52.0051709
  45.9355091  82.3568632  47.6840412  46.6901059  82.7381671  47.8975874
  45.3425703  82.8079775  48.1387108  45.9591804  82.4797459  47.7823290
  48.3961758  74.3131472  62.8097624  47.5861533  74.6189252  62.6987467
  48.8736444  75.0337054  62.9250208  48.3465236  74.4646073  62.8104695
  47.2553317  83.5277193  53.0580527  46.7334071  83.6677485  53.7432392
  47.6427338  82.7687857  53.2482645  47.2357018  83.4362717  53.1881604
  44.2444501  73.5783002  47.1275482  43.9569297  73.2084272  46.3907429
  44.9314970  74.0477857  46.8659187  44.3033399  73.5929971  46.9790558
  48.6819643  80.5581212  48.4562018  48.4862426  81.1655947  47.8622321
  48.9053988  79.8649156  47.9753692  48.6854284  80.5458738  48.2978099
  47.0798173  77.4435950  48.5742887  47.8020825  77.6077108  48.1146693
  46.6006166  78.1645615  48.4682226  47.1161904  77.5734180  48.4908501
  55.0391680  73.7799749  53.9539572  54.2002781  73.8061028  53.7177835
  55.1096048  74.4270484  54.5344918  54.9260074  73.8795875  54.0048689
  44.7305790  79.8494022  57.6797027  45.2426887  80.1278276  57.0305786
  44.4442132  80.5883317  58.0459840  44.7640653  79.9996376  57.6386905
  53.4860959  70.6785126  48.6867188  54.1887312  70.4792874  48.2087146
  53.2205147  69.9061068  48.9936031  53.5507591  70.5348092  48.6612629
  58.9149204  78.9867736  51.2400813  58.8283179  79.1423162  52.0935592
  58.4599684  79.6305811  50.8660218  58.8352461  79.1043491  51.3107920
  41.8172696  74.3564214  47.9760763  41.9188832  75.1590376  48.3041739
  42.6128583  74.1551550  47.6783844  41.9500602  74.4450113  47.9796118
  48.2489515  71.9420411  57.7398068  48.0572712  71.9575545  58.5897492
  49.0988111  72.1384085  57.7164723  48.3465237  71.9734762  57.8621363
  42.6336428  74.4711393  55.7181885  42.4921920  73.6195333  55.8426393
  42.9176991  74.5140053  54.8944091  42.6544274  74.3511143  55.6149509
  52.7875020  76.3078483  49.8626373  52.5409735  76.2274234  50.6963162
  53.1160143  75.5231951  49.6688900  52.7996264  76.1804748  49.9573896
  48.7472048  79.0435201  59.2749356  48.8915423  79.6236409  58.6392466
  49.0947696  79.4211498  59.9799211  48.8199509  79.1855905  59.2848351
  50.9191965  78.2425370  57.0574488  50.1715279  78.4356384  56.6522766
  51.0733490  77.4170589  56.8198609  50.8314393  78.1490481  56.9619893
  51.1593742  72.1375920  57.9469891  51.6166356  72.8699895  58.0742684
  51.2350071  71.7142386  58.7057147  51.2384712  72.1833159  58.0770968
  43.4026733  72.3841740  59.0359335  42.8668923  71.7722098  59.3520102
  43.4644498  72.9589876  59.6893002  43.3322366  72.3788668  59.1794762
  55.6321068  65.3165796  51.8163734  55.7504636  65.7742259  51.0831037
  55.4583244  64.5111057  51.5299952  55.6240239  65.2659568  51.6664668
  49.0376120  74.1278024  54.7911715  48.2472195  73.9469484  55.1129051
  49.4336743  73.3504977  54.7742010  48.9792996  73.9865485  54.8364264
  53.5242011  82.9565799  40.2318429  54.2914996  83.0165924  39.8224281
  53.0773320  82.3846240  39.7474747  53.5715438  82.8802374  40.0996139
  54.4219806  81.7620455  52.5171161  53.7464808  81.5305687  53.0184548
  54.4312182  81.1541637  51.8913266  54.3238311  81.6379380  52.4987314
  51.5513950  76.6038283  59.2735214  51.4873091  77.4648240  59.1455351
  51.6911138  76.2870277  58.4730766  51.5629420  76.6838450  59.1363427
  50.2333044  79.2970423  53.4151417  49.8095293  79.4974922  52.6790436
  50.0577899  78.4499271  53.5275717  50.1443925  79.2019204  53.3225107
  45.5215489  79.7922474  48.8479390  45.6780108  79.7269277  49.7035382
  45.8616082  80.5671027  48.6358069  45.5948724  79.8971672  48.9433984
  52.0594634  79.1680358  47.7172753  52.6010179  78.6650739  48.1811373
  52.3741193  79.1145553  46.9062238  52.1859031  79.0859779  47.6656565
  50.2281083  84.5597709  45.0012781  50.2973904  83.7012248  45.1405781
  51.0069539  84.7769590  44.6731806  50.3533934  84.4650573  44.9729938
  53.2083903  74.0616662  57.7695053  53.4225873  73.4227577  57.2158407
  52.5917802  74.5062486  57.3402915  53.1489232  74.0326806  57.6245484
  42.0949751  76.9757425  49.1640157  42.4748715  77.3941970  48.5000424
  41.5205115  77.5570880  49.4709000  42.0661075  77.1235284  49.1116898
  55.3722991  75.6705728  58.7078360  54.5599673  75.3631618  58.7891533
  55.8312926  75.1904728  59.2721073  55.3203376  75.5542220  58.8032955
  54.7828246  83.5485399  49.1555305  54.4242901  83.7200042  49.9319337
  54.2966957  84.0098605  48.5983303  54.6586943  83.6424371  49.1880574
  52.5998632  67.1716598  52.7582396  51.7292190  67.1455319  52.7115706
  52.8538973  66.9993790  51.9408242  52.5092192  67.1426742  52.6302533
  49.6247772  69.1822826  54.2155867  49.1086261  68.4903018  54.3407446
  49.0641701  69.8493603  54.1618465  49.4654285  69.1786084  54.2261933
  51.6940006  69.7215786  56.0448719  51.3071759  69.7464818  56.8262249
  51.2072943  69.1557465  55.5923236  51.5652515  69.6411537  56.0936623
  57.6689985  76.2878441  54.6688421  57.2417593  76.2004790  53.9136521
  57.0316038  76.3956217  55.2543265  57.5119592  76.2911101  54.6433863
  51.3597147  66.6082772  58.3358979  51.9890265  67.1443072  58.0580049
  51.5283010  66.5160131  59.1872545  51.4774942  66.6744134  58.4207507
  51.1611062  71.3953967  60.6085391  51.9884492  71.1239116  60.6644005
  51.1818908  72.1914808  60.9649209  51.2863912  71.4733721  60.6700574
  45.7380552  78.5417829  53.7955651  44.8968559  78.4421704  54.0034545
  45.9470560  79.3113310  54.1469972  45.6445245  78.6409873  53.8782966
  43.2156119  76.1637366  51.6240402  42.8212817  76.2380378  50.8490512
  42.6596236  76.5495313  52.1748764  43.0758931  76.2319141  51.5908062
  54.8521066  69.1418660  51.3044281  55.0570659  69.0740968  52.1501278
  54.5247490  69.9477482  51.2365458  54.8336314  69.2504601  51.4203936
  49.5497217  76.4699229  53.0453249  49.2460355  75.9155217  53.6463656
  48.8476638  76.6491439  52.5581283  49.4013427  76.4144011  53.0622954
  48.6063314  73.7799748  47.6097951  48.8823048  73.0618661  47.1975518
  49.2061983  74.3784668  47.4019057  48.7356579  73.7620119  47.5178712
  58.1054754  69.6950425  50.7847046  57.4929067  70.1820827  51.1700778
  58.2018928  69.0193916  51.3284697  58.0292651  69.6668733  50.9225905
  52.1073835  71.4513266  45.8844546  52.5617581  71.6223826  46.6092390
  52.5813880  70.8381376  45.4842321  52.2442155  71.3864151  45.9318307
  45.6289360  80.9361592  55.2147284  45.0377293  81.5771090  55.1850299
  46.3910384  81.3599209  55.1878584  45.6537621  81.0937430  55.2062431
  46.0249983  72.0963590  55.8815302  46.4851464  72.1702519  56.6190426
  46.0706090  72.8944844  55.5315123  46.1000538  72.2257737  55.9388058
  47.6733333  72.7630284  60.4487329  47.2818898  72.1163631  60.8843107
  47.8419195  73.3541720  61.0681584  47.6404243  72.7544552  60.6050035
  49.4486855  78.1555800  46.9889553  50.1928900  78.5430076  47.2272503
  49.5947551  77.3113226  47.1530041  49.5797440  78.0886273  47.0483523
  51.3666430  69.9506059  52.0221414  50.5202475  70.1228867  51.8962764
  51.3637563  69.1455403  52.3587243  51.2413580  69.8567088  52.0532541
  52.4364730  73.7281273  52.8883472  51.9624685  73.2023036  53.3988783
  52.8082866  73.1810746  52.3198334  52.4214619  73.5697270  52.8798619
  42.8137761  75.7252780  58.2567018  43.6763374  75.6248489  58.1704348
  42.4829544  75.1447489  57.6952590  42.8922957  75.6244407  58.1612424
  58.7001461  78.7883649  54.2990253  58.4599684  77.9490064  54.3032679
  59.1793468  78.8683816  55.0231026  58.7353645  78.6765049  54.4065055
  54.3648230  74.6217828  45.9509226  53.8371249  74.7046572  45.2614935
  54.8243938  75.3635700  45.9473871  54.3550081  74.7438490  45.8483921
  60.7006648  75.5685106  52.2519512  60.4616418  75.5280940  51.4140296
  60.8640549  76.4156258  52.3785233  60.6896952  75.6877191  52.1472994
  46.1739547  74.5495229  54.9177436  45.5492617  74.5613621  54.3103389
  45.8385141  75.0255404  55.5668676  46.0325038  74.6213746  54.9234005
  46.3581295  72.8920348  40.9750121  46.0094100  73.5440073  41.4381671
  45.8777741  72.8777461  40.2473992  46.2351539  72.9863401  40.9361212
  53.9185313  83.1921392  45.0818883  54.6419511  83.6579505  44.9383456
  53.4785904  83.2595001  44.3316480  53.9601005  83.2705228  44.9503664
  53.0871468  80.0518934  56.3319572  52.4728461  79.5076984  56.6268207
  53.6038753  79.5383170  55.8525388  53.0727130  79.8955343  56.3043800
  52.3267765  81.1223204  54.0663871  51.8995373  80.4972923  53.6329306
  52.3192709  80.8398126  54.8922878  52.2626906  80.9875985  54.1243698
  45.4430292  76.1588377  57.1352305  45.6023779  75.4031701  57.5404027
  45.2623186  76.7079317  57.7893042  45.4395651  76.1282191  57.2915011
  53.3850595  68.3249613  57.6903094  52.8891156  68.5213287  56.9994661
  54.1419657  68.7242281  57.5191896  53.4237420  68.4127346  57.5623231
  50.6553475  71.9991958  54.2806405  50.6795962  71.4652071  53.5919185
  50.9064948  71.4909267  54.9431995  50.6963393  71.8452862  54.2771049
  38.1661064  79.2823453  53.7149549  38.0604513  79.2370298  52.8501633
  37.4161284  79.6277234  53.9963834  38.0396667  79.3264362  53.6286878
  46.9354797  70.7262777  53.6612149  46.9753168  71.2271983  54.3746856
  46.1104461  70.8173170  53.3918072  46.8194323  70.8144593  53.7262687
  48.3569160  77.2423287  55.9586048  47.5261090  77.4097104  55.7521296
  48.3020677  76.8659237  56.7434933  48.2258575  77.2113018  56.0434576
  46.1652943  70.7332179  61.5942459  46.7905647  70.1894312  61.8671891
  45.7103423  70.2527097  61.0250249  46.1901204  70.5821661  61.5504053
  46.7305204  75.5178878  46.4876166  46.8708165  76.0151342  47.1904807
  47.2287737  74.8165172  46.6290379  46.8246285  75.4880857  46.6127745
  46.7605426  76.3845989  43.8168743  47.3950506  76.9806414  43.7518204
  46.8431037  76.0849447  44.6314613  46.8661977  76.4286897  43.9271829
  48.3384409  72.3159964  43.7914185  48.6600250  71.8363047  43.1373447
  48.6011353  73.1259611  43.6004996  48.4250435  72.3649862  43.6669677
  53.7343564  71.7032158  56.1537664  54.1598636  71.2504685  55.5421190
  53.1200557  71.1492229  56.4302451  53.7072210  71.5546135  56.1042689
  43.2658414  78.5813830  47.0858289  43.7750644  79.1778337  47.4669594
  43.7392687  78.3139804  46.4034708  43.4101790  78.6299645  47.0412811
  52.1737787  68.1747258  49.5628241  51.5306105  68.0244905  50.1313379
  51.8337194  67.9289604  48.7977345  52.0282864  68.1159381  49.5331256
  56.7637134  76.1306685  48.9858249  56.0928323  76.6736387  48.8571315
  57.4576884  76.6001540  48.7439944  56.7666001  76.2804956  48.9313777
  56.9265261  72.5862569  51.8948622  57.2792871  72.1592292  52.5694421
  56.0680062  72.5013412  52.0249699  56.8514706  72.5107309  52.0143633
  45.6248946  75.2170088  49.9531469  44.9060935  75.6334221  50.2204333
  45.9961308  75.7824327  49.4023107  45.5740878  75.3619370  49.9114276
  54.9248527  75.8497937  55.8433465  54.9046454  75.6681232  56.6968244
  54.9727728  76.7209956  55.8193048  54.9283168  75.9514476  55.9656759
  51.3995520  74.2568088  45.2904848  50.8060360  74.5785085  44.7389415
  51.4370798  73.4109184  45.0825955  51.3169909  74.1792417  45.1787620
  58.3589321  67.7080981  52.8232935  57.8520186  67.0010120  52.7554112
  59.1556755  67.3774169  52.9534012  58.4016560  67.5554132  52.8331930
  54.2753337  74.2147593  48.7206599  54.0467030  74.2380294  47.8784957
  54.5351413  73.3905060  48.8401609  54.2799525  74.0963673  48.6131796
  48.5572565  76.0682066  58.3231699  48.0451468  75.4603249  58.6816730
  48.3852062  76.7838658  58.7905675  48.4562202  76.0845365  58.4447923
  43.4038280  74.5119641  60.9734061  43.2340870  75.1721016  60.4282267
  42.9604230  74.7226202  61.6946550  43.3137614  74.6405623  60.9995690
  47.3298099  72.7524139  50.0160794  47.8055466  73.1141219  49.3810975
  46.8286699  73.4080607  50.2960937  47.3263458  72.9018328  49.9637535
  52.4341636  73.9906311  60.7633954  52.9913066  73.7620120  60.1312420
  52.1102701  74.7511976  60.4869167  52.4688046  74.0690147  60.6290452
  40.3040345  77.4166507  56.2322551  39.7567064  76.7467152  56.3503419
  41.0932723  77.0496355  56.2966018  40.3392528  77.2631493  56.2591251
  49.3724753  74.8965339  43.3834178  49.7523717  74.9144968  42.5985293
  48.6317349  75.3419328  43.2625026  49.3193590  74.9647114  43.2497746
  57.0010043  73.2047530  48.9709757  57.0004270  73.0496187  49.8294033
  56.7966223  74.0510517  48.9151143  56.9709821  73.3068151  49.0897696
  39.0627314  76.6287315  53.3868574  38.8849075  76.1763924  54.1123489
  38.7746336  77.4313476  53.5707051  38.9940267  76.6809872  53.5212076
  54.7250895  77.8845032  52.6245964  55.2204560  77.1668027  52.5849984
  53.9150671  77.5815830  52.5100451  54.6794788  77.7342678  52.6019690
  50.1709507  81.7342845  44.7742968  49.3620829  81.4109519  44.7276278
  50.6784416  81.0276067  44.7071217  50.1259173  81.5824162  44.7573263
  40.7999784  79.1615038  50.4990333  39.9345303  79.1500729  50.3873104
  40.8998600  78.9745261  51.3461472  40.6873951  79.1321100  50.6079277
  56.7902714  80.6348719  55.3123093  57.2157786  80.1123141  54.7593518
  56.4259634  81.2329557  54.7911716  56.7989317  80.6458946  55.1532102
  53.3781313  84.3482984  51.6424250  53.8492492  85.0623246  51.8114235
  53.7141492  83.7481734  52.1784120  53.4976429  84.3654448  51.7456626
  50.2950808  69.1210454  58.5982345  50.4278714  68.3241448  58.9263320
  50.6795961  69.6476857  59.1780621  50.3707137  69.0810371  58.7325848
  53.3683164  66.0440780  55.1963438  52.5629127  65.9338510  55.5131276
  53.2389899  66.1453236  54.3393304  53.2303296  66.0424450  55.1171479
  56.8249124  72.2086272  55.7903135  56.2412113  72.7095479  55.3780702
  57.1453418  71.7015828  55.1567458  56.7862299  72.2078107  55.6361642
  49.3643923  71.1226867  46.0661810  50.1859618  71.2925180  45.8243505
  48.9013574  71.2774128  45.3428107  49.4175086  71.1708600  45.9233454
  47.9539255  69.1169629  56.8460239  48.4983668  68.7760756  57.4364580
  48.0076191  69.9755091  56.9881523  48.0428375  69.1924889  56.9542112
  25.8547726   7.6653742  34.8344207  25.8241730   8.5198378  35.0062476
  26.4529075   7.3649034  35.3930351  25.9384884   7.7470238  34.9419009
  19.0547411   6.7529393  39.5897138  18.1985306   6.9137891  39.6406254
  19.1015065   5.8821457  39.6102199  18.9346522   6.6480195  39.6003204
  13.4388551  16.2892111  35.3534369  12.6871450  15.9107649  35.1250414
  13.8874562  16.3210544  34.6053179  13.3938217  16.2377718  35.2091871
  22.3641127  13.0215918  49.1957594  23.0707895  12.5267949  49.3244528
  22.5529063  13.4625000  48.4660252  22.4969033  13.0134269  49.1066639
  18.8913511  16.7117480  30.7819916  18.5564879  17.3894402  30.3464138
  19.4040381  16.3222791  30.1936788  18.9179092  16.7542058  30.6306708
  18.4317802  18.6631749  36.7231028  18.8157181  19.2318647  36.1835803
  18.3676943  17.9381259  36.2436844  18.4791229  18.6407212  36.5724890
  21.8999232   8.8121437  42.2328789  22.4455192   9.4906523  42.2922759
  21.8416108   8.6708897  41.3730371  21.9715146   8.8913438  42.1140850
  15.0173307  16.3010503  37.6197142  15.1183670  15.4910857  37.9294269
  14.4215052  16.2067449  36.9896820  14.9445845  16.1675531  37.5723380
  23.6764301  10.2406044  33.1062517  23.5603827  10.9913730  33.5354655
  24.4720187   9.9829997  33.3558604  23.7768890  10.3140891  33.2066609
  14.8574046  21.2188092  39.0211998  15.5011502  21.6601256  39.4108156
  15.1830302  20.4141518  38.9342256  15.0005875  21.1653287  39.0657475
   8.2138351  12.3230789  37.2449475   7.9788536  11.4898442  37.1381744
   8.3523992  12.6035455  36.4310676   8.1994014  12.2414293  37.1091830
  15.5594626  14.2300067  34.3931859  15.8810467  14.7705274  33.7893167
  16.2066723  13.6596838  34.5254149  15.7020681  14.2259242  34.3238895
  17.6096334   6.2316062  34.4766246  18.3076499   6.4104189  34.9687709
  17.9248667   5.7086401  33.8536635  17.7591671   6.1809834  34.4568256
  10.2397572   8.0368802  42.3877352  10.1156268   8.6231247  43.0227171
  10.8915856   7.5428997  42.6889627  10.3171221   8.0507606  42.5263281
  17.7984270  12.6186507  34.4646038  18.2377905  12.0103607  34.9100810
  17.6488932  12.2393880  33.6931503  17.8405735  12.4724978  34.4165205
  15.2655913  11.2130519  41.6664863  15.9104915  10.7202962  41.3475812
  15.5057690  11.3555305  42.4930941  15.3966498  11.1607961  41.7414396
  17.8042004  14.0585424  41.3171756  18.0865247  13.2636830  41.0958511
  18.5328164  14.5366012  41.3376817  17.9531568  14.0120021  41.2874771
  21.3993606  10.9713688  31.4176807  21.3144901  11.8274655  31.5626376
  21.8877989  10.6958012  32.0858966  21.4582503  11.0571009  31.5378888
  22.9899606  -2.4106019  36.8037131  22.6753047  -1.7202540  37.2357554
  22.4726547  -2.4661236  36.1022632  22.8664076  -2.3171130  36.7634080
  22.3312039   7.5898482  32.9174542  21.8023511   7.8058116  33.5771848
  22.8537059   8.2834621  32.8375511  22.3300492   7.7241619  33.0030141
   9.7755676  17.2016460  38.5205681   9.2923254  17.9266950  38.4965265
  10.5878994  17.4992590  38.6315839   9.8246424  17.3518814  38.5332961
  15.8469830  15.9948641  41.1255496  15.3296772  15.6356056  40.5216804
  16.5444221  15.4710815  41.1361562  15.8735411  15.8646329  41.0385755
  19.5033422  16.4443455  47.0871669  19.5916768  16.2569595  47.9349879
  19.9323134  15.7980884  46.6876516  19.5795524  16.3206463  47.1543420
  17.0703882  15.7274615  46.0689331  16.5074716  15.3147225  46.5928992
  17.8324905  15.6527520  46.4882474  17.0998330  15.6552015  46.2082331
  18.6788862   7.7327351  30.1950930  18.9184865   7.9405335  29.3826274
  19.0004703   6.9284860  30.3039875  18.7626020   7.6441452  30.0911484
  12.6299873  17.7172636  38.6725961  13.3320452  17.2024625  38.7298718
  12.5497356  18.0446787  39.4772836  12.7223634  17.6886862  38.7998753
  27.2814051   5.8115187  42.0858008  26.4442472   5.8817374  42.3205602
  27.2502282   5.8139682  41.2132310  27.1532333   5.8225414  41.9917556
  13.6778780   7.9548223  47.8006376  13.8499283   7.8454118  48.6491658
  14.2148137   8.6002628  47.5637569  13.7823784   8.0340225  47.8911473
  11.9550648  13.9078988  38.1811569  12.7939548  14.1401921  38.2285331
  11.9862418  13.0383299  38.1118605  12.0832366  13.8135934  38.1776214
  12.5803352  14.3279863  42.4824875  13.1201576  14.1850994  43.1528247
  11.8973298  14.7276614  42.8508901  12.5595505  14.3659534  42.6359297
  22.0044236  10.0070864  37.6769899  22.7601751  10.4402378  37.7158808
  22.1106561   9.3575634  38.2504535  22.1314407   9.9748348  37.7667925
  19.6153481  15.8752474  49.7515452  20.3993898  15.9883322  50.1171195
  19.4150076  15.0493611  49.9474138  19.7019507  15.7699193  49.8349839
   7.9840497  10.5480154  42.6359296   7.7178912   9.7319271  42.7950287
   7.9979061  10.5933310  41.7654812   7.9465219  10.4337059  42.5312778
  24.9621890   0.8757969  40.6701730  25.6047799   0.9456073  41.2563645
  25.2144911   0.2087192  40.1681272  25.0944023   0.7884318  40.6829009
  11.8898244   5.3465238  29.2511054  11.1756421   5.0603418  29.6633487
  12.3742212   5.6861864  29.8917442  11.8557607   5.3546888  29.4066689
  19.7723874  17.7862576  43.3981908  18.9739120  17.5462076  43.6555777
  20.2209886  17.8376969  44.1448956  19.7198486  17.7584967  43.5466832
  28.1768754  10.5525061  37.3191939  28.8385188   9.9915729  37.2187848
  27.5360166  10.0577092  37.6444631  28.1797621  10.3961470  37.3524280
  19.0645561  13.8495192  29.6272863  19.4796710  13.5180216  28.9357358
  18.2337491  13.6164095  29.4992999  19.0033570  13.7666448  29.5063710
   8.3933910  11.3338933  39.9171041   8.2109483  11.3085819  39.0643333
   9.1283579  11.8037871  39.9559949   8.4747974  11.4000296  39.7968959
  24.4633584  11.5690443  37.0603928  24.6989174  11.7135642  36.2330779
  24.6123148  12.3332851  37.4535442  24.5199388  11.7029498  36.9967532
  11.4579662   8.0523936  46.4253149  12.1819634   8.0376967  46.9118044
  11.5595798   8.7619291  45.9275117  11.5797871   8.1548639  46.4231936
  26.2924041  10.4092109  34.8973532  26.6232258  10.9419749  34.2913627
  26.8657129  10.4630997  35.5535483  26.4257720  10.4961678  34.9051314
  18.8324611  11.5323021  51.2902096  18.0397592  11.8466533  51.4754716
  18.9473538  11.7474489  50.4522881  18.7320022  11.6106858  51.1940431
  21.5055930   8.2557012  35.5797112  21.6002785   8.9946306  36.0336738
  20.8814774   7.8274487  36.0131677  21.4264960   8.3018333  35.7105260
  19.7608404  11.4343225  46.2287393  20.3347266  10.7970469  46.3835957
  19.6823208  11.4347307  45.3597051  19.8341639  11.3408336  46.1233804
   8.3604821   8.2132434  40.0670107   8.9378323   8.0768885  40.7062353
   7.6618882   7.7568218  40.3215692   8.3425842   8.1254700  40.1992397
  21.7578952  10.1005752  28.8134064  21.6759114  10.1707939  29.6789051
  22.3958672  10.6635496  28.6217805  21.8398789  10.1944723  28.9124014
  15.1172123   9.8666490  38.2808590  14.8591367   9.0338225  38.2539890
  15.1720606  10.0924103  37.4401091  15.0871901   9.7764261  38.1528727
  20.1973173   1.9694940  38.3812683  19.4929500   1.4804126  38.5396602
  20.2458147   1.9817415  37.5101128  20.1003224   1.8984588  38.2752023
  14.0906835   7.4204252  38.7673485  13.5156426   7.5796421  39.4037446
  13.7142511   6.7839661  38.3041936  13.9509647   7.3502065  38.7928044
  17.7580124   5.8927601  43.6265864  17.3694556   5.4681819  42.9718055
  17.0934822   6.1409751  44.1342890  17.6027051   5.8666323  43.6053732
  27.4003393   5.6502606  36.4013694  27.1439958   4.8382548  36.2111576
  28.2432707   5.6580173  36.1743881  27.4869418   5.5314604  36.3398511
  21.5806485  -0.4097770  41.1389848  21.9616997  -1.0919599  41.5257722
  20.7769769  -0.6988168  40.9565512  21.5182947  -0.5530721  41.1693904
  18.8619062  10.1226206  31.8242671  19.6759701  10.4141099  31.7125442
  18.7978203   9.4686068  31.2500964  18.9721801  10.0691401  31.7231508
  25.0828552  12.8052202  46.2372246  24.8467189  11.9740267  46.1184307
  25.7271781  12.7537809  46.8227090  25.1423223  12.6749890  46.3058140
  14.7326970  13.5947724  36.9514983  15.3700917  13.3559471  37.4966776
  15.1582042  13.7984882  36.2168143  14.8903136  13.5898734  36.9232140
   9.4239612  15.8336060  40.8349286   9.4643758  16.1050911  40.0069066
   9.9834137  16.3577968  41.2507074   9.5122958  15.9511815  40.7741175
  15.3729785   8.8150013  31.2889872  15.7574938   8.5957720  32.0406417
  15.1241405   9.6412959  31.4190948  15.3931858   8.9048160  31.4190948
  26.1064973  12.5896651  42.3000541  25.8010790  13.3224708  42.6613856
  25.3871188  12.1834580  42.0193327  25.9552315  12.6378384  42.3113678
  17.1148442  14.0720146  38.6308769  17.1887450  13.9095318  39.4850619
  17.9317948  14.2610336  38.3869251  17.2464801  14.0756888  38.7206795
  31.8066765   9.2289652  41.6268885  31.7391265   9.2485611  40.7571472
  31.7922427  10.0719979  41.8524556  31.7945521   9.3563386  41.5321362
  10.8754199  14.4178009  35.6603212  10.0492316  14.6639746  35.5337491
  10.9366190  14.3390090  36.5265270  10.7628366  14.4422958  35.7692157
  22.2163111   0.6324809  44.9509974  22.9616703   0.4434620  44.5373400
  21.8000416   1.1583047  44.3923831  22.2648085   0.6826955  44.8074548
  15.6553028  17.0354889  33.3622242  15.9451326  16.6443871  32.6381469
  16.3856509  17.2171594  33.8027518  15.8059912  17.0048703  33.3205049
  29.5925382   8.0034038  39.9015479  30.1433304   7.3702107  40.1412571
  29.5769497   8.5349431  40.5930984  29.6710578   7.9882986  40.0394338
  16.2447773  11.8372635  44.4475373  15.7459467  12.5488403  44.5260261
  17.0547997  12.1573302  44.4093535  16.2903880  11.9899484  44.4531941
  13.5958943  19.0122272  36.4282392  13.3759239  18.7219626  37.2209059
  13.3753465  18.3537227  35.9000304  13.5306538  18.8721980  36.4671301
  12.5075891  11.0995588  38.6938094  12.2189139  10.4733059  39.2283821
  13.3759239  11.0415876  38.7602774  12.5936142  10.9983132  38.7829048
  23.2953788   6.2430372  39.0120076  22.9518554   5.5220707  39.3627325
  23.3946831   6.0344223  38.1698434  23.2595831   6.1054575  38.9391756
  15.7626899  20.3851662  35.2113084  16.4150957  19.8528104  35.4404110
  15.0652508  20.0320314  35.5980958  15.7557617  20.2541185  35.3025252
  12.7108164  12.7390839  34.6180459  13.4654132  13.1203878  34.8315921
  12.1178777  13.1901983  35.0727155  12.7344877  12.8619667  34.7163337
  23.7566817  12.7056076  34.5544064  24.3224850  13.3649285  34.4702607
  23.1094721  13.0505774  35.0260466  23.7445574  12.8538017  34.6116820
  15.1714831   4.6953680  49.7437671  14.3614607   5.0011459  49.6327513
  15.6489518   5.4159262  49.8590255  15.1218310   4.8468281  49.7444742
  14.0306391  13.9099401  39.9920574  13.5087144  14.0499692  40.6772439
  14.4180411  13.1510065  40.1822691  14.0110091  13.8184924  40.1221651
  20.2273395  15.6494860  33.9781143  19.9860071  14.9162720  33.5708208
  20.4074728  16.1981717  33.3247476  20.2181019  15.6217251  33.8211366
  15.4572716  10.9403420  35.3902065  15.2615499  11.5478154  34.7962368
  15.6807062  10.2471364  34.9093739  15.4607357  10.9280945  35.2318146
  13.8551246   7.8258157  35.5082934  14.5773898   7.9899316  35.0486740
  13.3759239   8.5467822  35.4022273  13.8914977   7.9556387  35.4248548
  21.8144754   4.1621956  40.8879618  20.9755854   4.1883235  40.6517882
  21.8849121   4.8092692  41.4684965  21.7013147   4.2618082  40.9388735
  11.5058863  10.2316230  44.6137073  12.0179960  10.5100483  43.9645833
  11.2195205  10.9705524  44.9799886  11.5393726  10.3818584  44.5726951
  20.2614032   1.0607333  35.6207234  20.9640385   0.8615082  35.1427193
  19.9958221   0.2883276  35.9276078  20.3260664   0.9170299  35.5952676
  25.6902278   9.3689943  38.1740860  25.6036252   9.5245369  39.0275639
  25.2352757  10.0128019  37.8000265  25.6105534   9.4865698  38.2447967
  15.0242588   2.3242618  44.6738115  14.8325785   2.3397753  45.5237539
  15.8741184   2.5206293  44.6504770  15.1218310   2.3556970  44.7961410
  19.5628094   6.6900690  36.7966420  19.3162808   6.6096441  37.6303209
  19.8913217   5.9054158  36.6028947  19.5749337   6.5626955  36.8913943
  23.4576142  13.3984049  40.5853201  23.3190502  14.0965095  41.0901943
  22.6776140  13.2432706  40.2289383  23.3219369  13.4784216  40.6079475
  21.7954228   9.6980425  46.8375583  21.7902266   8.8260241  46.8418009
  22.5015221   9.8968594  46.3645038  21.8999232   9.5984299  46.7682618
  15.5225121   9.4257409  46.2089403  15.6668497  10.0058617  45.5732513
  15.8700769   9.8033705  46.9139257  15.5952582   9.5678113  46.2188398
  17.6945038   8.6247577  43.9914534  16.9468352   8.8178591  43.5862812
  17.8486563   7.7992797  43.7538656  17.6067466   8.5312689  43.8959940
  14.5952876  17.6160181  43.0750430  14.7442440  17.0563096  42.4223834
  15.3752878  17.6952182  43.4582948  14.7326969  17.5445746  43.0347379
  17.1206176  17.7874823  44.3534920  17.0449848  17.1183634  44.9085709
  17.0496036  18.4892612  44.8675587  17.0986783  17.7919731  44.5111769
  17.9346815   2.5198128  44.8809938  18.3919429   3.2522102  45.0082730
  18.0103144   2.0964593  45.6397194  18.0137785   2.5655366  45.0111015
  17.7776423  16.3075822  35.1858526  18.5426315  16.0385466  34.8641191
  17.6754513  15.8225833  35.9028589  17.8757919  16.1965387  35.2438354
  15.8129193   4.5100232  41.7251762  15.0225268   4.3291692  42.0469098
  16.2089816   3.7327184  41.7082057  15.7546069   4.3687693  41.7704311
  20.2995084  13.3388006  27.1658476  21.0668069  13.3988131  26.7564328
  19.8526393  12.7668447  26.6814794  20.3468511  13.2624582  27.0336186
  21.1972879  12.1442662  39.4511208  20.5217881  11.9127894  39.9524595
  21.2065256  11.5363845  38.8253313  21.0991384  12.0201587  39.4327360
  18.3267023   6.9860491  46.2075261  18.2626165   7.8470447  46.0795398
  18.4664211   6.6692484  45.4070812  18.3382494   7.0660658  46.0703474
  23.1989614  15.0007794  31.6821386  23.2809451  15.8074780  31.3582837
  23.6839356  15.0203754  32.4062160  23.2826772  15.1228457  31.7408285
  17.0086117   9.6792630  40.3491464  16.5848366   9.8797129  39.6130482
  16.8330973   8.8321478  40.4615764  16.9196998   9.5841412  40.2565154
  16.5097811  21.1943143  42.8112921  16.9993741  20.4953932  42.6288586
  15.9382043  20.8967013  43.3988979  16.4982341  21.0469367  42.8713962
  12.2968562  10.1744682  35.7819436  12.4533181  10.1091484  36.6375429
  12.6369155  10.9493234  35.5698116  12.3701797  10.2793880  35.8774031
  18.8347707   9.5502565  34.6512800  19.3763252   9.0472946  35.1151420
  19.1494266   9.4967760  33.8402285  18.9612104   9.4681986  34.5996612
  22.7064814  13.7605213  51.7639712  23.5199680  13.4890361  51.9244844
  22.5459781  13.4612753  50.9599908  22.8034763  13.6760139  51.6685118
  17.0034157  14.9419917  31.9352828  17.0726977  14.0834455  32.0745828
  17.7822612  15.1591798  31.6071852  17.1287007  14.8472781  31.9069985
  19.9836976   4.4438870  44.7035100  20.1978946   3.8049784  44.1498454
  19.3670875   4.8884694  44.2742962  19.9242306   4.4149013  44.5585531
  21.3941644  17.3657618  36.1489321  21.0021436  17.0624333  35.4312187
  21.5494716  18.2026708  35.9594275  21.3595234  17.4441455  36.0145818
   8.8702824   7.3579632  36.0980204   9.2501789   7.7764177  35.4340471
   8.2958189   7.9393088  36.4049047   8.8414149   7.5057491  36.0456945
  22.1476064   6.0527935  45.6418407  21.3352746   5.7453825  45.7231580
  22.6065999   5.5726935  46.2061119  22.0956449   5.9364427  45.7373001
  21.5581319  13.9307607  36.0895352  21.1995974  14.1022250  36.8659384
  21.0720030  14.3920813  35.5323350  21.4340016  14.0246578  36.1220621
  16.3469684   9.6106772  28.6295586  16.6362209  10.3871655  28.9039160
  16.4341483   9.0995504  29.3310085  16.4023941   9.6498691  28.7738084
  19.2429572   7.4588006  50.4247110  19.7129203   8.0830123  50.8114984
  19.2891452   6.7904982  50.9840324  19.3197448   7.4522687  50.5647181
  22.7186058  14.8211503  47.0362552  23.3565779  14.3271698  46.7025009
  22.0760150  14.7488903  46.4514779  22.7180285  14.7370511  46.9004907
  24.4443058   6.6700649  41.6028468  24.0170666   6.5826997  40.8476568
  23.8069111   6.7778424  42.1883312  24.2872666   6.6733309  41.5773910
  17.9364135   1.7776174  47.5425437  18.7637565   1.5061323  47.5984052
  17.9571982   2.5737016  47.8989256  18.0616986   1.8555928  47.6040620
  22.7740315  15.5131311  43.6767909  23.5632693  15.1620376  43.7969991
  22.9483913  16.3267700  43.4144543  22.9160597  15.5817168  43.6555777
  12.5133625   8.9240037  40.7295698  11.6721632   8.8243911  40.9374592
  12.7223633   9.6935517  41.0810019  12.4198318   9.0232080  40.8123013
   9.9909192   6.5459574  38.5580449   9.5965890   6.6202586  37.7830558
   9.4349309   6.9317520  39.1088810   9.8512005   6.6141348  38.5248109
  21.6274139  -0.4759132  38.2384328  21.8323732  -0.5436824  39.0841325
  21.3000563   0.3299689  38.1705505  21.6089387  -0.3673192  38.3543983
  16.3250290   6.8521436  39.9793296  16.0213428   6.2977424  40.5803703
  15.6229711   7.0313646  39.4921330  16.1766500   6.7966218  39.9963001
  15.3816387   4.1621956  34.5437997  15.6576122   3.4440868  34.1315565
  15.9815057   4.7606876  34.3359104  15.5109652   4.1442327  34.4518759
  14.3868641  14.0671157  44.6865393  14.2788996  14.0773219  45.5527451
  14.5964423  14.8925937  44.4970347  14.4018752  14.1912232  44.7869485
  24.8807827   0.0772632  37.7187093  24.2682140   0.5643034  38.1040825
  24.9772002  -0.5983877  38.2624744  24.8045724   0.0490941  37.8565951
  18.8826908   1.8335473  32.8184592  19.3370654   2.0046034  33.5432437
  19.3566954   1.2203584  32.4182368  19.0195228   1.7686358  32.8658354
  12.4042433  11.3183799  42.1487331  11.8130366  11.9593297  42.1190346
  13.1663457  11.7421416  42.1218630  12.4290694  11.4759638  42.1402478
  14.4486406   3.1452492  47.3827376  14.0571971   2.4985839  47.8183153
  14.6172268   3.7363927  48.0021631  14.4157316   3.1366760  47.5390082
  22.1631949  16.7693111  39.5819355  21.9651638  17.2583925  38.8875567
  21.5419661  16.9734352  40.1603489  22.0419514  16.8709649  39.5642579
  16.2239928   8.5378008  33.9229600  16.9681973   8.9252284  34.1612550
  16.3700624   7.6935433  34.0870088  16.3550513   8.4708480  33.9823569
  19.2117804   4.1103481  39.8223519  18.7377758   3.5845243  40.3328830
  19.5835939   3.5632954  39.2538381  19.1967693   3.9519477  39.8138666
  25.4754534   9.1705857  41.2330300  25.2352757   8.3312272  41.2372726
  25.9546541   9.2506023  41.9571073  25.5106718   9.0587256  41.3405102
  21.1401303   5.0040035  32.8849273  20.6124322   5.0868779  32.1954982
  21.5997011   5.7457907  32.8813918  21.1303154   5.1260698  32.7823968
  27.4759721   5.9507314  39.1859559  27.2369491   5.9103148  38.3480343
  27.6393623   6.7978466  39.3125280  27.4650025   6.0699399  39.0813041
  24.0805751  10.3357263  45.1164604  24.8039950   9.8829789  44.9375624
  23.8155714  10.6161929  44.3336932  24.1487025  10.3108232  44.9743319
  12.9492620   4.9317437  41.8517483  12.3245690   4.9435829  41.2443436
  12.6138215   5.4077612  42.5008723  12.8078112   5.0035954  41.8574052
   9.6618295  12.9917897  43.2921247   9.1318220  12.3010336  43.3416222
   9.9343389  12.9828082  42.4633956   9.6243018  12.8885029  43.1768663
  20.6938386  13.5743599  32.0158930  21.4172585  14.0401712  31.8723503
  20.2538977  13.6417209  31.2656527  20.7354078  13.6527436  31.8843711
  19.8624541  10.4341141  43.2659619  19.2481534   9.8899192  43.5608254
  20.3791826   9.9205378  42.7865435  19.8480203  10.2777550  43.2383847
  19.1020838  11.5045411  41.0003918  18.6748446  10.8795130  40.5669353
  19.0945782  11.2220333  41.8262925  19.0379979  11.3698192  41.0583745
  12.2183365   6.5410584  44.0692351  12.3776852   5.7853909  44.4744073
  12.0376259   7.0901524  44.7233089  12.2148724   6.5104398  44.2255057
  20.1603668  -1.2928180  44.6243141  19.6644229  -1.0964506  43.9334708
  20.9172730  -0.8935512  44.4531943  20.1990493  -1.2050446  44.4963278
  17.4306548   2.3814166  41.2146452  17.4549035   1.8474278  40.5259231
  17.6818021   1.8731475  41.8772042  17.4716466   2.2275070  41.2111096
   4.9414138   9.6645661  40.6489596   4.8357587   9.6192505  39.7841680
   4.1914358  10.0099441  40.9303880   4.8149740   9.7086569  40.5626925
  15.8937483  10.6745724  48.6972490  15.0433113  10.8117438  48.8330135
  16.0565611   9.9409502  49.1420192  15.7921346  10.5859825  48.7828090
  15.1322233   7.6245494  42.8926095  14.3014163   7.7919312  42.6861343
  15.0773751   7.2481445  43.6774980  15.0011648   7.5935225  42.9774623
  13.5058277   5.9001085  33.4216213  13.6461238   6.3973550  34.1244854
  14.0040810   5.1987380  33.5630426  13.5999358   5.8703064  33.5467792
  13.5358500   6.7668197  30.7508789  14.1703579   7.3628622  30.6858251
  13.6184110   6.4671654  31.5654660  13.6415051   6.8109105  30.8611876
  26.5141065   9.2983674  43.6195154  27.1058906   9.9380925  43.6513352
  26.9500060   8.6006711  43.9087220  26.6659497   9.2902024  43.6675986
  15.1137482   2.6982172  30.7254231  15.4353323   2.2185254  30.0713494
  15.3764426   3.5081818  30.5345043  15.2003508   2.7472070  30.6009723
  18.3434455  13.7201046  44.2453047  17.8359546  14.2736893  44.6893678
  18.0461101  13.7809336  43.4271822  18.2239340  13.8107357  44.1901504
  20.5096637   2.0854366  43.0877710  20.9351709   1.6326892  42.4761237
  19.8953631   1.5314437  43.3642498  20.4825283   1.9368342  43.0382736
  10.0411487   8.9636037  34.0198335  10.5503717   9.5600545  34.4009641
  10.5145760   8.6962011  33.3374755  10.1854863   9.0121853  33.9752858
  20.9542236  17.6364304  32.1756991  20.2371545  17.4625166  31.7104228
  21.6048973  17.4016876  31.6432477  20.9444086  17.5760096  32.0286209
  23.5390207   6.5128892  35.9198296  22.8681397   7.0558595  35.7911362
  24.2329957   6.9823748  35.6779991  23.5419074   6.6627164  35.8653824
  17.5876940  18.6525604  41.1510054  17.3642595  17.8944434  41.5194081
  17.0986784  18.6823626  40.4290494  17.4820389  18.5447829  41.0986795
  23.7018334   2.9684776  38.8288669  24.0545944   2.5414499  39.5034468
  22.8433136   2.8835620  38.9589746  23.6267779   2.8929517  38.9483680
  12.4002019   5.5992296  36.8871516  11.6814008   6.0156428  37.1544379
  12.7714381   6.1646535  36.3363154  12.3493951   5.7441577  36.8454323
  21.7001600   6.2320145  42.7773512  21.6799527   6.0503440  43.6308290
  21.7480801   7.1032163  42.7533095  21.7036241   6.3336683  42.8996806
  19.6447930  12.8207337  48.7021988  19.6043785  12.1757014  48.1167144
  20.4571248  12.7643954  49.0147400  19.7591083  12.7166304  48.6618937
  16.2355397  18.8726063  38.6047139  15.8215796  18.2100193  38.2150981
  16.9202772  19.0203921  38.0842833  16.2753769  18.7966721  38.4703636
  19.6020692  18.0316148  39.3570756  19.2036975  18.1418418  38.5891576
  18.9871911  18.2398214  39.9397315  19.4519581  18.0789716  39.3302055
  18.1748594   4.6390296  32.2244895  17.5813433   4.9607292  31.6729462
  18.2123871   3.7931391  32.0166001  18.0922983   4.5614624  32.1127667
  25.1342394  -1.9096812  39.7572982  24.6273259  -2.6167672  39.6894159
  25.9309828  -2.2403623  39.8874058  25.1769633  -2.0623661  39.7671977
  21.0506410   4.5969800  35.6546645  20.8220103   4.6202502  34.8125004
  21.3104486   3.7727267  35.7741656  21.0552598   4.4785880  35.5471843
  15.3325639   6.4504273  45.2571746  14.8204542   5.8425456  45.6156777
  15.1605135   7.1660866  45.7245721  15.2315276   6.4667573  45.3787969
  14.1051173   3.1346347  36.9500841  14.5808539   3.4963426  36.3151022
  13.6039772   3.7902814  37.2300984  14.1016532   3.2840535  36.8977582
  19.2094709   4.3728518  47.6974001  19.7666139   4.1442327  47.0652467
  18.8855774   5.1334184  47.4209214  19.2441119   4.4512355  47.5630498
  16.9277826   7.4596171  48.6626008  17.6789153   7.7747848  48.9765563
  17.1200403   7.2575342  47.8359930  17.0669240   7.4763553  48.5869404
  16.1477826   5.2787546  30.3174225  16.5276791   5.2967175  29.5325340
  15.4070422   5.7241535  30.1965072  16.0946664   5.3469321  30.1837793
  23.7763116   3.5869738  35.9049804  23.7757343   3.4318394  36.7634080
  23.5719296   4.4332725  35.8491189  23.7462894   3.6890358  36.0237743
  21.5003968   8.2667239  39.5586011  21.9957634   7.5490234  39.5190031
  20.6903744   7.9638037  39.4440498  21.4547862   8.1164886  39.5359737
  16.9462580  12.1165053  31.7083015  16.1373903  11.7931726  31.6616325
  17.4537489  11.4098275  31.6411264  16.9012247  11.9646369  31.6913310
   7.5752857   9.5437246  37.4330379   6.7098377   9.5322936  37.3213151
   7.6751673   9.3567469  38.2801519   7.4627024   9.5143307  37.5419324
  23.5655787  11.0170927  42.2463139  23.9910859  10.4945349  41.6933564
  23.2012707  11.6151764  41.7251762  23.5742390  11.0281154  42.0872149
  13.2009867  19.3135144  41.0060485  13.5156426  20.1271533  41.0138267
  13.6103280  18.9285363  41.6742644  13.3077965  19.3763847  41.1064577
  20.1534387  14.7305191  38.5764297  20.6245565  15.4445454  38.7454282
  20.4894565  14.1303941  39.1124166  20.2729502  14.7476655  38.6796673
  22.2411371  16.3406504  50.7556369  22.3508337  15.5515065  51.1113116
  22.5702268  16.2512441  49.9530707  22.3063777  16.2112357  50.6898760
  20.7908333  14.5223125  45.3391990  20.2429279  13.8981009  45.0712055
  21.2521362  14.7117397  44.6236069  20.7775542  14.4582175  45.1942421
  23.6002197   2.5908480  42.7243182  23.0165186   3.0917686  42.3120749
  23.9206491   2.0838036  42.0907505  23.5615373   2.5900315  42.5701689
  16.1396996   1.5049075  33.0001857  16.9612691   1.6747387  32.7583552
  15.6766647   1.6596335  32.2768154  16.1928159   1.5530807  32.8573501
  10.5422887  13.2608253  40.6539093  11.1467745  13.2204087  40.0252914
  10.3350200  14.1079405  40.6843149  10.6011784  13.3796255  40.5655210
  20.3566659  15.5274198  41.8701331  21.1765033  15.3837164  42.1317626
  20.0760737  16.1520397  42.4117769  20.4363403  15.5984550  41.9889270
   5.7774169  12.2442870  40.5238016   5.6798447  11.4339142  40.8328073
   6.5603039  12.2234664  40.1384285   5.8790306  12.1209960  40.5124879
  19.1870935  27.8416097  37.2449475  18.9521119  27.0083750  37.1381744
  19.3256575  28.1220763  36.4310676  19.1726597  27.7599601  37.1091830
  21.4861022  20.0101828  40.1433783  20.8666054  19.4194475  39.9743798
  21.3844886  20.6013263  39.5098106  21.3798698  20.0105910  40.0238772
  21.2130155  23.5554110  42.3877352  21.0888852  24.1416555  43.0227171
  21.8648440  23.0614305  42.6889627  21.2903805  23.5692914  42.5263281
  33.9632189  13.1079289  36.8037131  33.6485630  13.7982768  37.2357554
  33.4459131  13.0524071  36.1022632  33.8396660  13.2014178  36.7634080
  28.0436465  31.2459923  46.0689331  27.4807300  30.8332533  46.5928992
  28.8057489  31.1712828  46.4882474  28.0730914  31.1737323  46.2082331
  29.6521445  23.2512659  30.1950930  29.8917449  23.4590643  29.3826274
  29.9737286  22.4470168  30.3039875  29.7358603  23.1626760  30.0911484
  24.6511363  23.4733531  47.8006376  24.8231867  23.3639425  48.6491658
  25.1880721  24.1187936  47.5637569  24.7556367  23.5525533  47.8911473
  23.3168800  17.5876374  30.7388581  23.1344373  17.8048255  29.9129574
  24.1794413  17.7015386  30.7947196  23.4173390  17.6366272  30.6243068
  23.5535935  29.8465171  42.4824875  24.0934160  29.7036302  43.1528247
  22.8705881  30.2461922  42.8508901  23.5328089  29.8844842  42.6359297
  18.9573080  26.0665462  42.6359296  18.6911495  25.2504579  42.7950287
  18.9711644  26.1118617  41.7654812  18.9197802  25.9522367  42.5312778
  35.9354474  16.3943277  40.6701730  36.5780382  16.4641381  41.2563645
  36.1877495  15.7272500  40.1681272  36.0676606  16.3069625  40.6829009
  23.7071687  19.6043840  45.2826304  23.0143483  19.1340820  45.5287036
  24.3232014  19.3782145  45.8568011  23.6956216  19.5010972  45.4035457
  19.3666494  26.8524241  39.9171041  19.1842067  26.8271127  39.0643333
  20.1016163  27.3223179  39.9559949  19.4480558  26.9185604  39.7968959
  22.4312245  23.5709244  46.4253149  23.1552218  23.5562275  46.9118044
  22.5328382  24.2804599  45.9275117  22.5530455  23.6733947  46.4231936
  29.8057195  27.0508329  51.2902096  29.0130176  27.3651841  51.4754716
  29.9206122  27.2659797  50.4522881  29.7052605  27.1292165  51.1940431
  19.3337404  23.7317742  40.0670107  19.9110907  23.5954193  40.7062353
  18.6351466  23.2753526  40.3215692  19.3158426  23.6440008  40.1992397
  14.8096237  22.5829635  36.7817926  14.8956489  22.2061503  37.5631456
  15.4372035  22.2090081  36.3037884  14.9152788  22.4715117  36.8263403
  20.3972196  31.3521368  40.8349286  20.4376341  31.6236219  40.0069066
  20.9566720  31.8763276  41.2507074  20.4855542  31.4697123  40.7741175
  26.5130909  17.6141736  51.0052456  26.1984350  18.3841299  50.7422019
  26.1920842  17.0511992  50.4204683  26.4189828  17.6452005  50.8793806
  33.1895695  16.1510117  44.9509974  33.9349287  15.9619928  44.5373400
  32.7732999  16.6768355  44.3923831  33.2380669  16.2012263  44.8074548
  23.4808474  26.6180896  38.6938094  23.1921723  25.9918367  39.2283821
  24.3491822  26.5601183  38.7602774  23.5668726  26.5168440  38.7829048
  26.1447414  20.2138987  49.7437671  25.3347190  20.5196767  49.6327513
  26.6222101  20.9344570  49.8590255  26.0950893  20.3653589  49.7444742
  22.4791446  25.7501538  44.6137073  22.9912543  26.0285791  43.9645833
  22.1927789  26.4890832  44.9799886  22.5126310  25.9003891  44.5726951
  19.5658353  20.2571730  34.9100810  19.6674489  21.0597891  35.2381785
  20.3614239  20.0559066  34.6123890  19.6986258  20.3457628  34.9136165
  20.3822085  20.3718908  42.6521931  20.2407577  19.5202849  42.7766439
  20.6662648  20.4147569  41.8284137  20.4029931  20.2518658  42.5489556
  25.5685459  33.1345488  43.0750430  25.7175023  32.5748404  42.4223834
  26.3485462  33.2137490  43.4582948  25.7059553  33.0631054  43.0347379
  28.0938760  33.3060131  44.3534920  28.0182431  32.6368942  44.9085709
  28.0228619  34.0077920  44.8675587  28.0719367  33.3105039  44.5111769
  21.1512390  18.2849255  45.9699382  20.6154580  17.6729614  46.2860149
  21.2130155  18.8597391  46.6233048  21.0808023  18.2796183  46.1134809
  33.3806725  11.2173311  38.7503781  33.4990293  11.6749774  38.0171084
  33.2068900  10.4118572  38.4639999  33.3725896  11.1667083  38.6004715
  23.2701146  25.6929990  35.7819436  23.4265765  25.6276792  36.6375429
  23.6101739  26.4678542  35.5698116  23.3434381  25.7979188  35.8774031
  33.6797398  29.2790520  51.7639712  34.4932263  29.0075669  51.9244844
  33.5192364  28.9798060  50.9599908  33.7767346  29.1945447  51.6685118
  19.8435407  22.8764940  36.0980204  20.2234372  23.2949485  35.4340471
  19.2690772  23.4578396  36.4049047  19.8146732  23.0242799  36.0456945
  30.2162155  22.9773314  50.4247110  30.6861787  23.6015431  50.8114984
  30.2624036  22.3090290  50.9840324  30.2930031  22.9707995  50.5647181
  29.1082804  12.5090287  45.2699026  29.7375922  13.0450587  44.9920096
  29.2768667  12.4167646  46.1212591  29.2260599  12.5751650  45.3547554
  28.9096719  17.2961482  47.5425437  29.7370148  17.0246631  47.5984052
  28.9304565  18.0922324  47.8989256  29.0349569  17.3741236  47.6040620
  23.4866209  24.4425345  40.7295698  22.6454215  24.3429219  40.9374592
  23.6956217  25.2120825  41.0810019  23.3930901  24.5417388  40.8123013
  20.9641776  22.0644882  38.5580449  20.5698474  22.1387894  37.7830558
  20.4081893  22.4502828  39.1088810  20.8244588  22.1326656  38.5248109
  25.3601225  29.5856465  44.6865393  25.2521580  29.5958527  45.5527451
  25.5697006  30.4111245  44.4970347  25.3751336  29.7097539  44.7869485
  35.8540410  15.5957940  37.7187093  35.2414724  16.0828342  38.1040825
  35.9504585  14.9201431  38.2624744  35.7778308  15.5676249  37.8565951
  23.3775017  26.8369107  42.1487331  22.7862950  27.4778605  42.1190346
  24.1396040  27.2606724  42.1218630  23.4023277  26.9944946  42.1402478
  23.7735640  17.9971105  42.8155349  24.2337121  18.0710034  43.5530472
  23.8191746  18.7952359  42.4655170  23.8486195  18.1265252  42.8728105
  25.4218989  18.6637800  47.3827376  25.0304554  18.0171147  47.8183153
  25.5904852  19.2549235  48.0021631  25.3889900  18.6552068  47.5390082
  20.5623417  21.6260296  45.1907065  21.4249030  21.5256005  45.1044395
  20.2315200  21.0455005  44.6292637  20.6408614  21.5251922  45.0952471
  24.1066952  18.7927863  27.9090168  23.7579756  19.4447588  28.3721717
  23.6263398  18.7784976  27.1814039  23.9837196  18.8870917  27.8701259
  20.6350879  28.5103205  43.2921247  20.1050803  27.8195644  43.3416222
  20.9075972  28.5013390  42.4633956  20.5975601  28.4070336  43.1768663
  23.1915949  22.0595892  44.0692351  23.3509435  21.3039216  44.4744073
  23.0108842  22.6086832  44.7233089  23.1881308  22.0289706  44.2255057
  31.1336252  14.2257128  44.6243141  30.6376813  14.4220802  43.9334708
  31.8905314  14.6249796  44.4531943  31.1723076  14.3134862  44.4963278
  15.9146721  25.1830969  40.6489596  15.8090170  25.1377813  39.7841680
  15.1646941  25.5284749  40.9303880  15.7882324  25.2271877  40.5626925
  26.8670066  26.1931032  48.6972490  26.0165697  26.3302746  48.8330135
  27.0298194  25.4594810  49.1420192  26.7653930  26.1045133  48.7828090
  23.9138600  16.6339695  48.5282506  24.5391304  16.0901828  48.8011938
  23.4589080  16.1534612  47.9590296  23.9386861  16.4829176  48.4844099
  21.0144071  24.4821345  34.0198335  21.5236300  25.0785853  34.4009641
  21.4878343  24.2147319  33.3374755  21.1587447  24.5307161  33.9752858
  36.1074978  13.6088496  39.7572982  35.6005843  12.9017635  39.6894159
  36.9042412  13.2781685  39.8874058  36.1502217  13.4561647  39.7671977
  21.1523937  20.4127157  47.9074107  20.9826527  21.0728531  47.3622314
  20.7089887  20.6233718  48.6286597  21.0623270  20.5413139  47.9335737
  30.1827292  19.8913826  47.6974001  30.7398723  19.6627635  47.0652467
  29.8588358  20.6519491  47.4209214  30.2173703  19.9697663  47.5630498
  18.0526001  23.3174022  43.1662597  17.5052721  22.6474668  43.2843466
  18.8418380  22.9503870  43.2306065  18.0878185  23.1639008  43.1931298
  27.9010410  22.9781479  48.6626008  28.6521737  23.2933156  48.9765563
  28.0932986  22.7760650  47.8359930  28.0401824  22.9948861  48.5869404
  16.8112971  22.5294830  40.3208620  16.6334732  22.0771439  41.0463536
  16.5231993  23.3320991  40.5047098  16.7425924  22.5817388  40.4552123
  18.5485441  25.0622554  37.4330379  17.6830960  25.0508244  37.3213151
  18.6484257  24.8752776  38.2801519  18.4359608  25.0328615  37.5419324
  24.1742451  34.8320452  41.0060485  24.4889010  35.6456841  41.0138267
  24.5835864  34.4470671  41.6742644  24.2810549  34.8949155  41.1064577
  28.0436465  15.0217970  45.5322392  28.1764371  14.2248963  45.8603367
  28.4281618  15.5484373  46.1120667  28.1192794  14.9817886  45.6665895
  25.7024912  15.0177145  43.7800285  26.2469325  14.6768271  44.3704627
  25.7561848  15.8762606  43.9221570  25.7914031  15.0932404  43.8882159
  21.5155471  28.7793561  40.6539093  22.1200328  28.7389395  40.0252914
  21.3082783  29.6264713  40.6843149  21.5744368  28.8981563  40.5655210
  16.7506753  27.7628178  40.5238016  16.6531031  26.9524450  40.8328073
  17.5335623  27.7419972  40.1384285  16.8522890  27.6395268  40.5124879
  55.2838878  59.5771842  49.1957594  55.9905645  59.0823873  49.3244528
  55.4726814  60.0180924  48.4660252  55.4166784  59.5690192  49.1066639
  51.3515553  65.2187673  36.7231028  51.7354932  65.7874571  36.1835803
  51.2874694  64.4937183  36.2436844  51.3988980  65.1963136  36.5724890
  47.7771797  67.7744016  39.0211998  48.4209253  68.2157180  39.4108156
  48.1028053  66.9697442  38.9342256  47.9203626  67.7209210  39.0657475
  50.7239755  60.6141348  41.3171756  51.0062998  59.8192754  41.0958511
  51.4525915  61.0921936  41.3376817  50.8729318  60.5675945  41.2874771
  60.7057843  59.7200710  38.2907586  59.8755546  59.9311354  38.4541003
  60.6567095  58.8937765  38.0149870  60.5764578  59.6290317  38.2744952
  42.6953427  63.7572384  38.5205681  42.2121005  64.4822874  38.4965265
  43.5076745  64.0548514  38.6315839  42.7444174  63.9074738  38.5332961
  48.7667581  62.5504565  41.1255496  48.2494522  62.1911980  40.5216804
  49.4641972  62.0266739  41.1361562  48.7933162  62.4202253  41.0385755
  52.4231173  62.9999379  47.0871669  52.5114518  62.8125519  47.9349879
  52.8520885  62.3536808  46.6876516  52.4993275  62.8762386  47.1543420
  49.9901632  62.2830539  46.0689331  49.4272467  61.8703148  46.5928992
  50.7522656  62.2083444  46.4882474  50.0196081  62.2107939  46.2082331
  45.5497624  64.2728560  38.6725961  46.2518203  63.7580549  38.7298718
  45.4695107  64.6002711  39.4772836  45.6421384  64.2442786  38.7998753
  45.5001102  60.8835787  42.4824875  46.0399327  60.7406918  43.1528247
  44.8171049  61.2832538  42.8508901  45.4793256  60.9215458  42.6359297
  57.9622158  60.3900065  38.4272302  57.5257390  60.3936807  39.1831274
  57.6285074  61.0705564  37.9951880  57.8484778  60.4912521  38.4753135
  52.5351232  62.4308398  49.7515452  53.3191648  62.5439245  50.1171195
  52.3347826  61.6049535  49.9474138  52.6217257  62.3255117  49.8349839
  52.6921625  64.3418500  43.3981908  51.8936871  64.1018000  43.6555777
  53.1407637  64.3932893  44.1448956  52.6396236  64.3140891  43.5466832
  59.2121792  56.9648033  34.8973532  59.5430009  57.4975673  34.2913627
  59.7854880  57.0186921  35.5535483  59.3455471  57.0517602  34.9051314
  51.7522362  58.0878945  51.2902096  50.9595343  58.4022456  51.4754716
  51.8671289  58.3030413  50.4522881  51.6517773  58.1662781  51.1940431
  52.6806155  57.9899148  46.2287393  53.2545017  57.3526393  46.3835957
  52.6020959  57.9903231  45.3597051  52.7539390  57.8964260  46.1233804
  58.0026303  59.3608126  46.2372246  57.7664940  58.5296191  46.1184307
  58.6469532  59.3093733  46.8227090  58.0620973  59.2305814  46.3058140
  59.0262723  59.1452575  42.3000541  58.7208540  59.8780632  42.6613856
  58.3068939  58.7390504  42.0193327  58.8750066  59.1934308  42.3113678
  64.7264515  55.7845575  41.6268885  64.6589016  55.8041535  40.7571472
  64.7120178  56.6275903  41.8524556  64.7143272  55.9119310  41.5321362
  48.5750778  63.5910813  33.3622242  48.8649077  63.1999794  32.6381469
  49.3054259  63.7727518  33.8027518  48.7257663  63.5604627  33.3205049
  46.5156694  65.5678195  36.4282392  46.2956989  65.2775550  37.2209059
  46.2951216  64.9093150  35.9000304  46.4504288  65.4277904  36.4671301
  48.6824650  66.9407585  35.2113084  49.3348708  66.4084028  35.4404110
  47.9850258  66.5876238  35.5980958  48.6755368  66.8097108  35.3025252
  56.6764568  59.2611999  34.5544064  57.2422601  59.9205209  34.4702607
  56.0292472  59.6061697  35.0260466  56.6643325  59.4093941  34.6116820
  53.1471146  62.2050784  33.9781143  52.9057822  61.4718644  33.5708208
  53.3272479  62.7537641  33.3247476  53.1378770  62.1773175  33.8211366
  56.3773893  59.9539973  40.5853201  56.2388252  60.6521019  41.0901943
  55.5973891  59.7988630  40.2289383  56.2417120  60.0340140  40.6079475
  54.7151978  56.2536349  46.8375583  54.7100017  55.3816165  46.8418009
  55.4212972  56.4524518  46.3645038  54.8196982  56.1540223  46.7682618
  47.5150627  64.1716104  43.0750430  47.6640190  63.6119020  42.4223834
  48.2950629  64.2508106  43.4582948  47.6524720  64.1001670  43.0347379
  57.8727266  59.3118227  31.3469700  57.4934075  58.5255365  31.3398990
  57.2093511  59.8605084  31.2041344  57.7185741  59.2763051  31.3250497
  50.0403927  64.3430747  44.3534920  49.9647598  63.6739558  44.9085709
  49.9693786  65.0448535  44.8675587  50.0184534  64.3475655  44.5111769
  50.6974174  62.8631746  35.1858526  51.4624065  62.5941390  34.8641191
  50.5952264  62.3781756  35.9028589  50.7955670  62.7521311  35.2438354
  56.1187365  61.5563718  31.6821386  56.2007202  62.3630704  31.3582837
  56.6037107  61.5759677  32.4062160  56.2024523  61.6784380  31.7408285
  49.4295562  67.7499067  42.8112921  49.9191492  67.0509856  42.6288586
  48.8579794  67.4522937  43.3988979  49.4180091  67.6025291  42.8713962
  55.6262565  60.3161136  51.7639712  56.4397430  60.0446285  51.9244844
  55.4657531  60.0168676  50.9599908  55.7232514  60.2316062  51.6685118
  54.3139395  63.9213542  36.1489321  53.9219187  63.6180257  35.4312187
  54.4692467  64.7582632  35.9594275  54.2792985  63.9997379  36.0145818
  54.4779070  60.4863531  36.0895352  54.1193724  60.6578174  36.8659384
  53.9917780  60.9476736  35.5323350  54.3537767  60.5802502  36.1220621
  55.6383809  61.3767427  47.0362552  56.2763530  60.8827622  46.7025009
  54.9957901  61.3044827  46.4514779  55.6378036  61.2926435  46.9004907
  55.6938066  62.0687235  43.6767909  56.4830444  61.7176300  43.7969991
  55.8681663  62.8823623  43.4144543  55.8358347  62.1373092  43.6555777
  47.3066392  60.6227081  44.6865393  47.1986747  60.6329143  45.5527451
  47.5162173  61.4481861  44.4970347  47.3216503  60.7468155  44.7869485
  55.0829700  63.3249035  39.5819355  54.8849389  63.8139849  38.8875567
  54.4617411  63.5290276  40.1603489  54.9617265  63.4265573  39.5642579
  57.0003502  56.8913187  45.1164604  57.7237701  56.4385713  44.9375624
  56.7353464  57.1717853  44.3336932  57.0684775  56.8664155  44.9743319
  53.6136137  60.1299523  32.0158930  54.3370335  60.5957636  31.8723503
  53.1736728  60.1973132  31.2656527  53.6551829  60.2083360  31.8843711
  37.8611888  56.2201585  40.6489596  37.7555337  56.1748429  39.7841680
  37.1112108  56.5655365  40.9303880  37.7347491  56.2642493  40.5626925
  51.2632206  60.2756970  44.2453047  50.7557297  60.8292817  44.6893678
  50.9658852  60.3365260  43.4271822  51.1437091  60.3663281  44.1901504
  53.8739986  64.1920228  32.1756991  53.1569296  64.0181090  31.7104228
  54.5246724  63.9572800  31.6432477  53.8641837  64.1316020  32.0286209
  50.5074691  65.2081528  41.1510054  50.2840346  64.4500358  41.5194081
  50.0184534  65.2379549  40.4290494  50.4018140  65.1003753  41.0986795
  52.5645681  59.3763260  48.7021988  52.5241535  58.7312937  48.1167144
  53.3768999  59.3199878  49.0147400  52.6788834  59.2722227  48.6618937
  49.1553148  65.4281986  38.6047139  48.7413547  64.7656117  38.2150981
  49.8400522  65.5759845  38.0842833  49.1951520  65.3522645  38.4703636
  52.5218442  64.5872072  39.3570756  52.1234725  64.6974342  38.5891576
  51.9069662  64.7954138  39.9397315  52.3717332  64.6345640  39.3302055
  60.2560285  59.1624038  32.7413846  60.6393891  59.9115395  32.9711943
  59.4604398  59.4089858  32.4825835  60.1954067  59.3093732  32.7371420
  46.1207618  65.8691068  41.0060485  46.4354177  66.6827457  41.0138267
  46.5301031  65.4841287  41.6742644  46.2275716  65.9319770  41.1064577
  53.0732137  61.2861115  38.5764297  53.5443316  62.0001377  38.7454282
  53.4092316  60.6859865  39.1124166  53.1927252  61.3032579  38.6796673
  55.1609122  62.8962428  50.7556369  55.2706087  62.1070989  51.1113116
  55.4900019  62.8068364  49.9530707  55.2261528  62.7668281  50.6898760
  53.7106084  61.0779049  45.3391990  53.1627030  60.4536933  45.0712055
  54.1719112  61.2673321  44.6236069  53.6973293  61.0138099  45.1942421
  53.2764410  62.0830122  41.8701331  54.0962784  61.9393088  42.1317626
  52.9958488  62.7076321  42.4117769  53.3561153  62.1540474  41.9889270
  38.6971920  58.7998794  40.5238016  38.5996198  57.9895066  40.8328073
  39.4800790  58.7790587  40.1384285  38.7988057  58.6765884  40.5124879
  69.7478060  69.7394973  34.8344207  69.7172065  70.5939610  35.0062476
  70.3459409  69.4390266  35.3930351  69.8315218  69.8211470  34.9419009
  62.9477745  68.8270624  39.5897138  62.0915641  68.9879123  39.6406254
  62.9945399  67.9562688  39.6102199  62.8276857  68.7221426  39.6003204
  57.3318885  78.3633342  35.3534369  56.5801785  77.9848881  35.1250414
  57.7804897  78.3951776  34.6053179  57.2868552  78.3118949  35.2091871
  66.2571462  75.0957150  49.1957594  66.9638229  74.6009181  49.3244528
  66.4459397  75.5366232  48.4660252  66.3899367  75.0875500  49.1066639
  65.7929566  70.8862668  42.2328789  66.3385526  71.5647755  42.2922759
  65.7346443  70.7450129  41.3730371  65.8645481  70.9654670  42.1140850
  58.9103641  78.3751734  37.6197142  59.0114004  77.5652088  37.9294269
  58.3145386  78.2808681  36.9896820  58.8376180  78.2416763  37.5723380
  67.5694635  72.3147275  33.1062517  67.4534161  73.0654962  33.5354655
  68.3650522  72.0571229  33.3558604  67.6699224  72.3882122  33.2066609
  52.1068685  74.3972021  37.2449475  51.8718870  73.5639673  37.1381744
  52.2454326  74.6776687  36.4310676  52.0924348  74.3155524  37.1091830
  54.4058773  66.5657752  40.1433783  53.7863805  65.9750399  39.9743798
  54.3042636  67.1569187  39.5098106  54.2996448  66.5661834  40.0238772
  59.4524960  76.3041298  34.3931859  59.7740802  76.8446506  33.7893167
  60.0997057  75.7338070  34.5254149  59.5951016  76.3000474  34.3238895
  61.5026669  68.3057293  34.4766246  62.2006833  68.4845421  34.9687709
  61.8179001  67.7827633  33.8536635  61.6522006  68.2551066  34.4568256
  54.1327906  70.1110033  42.3877352  54.0086603  70.6972479  43.0227171
  54.7846190  69.6170229  42.6889627  54.2101555  70.1248838  42.5263281
  61.6914604  74.6927738  34.4646038  62.1308239  74.0844839  34.9100810
  61.5419267  74.3135112  33.6931503  61.7336070  74.5466210  34.4165205
  59.1586247  73.2871750  41.6664863  59.8035249  72.7944193  41.3475812
  59.3988024  73.4296537  42.4930941  59.2896832  73.2349192  41.7414396
  61.6972338  76.1326656  41.3171756  61.9795581  75.3378062  41.0958511
  62.4258499  76.6107244  41.3376817  61.8461902  76.0861253  41.2874771
  59.6753532  63.6749690  38.5587521  59.3456862  64.1260834  37.8891219
  58.9998534  63.5965853  39.1060527  59.5263968  63.7300825  38.5410744
  65.2923940  73.0454920  31.4176807  65.2075236  73.9015886  31.5626376
  65.7808324  72.7699244  32.0858966  65.3512838  73.1312241  31.5378888
  66.8829940  59.6635213  36.8037131  66.5683381  60.3538692  37.2357554
  66.3656882  59.6079995  36.1022632  66.7594410  59.7570102  36.7634080
  66.2242374  69.6639714  32.9174542  65.6953845  69.8799347  33.5771848
  66.7467394  70.3575852  32.8375511  66.2230827  69.7982851  33.0030141
  58.1141981  73.5602931  31.7182010  57.5299197  74.0652962  32.1247874
  57.7112077  73.3345318  30.9778602  57.9681285  73.6011179  31.6687035
  53.6686010  79.2757692  38.5205681  53.1853588  80.0008181  38.4965265
  54.4809328  79.5733822  38.6315839  53.7176758  79.4260046  38.5332961
  59.7400164  78.0689873  41.1255496  59.2227106  77.7097288  40.5216804
  60.4374555  77.5452047  41.1361562  59.7665745  77.9387560  41.0385755
  60.9634216  77.8015847  46.0689331  60.4005051  77.3888456  46.5928992
  61.7255239  77.7268752  46.4882474  60.9928665  77.7293247  46.2082331
  62.5719196  69.8068583  30.1950930  62.8115200  70.0146566  29.3826274
  62.8935037  69.0026091  30.3039875  62.6556354  69.7182684  30.0911484
  57.8809486  61.7361978  34.0410468  58.6355454  62.1040296  33.8027519
  57.7037021  62.1101533  34.8089648  57.9663965  61.8460166  34.1195357
  56.5230207  79.7913868  38.6725961  57.2250787  79.2765857  38.7298718
  56.4427690  80.1188019  39.4772836  56.6153968  79.7628094  38.7998753
  71.1744385  67.8856419  42.0858008  70.3372806  67.9558606  42.3205602
  71.1432616  67.8880914  41.2132310  71.0462667  67.8966646  41.9917556
  57.5709114  70.0289455  47.8006376  57.7429618  69.9195349  48.6491658
  58.1078471  70.6743860  47.5637569  57.6754118  70.1081456  47.8911473
  56.2366551  64.1432297  30.7388581  56.0542124  64.3604178  29.9129574
  57.0992164  64.2571310  30.7947196  56.3371140  64.1922195  30.6243068
  55.8480983  75.9820220  38.1811569  56.6869882  76.2143152  38.2285331
  55.8792752  75.1124531  38.1118605  55.9762700  75.8877166  38.1776214
  56.4733686  76.4021095  42.4824875  57.0131911  76.2592226  43.1528247
  55.7903632  76.8017846  42.8508901  56.4525840  76.4400766  42.6359297
  61.9166270  61.1458708  33.7737605  62.6452430  60.9674663  33.3275761
  62.0061163  61.9876788  33.9844783  62.0372932  61.2442587  33.7391123
  65.8974571  72.0812096  37.6769899  66.6532086  72.5143610  37.7158808
  66.0036895  71.4316865  38.2504535  66.0244741  72.0489579  37.7667925
  51.8770831  72.6221386  42.6359296  51.6109246  71.8060502  42.7950287
  51.8909395  72.6674541  41.7654812  51.8395553  72.5078290  42.5312778
  68.8552225  62.9499201  40.6701730  69.4978133  63.0197305  41.2563645
  69.1075245  62.2828423  40.1681272  68.9874357  62.8625549  40.6829009
  55.7828578  67.4206470  29.2511054  55.0686755  67.1344650  29.6633487
  56.2672547  67.7603096  29.8917442  55.7487941  67.4288120  29.4066689
  56.6269437  66.1599764  45.2826304  55.9341234  65.6896744  45.5287036
  57.2429765  65.9338068  45.8568011  56.6153967  66.0566896  45.4035457
  62.9575896  75.9236424  29.6272863  63.3727044  75.5921448  28.9357358
  62.1267825  75.6905326  29.4992999  62.8963904  75.8407680  29.5063710
  52.2864245  73.4080165  39.9171041  52.1039818  73.3827051  39.0643333
  53.0213913  73.8779103  39.9559949  52.3678308  73.4741527  39.7968959
  68.3563919  73.6431675  37.0603928  68.5919508  73.7876874  36.2330779
  68.5053482  74.4074083  37.4535442  68.4129722  73.7770729  36.9967532
  55.3509996  70.1265168  46.4253149  56.0749969  70.1118199  46.9118044
  55.4526133  70.8360523  45.9275117  55.4728205  70.2289871  46.4231936
  70.1854375  72.4833341  34.8973532  70.5162593  73.0160981  34.2913627
  70.7587464  72.5372229  35.5535483  70.3188055  72.5702910  34.9051314
  62.7254946  73.6064253  51.2902096  61.9327926  73.9207764  51.4754716
  62.8403873  73.8215721  50.4522881  62.6250356  73.6848089  51.1940431
  65.3986265  70.3298244  35.5797112  65.4933119  71.0687538  36.0336738
  64.7745108  69.9015719  36.0131677  65.3195295  70.3759564  35.7105260
  63.6538738  73.5084456  46.2287393  64.2277600  72.8711701  46.3835957
  63.5753542  73.5088539  45.3597051  63.7271973  73.4149568  46.1233804
  52.2535155  70.2873666  40.0670107  52.8308657  70.1510117  40.7062353
  51.5549217  69.8309450  40.3215692  52.2356176  70.1995932  40.1992397
  65.6509286  72.1746983  28.8134064  65.5689448  72.2449171  29.6789051
  66.2889006  72.7376727  28.6217805  65.7329123  72.2685955  28.9124014
  59.0102457  71.9407721  38.2808590  58.7521701  71.1079456  38.2539890
  59.0650940  72.1665334  37.4401091  58.9802235  71.8505493  38.1528727
  64.0903507  64.0436172  38.3812683  63.3859834  63.5545358  38.5396602
  64.1388482  64.0558647  37.5101128  63.9933559  63.9725820  38.2752023
  57.9837169  69.4945484  38.7673485  57.4086760  69.6537652  39.4037446
  57.6072845  68.8580893  38.3041936  57.8439982  69.4243297  38.7928044
  61.6510458  67.9668833  43.6265864  61.2624891  67.5423051  42.9718055
  60.9865156  68.2150983  44.1342890  61.4957386  67.9407554  43.6053732
  71.2933727  67.7243838  36.4013694  71.0370292  66.9123779  36.2111576
  72.1363041  67.7321405  36.1743881  71.3799752  67.6055835  36.3398511
  47.7293988  69.1385559  36.7817926  47.8154240  68.7617427  37.5631456
  48.3569786  68.7646004  36.3037884  47.8350539  69.0271041  36.8263403
  65.4736819  61.6643462  41.1389848  65.8547331  60.9821633  41.5257722
  64.6700104  61.3753064  40.9565512  65.4113281  61.5210510  41.1693904
  62.7549396  72.1967438  31.8242671  63.5690035  72.4882331  31.7125442
  62.6908537  71.5427300  31.2500964  62.8652135  72.1432633  31.7231508
  58.6257304  75.6688955  36.9514983  59.2631251  75.4300703  37.4966776
  59.0512376  75.8726114  36.2168143  58.7833471  75.6639965  36.9232140
  53.3169947  77.9077292  40.8349286  53.3574092  78.1792143  40.0069066
  53.8764471  78.4319200  41.2507074  53.4053293  78.0253047  40.7741175
  59.2660119  70.8891245  31.2889872  59.6505272  70.6698952  32.0406417
  59.0171740  71.7154190  31.4190948  59.2862192  70.9789391  31.4190948
  59.4328660  64.1697660  51.0052456  59.1182101  64.9397223  50.7422019
  59.1118592  63.6067916  50.4204683  59.3387579  64.2007929  50.8793806
  61.0078776  76.1461378  38.6308769  61.0817785  75.9836550  39.4850619
  61.8248283  76.3351567  38.3869251  61.1395135  76.1498120  38.7206795
  54.7684533  76.4919241  35.6603212  53.9422651  76.7380978  35.5337491
  54.8296524  76.4131322  36.5265270  54.6558700  76.5164190  35.7692157
  56.9860557  62.5588182  36.6198653  56.1182982  62.6310781  36.6856262
  57.2735761  63.3610261  36.8086628  56.9000305  62.6882329  36.6573419
  66.1093446  62.7066041  44.9509974  66.8547038  62.5175851  44.5373400
  65.6930750  63.2324279  44.3923831  66.1578420  62.7568186  44.8074548
  59.5483362  79.1096121  33.3622242  59.8381660  78.7185102  32.6381469
  60.2786843  79.2912826  33.8027518  59.6990246  79.0789935  33.3205049
  73.4855716  70.0775270  39.9015479  74.0363638  69.4443339  40.1412571
  73.4699832  70.6090662  40.5930984  73.5640913  70.0624218  40.0394338
  60.1378107  73.9113867  44.4475373  59.6389801  74.6229635  44.5260261
  60.9478331  74.2314533  44.4093535  60.1834214  74.0640715  44.4531941
  57.4889278  81.0863503  36.4282392  57.2689573  80.7960858  37.2209059
  57.2683800  80.4278458  35.9000304  57.4236872  80.9463212  36.4671301
  56.4006225  73.1736820  38.6938094  56.1119473  72.5474291  39.2283821
  57.2689573  73.1157107  38.7602774  56.4866477  73.0724364  38.7829048
  67.1884123  68.3171603  39.0120076  66.8448888  67.5961938  39.3627325
  67.2877165  68.1085454  38.1698434  67.1526165  68.1795806  38.9391756
  56.6038498  74.8132071  34.6180459  57.3584466  75.1945110  34.8315921
  56.0109111  75.2643215  35.0727155  56.6275212  74.9360898  34.7163337
  59.0645165  66.7694911  49.7437671  58.2544941  67.0752691  49.6327513
  59.5419852  67.4900494  49.8590255  59.0148644  66.9209512  49.7444742
  57.9236725  75.9840632  39.9920574  57.4017478  76.1240924  40.6772439
  58.3110745  75.2251297  40.1822691  57.9040426  75.8926156  40.1221651
  54.9127909  66.0346441  34.0615529  54.6252705  65.6647711  33.3247476
  55.5998377  66.5041296  33.7999234  54.9716806  66.0493410  33.9130605
  59.3503050  73.0144651  35.3902065  59.1545833  73.6219386  34.7962368
  59.5737396  72.3212595  34.9093739  59.3537691  73.0022177  35.2318146
  57.7481580  69.8999389  35.5082934  58.4704232  70.0640547  35.0486740
  57.2689573  70.6209054  35.4022273  57.7845311  70.0297619  35.4248548
  65.7075088  66.2363188  40.8879618  64.8686189  66.2624467  40.6517882
  65.7779455  66.8833923  41.4684965  65.5943481  66.3359314  40.9388735
  55.3989197  72.3057462  44.6137073  55.9110294  72.5841715  43.9645833
  55.1125540  73.0446756  44.9799886  55.4324060  72.4559815  44.5726951
  64.1544366  63.1348565  35.6207234  64.8570719  62.9356313  35.1427193
  63.8888555  62.3624507  35.9276078  64.2190999  62.9911531  35.5952676
  69.5832612  71.4431175  38.1740860  69.4966586  71.5986601  39.0275639
  69.1283092  72.0869250  37.8000265  69.5035868  71.5606930  38.2447967
  52.4856103  66.8127653  34.9100810  52.5872240  67.6153815  35.2381785
  53.2811990  66.6114989  34.6123890  52.6184009  66.9013552  34.9136165
  58.9172922  64.3983850  44.6738115  58.7256120  64.4138985  45.5237539
  59.7671518  64.5947524  44.6504770  59.0148644  64.4298201  44.7961410
  53.3019836  66.9274832  42.6521931  53.1605327  66.0758772  42.7766439
  53.5860399  66.9703492  41.8284137  53.3227682  66.8074582  42.5489556
  63.4558428  68.7641922  36.7966420  63.2093142  68.6837673  37.6303209
  63.7843551  67.9795390  36.6028947  63.4679671  68.6368187  36.8913943
  65.6884562  71.7721657  46.8375583  65.6832600  70.9001473  46.8418009
  66.3945556  71.9709826  46.3645038  65.7929566  71.6725531  46.7682618
  59.4155455  71.4998640  46.2089403  59.5598831  72.0799849  45.5732513
  59.7631104  71.8774937  46.9139257  59.4882917  71.6419344  46.2188398
  61.5875373  70.6988809  43.9914534  60.8398687  70.8919823  43.5862812
  61.7416898  69.8734028  43.7538656  61.4997800  70.6053920  43.8959940
  58.4883210  79.6901412  43.0750430  58.6372774  79.1304328  42.4223834
  59.2683212  79.7693414  43.4582948  58.6257304  79.6186978  43.0347379
  61.8277150  64.5939360  44.8809938  62.2849764  65.3263334  45.0082730
  61.9033478  64.1705825  45.6397194  61.9068119  64.6396598  45.0111015
  54.0710141  64.8405179  45.9699382  53.5352330  64.2285537  46.2860149
  54.1327906  65.4153315  46.6233048  54.0005773  64.8352107  46.1134809
  66.3004475  57.7729235  38.7503781  66.4188044  58.2305698  38.0171084
  66.1266651  56.9674496  38.4639999  66.2923646  57.7223007  38.6004715
  61.6706758  78.3817054  35.1858526  62.4356649  78.1126698  34.8641191
  61.5684848  77.8967064  35.9028589  61.7688253  78.2706619  35.2438354
  59.7059527  66.5841463  41.7251762  58.9155602  66.4032924  42.0469098
  60.1020150  65.8068416  41.7082057  59.6476404  66.4428924  41.7704311
  64.1925418  75.4129238  27.1658476  64.9598403  75.4729363  26.7564328
  63.7456727  74.8409679  26.6814794  64.2398845  75.3365813  27.0336186
  65.0903214  74.2183894  39.4511208  64.4148216  73.9869126  39.9524595
  65.0995590  73.6105077  38.8253313  64.9921718  74.0942819  39.4327360
  62.2197358  69.0601723  46.2075261  62.1556499  69.9211679  46.0795398
  62.3594545  68.7433716  45.4070812  62.2312828  69.1401889  46.0703474
  60.9016452  71.7533862  40.3491464  60.4778701  71.9538361  39.6130482
  60.7261307  70.9062710  40.4615764  60.8127332  71.6582643  40.2565154
  56.1898897  72.2485913  35.7819436  56.3463516  72.1832716  36.6375429
  56.5299490  73.0234466  35.5698116  56.2632131  72.3535111  35.8774031
  62.7278041  71.6243797  34.6512800  63.2693587  71.1214178  35.1151420
  63.0424600  71.5708992  33.8402285  62.8542438  71.5423218  34.5996612
  60.8964491  77.0161148  31.9352828  60.9657311  76.1575687  32.0745828
  61.6752946  77.2333029  31.6071852  61.0217341  76.9214012  31.9069985
  63.8767311  66.5180101  44.7035100  64.0909280  65.8791016  44.1498454
  63.2601210  66.9625925  44.2742962  63.8172640  66.4890245  44.5585531
  52.7633158  69.4320864  36.0980204  53.1432123  69.8505409  35.4340471
  52.1888523  70.0134320  36.4049047  52.7344483  69.5798723  36.0456945
  66.0406399  68.1269167  45.6418407  65.2283080  67.8195057  45.7231580
  66.4996333  67.6468167  46.2061119  65.9886783  68.0105659  45.7373001
  65.4511653  76.0048839  36.0895352  65.0926308  76.1763481  36.8659384
  64.9650364  76.4662044  35.5323350  65.3270350  76.0987810  36.1220621
  63.2682039  59.6280037  39.6922443  62.3975597  59.6018758  39.6455752
  63.5222381  59.4557229  38.8748289  63.1775599  59.5990181  39.5642580
  60.2400019  71.6848004  28.6295586  60.5292544  72.4612887  28.9039160
  60.3271818  71.1736735  29.3310085  60.2954275  71.7239922  28.7738084
  63.1359906  69.5329238  50.4247110  63.6059537  70.1571354  50.8114984
  63.1821786  68.8646214  50.9840324  63.2127782  69.5263918  50.5647181
  60.2931180  61.6386266  41.1495913  59.7769668  60.9466457  41.2747492
  59.7325109  62.3057043  41.0958512  60.1337693  61.6349523  41.1601979
  62.3623413  62.1779226  42.9788766  61.9755166  62.2028257  43.7602296
  61.8756350  61.6120904  42.5263283  62.2335922  62.0974976  43.0276670
  68.3373393  68.7441881  41.6028468  67.9101001  68.6568229  40.8476568
  67.6999446  68.8519656  42.1883312  68.1803000  68.7474540  41.5773910
  62.0280555  59.0646211  45.2699026  62.6573673  59.6006511  44.9920096
  62.1966418  58.9723570  46.1212591  62.1458349  59.1307573  45.3547554
  61.8294470  63.8517406  47.5425437  62.6567899  63.5802555  47.5984052
  61.8502316  64.6478247  47.8989256  61.9547320  63.9297160  47.6040620
  56.4063960  70.9981269  40.7295698  55.5651966  70.8985143  40.9374592
  56.6153968  71.7676749  41.0810019  56.3128652  71.0973312  40.8123013
  53.8839527  68.6200806  38.5580449  53.4896224  68.6943817  37.7830558
  53.3279643  69.0058752  39.1088810  53.7442339  68.6882580  38.5248109
  65.5204473  61.5982100  38.2384328  65.7254067  61.5304407  39.0841325
  65.1930897  62.4040921  38.1705505  65.5019721  61.7068040  38.3543983
  60.2180625  68.9262668  39.9793296  59.9143762  68.3718656  40.5803703
  59.5160045  69.1054878  39.4921330  60.0696834  68.8707450  39.9963001
  59.2746722  66.2363188  34.5437997  59.5506456  65.5182100  34.1315565
  59.8745391  66.8348107  34.3359104  59.4039986  66.2183558  34.4518759
  58.2798976  76.1412388  44.6865393  58.1719330  76.1514451  45.5527451
  58.4894757  76.9667169  44.4970347  58.2949087  76.2653463  44.7869485
  68.7738161  62.1513864  37.7187093  68.1612475  62.6384266  38.1040825
  68.8702336  61.4757355  38.2624744  68.6976059  62.1232173  37.8565951
  62.7757242  63.9076705  32.8184592  63.2300989  64.0787265  33.5432437
  63.2497288  63.2944816  32.4182368  62.9125562  63.8427590  32.8658354
  56.2972768  73.3925031  42.1487331  55.7060701  74.0334529  42.1190346
  57.0593791  73.8162648  42.1218630  56.3221028  73.5500869  42.1402478
  56.6933390  64.5527029  42.8155349  57.1534872  64.6265958  43.5530472
  56.7389497  65.3508283  42.4655170  56.7683946  64.6821176  42.8728105
  58.3416740  65.2193723  47.3827376  57.9502305  64.5727071  47.8183153
  58.5102603  65.8105159  48.0021631  58.3087650  65.2107991  47.5390082
  60.1170262  70.6119239  33.9229600  60.8612307  70.9993516  34.1612550
  60.2630958  69.7676665  34.0870088  60.2480847  70.5449712  33.9823569
  62.0349838  62.4069498  38.9561461  61.1885883  62.5792306  38.8302811
  62.0320970  61.6018842  39.2927289  61.9096987  62.3130527  38.9872588
  63.1048138  66.1844713  39.8223519  62.6308092  65.6586475  40.3328830
  63.4766274  65.6374185  39.2538381  63.0898027  66.0260709  39.8138666
  53.4821168  68.1816219  45.1907065  54.3446781  68.0811929  45.1044395
  53.1512951  67.6010929  44.6292637  53.5606364  68.0807846  45.0952471
  69.3684869  71.2447088  41.2330300  69.1283091  70.4053503  41.2372726
  69.8476876  71.3247255  41.9571073  69.4037052  71.1328488  41.3405102
  65.0331638  67.0781267  32.8849273  64.5054656  67.1610011  32.1954982
  65.4927346  67.8199139  32.8813918  65.0233488  67.2001930  32.7823968
  71.3690056  68.0248545  39.1859559  71.1299826  67.9844380  38.3480343
  71.5323957  68.8719698  39.3125280  71.3580359  68.1440630  39.0813041
  67.9736086  72.4098495  45.1164604  68.6970285  71.9571021  44.9375624
  67.7086048  72.6903160  44.3336932  68.0417359  72.3849463  44.9743319
  56.8422954  67.0058668  41.8517483  56.2176024  67.0177060  41.2443436
  56.5068549  67.4818843  42.5008723  56.7008446  67.0777185  41.8574052
  57.0264703  65.3483787  27.9090168  56.6777507  66.0003512  28.3721717
  56.5461149  65.3340900  27.1814039  56.9034947  65.4426840  27.8701259
  53.5548630  75.0659128  43.2921247  53.0248554  74.3751567  43.3416222
  53.8273723  75.0569314  42.4633956  53.5173352  74.9626260  43.1768663
  64.5868720  75.6484831  32.0158930  65.3102919  76.1142944  31.8723503
  64.1469311  75.7158440  31.2656527  64.6284412  75.7268667  31.8843711
  63.7554875  72.5082373  43.2659619  63.1411868  71.9640423  43.5608254
  64.2722160  71.9946609  42.7865435  63.7410538  72.3518782  43.2383847
  62.9951172  73.5786643  41.0003918  62.5678780  72.9536362  40.5669353
  62.9876117  73.2961565  41.8262925  62.9310314  73.4439424  41.0583745
  56.1113699  68.6151816  44.0692351  56.2707186  67.8595140  44.4744073
  55.9306593  69.1642756  44.7233089  56.1079058  68.5845630  44.2255057
  64.0534002  60.7813052  44.6243141  63.5574564  60.9776726  43.9334708
  64.8103064  61.1805720  44.4531943  64.0920827  60.8690785  44.4963278
  61.3236882  64.4555398  41.2146452  61.3479369  63.9215510  40.5259231
  61.5748356  63.9472706  41.8772042  61.3646801  64.3016302  41.2111096
  48.8344472  71.7386893  40.6489596  48.7287921  71.6933737  39.7841680
  48.0844692  72.0840673  40.9303880  48.7080075  71.7827801  40.5626925
  57.6038204  63.1826216  40.5952196  57.6436576  63.6835422  41.3086903
  56.7787869  63.2736610  40.3258119  57.4877730  63.2708032  40.6602734
  59.7867817  72.7486956  48.6972490  58.9363448  72.8858670  48.8330135
  59.9495945  72.0150734  49.1420192  59.6851681  72.6601057  48.7828090
  59.0252568  69.6986726  42.8926095  58.1944497  69.8660544  42.6861343
  58.9704085  69.3222676  43.6774980  58.8941983  69.6676457  42.9774623
  56.8336351  63.1895619  48.5282506  57.4589054  62.6457751  48.8011938
  56.3786831  62.7090536  47.9590296  56.8584612  63.0385100  48.4844099
  57.3988611  67.9742317  33.4216213  57.5391573  68.4714781  34.1244854
  57.8971144  67.2728612  33.5630426  57.4929692  67.9444296  33.5467792
  57.4288834  68.8409428  30.7508789  58.0633913  69.4369853  30.6858251
  57.5114445  68.5412886  31.5654660  57.5345385  68.8850336  30.8611876
  70.4071400  71.3724906  43.6195154  70.9989240  72.0122156  43.6513352
  70.8430394  70.6747942  43.9087220  70.5589831  71.3643256  43.6675986
  59.0067817  64.7723404  30.7254231  59.3283658  64.2926486  30.0713494
  59.2694760  65.5823050  30.5345043  59.0933842  64.8213302  30.6009723
  62.2364790  75.7942278  44.2453047  61.7289881  76.3478125  44.6893678
  61.9391436  75.8550568  43.4271822  62.1169674  75.8848589  44.1901504
  64.4026972  64.1595598  43.0877710  64.8282043  63.7068124  42.4761237
  63.7883965  63.6055668  43.3642498  64.3755617  64.0109574  43.0382736
  53.9341822  71.0377269  34.0198335  54.4434051  71.6341777  34.4009641
  54.4076094  70.7703243  33.3374755  54.0785197  71.0863084  33.9752858
  62.8421195  60.6310697  36.4968287  62.1989513  60.4808344  37.0653426
  62.5020602  60.3853043  35.7317392  62.6966272  60.5722820  36.4671303
  67.4320541  68.5870124  35.9198296  66.7611731  69.1299826  35.7911362
  68.1260291  69.0564980  35.6779991  67.4349409  68.7368395  35.8653824
  67.5948669  65.0426008  38.8288669  67.9476279  64.6155731  39.5034468
  66.7363470  64.9576851  38.9589746  67.5198113  64.9670748  38.9483680
  56.2932353  67.6733528  36.8871516  55.5744343  68.0897660  37.1544379
  56.6644716  68.2387766  36.3363154  56.2424285  67.8182809  36.8454323
  65.5931934  68.3061376  42.7773512  65.5729862  68.1244672  43.6308290
  65.6411135  69.1773395  42.7533095  65.5966575  68.4077915  42.8996806
  63.5378264  74.8948568  48.7021988  63.4974119  74.2498245  48.1167144
  64.3501582  74.8385186  49.0147400  63.6521418  74.7907535  48.6618937
  62.0678928  66.7131527  32.2244895  61.4743767  67.0348524  31.6729462
  62.1054206  65.8672623  32.0166001  61.9853317  66.6355856  32.1127667
  69.0272729  60.1644420  39.7572982  68.5203593  59.4573559  39.6894159
  69.8240162  59.8337609  39.8874058  69.0699968  60.0117571  39.7671977
  64.9436744  66.6711032  35.6546645  64.7150437  66.6943733  34.8125004
  65.2034821  65.8468499  35.7741656  64.9482932  66.5527112  35.5471843
  59.2255973  68.5245505  45.2571746  58.7134876  67.9166688  45.6156777
  59.0535469  69.2402098  45.7245721  59.1245610  68.5408804  45.3787969
  54.0721688  66.9683080  47.9074107  53.9024278  67.6284455  47.3622314
  53.6287637  67.1789642  48.6286597  53.9821021  67.0969062  47.9335737
  57.9981507  65.2087578  36.9500841  58.4738873  65.5704658  36.3151022
  57.4970107  65.8644046  37.2300984  57.9946866  65.3581767  36.8977582
  63.1025043  66.4469750  47.6974001  63.6596473  66.2183559  47.0652467
  62.7786108  67.2075415  47.4209214  63.1371453  66.5253586  47.5630498
  50.9723752  69.8729946  43.1662597  50.4250472  69.2030591  43.2843466
  51.7616130  69.5059794  43.2306065  51.0075936  69.7194932  43.1931298
  60.8208160  69.5337403  48.6626008  61.5719487  69.8489080  48.9765563
  61.0130737  69.3316574  47.8359930  60.9599575  69.5504785  48.5869404
  60.0408160  67.3528778  30.3174225  60.4207125  67.3708407  29.5325340
  59.3000756  67.7982767  30.1965072  59.9876998  67.4210553  30.1837793
  67.6693451  65.6610969  35.9049804  67.6687677  65.5059626  36.7634080
  67.4649631  66.5073956  35.8491189  67.6393228  65.7631590  36.0237743
  49.7310722  69.0850754  40.3208620  49.5532483  68.6327363  41.0463536
  49.4429744  69.8876915  40.5047098  49.6623675  69.1373311  40.4552123
  65.3934303  70.3408471  39.5586011  65.8887968  69.6231466  39.5190031
  64.5834078  70.0379269  39.4440498  65.3478196  70.1906117  39.5359737
  60.8392914  74.1906284  31.7083015  60.0304237  73.8672958  31.6616325
  61.3467823  73.4839506  31.6411264  60.7942581  74.0387601  31.6913310
  51.4683191  71.6178477  37.4330379  50.6028711  71.6064168  37.3213151
  51.5682007  71.4308700  38.2801519  51.3557358  71.5884539  37.5419324
  67.4586122  73.0912159  42.2463139  67.8841193  72.5686580  41.6933564
  67.0943041  73.6892996  41.7251762  67.4672724  73.1022386  42.0872149
  57.0940201  81.3876376  41.0060485  57.4086760  82.2012764  41.0138267
  57.5033615  81.0026595  41.6742644  57.2008299  81.4505078  41.1064577
  64.0464721  76.8046423  38.5764297  64.5175899  77.5186685  38.7454282
  64.3824900  76.2045173  39.1124166  64.1659836  76.8217887  38.6796673
  60.9634216  61.5773893  45.5322392  61.0962122  60.7804887  45.8603367
  61.3479369  62.1040296  46.1120667  61.0390545  61.5373810  45.6665895
  64.6838667  76.5964357  45.3391990  64.1359613  75.9722241  45.0712055
  65.1451696  76.7858629  44.6236069  64.6705877  76.5323407  45.1942421
  64.0366571  58.5004219  42.1303485  63.2312535  58.3901949  42.4471323
  63.9073307  58.6016675  41.2733351  63.8986704  58.4987890  42.0511525
  67.4932532  64.6649711  42.7243182  66.9095520  65.1658918  42.3120749
  67.8136826  64.1579268  42.0907505  67.4545707  64.6641546  42.5701689
  60.0327331  63.5790306  33.0001857  60.8543025  63.7488619  32.7583552
  59.5696982  63.7337567  32.2768154  60.0858493  63.6272039  32.8573501
  58.6222663  61.5733068  43.7800285  59.1667076  61.2324195  44.3704627
  58.6759598  62.4318530  43.9221570  58.7111782  61.6488328  43.8882159
  54.4353221  75.3349484  40.6539093  55.0398079  75.2945319  40.0252914
  54.2280534  76.1820636  40.6843149  54.4942119  75.4537487  40.5655210
  49.6704504  74.3184102  40.5238016  49.5728782  73.5080373  40.8328073
  50.4533373  74.2975895  40.1384285  49.7720640  74.1951192  40.5124879
  36.5231134   0.1217181  21.7684254  36.4925138   0.9761817  21.9402523
  37.1212482  -0.1787527  22.3270398  36.6068292   0.2033677  21.8759056
  29.7230818  -0.7907168  26.5237184  28.8668714  -0.6298670  26.5746301
  29.7698472  -1.6615104  26.5442245  29.6029930  -0.8956366  26.5343250
  24.1071958   8.7455550  22.2874416  23.3554858   8.3671088  22.0590461
  24.5557970   8.7773983  21.5393226  24.0621625   8.6941157  22.1431918
  33.0324535   5.4779357  36.1297640  33.7391302   4.9831388  36.2584575
  33.2212470   5.9188439  35.4000298  33.1652441   5.4697708  36.0406686
  29.5596918   9.1680919  17.7159963  29.2248287   9.8457841  17.2804185
  30.0723789   8.7786230  17.1276835  29.5862499   9.2105497  17.5646754
  29.1001209  11.1195188  23.6571075  29.4840589  11.6882087  23.1175850
  29.0360351  10.3944698  23.1776891  29.1474637  11.0970651  23.5064937
  32.5682639   1.2684876  29.1668836  33.1138600   1.9469962  29.2262806
  32.5099516   1.1272337  28.3070417  32.6398554   1.3476877  29.0480897
  25.6856714   8.7573942  24.5537188  25.7867077   7.9474296  24.8634316
  25.0898460   8.6630888  23.9236867  25.6129253   8.6238970  24.5063427
  34.3447708   2.6969483  20.0402564  34.2287234   3.4477169  20.4694702
  35.1403595   2.4393436  20.2898651  34.4452298   2.7704330  20.1406655
  25.5257454  13.6751531  25.9552044  26.1694909  14.1164695  26.3448203
  25.8513709  12.8704957  25.8682303  25.6689283  13.6216726  25.9997522
  18.8821759   4.7794228  24.1789522  18.6471943   3.9461881  24.0721791
  19.0207399   5.0598894  23.3650723  18.8677421   4.6977732  24.0431877
  26.2278034   6.6863506  21.3271906  26.5493875   7.2268713  20.7233214
  26.8750130   6.1160277  21.4594196  26.3704089   6.6822681  21.2578942
  28.2779742  -1.3120499  21.4106293  28.9759906  -1.1332372  21.9027756
  28.5932074  -1.8350160  20.7876682  28.4275079  -1.3626727  21.3908303
  20.9080979   0.4932241  29.3217399  20.7839676   1.0794686  29.9567218
  21.5599264  -0.0007564  29.6229674  20.9854628   0.5071045  29.4603328
  28.4667677   5.0749946  21.3986084  28.9061313   4.4667046  21.8440857
  28.3172340   4.6957319  20.6271549  28.5089143   4.9288417  21.3505252
  25.9339320   3.6693958  28.6004910  26.5788323   3.1766401  28.2815858
  26.1741097   3.8118744  29.4270988  26.0649905   3.6171400  28.6754443
  28.4725411   6.5148863  28.2511802  28.7548654   5.7200269  28.0298558
  29.2011572   6.9929451  28.2716863  28.6214975   6.4683460  28.2214818
  32.0677014   3.4277127  18.3516854  31.9828309   4.2838094  18.4966422
  32.5561397   3.1521451  19.0199013  32.1265911   3.5134449  18.4718935
  32.9995447   0.0461921  19.8514589  32.4706918   0.2621555  20.5111895
  33.5220467   0.7398060  19.7715558  32.9983900   0.1805058  19.9370188
  38.4543500   5.6208226  25.2247633  37.6241203   5.8318869  25.3881050
  38.4052752   4.7945280  24.9489917  38.3250235   5.5297832  25.2084999
  20.4439083   9.6579899  25.4545728  19.9606662  10.3830389  25.4305312
  21.2562402   9.9556029  25.5655886  20.4929831   9.8082253  25.4673007
  26.5153237   8.4512080  28.0595543  25.9980179   8.0919495  27.4556851
  27.2127629   7.9274254  28.0701609  26.5418819   8.3209768  27.9725801
  30.1716829   8.9006894  34.0211716  30.2600175   8.7133034  34.8689926
  30.6006542   8.2544324  33.6216563  30.2478932   8.7769902  34.0883467
  27.7387289   8.1838054  33.0029378  27.1758124   7.7710664  33.5269039
  28.5008313   8.1090960  33.4222521  27.7681738   8.1115454  33.1422378
  23.2983281  10.1736075  25.6066008  24.0003860   9.6588064  25.6638765
  23.2180764  10.5010226  26.4112883  23.3907041  10.1450301  25.7338800
  37.9497458  -1.7321374  29.0198055  37.1125879  -1.6619187  29.2545649
  37.9185689  -1.7296879  28.1472357  37.8215741  -1.7211147  28.9257603
  24.3462187   0.4111662  34.7346423  24.5182691   0.3017557  35.5831705
  24.8831545   1.0566067  34.4977615  24.4507191   0.4903664  34.8251520
  22.6234056   6.3642427  25.1151616  23.4622955   6.5965360  25.1625378
  22.6545825   5.4946738  25.0458652  22.7515774   6.2699374  25.1116261
  23.2486759   6.7843302  29.4164922  23.7884984   6.6414433  30.0868294
  22.5656705   7.1840053  29.7848948  23.2278913   6.8222973  29.5699343
  32.6727644   2.4634303  24.6109946  33.4285159   2.8965817  24.6498855
  32.7789968   1.8139073  25.1844582  32.7997814   2.4311787  24.7007972
  35.7107815   6.2907580  25.3612349  35.2743047   6.2944323  26.1171320
  35.3770730   6.9713079  24.9291926  35.5970435   6.3920036  25.4093182
  30.2836889   8.3315913  36.6855499  31.0677305   8.4446761  37.0511241
  30.0833483   7.5057050  36.8814185  30.3702914   8.2262632  36.7689885
  18.6523904   3.0043593  29.5699343  18.3862319   2.1882710  29.7290333
  18.6662468   3.0496749  28.6994859  18.6148626   2.8900498  29.4652825
  30.4407282  10.2426015  30.3321955  29.6422528  10.0025515  30.5895824
  30.8893293  10.2940408  31.0789003  30.3881893  10.2148406  30.4806879
  38.8452161   3.0088500  24.2531986  39.5068595   2.4479169  24.1527895
  38.2043573   2.5140531  24.5784677  38.8481029   2.8524909  24.2864326
  29.7328969   6.3058631  16.5612909  30.1480117   5.9743655  15.8697405
  28.9020899   6.0727534  16.4333046  29.6716978   6.2229887  16.4403757
  19.0617318   3.7902372  26.8511087  18.8792891   3.7649258  25.9983380
  19.7966987   4.2601310  26.8899996  19.1431382   3.8563735  26.7309006
  35.1316992   4.0253882  23.9943975  35.3672581   4.1699081  23.1670826
  35.2806556   4.7896290  24.3875489  35.1882795   4.1592937  23.9307579
  22.1263069   0.5087375  33.3593196  22.8503042   0.4940406  33.8458091
  22.2279206   1.2182731  32.8615164  22.2481278   0.6112079  33.3571983
  36.9607449   2.8655548  21.8313579  37.2915666   3.3983189  21.2253674
  37.5340537   2.9194436  22.4875530  37.0941128   2.9525117  21.8391361
  29.5008019   3.9886460  38.2242143  28.7081000   4.3029972  38.4094763
  29.6156946   4.2037928  37.3862928  29.4003429   4.0670297  38.1280478
  32.1739338   0.7120451  22.5137159  32.2686192   1.4509745  22.9676784
  31.5498181   0.2837927  22.9471723  32.0948368   0.7581772  22.6445306
  30.4291812   3.8906664  33.1627440  31.0030673   3.2533908  33.3176004
  30.3506615   3.8910746  32.2937097  30.5025046   3.7971775  33.0573851
  19.0288228   0.6695873  27.0010154  19.6061731   0.5332324  27.6402399
  18.3302290   0.2131657  27.2555738  19.0109249   0.5818139  27.1332444
  25.7855530   2.3229929  25.2148637  25.5274775   1.4901664  25.1879937
  25.8404013   2.5487542  24.3741138  25.7555308   2.2327700  25.0868774
  24.7590242  -0.1232309  25.7013532  24.1839834   0.0359860  26.3377493
  24.3825919  -0.7596900  25.2381983  24.6193055  -0.1934496  25.7268090
  28.4263531  -1.6508959  30.5605910  28.0377964  -2.0754742  29.9058102
  27.7618229  -1.4026810  31.0682937  28.2710459  -1.6770238  30.5393778
  29.5302469   2.5789645  18.7582717  30.3443108   2.8704538  18.6465489
  29.4661611   1.9249508  18.1841010  29.6405208   2.5254840  18.6571555
  35.7511959   5.2615641  33.1712293  35.5150597   4.4303706  33.0524354
  36.3955188   5.2101248  33.7567137  35.8106630   5.1313329  33.2398187
  25.4010378   6.0511163  23.8855029  26.0384325   5.8122910  24.4306823
  25.8265449   6.2548322  23.1508190  25.5586544   6.0462173  23.8572187
  20.0923020   8.2899499  27.7689333  20.1327165   8.5614350  26.9409113
  20.6517544   8.8141407  28.1847121  20.1806366   8.4075254  27.7081221
  36.7748380   5.0460090  29.2340588  36.4694197   5.7788147  29.5953903
  36.0554596   4.6398020  28.9533374  36.6235722   5.0941823  29.2453725
  27.7831850   6.5283585  25.5648816  27.8570858   6.3658757  26.4190666
  28.6001356   6.7173775  25.3209297  27.9148208   6.5320328  25.6546841
  42.4750172   1.6853091  28.5608932  42.4074673   1.7049050  27.6911518
  42.4605835   2.5283418  28.7864602  42.4628929   1.8126825  28.4661409
  21.5437606   6.8741448  22.5943259  20.7175724   7.1203185  22.4677538
  21.6049597   6.7953529  23.4605317  21.4311773   6.8986397  22.7032204
  26.3236435   9.4918328  20.2962289  26.6134734   9.1007310  19.5721516
  27.0539916   9.6735033  20.7367564  26.4743319   9.4612142  20.2545096
  40.2608790   0.4597477  26.8355526  40.8116711  -0.1734454  27.0752618
  40.2452905   0.9912870  27.5271030  40.3393986   0.4446425  26.9734384
  26.9131180   4.2936074  31.3815420  26.4142874   5.0051842  31.4600308
  27.7231405   4.6136741  31.3433582  26.9587287   4.4462923  31.3871988
  24.2642351  11.4685711  23.3622439  24.0442646  11.1783065  24.1549106
  24.0436873  10.8100666  22.8340351  24.1989945  11.3285419  23.4011348
  23.1759298   3.5559027  25.6278141  22.8872547   2.9296498  26.1623868
  24.0442646   3.4979315  25.6942821  23.2619550   3.4546571  25.7169095
  33.9637196  -1.3006189  25.9460122  33.6201962  -2.0215854  26.2967372
  34.0630238  -1.5092338  25.1038481  33.9279239  -1.4381986  25.8731802
  26.4310307  12.8415101  22.1453131  27.0834365  12.3091543  22.3744157
  25.7335915  12.4883753  22.5321005  26.4241025  12.7104624  22.2365299
  23.3791571   5.1954278  21.5520506  24.1337539   5.5767317  21.7655968
  22.7862184   5.6465422  22.0067202  23.4028285   5.3183106  21.6503384
  34.4250225   5.1619515  21.4884111  34.9908258   5.8212725  21.4042653
  33.7778128   5.5069213  21.9600513  34.4128981   5.3101456  21.5456867
  25.8398238  -2.8482881  36.6777718  25.0298014  -2.5425102  36.5667560
  26.3172925  -2.1277299  36.7930302  25.7901717  -2.6968280  36.6784789
  24.6989798   6.3662840  26.9260621  24.1770552   6.5063131  27.6112486
  25.0863818   5.6073504  27.1162738  24.6793499   6.2748363  27.0561697
  30.8956803   8.1058299  20.9121190  30.6543479   7.3726160  20.5048255
  31.0758136   8.6545156  20.2587523  30.8864427   8.0780690  20.7551413
  26.1256124   3.3966859  22.3242112  25.9298906   4.0041593  21.7302415
  26.3490469   2.7034803  21.8433786  26.1290765   3.3844384  22.1658193
  24.5234654   0.2821597  22.4422980  25.2457306   0.4462755  21.9826786
  24.0442646   1.0031261  22.3362320  24.5598384   0.4119826  22.3588594
  32.4828161  -3.3814605  27.8219665  31.6439262  -3.3553326  27.5857929
  32.5532528  -2.7343869  28.4025012  32.3696555  -3.2818479  27.8728782
  22.1742270   2.6879669  31.5477120  22.6863367   2.9663922  30.8985880
  21.8878613   3.4268963  31.9139933  22.2077133   2.8382023  31.5066998
  36.3585685   1.8253382  25.1080907  36.2719660   1.9808808  25.9615686
  35.9036165   2.4691458  24.7340312  36.2788942   1.9429137  25.1788014
  25.6925996  -5.2193942  31.6078162  25.5009193  -5.2038808  32.4577585
  26.5424592  -5.0230268  31.5844817  25.7901718  -5.1879591  31.7301457
  30.2311501  -0.8535871  23.7306467  29.9846215  -0.9340120  24.5643255
  30.5596624  -1.6382403  23.5368994  30.2432745  -0.9809605  23.8253990
  34.1259550   5.8547489  27.5193248  33.9873909   6.5528534  28.0241990
  33.3459548   5.6996145  27.1629430  33.9902777   5.9347655  27.5419522
  32.4637635   2.1543864  33.7715629  32.4585674   1.2823680  33.7758056
  33.1698629   2.3532033  33.2985085  32.5682639   2.0547738  33.7022665
  26.1908528   1.8820848  33.1429450  26.3351904   2.4622056  32.5072560
  26.5384177   2.2597145  33.8479304  26.2635990   2.0241552  33.1528445
  28.3628446   1.0811016  30.9254581  27.6151760   1.2742031  30.5202859
  28.5169971   0.2556236  30.6878703  28.2750873   0.9876128  30.8299987
  25.2636283  10.0723620  30.0090476  25.4125847   9.5126536  29.3563881
  26.0436285  10.1515621  30.3922995  25.4010377  10.0009185  29.9687426
  35.6212923   5.2125742  18.2809747  35.2419731   4.4262880  18.2739036
  34.9579168   5.7612599  18.1381391  35.4671398   5.1770566  18.2590544
  27.7889584  10.2438263  31.2874967  27.7133255   9.5747073  31.8425756
  27.7179443  10.9456051  31.8015634  27.7670191  10.2483170  31.4451815
  28.6030223  -5.0238433  31.8149985  29.0602837  -4.2914459  31.9422777
  28.6786552  -5.4471968  32.5737241  28.6821193  -4.9781195  31.9451061
  28.4459831   8.7639261  22.1198573  29.2109722   8.4948905  21.7981237
  28.3437921   8.2789272  22.8368636  28.5441326   8.6528826  22.1778401
  26.4812601  -3.0336329  28.6591809  25.6908675  -3.2144869  28.9809145
  26.8773224  -3.8109377  28.6422103  26.4229477  -3.1748868  28.7044357
  31.8656287   4.6006101  26.3851255  31.1901289   4.3691333  26.8864642
  31.8748663   3.9927284  25.7593360  31.7674792   4.4765026  26.3667407
  28.9950431  -0.5576070  33.1415308  28.9309572   0.3033886  33.0135445
  29.1347619  -0.8744077  32.3410859  29.0065901  -0.4775903  33.0043521
  33.8673022   7.4571233  18.6161433  33.9492859   8.2638220  18.2922884
  34.3522764   7.4767193  19.3402206  33.9510179   7.5791896  18.6748331
  27.6769525   2.1356069  27.2831511  27.2531774   2.3360568  26.5470529
  27.5014380   1.2884917  27.3955811  27.5880405   2.0404851  27.1905201
  22.9651970   2.6308121  22.7159483  23.1216589   2.5654924  23.5715475
  23.3052563   3.4056673  22.5038163  23.0385205   2.7357319  22.8114077
  29.5031114   2.0066004  21.5852847  30.0446660   1.5036385  22.0491467
  29.8177673   1.9531199  20.7742332  29.6295512   1.9245425  21.5336659
  33.3748222   6.2168652  38.6979759  34.1883087   5.9453801  38.8584891
  33.2143188   5.9176192  37.8939955  33.4718170   6.1323578  38.6025165
  27.6717564   7.3983356  18.8692875  27.7410384   6.5397894  19.0085875
  28.4506019   7.6155237  18.5411899  27.7970414   7.3036220  18.8410032
  30.6520384  -3.0997691  31.6375147  30.8662353  -3.7386777  31.0838501
  30.0354283  -2.6551867  31.2083009  30.5925713  -3.1287547  31.4925578
  32.8159472  -1.4908626  32.5758454  32.0036154  -1.7982736  32.6571627
  33.2749406  -1.9709626  33.1401166  32.7639857  -1.6072134  32.6713048
  32.2264726   6.3871046  23.0235398  31.8679381   6.5585689  23.7999431
  31.7403437   6.8484252  22.4663397  32.1023423   6.4810017  23.0560668
  29.9112979  -0.0848555  37.3587156  30.3812610   0.5393562  37.7455030
  29.9574859  -0.7531579  37.9180371  29.9880855  -0.0913874  37.4987228
  33.3869466   7.2774942  33.9702599  34.0249186   6.7835138  33.6365055
  32.7443557   7.2052342  33.3854826  33.3863692   7.1933950  33.8344954
  35.1126466  -0.8735912  28.5368515  34.6854074  -0.9609563  27.7816614
  34.4752519  -0.7658137  29.1223359  34.9556073  -0.8703252  28.5113956
  33.4423722   7.9694750  30.6107956  34.2316101   7.6183815  30.7310038
  33.6167320   8.7831139  30.3484590  33.5844004   8.0380607  30.5895824
  23.1817033   1.3803476  27.6635745  22.3405039   1.2807350  27.8714639
  23.3907041   2.1498956  28.0150066  23.0881725   1.4795519  27.7463060
  20.6592600  -0.9976987  25.4920496  20.2649298  -0.9233975  24.7170605
  20.1032717  -0.6119041  26.0428857  20.5195412  -0.9295212  25.4588155
  26.9933698  -0.6915125  26.9133342  26.6896835  -1.2459137  27.5143750
  26.2913118  -0.5122915  26.4261377  26.8449908  -0.7470343  26.9303048
  25.0552049   6.5234596  31.6205440  24.9472404   6.5336658  32.4867498
  25.2647830   7.3489376  31.4310394  25.0702160   6.6475671  31.7209532
  23.0725841   3.7747238  29.0827378  22.4813774   4.4156736  29.0530393
  23.8346864   4.1984856  29.0558677  23.0974101   3.9323077  29.0742525
  25.1169813  -4.3984069  34.3167423  24.7255378  -5.0450722  34.7523200
  25.2855676  -3.8072634  34.9361678  25.0840724  -4.4069801  34.4730128
  39.1916262   3.6053008  30.0804656  39.2499386   4.0539657  30.8264633
  38.5582730   4.0151821  29.6434736  39.1067557   3.7326743  30.1257204
  32.8315357   9.2256550  26.5159402  32.6335046   9.7147364  25.8215614
  32.2103068   9.4297791  27.0943536  32.7102921   9.3273088  26.4982626
  26.8923335   0.9941447  20.8569647  27.6365380   1.3815723  21.0952596
  27.0384031   0.1498872  21.0210134  27.0233920   0.9271919  20.9163616
  29.8801211  -3.4333080  26.7563566  29.4061165  -3.9591318  27.2668877
  30.2519347  -3.9803607  26.1878427  29.8651100  -3.5917083  26.7478713
  36.1437942   1.6269296  28.1670346  35.9036165   0.7875711  28.1712773
  36.6229949   1.7069462  28.8911120  36.1790125   1.5150695  28.2745149
  38.1443129  -1.5929247  26.1199605  37.9052899  -1.6333413  25.2820390
  38.3077030  -0.7458095  26.2465327  38.1333432  -1.4737162  26.0153087
  34.7489159   2.7920702  32.0504651  35.4723358   2.3393229  31.8715671
  34.4839121   3.0725368  31.2676978  34.8170432   2.7671671  31.9083366
  23.6176027  -2.6119124  28.7857530  22.9929097  -2.6000732  28.1783483
  23.2821622  -2.1358949  29.4348770  23.4761519  -2.5400607  28.7914098
  20.3301703   5.4481336  30.2261294  19.8001627   4.7573775  30.2756269
  20.6026796   5.4391521  29.3974003  20.2926425   5.3448468  30.1108710
  31.3621793   6.0307038  18.9498977  32.0855992   6.4965151  18.8063550
  30.9222384   6.0980648  18.1996574  31.4037486   6.1090875  18.8183758
  30.5307948   2.8904580  30.1999666  29.9164942   2.3462631  30.4948301
  31.0475233   2.3768817  29.7205482  30.5163611   2.7340989  30.1723894
  29.7704246   3.9608850  27.9343964  29.3431854   3.3358569  27.5009400
  29.7629190   3.6783772  28.7602972  29.7063387   3.8261631  27.9923792
  22.8866773  -1.0025977  31.0032398  23.0460259  -1.7582652  31.4084120
  22.7059666  -0.4535037  31.6573136  22.8832132  -1.0332163  31.1595104
  28.0989955  -5.1622395  28.1486498  28.1232442  -5.6962283  27.4599278
  28.3501429  -5.6705086  28.8112089  28.1399874  -5.3161491  28.1451143
  15.6097545   2.1209100  27.5829642  15.5040994   2.0755944  26.7181726
  14.8597765   2.4662880  27.8643927  15.4833148   2.1650008  27.4966972
  26.5620890   3.1309163  35.6312537  25.7116521   3.2680877  35.7670182
  26.7249018   2.3972941  36.0760239  26.4604754   3.0423264  35.7168136
  25.8005641   0.0808933  29.8266142  24.9697571   0.2482751  29.6201390
  25.7457158  -0.2955116  30.6115027  25.6695056   0.0498664  29.9114670
  37.1824473   1.7547113  30.5535200  37.7742313   2.3944364  30.5853398
  37.6183467   1.0570150  30.8427267  37.3342904   1.7465463  30.6016033
  29.0117863   6.1764485  31.1793094  28.5042954   6.7300332  31.6233725
  28.7144509   6.2372775  30.3611869  28.8922748   6.2670797  31.1241551
  31.6225643  10.0927743  19.1097038  30.9054953   9.9188605  18.6444275
  32.2732381   9.8580315  18.5772524  31.6127494  10.0323536  18.9626256
  34.2073614  -1.0307668  22.8538343  33.5364804  -0.4877966  22.7251408
  34.9013364  -0.5612813  22.6120038  34.2102482  -0.8809397  22.7993871
  28.2560348  11.1089044  28.0850101  28.0326002  10.3507873  28.4534127
  27.7670191  11.1387065  27.3630541  28.1503797  11.0011268  28.0326842
  23.0685427  -1.9444265  23.8211563  22.3497416  -1.5280132  24.0884426
  23.4397789  -1.3790026  23.2703201  23.0177358  -1.7994984  23.7794370
  32.3685008  -1.3116416  29.7113558  32.3482935  -1.4933121  30.5648337
  32.4164208  -0.4404398  29.6873142  32.3719649  -1.2099878  29.8336853
  30.3131337   5.2770776  35.6362035  30.2727192   4.6320453  35.0507191
  31.1254656   5.2207393  35.9487447  30.4274491   5.1729743  35.5958984
  26.9038805  11.3289502  25.5387186  26.4899204  10.6663632  25.1491027
  27.5886179  11.4767360  25.0182880  26.9437177  11.2530160  25.4043683
  30.2704099  10.4879587  26.2910802  29.8720382  10.5981857  25.5231623
  29.6555319  10.6961653  26.8737362  30.1202988  10.5353155  26.2642102
  31.7189818  -2.9466761  22.5886692  31.4903511  -2.9234059  21.7465051
  31.9787894  -3.7709294  22.7081703  31.7236006  -3.0650681  22.4811890
  26.0009046  -1.0932288  32.1911793  25.4887949  -1.7011105  32.5496824
  25.8288542  -0.3775695  32.6585768  25.8998683  -1.0768988  32.3128016
  24.7734580  -4.4090214  23.8840888  25.2491946  -4.0473135  23.2491069
  24.2723180  -3.7533747  24.1641031  24.7699939  -4.2596026  23.8317629
  38.0045942   5.0631554  19.6753893  38.3879548   5.8122910  19.9051990
  37.2090055   5.3097373  19.4165882  37.9439724   5.2101248  19.6711467
  29.8778116  -3.1708043  34.6314048  30.4349547  -3.3994233  33.9992513
  29.5539181  -2.4102377  34.3549260  29.9124527  -3.0924206  34.4970545
  27.5961234  -0.0840390  35.5966055  28.3472561   0.2311287  35.9105609
  27.7883810  -0.2861219  34.7699977  27.7352648  -0.0673008  35.5209451
  32.1687376   0.7230678  26.4926057  32.6641041   0.0053673  26.4530078
  31.3587152   0.4201476  26.3780544  32.1231269   0.5728325  26.4699783
  27.6145987   4.5728492  18.6423062  26.8057310   4.2495165  18.5956371
  28.1220896   3.8661714  18.5751311  27.5695654   4.4209808  18.6253356
  18.2436265   2.0000685  24.3670426  17.3781784   1.9886375  24.2553197
  18.3435081   1.8130908  25.2141566  18.1310432   1.9706746  24.4759371
  34.2339195   3.4734366  29.1803186  34.6594266   2.9508788  28.6273611
  33.8696115   4.0715203  28.6591809  34.2425797   3.4844593  29.0212196
  23.8693275  11.7698583  27.9400532  24.1839834  12.5834972  27.9478313
  24.2786688  11.3848802  28.6082691  23.9761373  11.8327286  28.0404623
  30.8217794   7.1868630  25.5104344  31.2928972   7.9008893  25.6794329
  31.1577973   6.5867380  26.0464213  30.9412909   7.2040094  25.6136720
  32.9094779   8.7969944  37.6896416  33.0191744   8.0078504  38.0453163
  33.2385675   8.7075880  36.8870754  32.9747185   8.6675796  37.6238807
  31.4591741   6.9786564  32.2732036  30.9112687   6.3544448  32.0052102
  31.9204769   7.1680836  31.5576116  31.4458950   6.9145615  32.1282467
  21.2106295   5.7171692  27.5879140  21.8151152   5.6767526  26.9592961
  21.0033607   6.5642844  27.6183196  21.2695192   5.8359694  27.4995257
  31.0250067   7.9837637  28.8041378  31.8448441   7.8400603  29.0657673
  30.7444144   8.6083836  29.3457815  31.1046810   8.0547989  28.9229317
  16.4457577   4.7006309  27.4578063  16.3481855   3.8902581  27.7668120
  17.2286447   4.6798103  27.0724331  16.5473713   4.5773400  27.4464926
  47.4963717  15.6402489  21.7684254  47.4657722  16.4947125  21.9402523
  48.0945066  15.3397781  22.3270398  47.5800875  15.7218985  21.8759056
  40.6963402  14.7278140  26.5237184  39.8401298  14.8886638  26.5746301
  40.7431056  13.8570204  26.5442245  40.5762513  14.6228942  26.5343250
  40.5329502  24.6866227  17.7159963  40.1980870  25.3643149  17.2804185
  41.0456372  24.2971538  17.1276835  40.5595083  24.7290805  17.5646754
  43.5415223  16.7870184  29.1668836  44.0871183  17.4655270  29.2262806
  43.4832099  16.6457645  28.3070417  43.6131137  16.8662185  29.0480897
  45.3180292  18.2154791  20.0402564  45.2019818  18.9662477  20.4694702
  46.1136178  17.9578744  20.2898651  45.4184881  18.2889638  20.1406655
  29.8554342  20.2979536  24.1789522  29.6204527  19.4647189  24.0721791
  29.9939983  20.5784202  23.3650723  29.8410005  20.2163040  24.0431877
  32.1544430  12.4665267  27.0773830  31.5349461  11.8757914  26.9083845
  32.0528293  13.0576702  26.4438153  32.0482105  12.4669349  26.9578819
  37.2010617  22.2048814  21.3271906  37.5226458  22.7454021  20.7233214
  37.8482714  21.6345585  21.4594196  37.3436672  22.2007989  21.2578942
  39.2512325  14.2064809  21.4106293  39.9492490  14.3852936  21.9027756
  39.5664658  13.6835148  20.7876682  39.4007663  14.1558581  21.3908303
  31.8813563  16.0117549  29.3217399  31.7572260  16.5979994  29.9567218
  32.5331847  15.5177744  29.6229674  31.9587212  16.0256353  29.4603328
  39.4400261  20.5935254  21.3986084  39.8793896  19.9852354  21.8440857
  39.2904924  20.2142627  20.6271549  39.4821726  20.4473725  21.3505252
  36.9071904  19.1879266  28.6004910  37.5520906  18.6951709  28.2815858
  37.1473681  19.3304052  29.4270988  37.0382489  19.1356708  28.6754443
  39.4457995  22.0334171  28.2511802  39.7281238  21.2385577  28.0298558
  40.1744155  22.5114759  28.2716863  39.5947559  21.9868768  28.2214818
  37.4239189   9.5757205  25.4927568  37.0942519  10.0268349  24.8231266
  36.7484191   9.4973369  26.0400574  37.2749625   9.6308341  25.4750791
  43.0409597  18.9462435  18.3516854  42.9560892  19.8023402  18.4966422
  43.5293980  18.6706759  19.0199013  43.0998495  19.0319756  18.4718935
  44.6315597   5.5642728  23.7377178  44.3169038   6.2546207  24.1697601
  44.1142538   5.5087511  23.0362679  44.5080067   5.6577617  23.6974127
  43.9728030  15.5647229  19.8514589  43.4439502  15.7806863  20.5111895
  44.4953050  16.2583368  19.7715558  43.9716483  15.6990366  19.9370188
  49.4276083  21.1393534  25.2247633  48.5973787  21.3504177  25.3881050
  49.3785336  20.3130588  24.9489917  49.2982819  21.0483140  25.2084999
  35.8627638  19.4610446  18.6522057  35.2784854  19.9660477  19.0587921
  35.4597733  19.2352833  17.9118649  35.7166942  19.5018694  18.6027082
  31.4171667  25.1765207  25.4545728  30.9339245  25.9015697  25.4305312
  32.2294985  25.4741337  25.5655886  31.4662415  25.3267561  25.4673007
  40.3204853  15.7076098  17.1290977  40.5600856  15.9154082  16.3166320
  40.6420694  14.9033607  17.2379922  40.4042011  15.6190199  17.0251530
  35.6295143   7.6369494  20.9750515  36.3841111   8.0047811  20.7367565
  35.4522678   8.0109048  21.7429695  35.7149621   7.7467682  21.0535404
  48.9230042  13.7863934  29.0198055  48.0858463  13.8566121  29.2545649
  48.8918273  13.7888429  28.1472357  48.7948324  13.7974161  28.9257603
  35.3194771  15.9296970  34.7346423  35.4915274  15.8202865  35.5831705
  35.8564128  16.5751375  34.4977615  35.4239775  16.0088972  34.8251520
  33.9852208  10.0439813  17.6728628  33.8027781  10.2611694  16.8469621
  34.8477821  10.1578825  17.7287243  34.0856797  10.0929711  17.5583115
  33.5966640  21.8827735  25.1151616  34.4355539  22.1150668  25.1625378
  33.6278409  21.0132046  25.0458652  33.7248357  21.7884681  25.1116261
  39.6651927   7.0466223  20.7077652  40.3938087   6.8682178  20.2615808
  39.7546820   7.8884303  20.9184830  39.7858589   7.1450102  20.6731170
  43.6460227  17.9819611  24.6109946  44.4017743  18.4151125  24.6498855
  43.7522552  17.3324381  25.1844582  43.7730398  17.9497095  24.7007972
  46.6840399  21.8092888  25.3612349  46.2475630  21.8129631  26.1171320
  46.3503314  22.4898387  24.9291926  46.5703019  21.9105344  25.4093182
  29.6256488  18.5228901  29.5699343  29.3594903  17.7068018  29.7290333
  29.6395052  18.5682057  28.6994859  29.5881210  18.4085806  29.4652825
  46.6037881   8.8506716  27.6041777  47.2463790   8.9204821  28.1903692
  46.8560902   8.1835939  27.1021319  46.7360014   8.7633065  27.6169056
  33.5314235  13.3213985  16.1851101  32.8172412  13.0352165  16.5973534
  34.0158203  13.6610611  16.8257489  33.4973598  13.3295635  16.3406736
  34.3755094  12.0607279  32.2166351  33.6826891  11.5904259  32.4627082
  34.9915421  11.8345584  32.7908058  34.3639624  11.9574411  32.3375503
  49.8184745  18.5273808  24.2531986  50.4801179  17.9664476  24.1527895
  49.1776157  18.0325839  24.5784677  49.8213612  18.3710217  24.2864326
  40.7061553  21.8243939  16.5612909  41.1212701  21.4928963  15.8697405
  39.8753482  21.5912842  16.4333046  40.6449561  21.7415195  16.4403757
  30.0349901  19.3087680  26.8511087  29.8525475  19.2834566  25.9983380
  30.7699570  19.7786618  26.8899996  30.1163965  19.3749043  26.7309006
  46.1049576  19.5439190  23.9943975  46.3405165  19.6884389  23.1670826
  46.2539139  20.3081598  24.3875489  46.1615379  19.6778245  23.9307579
  47.9340032  18.3840856  21.8313579  48.2648249  18.9168496  21.2253674
  48.5073120  18.4379744  22.4875530  48.0673711  18.4710425  21.8391361
  43.1471921  16.2305759  22.5137159  43.2418776  16.9695053  22.9676784
  42.5230765  15.8023234  22.9471723  43.0680951  16.2767080  22.6445306
  41.4024395  19.4091972  33.1627440  41.9763257  18.7719216  33.3176004
  41.3239199  19.4096054  32.2937097  41.4757630  19.3157083  33.0573851
  30.0020812  16.1881181  27.0010154  30.5794314  16.0517632  27.6402399
  29.3034873  15.7316965  27.2555738  29.9841833  16.1003447  27.1332444
  43.3994943  18.0754499  15.7474111  43.3175105  18.1456686  16.6129098
  44.0374663  18.6384243  15.5557852  43.4814780  18.1693470  15.8464060
  36.7588114  17.8415237  25.2148637  36.5007358  17.0086972  25.1879937
  36.8136597  18.0672850  24.3741138  36.7287892  17.7513008  25.0868774
  41.8389164   9.9443687  25.3152730  41.1345491   9.4552873  25.4736649
  41.8874138   9.9566162  24.4441174  41.7419216   9.8733335  25.2092070
  35.7322826  15.3952999  25.7013532  35.1572417  15.5545168  26.3377493
  35.3558502  14.7588408  25.2381983  35.5925638  15.3250812  25.7268090
  39.3996115  13.8676349  30.5605910  39.0110547  13.4430566  29.9058102
  38.7350813  14.1158498  31.0682937  39.2443042  13.8415070  30.5393778
  49.0419384  13.6251353  23.3353740  48.7855949  12.8131295  23.1451623
  49.8848698  13.6328920  23.1083928  49.1285409  13.5063351  23.2738558
  25.4779645  15.0393074  23.7157973  25.5639897  14.6624942  24.4971503
  26.1055442  14.6653520  23.2377931  25.5836196  14.9278556  23.7603450
  43.2222476   7.5650977  28.0729895  43.6032988   6.8829148  28.4597769
  42.4185760   7.2760579  27.8905559  43.1598938   7.4218026  28.1033951
  40.5035053  18.0974953  18.7582717  41.3175692  18.3889846  18.6465489
  40.4394194  17.4434815  18.1841010  40.6137792  18.0440148  18.6571555
  46.7244543  20.7800949  33.1712293  46.4883180  19.9489014  33.0524354
  47.3687772  20.7286556  33.7567137  46.7839214  20.6498637  33.2398187
  36.3742961  21.5696471  23.8855029  37.0116908  21.3308218  24.4306823
  36.7998033  21.7733629  23.1508190  36.5319127  21.5647481  23.8572187
  31.0655604  23.8084807  27.7689333  31.1059749  24.0799658  26.9409113
  31.6250128  24.3326715  28.1847121  31.1538949  23.9260562  27.7081221
  37.0145776  16.7898760  18.2229919  37.3990929  16.5706467  18.9746464
  36.7657397  17.6161706  18.3530995  37.0347849  16.8796907  18.3530995
  37.1814317  10.0705176  37.9392503  36.8667758  10.8404738  37.6762066
  36.8604249   9.5075432  37.3544730  37.0873236  10.1015444  37.8133853
  47.7480964  20.5645398  29.2340588  47.4426781  21.2973455  29.5953903
  47.0287179  20.1583327  28.9533374  47.5968306  20.6127131  29.2453725
  38.7564433  22.0468893  25.5648816  38.8303441  21.8844065  26.4190666
  39.5733939  22.2359083  25.3209297  38.8880792  22.0505636  25.6546841
  53.4482756  17.2038399  28.5608932  53.3807256  17.2234358  27.6911518
  53.4338418  18.0468726  28.7864602  53.4361512  17.3312133  28.4661409
  32.5170190  22.3926756  22.5943259  31.6908307  22.6388493  22.4677538
  32.5782181  22.3138837  23.4605317  32.4044357  22.4171705  22.7032204
  34.7346214   8.4595697  23.5538699  33.8668639   8.5318296  23.6196309
  35.0221418   9.2617776  23.7426674  34.6485962   8.5889844  23.5913466
  43.8579102   8.6073556  31.8850021  44.6032694   8.4183367  31.4713447
  43.4416407   9.1331794  31.3263878  43.9064077   8.6575702  31.7414594
  37.2969019  25.0103636  20.2962289  37.5867317  24.6192618  19.5721516
  38.0272500  25.1920341  20.7367564  37.4475903  24.9797450  20.2545096
  51.2341373  15.9782785  26.8355526  51.7849295  15.3450854  27.0752618
  51.2185489  16.5098178  27.5271030  51.3126570  15.9631733  26.9734384
  37.8863764  19.8121382  31.3815420  37.3875458  20.5237150  31.4600308
  38.6963988  20.1322049  31.3433582  37.9319871  19.9648231  31.3871988
  34.1491882  19.0744335  25.6278141  33.8605130  18.4481806  26.1623868
  35.0175230  19.0164623  25.6942821  34.2352134  18.9731879  25.7169095
  44.9369779  14.2179119  25.9460122  44.5934545  13.4969454  26.2967372
  45.0362822  14.0092970  25.1038481  44.9011822  14.0803322  25.8731802
  34.3524155  20.7139586  21.5520506  35.1070123  21.0952625  21.7655968
  33.7594768  21.1650730  22.0067202  34.3760869  20.8368414  21.6503384
  45.3982808  20.6804823  21.4884111  45.9640841  21.3398033  21.4042653
  44.7510712  21.0254521  21.9600513  45.3861565  20.8286764  21.5456867
  36.8130822  12.6702427  36.6777718  36.0030598  12.9760206  36.5667560
  37.2905509  13.3908009  36.7930302  36.7634301  12.8217028  36.6784789
  35.6722382  21.8848148  26.9260621  35.1503135  22.0248439  27.6112486
  36.0596402  21.1258812  27.1162738  35.6526082  21.7933671  27.0561697
  32.6613566  11.9353956  20.9955576  32.3738361  11.5655227  20.2587523
  33.3484034  12.4048812  20.7339281  32.7202463  11.9500926  20.8470651
  41.8689387  23.6243607  20.9121190  41.6276062  22.8911467  20.5048255
  42.0490719  24.1730464  20.2587523  41.8597011  23.5965998  20.7551413
  37.0988707  18.9152167  22.3242112  36.9031490  19.5226901  21.7302415
  37.3223053  18.2220111  21.8433786  37.1023348  18.9029692  22.1658193
  35.4967237  15.8006905  22.4422980  36.2189889  15.9648063  21.9826786
  35.0175230  16.5216569  22.3362320  35.5330968  15.9305134  22.3588594
  43.4560745  12.1370703  27.8219665  42.6171845  12.1631982  27.5857929
  43.5265112  12.7841439  28.4025012  43.3429138  12.2366829  27.8728782
  41.9030023   9.0356080  22.5547281  42.6056376   8.8363829  22.0767239
  41.6374212   8.2632023  22.8616125  41.9676655   8.8919046  22.5292723
  47.3318269  17.3438690  25.1080907  47.2452243  17.4994116  25.9615686
  46.8768749  17.9876766  24.7340312  47.2521525  17.4614445  25.1788014
  30.2341760  12.7135169  21.8440857  30.3357897  13.5161330  22.1721832
  31.0297647  12.5122505  21.5463937  30.3669666  12.8021068  21.8476212
  36.6658579  10.2991366  31.6078162  36.4741776  10.3146500  32.4577585
  37.5157175  10.4955040  31.5844817  36.7634301  10.3305717  31.7301457
  31.0505492  12.8282347  29.5861978  30.9090984  11.9766288  29.7106486
  31.3346056  12.8711008  28.7624184  31.0713338  12.7082097  29.4829602
  41.2044085  14.6649437  23.7306467  40.9578799  14.5845188  24.5643255
  41.5329208  13.8802905  23.5368994  41.2165328  14.5375703  23.8253990
  45.0992133  21.3732797  27.5193248  44.9606493  22.0713842  28.0241990
  44.3192131  21.2181453  27.1629430  44.9635360  21.4532963  27.5419522
  43.4370219  17.6729172  33.7715629  43.4318257  16.8008988  33.7758056
  44.1431212  17.8717341  33.2985085  43.5415223  17.5733046  33.7022665
  37.1641112  17.4006156  33.1429450  37.3084488  17.9807364  32.5072560
  37.5116761  17.7782452  33.8479304  37.2368573  17.5426860  33.1528445
  39.3361029  16.5996324  30.9254581  38.5884343  16.7927339  30.5202859
  39.4902555  15.7741544  30.6878703  39.2483457  16.5061436  30.8299987
  46.5945506  20.7311050  18.2809747  46.2152315  19.9448188  18.2739036
  45.9311752  21.2797907  18.1381391  46.4403981  20.6955874  18.2590544
  39.5762806  10.4946875  31.8149985  40.0335420  11.2270849  31.9422777
  39.6519135  10.0713340  32.5737241  39.6553776  10.5404113  31.9451061
  31.8195798  10.7412695  32.9039429  31.2837987  10.1293053  33.2200196
  31.8813562  11.3160831  33.5573095  31.7491430  10.7359622  33.0474855
  44.0490132   3.6736750  25.6843828  44.1673700   4.1313213  24.9511131
  43.8752308   2.8682011  25.3980045  44.0409303   3.6230522  25.5344762
  39.4192415  24.2824569  22.1198573  40.1842306  24.0134213  21.7981237
  39.3170504  23.7974580  22.8368636  39.5173910  24.1714134  22.1778401
  37.4545184  12.4848979  28.6591809  36.6641259  12.3040439  28.9809145
  37.8505807  11.7075931  28.6422103  37.3962060  12.3436440  28.7044357
  41.9411075  21.3136753  14.0998523  42.7084060  21.3736878  13.6904374
  41.4942384  20.7417195  13.6154841  41.9884502  21.2373329  13.9676233
  42.8388871  20.1191409  26.3851255  42.1633872  19.8876641  26.8864642
  42.8481247  19.5112592  25.7593360  42.7407375  19.9950334  26.3667407
  39.9683015  14.9609238  33.1415308  39.9042156  15.8219194  33.0135445
  40.1080202  14.6441231  32.3410859  39.9798485  15.0409405  33.0043521
  44.8405605  22.9756541  18.6161433  44.9225443  23.7823528  18.2922884
  45.3255347  22.9952501  19.3402206  44.9242763  23.0977204  18.6748331
  38.6502108  17.6541377  27.2831511  38.2264358  17.8545876  26.5470529
  38.4746964  16.8070225  27.3955811  38.5612989  17.5590159  27.1905201
  33.9384553  18.1493429  22.7159483  34.0949173  18.0840231  23.5715475
  34.2785147  18.9241981  22.5038163  34.0117788  18.2542627  22.8114077
  40.4763698  17.5251312  21.5852847  41.0179243  17.0221693  22.0491467
  40.7910257  17.4716507  20.7742332  40.6028095  17.4430733  21.5336659
  38.6450148  22.9168664  18.8692875  38.7142968  22.0583202  19.0085875
  39.4238603  23.1340545  18.5411899  38.7702998  22.8221528  18.8410032
  41.6252967  12.4187617  31.6375147  41.8394937  11.7798531  31.0838501
  41.0086867  12.8633441  31.2083009  41.5658297  12.3897760  31.4925578
  43.0357635  25.3406365  23.0829368  42.6437427  25.0373080  22.3652234
  43.1910708  26.1775455  22.8934322  43.0011225  25.4190202  22.9485865
  30.5118815  15.3328379  23.0320250  30.8917780  15.7512924  22.3680518
  29.9374180  15.9141835  23.3389094  30.4830140  15.4806238  22.9796991
  43.7892055  14.0276682  32.5758454  42.9768737  13.7202572  32.6571627
  44.2481990  13.5475682  33.1401166  43.7372440  13.9113174  32.6713048
  43.1997310  21.9056354  23.0235398  42.8411965  22.0770997  23.7999431
  42.7136021  22.3669560  22.4663397  43.0756007  21.9995325  23.0560668
  41.0167696   5.5287552  26.6262490  40.1461254   5.5026274  26.5795799
  41.2708037   5.3564745  25.8088335  40.9261256   5.4997696  26.4982627
  37.9885675  17.5855519  15.5635633  38.2778200  18.3620402  15.8379207
  38.0757474  17.0744251  16.2650132  38.0439932  17.6247438  15.7078131
  40.8845563  15.4336753  37.3587156  41.3545194  16.0578870  37.7455030
  40.9307443  14.7653729  37.9180371  40.9613439  15.4271434  37.4987228
  38.0416837   7.5393781  28.0835960  37.5255325   6.8473972  28.2087539
  37.4810765   8.2064558  28.0298559  37.8823350   7.5357038  28.0942026
  40.1109070   8.0786741  29.9128813  39.7240823   8.1035772  30.6942343
  39.6242007   7.5128420  29.4603329  39.9821579   7.9982492  29.9616716
  46.0859049  14.6449396  28.5368515  45.6586658  14.5575744  27.7816614
  45.4485102  14.7527171  29.1223359  45.9288657  14.6482056  28.5113956
  39.7766212   4.9653726  32.2039073  40.4059330   5.5014026  31.9260143
  39.9452074   4.8731085  33.0552638  39.8944006   5.0315089  32.2887601
  39.5780127   9.7524921  34.4765484  40.4053556   9.4810070  34.5324099
  39.5987973  10.5485763  34.8329302  39.7032977   9.8304675  34.5380667
  44.4156306  23.4880058  30.6107956  45.2048684  23.1369123  30.7310038
  44.5899904  24.3016447  30.3484590  44.5576588  23.5565915  30.5895824
  34.1549616  16.8988784  27.6635745  33.3137623  16.7992658  27.8714639
  34.3639624  17.6684264  28.0150066  34.0614309  16.9980827  27.7463060
  31.6325183  14.5208321  25.4920496  31.2381881  14.5951333  24.7170605
  31.0765300  14.9066267  26.0428857  31.4927996  14.5890095  25.4588155
  43.2690130   7.4989615  25.1724374  43.4739724   7.4311923  26.0181372
  42.9416554   8.3048436  25.1045552  43.2505378   7.6075555  25.2884030
  37.9666281  14.8270183  26.9133342  37.6629419  14.2726171  27.5143750
  37.2645702  15.0062393  26.4261377  37.8182491  14.7714965  26.9303048
  37.0232378  12.1370703  21.4778044  37.2992113  11.4189615  21.0655612
  37.6231048  12.7355623  21.2699150  37.1525643  12.1191074  21.3858805
  46.5223818   8.0521379  24.6527140  45.9098132   8.5391781  25.0380872
  46.6187993   7.3764870  25.1964791  46.4461716   8.0239688  24.7905998
  40.5242899   9.8084220  19.7524639  40.9786645   9.9794781  20.4772484
  40.9982945   9.1952331  19.3522415  40.6611219   9.7435105  19.7998401
  34.0458424  19.2932546  29.0827378  33.4546358  19.9342044  29.0530393
  34.8079448  19.7170163  29.0558677  34.0706685  19.4508385  29.0742525
  34.4419047  10.4534544  29.7495395  34.9020529  10.5273473  30.4870519
  34.4875154  11.2515798  29.3995217  34.5169602  10.5828691  29.8068152
  36.0902397  11.1201239  34.3167423  35.6987962  10.4734586  34.7523200
  36.2588260  11.7112674  34.9361678  36.0573307  11.1115507  34.4730128
  50.1648846  19.1238316  30.0804656  50.2231970  19.5724965  30.8264633
  49.5315313  19.5337129  29.6434736  50.0800141  19.2512051  30.1257204
  43.8047941  24.7441858  26.5159402  43.6067629  25.2332672  25.8215614
  43.1835652  24.9483099  27.0943536  43.6835505  24.8458396  26.4982626
  37.8655919  16.5126755  20.8569647  38.6097964  16.9001031  21.0952596
  38.0116615  15.6684180  21.0210134  37.9966504  16.4457227  20.9163616
  39.7835494   8.3077014  25.8901508  38.9371539   8.4799821  25.7642858
  39.7806627   7.5026357  26.2267336  39.6582644   8.2138042  25.9212635
  40.8533795  12.0852228  26.7563566  40.3793749  11.5593990  27.2668877
  41.2251931  11.5381701  26.1878427  40.8383684  11.9268225  26.7478713
  47.1170525  17.1454604  28.1670346  46.8768748  16.3061019  28.1712773
  47.5962533  17.2254770  28.8911120  47.1522709  17.0336003  28.2745149
  42.7817294  12.9788783  19.8189320  42.2540313  13.0617526  19.1295028
  43.2413003  13.7206654  19.8153964  42.7719145  13.1009445  19.7164015
  49.1175712  13.9256061  26.1199605  48.8785482  13.8851895  25.2820390
  49.2809614  14.7727213  26.2465327  49.1066016  14.0448146  26.0153087
  45.7221742  18.3106010  32.0504651  46.4455941  17.8578537  31.8715671
  45.4571705  18.5910676  31.2676978  45.7903016  18.2856979  31.9083366
  34.5908611  12.9066184  28.7857530  33.9661681  12.9184576  28.1783483
  34.2554206  13.3826359  29.4348770  34.4494103  12.9784701  28.7914098
  34.7750360  11.2491302  14.8430215  34.4263164  11.9011027  15.3061764
  34.2946805  11.2348415  14.1154086  34.6520603  11.3434356  14.8041306
  42.3354377  21.5492346  18.9498977  43.0588576  22.0150459  18.8063550
  41.8954968  21.6165956  18.1996574  42.3770069  21.6276183  18.8183758
  41.5040532  18.4089888  30.1999666  40.8897525  17.8647939  30.4948301
  42.0207817  17.8954125  29.7205482  41.4896194  18.2526297  30.1723894
  40.7436829  19.4794158  27.9343964  40.3164437  18.8543877  27.5009400
  40.7361774  19.1969080  28.7602972  40.6795970  19.3446939  27.9923792
  33.8599356  14.5159331  31.0032398  34.0192843  13.7602656  31.4084120
  33.6792250  15.0650271  31.6573136  33.8564715  14.4853145  31.1595104
  41.8019659   6.6820567  31.5583188  41.3060220   6.8784241  30.8674754
  42.5588721   7.0813235  31.3871989  41.8406484   6.7698301  31.4303325
  39.0722539  10.3562913  28.1486498  39.0965026   9.8223025  27.4599278
  39.3234012   9.8480222  28.8112089  39.1132458  10.2023817  28.1451143
  26.5830129  17.6394408  27.5829642  26.4773578  17.5941252  26.7181726
  25.8330349  17.9848188  27.8643927  26.4565732  17.6835316  27.4966972
  35.3523861   9.0833731  27.5292243  35.3922233   9.5842938  28.2426950
  34.5273526   9.1744125  27.2598166  35.2363387   9.1715547  27.5942781
  37.5353474  18.6494471  35.6312537  36.6849104  18.7866185  35.7670182
  37.6981602  17.9158249  36.0760239  37.4337337  18.5608572  35.7168136
  36.7738224  15.5994241  29.8266142  35.9430154  15.7668059  29.6201390
  36.7189742  15.2230192  30.6115027  36.6427639  15.5683972  29.9114670
  34.5822008   9.0903134  35.4622552  35.2074711   8.5465267  35.7351985
  34.1272488   8.6098051  34.8930343  34.6070268   8.9392615  35.4184146
  35.1474268  13.8749833  20.3556259  35.2877229  14.3722297  21.0584901
  35.6456801  13.1736127  20.4970473  35.2415349  13.8451811  20.4807838
  35.1774491  14.7416944  17.6848836  35.8119570  15.3377369  17.6198298
  35.2600101  14.4420401  18.4994706  35.2831042  14.7857852  17.7951923
  48.1557056  17.2732421  30.5535200  48.7474897  17.9129672  30.5853398
  48.5916051  16.5755458  30.8427267  48.3075488  17.2650771  30.6016033
  36.7553474  10.6730919  17.6594278  37.0769315  10.1934001  17.0053540
  37.0180417  11.4830565  17.4685090  36.8419499  10.7220817  17.5349770
  42.1512629  10.0603113  30.0217757  42.5767700   9.6075639  29.4101284
  41.5369622   9.5063184  30.2982545  42.1241274   9.9117089  29.9722783
  42.5958227  25.6113051  19.1097038  41.8787536  25.4373913  18.6444275
  43.2464964  25.3765623  18.5772524  42.5860077  25.5508844  18.9626256
  40.5906851   6.5318213  23.4308334  39.9475169   6.3815859  23.9993473
  40.2506258   6.2860558  22.6657439  40.4451929   6.4730335  23.4011349
  45.1806198  14.4877640  22.8538343  44.5097388  15.0307342  22.7251408
  45.8745948  14.9572495  22.6120038  45.1835065  14.6375911  22.7993871
  39.2292932  26.6274352  28.0850101  39.0058586  25.8693181  28.4534127
  38.7402775  26.6572373  27.3630541  39.1236381  26.5196576  28.0326842
  45.3434325  10.9433523  25.7628716  45.6961935  10.5163246  26.4374515
  44.4849127  10.8584367  25.8929792  45.2683770  10.8678264  25.8823727
  34.0418010  13.5741043  23.8211563  33.3229999  13.9905175  24.0884426
  34.4130373  14.1395282  23.2703201  33.9909942  13.7190324  23.7794370
  43.3417591  14.2068892  29.7113558  43.3215518  14.0252187  30.5648337
  43.3896792  15.0780910  29.6873142  43.3452232  14.3085430  29.8336853
  41.2436683  26.0064895  26.2910802  40.8452966  26.1167165  25.5231623
  40.6287902  26.2146961  26.8737362  41.0935572  26.0538463  26.2642102
  39.8164585  12.6139043  19.1584942  39.2229424  12.9356039  18.6069509
  39.8539862  11.7680138  18.9506048  39.7338974  12.5363371  19.0467713
  46.7758385   6.0651935  26.6913029  46.2689250   5.3581075  26.6234206
  47.5725819   5.7345124  26.8214105  46.8185625   5.9125086  26.7012024
  42.6922401  12.5718547  22.5886692  42.4636094  12.5951249  21.7465051
  42.9520477  11.7476014  22.7081703  42.6968589  12.4534627  22.4811890
  36.9741630  14.4253020  32.1911793  36.4620533  13.8174203  32.5496824
  36.8021126  15.1409613  32.6585768  36.8731267  14.4416320  32.3128016
  31.8207344  12.8690596  34.8414154  31.6509935  13.5291970  34.2962361
  31.3773294  13.0797157  35.5626643  31.7306678  12.9976578  34.8675784
  35.7467164  11.1095094  23.8840888  36.2224530  11.4712173  23.2491069
  35.2455763  11.7651561  24.1641031  35.7432523  11.2589282  23.8317629
  48.9778525  20.5816862  19.6753893  49.3612131  21.3308218  19.9051990
  48.1822639  20.8282681  19.4165882  48.9172308  20.7286555  19.6711467
  40.8510700  12.3477265  34.6314048  41.4082130  12.1191074  33.9992513
  40.5271765  13.1082931  34.3549260  40.8857110  12.4261102  34.4970545
  38.5693817  15.4344918  35.5966055  39.3205144  15.7496595  35.9105609
  38.7616394  15.2324089  34.7699977  38.7085231  15.4512300  35.5209451
  37.7893817  13.2536293  17.2514272  38.1692782  13.2715923  16.4665387
  37.0486413  13.6990282  17.1305119  37.7362655  13.3218068  17.1177840
  45.4179107  11.5618485  22.8389851  45.4173334  11.4067141  23.6974127
  45.2135287  12.4081472  22.7831236  45.3878885  11.6639105  22.9577790
  27.4796378  14.9858269  27.2548667  27.3018139  14.5334878  27.9803583
  27.1915401  15.7884430  27.4387145  27.4109332  15.0380827  27.3892170
  43.1419959  16.2415986  26.4926057  43.6373625  15.5238981  26.4530078
  42.3319735  15.9386784  26.3780544  43.0963853  16.0913633  26.4699783
  38.5878571  20.0913800  18.6423062  37.7789894  19.7680473  18.5956371
  39.0953480  19.3847022  18.5751311  38.5428238  19.9395116  18.6253356
  29.2168848  17.5185993  24.3670426  28.3514368  17.5071683  24.2553197
  29.3167664  17.3316216  25.2141566  29.1043015  17.4892054  24.4759371
  45.2071778  18.9919674  29.1803186  45.6326850  18.4694096  28.6273611
  44.8428698  19.5900511  28.6591809  45.2158381  19.0029901  29.0212196
  41.7950378  22.7053938  25.5104344  42.2661556  23.4194201  25.6794329
  42.1310556  22.1052688  26.0464213  41.9145493  22.7225402  25.6136720
  38.7119873   7.4781409  32.4662439  38.8447778   6.6812402  32.7943414
  39.0965025   8.0047812  33.0460714  38.7876202   7.4381325  32.6005941
  41.7852228   4.4011735  29.0643532  40.9798192   4.2909464  29.3811370
  41.6558963   4.5024191  28.2073398  41.6472361   4.3995405  28.9851572
  45.2418188  10.5657227  29.6583229  44.6581177  11.0666433  29.2460796
  45.5622483  10.0586783  29.0247552  45.2031364  10.5649062  29.5041736
  37.7812988   9.4797822  19.9341903  38.6028682   9.6496134  19.6923598
  37.3182639   9.6345083  19.2108201  37.8344150   9.5279555  19.7913548
  36.3708319   7.4740584  30.7140332  36.9152732   7.1331711  31.3044674
  36.4245255   8.3326045  30.8561617  36.4597439   7.5495843  30.8222206
  32.1838878  21.2357000  27.5879140  32.7883736  21.1952834  26.9592961
  31.9766191  22.0828152  27.6183196  32.2427776  21.3545002  27.4995257
  41.9982650  23.5022945  28.8041378  42.8181024  23.3585911  29.0657673
  41.7176728  24.1269144  29.3457815  42.0779394  23.5733297  28.9229317
  27.4190161  20.2191617  27.4578063  27.3214439  19.4087889  27.7668120
  28.2019030  20.1983411  27.0724331  27.5206297  20.0958707  27.4464926
  58.4696301  31.1587797  21.7684254  58.4390305  32.0132433  21.9402523
  59.0677650  30.8583089  22.3270398  58.5533459  31.2404293  21.8759056
  51.6695986  30.2463448  26.5237184  50.8133881  30.4071946  26.5746301
  51.7163639  29.3755512  26.5442245  51.5495097  30.1414250  26.5343250
  51.5062085  40.2051535  17.7159963  51.1713454  40.8828457  17.2804185
  52.0188956  39.8156846  17.1276835  51.5327666  40.2476113  17.5646754
  54.5147807  32.3055492  29.1668836  55.0603767  32.9840578  29.2262806
  54.4564683  32.1642952  28.3070417  54.5863721  32.3847493  29.0480897
  56.2912875  33.7340099  20.0402564  56.1752401  34.4847785  20.4694702
  57.0868762  33.4764052  20.2898651  56.3917465  33.8074946  20.1406655
  40.8286926  35.8164844  24.1789522  40.5937110  34.9832497  24.0721791
  40.9672567  36.0969510  23.3650723  40.8142588  35.7348348  24.0431877
  43.1277013  27.9850575  27.0773830  42.5082045  27.3943222  26.9083845
  43.0260877  28.5762010  26.4438153  43.0214689  27.9854657  26.9578819
  48.1743201  37.7234122  21.3271906  48.4959042  38.2639329  20.7233214
  48.8215297  37.1530893  21.4594196  48.3169256  37.7193297  21.2578942
  50.2244909  29.7250117  21.4106293  50.9225074  29.9038244  21.9027756
  50.5397241  29.2020456  20.7876682  50.3740246  29.6743889  21.3908303
  50.4132844  36.1120562  21.3986084  50.8526480  35.5037662  21.8440857
  50.2637507  35.7327935  20.6271549  50.4554310  35.9659033  21.3505252
  48.3971772  25.0942513  25.4927568  48.0675103  25.5453657  24.8231266
  47.7216774  25.0158677  26.0400574  48.2482209  25.1493649  25.4750791
  54.0142181  34.4647743  18.3516854  53.9293476  35.3208710  18.4966422
  54.5026564  34.1892067  19.0199013  54.0731078  34.5505064  18.4718935
  55.6048180  21.0828036  23.7377178  55.2901621  21.7731515  24.1697601
  55.0875122  21.0272818  23.0362679  55.4812651  21.1762925  23.6974127
  54.9460614  31.0832537  19.8514589  54.4172086  31.2992171  20.5111895
  55.4685634  31.7768676  19.7715558  54.9449067  31.2175674  19.9370188
  60.4008667  36.6578842  25.2247633  59.5706370  36.8689485  25.3881050
  60.3517919  35.8315896  24.9489917  60.2715402  36.5668448  25.2084999
  46.8360222  34.9795754  18.6522057  46.2517437  35.4845785  19.0587921
  46.4330317  34.7538141  17.9118649  46.6899526  35.0204002  18.6027082
  51.2937436  31.2261406  17.1290977  51.5333440  31.4339390  16.3166320
  51.6153277  30.4218915  17.2379922  51.3774594  31.1375507  17.0251530
  46.6027727  23.1554802  20.9750515  47.3573695  23.5233119  20.7367565
  46.4255261  23.5294356  21.7429695  46.6882205  23.2652990  21.0535404
  59.8962625  29.3049242  29.0198055  59.0591046  29.3751429  29.2545649
  59.8650856  29.3073737  28.1472357  59.7680908  29.3159469  28.9257603
  44.9584791  25.5625121  17.6728628  44.7760364  25.7797002  16.8469621
  45.8210404  25.6764133  17.7287243  45.0589381  25.6115019  17.5583115
  50.6384510  22.5651531  20.7077652  51.3670671  22.3867486  20.2615808
  50.7279403  23.4069611  20.9184830  50.7591172  22.6635410  20.6731170
  54.6192811  33.5004919  24.6109946  55.3750326  33.9336433  24.6498855
  54.7255136  32.8509688  25.1844582  54.7462982  33.4682403  24.7007972
  57.6572982  37.3278196  25.3612349  57.2208214  37.3314938  26.1171320
  57.3235898  38.0083695  24.9291926  57.5435602  37.4290652  25.4093182
  57.5770465  24.3692024  27.6041777  58.2196374  24.4390128  28.1903692
  57.8293486  23.7021247  27.1021319  57.7092597  24.2818372  27.6169056
  44.5046818  28.8399293  16.1851101  43.7904995  28.5537473  16.5973534
  44.9890787  29.1795919  16.8257489  44.4706182  28.8480943  16.3406736
  60.7917328  34.0459116  24.2531986  61.4533762  33.4849784  24.1527895
  60.1508740  33.5511147  24.5784677  60.7946196  33.8895525  24.2864326
  51.6794136  37.3429247  16.5612909  52.0945285  37.0114271  15.8697405
  50.8486066  37.1098150  16.4333046  51.6182145  37.2600503  16.4403757
  57.0782159  35.0624498  23.9943975  57.3137748  35.2069697  23.1670826
  57.2271723  35.8266906  24.3875489  57.1347962  35.1963553  23.9307579
  58.9072616  33.9026164  21.8313579  59.2380833  34.4353804  21.2253674
  59.4805704  33.9565052  22.4875530  59.0406295  33.9895733  21.8391361
  54.1204505  31.7491067  22.5137159  54.2151359  32.4880361  22.9676784
  53.4963348  31.3208542  22.9471723  54.0413535  31.7952388  22.6445306
  52.8121748  25.4628995  25.3152730  52.1078074  24.9738181  25.4736649
  52.8606722  25.4751470  24.4441174  52.7151799  25.3918643  25.2092070
  46.7055410  30.9138307  25.7013532  46.1305001  31.0730476  26.3377493
  46.3291086  30.2773716  25.2381983  46.5658222  30.8436120  25.7268090
  60.0151967  29.1436661  23.3353740  59.7588532  28.3316603  23.1451623
  60.8581281  29.1514228  23.1083928  60.1017993  29.0248659  23.2738558
  54.1955060  23.0836285  28.0729895  54.5765572  22.4014456  28.4597769
  53.3918344  22.7945887  27.8905559  54.1331521  22.9403334  28.1033951
  51.4767636  33.6160261  18.7582717  52.2908275  33.9075154  18.6465489
  51.4126778  32.9620123  18.1841010  51.5870375  33.5625456  18.6571555
  47.3475545  37.0881778  23.8855029  47.9849492  36.8493526  24.4306823
  47.7730616  37.2918937  23.1508190  47.5051711  37.0832789  23.8572187
  47.9878360  32.3084068  18.2229919  48.3723512  32.0891775  18.9746464
  47.7389980  33.1347014  18.3530995  48.0080432  32.3982214  18.3530995
  58.7213547  36.0830706  29.2340588  58.4159364  36.8158763  29.5953903
  58.0019763  35.6768635  28.9533374  58.5700890  36.1312439  29.2453725
  64.4215339  32.7223707  28.5608932  64.3539840  32.7419666  27.6911518
  64.4071002  33.5654034  28.7864602  64.4094096  32.8497441  28.4661409
  45.7078797  23.9781005  23.5538699  44.8401223  24.0503604  23.6196309
  45.9954001  24.7803084  23.7426674  45.6218545  24.1075152  23.5913466
  54.8311686  24.1258864  31.8850021  55.5765278  23.9368675  31.4713447
  54.4148990  24.6517102  31.3263878  54.8796660  24.1761010  31.7414594
  48.2701602  40.5288944  20.2962289  48.5599901  40.1377925  19.5721516
  49.0005083  40.7105649  20.7367564  48.4208487  40.4982758  20.2545096
  62.2073957  31.4968093  26.8355526  62.7581878  30.8636162  27.0752618
  62.1918072  32.0283486  27.5271030  62.2859153  31.4817041  26.9734384
  55.9102363  29.7364426  25.9460122  55.5667129  29.0154762  26.2967372
  56.0095406  29.5278278  25.1038481  55.8744406  29.5988630  25.8731802
  48.3775474  43.8785717  22.1453131  49.0299532  43.3462159  22.3744157
  47.6801082  43.5254369  22.5321005  48.3706192  43.7475240  22.2365299
  45.3256739  36.2324894  21.5520506  46.0802707  36.6137933  21.7655968
  44.7327351  36.6836038  22.0067202  45.3493452  36.3553722  21.6503384
  56.3715392  36.1990131  21.4884111  56.9373425  36.8583340  21.4042653
  55.7243295  36.5439829  21.9600513  56.3594148  36.3472072  21.5456867
  43.6346149  27.4539264  20.9955576  43.3470945  27.0840535  20.2587523
  44.3216617  27.9234120  20.7339281  43.6935046  27.4686234  20.8470651
  52.8421970  39.1428915  20.9121190  52.6008646  38.4096775  20.5048255
  53.0223303  39.6915772  20.2587523  52.8329594  39.1151306  20.7551413
  48.0721291  34.4337475  22.3242112  47.8764073  35.0412209  21.7302415
  48.2955636  33.7405419  21.8433786  48.0755932  34.4215000  22.1658193
  46.4699821  31.3192212  22.4422980  47.1922473  31.4833371  21.9826786
  45.9907814  32.0401877  22.3362320  46.5063551  31.4490442  22.3588594
  54.4293328  27.6556011  27.8219665  53.5904429  27.6817290  27.5857929
  54.4997696  28.3026747  28.4025012  54.3161722  27.7552137  27.8728782
  52.8762607  24.5541388  22.5547281  53.5788959  24.3549137  22.0767239
  52.6106795  23.7817331  22.8616125  52.9409239  24.4104354  22.5292723
  58.3050852  32.8623998  25.1080907  58.2184827  33.0179424  25.9615686
  57.8501332  33.5062074  24.7340312  58.2254109  32.9799753  25.1788014
  41.2074344  28.2320477  21.8440857  41.3090480  29.0346638  22.1721832
  42.0030231  28.0307813  21.5463937  41.3402249  28.3206375  21.8476212
  52.1776668  30.1834745  23.7306467  51.9311383  30.1030496  24.5643255
  52.5061791  29.3988213  23.5368994  52.1897912  30.0561010  23.8253990
  56.0724717  36.8918104  27.5193248  55.9339076  37.5899150  28.0241990
  55.2924715  36.7366761  27.1629430  55.9367944  36.9718271  27.5419522
  50.3093613  32.1181632  30.9254581  49.5616927  32.3112646  30.5202859
  50.4635138  31.2926852  30.6878703  50.2216040  32.0246743  30.8299987
  57.5678090  36.2496358  18.2809747  57.1884899  35.4633496  18.2739036
  56.9044335  36.7983215  18.1381391  57.4136565  36.2141182  18.2590544
  55.0222716  19.1922058  25.6843828  55.1406284  19.6498521  24.9511131
  54.8484892  18.3867319  25.3980045  55.0141887  19.1415830  25.5344762
  50.3924998  39.8009877  22.1198573  51.1574889  39.5319521  21.7981237
  50.2903088  39.3159888  22.8368636  50.4906494  39.6899442  22.1778401
  48.4277768  28.0034287  28.6591809  47.6373843  27.8225747  28.9809145
  48.8238391  27.2261239  28.6422103  48.3694644  27.8621748  28.7044357
  52.9143659  36.8322061  14.0998523  53.6816644  36.8922186  13.6904374
  52.4674968  36.2602502  13.6154841  52.9617086  36.7558637  13.9676233
  53.8121454  35.6376717  26.3851255  53.1366456  35.4061949  26.8864642
  53.8213830  35.0297900  25.7593360  53.7139959  35.5135642  26.3667407
  55.8138189  38.4941849  18.6161433  55.8958026  39.3008835  18.2922884
  56.2987931  38.5137808  19.3402206  55.8975347  38.6162512  18.6748331
  44.9117137  33.6678737  22.7159483  45.0681756  33.6025539  23.5715475
  45.2517730  34.4427289  22.5038163  44.9850372  33.7727935  22.8114077
  51.4496282  33.0436620  21.5852847  51.9911827  32.5407001  22.0491467
  51.7642841  32.9901815  20.7742332  51.5760679  32.9616041  21.5336659
  49.6182731  38.4353972  18.8692875  49.6875552  37.5768510  19.0085875
  50.3971186  38.6525853  18.5411899  49.7435581  38.3406836  18.8410032
  54.0090219  40.8591673  23.0829368  53.6170011  40.5558388  22.3652234
  54.1643291  41.6960763  22.8934322  53.9743809  40.9375510  22.9485865
  54.7624639  29.5461990  32.5758454  53.9501321  29.2387880  32.6571627
  55.2214574  29.0660990  33.1401166  54.7105024  29.4298482  32.6713048
  54.1729894  37.4241662  23.0235398  53.8144548  37.5956305  23.7999431
  53.6868604  37.8854867  22.4663397  54.0488591  37.5180633  23.0560668
  51.9900280  21.0472860  26.6262490  51.1193838  21.0211581  26.5795799
  52.2440621  20.8750053  25.8088335  51.8993840  21.0183004  26.4982627
  48.9618259  33.1040827  15.5635633  49.2510784  33.8805710  15.8379207
  49.0490058  32.5929559  16.2650132  49.0172515  33.1432746  15.7078131
  49.0149420  23.0579089  28.0835960  48.4987909  22.3659280  28.2087539
  48.4543349  23.7249866  28.0298559  48.8555933  23.0542346  28.0942026
  51.0841654  23.5972049  29.9128813  50.6973407  23.6221080  30.6942343
  50.5974591  23.0313727  29.4603329  50.9554162  23.5167800  29.9616716
  57.0591633  30.1634704  28.5368515  56.6319241  30.0761052  27.7816614
  56.4217686  30.2712479  29.1223359  56.9021240  30.1667364  28.5113956
  50.7498795  20.4839034  32.2039073  51.3791913  21.0199334  31.9260143
  50.9184658  20.3916393  33.0552638  50.8676590  20.5500397  32.2887601
  42.6057767  30.0393629  25.4920496  42.2114465  30.1136641  24.7170605
  42.0497884  30.4251575  26.0428857  42.4660579  30.1075403  25.4588155
  54.2422714  23.0174923  25.1724374  54.4472307  22.9497231  26.0181372
  53.9149138  23.8233744  25.1045552  54.2237962  23.1260863  25.2884030
  48.9398865  30.3455491  26.9133342  48.6362002  29.7911479  27.5143750
  48.2378286  30.5247701  26.4261377  48.7915075  30.2900273  26.9303048
  47.9964962  27.6556011  21.4778044  48.2724696  26.9374923  21.0655612
  48.5963631  28.2540931  21.2699150  48.1258227  27.6376382  21.3858805
  57.4956401  23.5706687  24.6527140  56.8830715  24.0577089  25.0380872
  57.5920576  22.8950178  25.1964791  57.4194299  23.5424996  24.7905998
  51.4975482  25.3269528  19.7524639  51.9519229  25.4980089  20.4772484
  51.9715528  24.7137639  19.3522415  51.6343803  25.2620413  19.7998401
  45.4151631  25.9719852  29.7495395  45.8753112  26.0458781  30.4870519
  45.4607737  26.7701106  29.3995217  45.4902186  26.1013999  29.8068152
  61.1381429  34.6423624  30.0804656  61.1964553  35.0910273  30.8264633
  60.5047897  35.0522437  29.6434736  61.0532725  34.7697358  30.1257204
  54.7780524  40.2627166  26.5159402  54.5800213  40.7517980  25.8215614
  54.1568235  40.4668407  27.0943536  54.6568089  40.3643704  26.4982626
  48.8388502  32.0312063  20.8569647  49.5830547  32.4186339  21.0952596
  48.9849199  31.1869488  21.0210134  48.9699088  31.9642535  20.9163616
  50.7568078  23.8262321  25.8901508  49.9104123  23.9985129  25.7642858
  50.7539210  23.0211665  26.2267336  50.6315228  23.7323350  25.9212635
  51.8266378  27.6037536  26.7563566  51.3526333  27.0779298  27.2668877
  52.1984514  27.0567009  26.1878427  51.8116267  27.4453532  26.7478713
  58.0903109  32.6639912  28.1670346  57.8501332  31.8246327  28.1712773
  58.5695116  32.7440078  28.8911120  58.1255293  32.5521311  28.2745149
  53.7549878  28.4974090  19.8189320  53.2272897  28.5802834  19.1295028
  54.2145586  29.2391962  19.8153964  53.7451728  28.6194753  19.7164015
  60.0908296  29.4441369  26.1199605  59.8518066  29.4037203  25.2820390
  60.2542197  30.2912521  26.2465327  60.0798599  29.5633454  26.0153087
  56.6954326  33.8291318  32.0504651  57.4188525  33.3763844  31.8715671
  56.4304288  34.1095984  31.2676978  56.7635599  33.8042287  31.9083366
  45.5641194  28.4251492  28.7857530  44.9394265  28.4369884  28.1783483
  45.2286789  28.9011667  29.4348770  45.4226686  28.4970009  28.7914098
  45.7482943  26.7676610  14.8430215  45.3995747  27.4196335  15.3061764
  45.2679389  26.7533723  14.1154086  45.6253187  26.8619664  14.8041306
  53.3086960  37.0677654  18.9498977  54.0321159  37.5335767  18.8063550
  52.8687552  37.1351264  18.1996574  53.3502653  37.1461491  18.8183758
  52.7752243  22.2005875  31.5583188  52.2792804  22.3969549  30.8674754
  53.5321305  22.5998543  31.3871989  52.8139068  22.2883609  31.4303325
  50.0455122  25.8748221  28.1486498  50.0697610  25.3408333  27.4599278
  50.2966596  25.3665530  28.8112089  50.0865041  25.7209125  28.1451143
  46.3256445  24.6019039  27.5292243  46.3654816  25.1028246  28.2426950
  45.5006109  24.6929433  27.2598166  46.2095971  24.6900855  27.5942781
  46.1206852  29.3935140  20.3556259  46.2609813  29.8907605  21.0584901
  46.6189385  28.6921435  20.4970473  46.2147933  29.3637119  20.4807838
  46.1507074  30.2602251  17.6848836  46.7852154  30.8562677  17.6198298
  46.2332685  29.9605709  18.4994706  46.2563625  30.3043160  17.7951923
  59.1289640  32.7917729  30.5535200  59.7207480  33.4314980  30.5853398
  59.5648635  32.0940766  30.8427267  59.2808071  32.7836079  30.6016033
  47.7286057  26.1916227  17.6594278  48.0501898  25.7119309  17.0053540
  47.9913001  27.0015873  17.4685090  47.8152083  26.2406125  17.5349770
  53.1245212  25.5788421  30.0217757  53.5500284  25.1260947  29.4101284
  52.5102205  25.0248492  30.2982545  53.0973857  25.4302397  29.9722783
  42.6560062  32.4570092  20.9538382  43.1652291  33.0534600  21.3349688
  43.1294334  32.1896066  20.2714802  42.8003438  32.5055908  20.9092905
  53.5690810  41.1298359  19.1097038  52.8520120  40.9559221  18.6444275
  54.2197548  40.8950931  18.5772524  53.5592661  41.0694151  18.9626256
  51.5639435  22.0503521  23.4308334  50.9207753  21.9001167  23.9993473
  51.2238842  21.8045866  22.6657439  51.4184512  21.9915643  23.4011349
  56.1538781  30.0062947  22.8538343  55.4829971  30.5492650  22.7251408
  56.8478532  30.4757803  22.6120038  56.1567649  30.1561219  22.7993871
  56.3166909  26.4618831  25.7628716  56.6694519  26.0348554  26.4374515
  55.4581710  26.3769675  25.8929792  56.2416354  26.3863572  25.8823727
  45.0150594  29.0926351  23.8211563  44.2962583  29.5090483  24.0884426
  45.3862956  29.6580590  23.2703201  44.9642526  29.2375632  23.7794370
  54.3150175  29.7254200  29.7113558  54.2948102  29.5437495  30.5648337
  54.3629375  30.5966218  29.6873142  54.3184816  29.8270738  29.8336853
  50.7897168  28.1324351  19.1584942  50.1962008  28.4541347  18.6069509
  50.8272446  27.2865446  18.9506048  50.7071557  28.0548679  19.0467713
  57.7490969  21.5837243  26.6913029  57.2421834  20.8766383  26.6234206
  58.5458403  21.2530432  26.8214105  57.7918208  21.4310394  26.7012024
  53.6654985  28.0903855  22.5886692  53.4368678  28.1136557  21.7465051
  53.9253061  27.2661322  22.7081703  53.6701173  27.9719935  22.4811890
  46.7199747  26.6280401  23.8840888  47.1957114  26.9897481  23.2491069
  46.2188347  27.2836869  24.1641031  46.7165106  26.7774590  23.8317629
  59.9511109  36.1002170  19.6753893  60.3344715  36.8493526  19.9051990
  59.1555222  36.3467989  19.4165882  59.8904891  36.2471863  19.6711467
  48.7626400  28.7721601  17.2514272  49.1425365  28.7901230  16.4665387
  48.0218997  29.2175590  17.1305119  48.7095238  28.8403376  17.1177840
  56.3911691  27.0803792  22.8389851  56.3905917  26.9252449  23.6974127
  56.1867871  27.9266780  22.7831236  56.3611469  27.1824413  22.9577790
  54.1152543  31.7601294  26.4926057  54.6106208  31.0424289  26.4530078
  53.3052319  31.4572092  26.3780544  54.0696436  31.6098941  26.4699783
  49.5611155  35.6099108  18.6423062  48.7522477  35.2865781  18.5956371
  50.0686063  34.9032330  18.5751311  49.5160821  35.4580424  18.6253356
  56.1804362  34.5104982  29.1803186  56.6059433  33.9879404  28.6273611
  55.8161282  35.1085819  28.6591809  56.1890964  34.5215209  29.0212196
  52.7682961  38.2239246  25.5104344  53.2394140  38.9379509  25.6794329
  53.1043140  37.6237996  26.0464213  52.8878076  38.2410710  25.6136720
  49.6852456  22.9966717  32.4662439  49.8180362  22.1997710  32.7943414
  50.0697609  23.5233120  33.0460714  49.7608785  22.9566633  32.6005941
  52.7584811  19.9197043  29.0643532  51.9530775  19.8094772  29.3811370
  52.6291547  20.0209498  28.2073398  52.6204944  19.9180713  28.9851572
  56.2150772  26.0842535  29.6583229  55.6313761  26.5851741  29.2460796
  56.5355066  25.5772091  29.0247552  56.1763947  26.0834370  29.5041736
  48.7545571  24.9983129  19.9341903  49.5761266  25.1681442  19.6923598
  48.2915222  25.1530390  19.2108201  48.8076733  25.0464862  19.7913548
  47.3440903  22.9925892  30.7140332  47.8885316  22.6517018  31.3044674
  47.3977839  23.8511353  30.8561617  47.4330022  23.0681151  30.8222206
  69.4428884  46.6773105  21.7684254  69.4122889  47.5317741  21.9402523
  70.0410233  46.3768397  22.3270398  69.5266042  46.7589601  21.8759056
  62.6428569  45.7648756  26.5237184  61.7866465  45.9257254  26.5746301
  62.6896223  44.8940820  26.5442245  62.5227681  45.6599557  26.5343250
  57.0269709  55.3011473  22.2874416  56.2752608  54.9227012  22.0590461
  57.4755721  55.3329907  21.5393226  56.9819376  55.2497081  22.1431918
  65.9522286  52.0335281  36.1297640  66.6589053  51.5387312  36.2584575
  66.1410221  52.4744363  35.4000298  66.0850191  52.0253632  36.0406686
  62.4794669  55.7236843  17.7159963  62.1446037  56.4013765  17.2804185
  62.9921539  55.3342154  17.1276835  62.5060250  55.7661421  17.5646754
  62.0198960  57.6751112  23.6571075  62.4038339  58.2438010  23.1175850
  61.9558101  56.9500622  23.1776891  62.0672387  57.6526575  23.5064937
  65.4880390  47.8240800  29.1668836  66.0336350  48.5025886  29.2262806
  65.4297267  47.6828260  28.3070417  65.5596305  47.9032801  29.0480897
  58.6054465  55.3129866  24.5537188  58.7064828  54.5030220  24.8634316
  58.0096210  55.2186812  23.9236867  58.5327004  55.1794894  24.5063427
  67.2645459  49.2525407  20.0402564  67.1484985  50.0033093  20.4694702
  68.0601346  48.9949360  20.2898651  67.3650048  49.3260254  20.1406655
  58.4455205  60.2307455  25.9552044  59.0892660  60.6720619  26.3448203
  58.7711460  59.4260881  25.8682303  58.5887033  60.1772650  25.9997522
  51.8019509  51.3350152  24.1789522  51.5669694  50.5017805  24.0721791
  51.9405150  51.6154818  23.3650723  51.7875172  51.2533656  24.0431877
  54.1009597  43.5035883  27.0773830  53.4814628  42.9128530  26.9083845
  53.9993460  44.0947318  26.4438153  53.9947272  43.5039965  26.9578819
  59.1475784  53.2419430  21.3271906  59.4691625  53.7824637  20.7233214
  59.7947881  52.6716201  21.4594196  59.2901840  53.2378605  21.2578942
  61.1977492  45.2435425  21.4106293  61.8957657  45.4223552  21.9027756
  61.5129825  44.7205764  20.7876682  61.3472830  45.1929197  21.3908303
  61.3865428  51.6305870  21.3986084  61.8259063  51.0222970  21.8440857
  61.2370091  51.2513243  20.6271549  61.4286894  51.4844341  21.3505252
  61.3923162  53.0704787  28.2511802  61.6746405  52.2756193  28.0298558
  62.1209323  53.5485375  28.2716863  61.5412726  53.0239384  28.2214818
  59.3704356  40.6127821  25.4927568  59.0407686  41.0638965  24.8231266
  58.6949358  40.5343985  26.0400574  59.2214792  40.6678956  25.4750791
  64.9874764  49.9833051  18.3516854  64.9026060  50.8394018  18.4966422
  65.4759148  49.7077375  19.0199013  65.0463662  50.0690372  18.4718935
  66.5780764  36.6013344  23.7377178  66.2634205  37.2916823  24.1697601
  66.0607705  36.5458126  23.0362679  66.4545234  36.6948233  23.6974127
  65.9193198  46.6017845  19.8514589  65.3904669  46.8177479  20.5111895
  66.4418218  47.2953984  19.7715558  65.9181651  46.7360982  19.9370188
  71.3741251  52.1764150  25.2247633  70.5438954  52.3874793  25.3881050
  71.3250503  51.3501204  24.9489917  71.2447986  52.0853756  25.2084999
  57.8092805  50.4981062  18.6522057  57.2250021  51.0031093  19.0587921
  57.4062901  50.2723449  17.9118649  57.6632109  50.5389310  18.6027082
  59.4350988  55.0068004  28.0595543  58.9177930  54.6475419  27.4556851
  60.1325379  54.4830178  28.0701609  59.4616569  54.8765692  27.9725801
  63.0914580  55.4562818  34.0211716  63.1797926  55.2688958  34.8689926
  63.5204293  54.8100247  33.6216563  63.1676682  55.3325825  34.0883467
  60.6585040  54.7393978  33.0029378  60.0955875  54.3266588  33.5269039
  61.4206063  54.6646883  33.4222521  60.6879488  54.6671378  33.1422378
  62.2670020  46.7446714  17.1290977  62.5066024  46.9524698  16.3166320
  62.5885861  45.9404223  17.2379922  62.3507178  46.6560815  17.0251530
  57.5760310  38.6740110  20.9750515  58.3306278  39.0418427  20.7367565
  57.3987845  39.0479664  21.7429695  57.6614789  38.7838298  21.0535404
  56.2181031  56.7291999  25.6066008  56.9201611  56.2143988  25.6638765
  56.1378514  57.0566150  26.4112883  56.3104792  56.7006225  25.7338800
  70.8695209  44.8234550  29.0198055  70.0323630  44.8936737  29.2545649
  70.8383440  44.8259045  28.1472357  70.7413491  44.8344777  28.9257603
  55.9317375  41.0810429  17.6728628  55.7492948  41.2982309  16.8469621
  56.7942988  41.1949441  17.7287243  56.0321964  41.1300327  17.5583115
  55.5431807  52.9198351  25.1151616  56.3820706  53.1521284  25.1625378
  55.5743576  52.0502662  25.0458652  55.6713524  52.8255297  25.1116261
  61.6117094  38.0836839  20.7077652  62.3403254  37.9052794  20.2615808
  61.7011987  38.9254919  20.9184830  61.7323756  38.1820718  20.6731170
  65.5925395  49.0190227  24.6109946  66.3482910  49.4521741  24.6498855
  65.6987719  48.3694996  25.1844582  65.7195565  48.9867711  24.7007972
  68.6305566  52.8463504  25.3612349  68.1940798  52.8500246  26.1171320
  68.2968481  53.5269003  24.9291926  68.5168186  52.9475960  25.4093182
  68.5503049  39.8877332  27.6041777  69.1928957  39.9575436  28.1903692
  68.8026069  39.2206555  27.1021319  68.6825181  39.8003680  27.6169056
  55.4779402  44.3584601  16.1851101  54.7637579  44.0722781  16.5973534
  55.9623370  44.6981227  16.8257489  55.4438765  44.3666251  16.3406736
  63.3605033  56.7981939  30.3321955  62.5620278  56.5581439  30.5895824
  63.8091044  56.8496332  31.0789003  63.3079644  56.7704330  30.4806879
  71.7649912  49.5644424  24.2531986  72.4266346  49.0035092  24.1527895
  71.1241324  49.0696455  24.5784677  71.7678779  49.4080833  24.2864326
  62.6526720  52.8614555  16.5612909  63.0677868  52.5299579  15.8697405
  61.8218649  52.6283457  16.4333046  62.5914728  52.7785811  16.4403757
  68.0514743  50.5809806  23.9943975  68.2870332  50.7255005  23.1670826
  68.2004306  51.3452214  24.3875489  68.1080546  50.7148861  23.9307579
  69.8805199  49.4211472  21.8313579  70.2113417  49.9539112  21.2253674
  70.4538288  49.4750360  22.4875530  70.0138879  49.5081041  21.8391361
  65.0937089  47.2676375  22.5137159  65.1883943  48.0065669  22.9676784
  64.4695932  46.8393850  22.9471723  65.0146119  47.3137695  22.6445306
  63.3489562  50.4462587  33.1627440  63.9228424  49.8089832  33.3176004
  63.2704366  50.4466670  32.2937097  63.4222797  50.3527699  33.0573851
  65.3460110  49.1125115  15.7474111  65.2640272  49.1827302  16.6129098
  65.9839830  49.6754859  15.5557852  65.4279947  49.2064086  15.8464060
  58.7053281  48.8785853  25.2148637  58.4472525  48.0457587  25.1879937
  58.7601764  49.1043466  24.3741138  58.6753059  48.7883624  25.0868774
  63.7854331  40.9814303  25.3152730  63.0810658  40.4923489  25.4736649
  63.8339305  40.9936778  24.4441174  63.6884383  40.9103951  25.2092070
  57.6787993  46.4323615  25.7013532  57.1037584  46.5915783  26.3377493
  57.3023669  45.7959024  25.2381983  57.5390805  46.3621428  25.7268090
  70.9884551  44.6621969  23.3353740  70.7321116  43.8501911  23.1451623
  71.8313865  44.6699536  23.1083928  71.0750576  44.5433967  23.2738558
  65.1687643  38.6021593  28.0729895  65.5498155  37.9199764  28.4597769
  64.3650928  38.3131195  27.8905559  65.1064105  38.4588642  28.1033951
  62.4500220  49.1345569  18.7582717  63.2640859  49.4260462  18.6465489
  62.3859361  48.4805431  18.1841010  62.5602959  49.0810764  18.6571555
  68.6709710  51.8171565  33.1712293  68.4348348  50.9859630  33.0524354
  69.3152939  51.7657172  33.7567137  68.7304381  51.6869253  33.2398187
  58.3208128  52.6067086  23.8855029  58.9582075  52.3678834  24.4306823
  58.7463200  52.8104245  23.1508190  58.4784295  52.6018097  23.8572187
  58.9610943  47.8269376  18.2229919  59.3456096  47.6077083  18.9746464
  58.7122564  48.6532322  18.3530995  58.9813016  47.9167522  18.3530995
  69.6946131  51.6016014  29.2340588  69.3891948  52.3344071  29.5953903
  68.9752347  51.1953943  28.9533374  69.5433473  51.6497747  29.2453725
  60.7029600  53.0839509  25.5648816  60.7768609  52.9214681  26.4190666
  61.5199107  53.2729699  25.3209297  60.8345959  53.0876251  25.6546841
  75.3947923  48.2409015  28.5608932  75.3272423  48.2604974  27.6911518
  75.3803585  49.0839342  28.7864602  75.3826679  48.3682749  28.4661409
  54.4635357  53.4297372  22.5943259  53.6373475  53.6759109  22.4677538
  54.5247348  53.3509453  23.4605317  54.3509524  53.4542321  22.7032204
  56.6811381  39.4966313  23.5538699  55.8133806  39.5688912  23.6196309
  56.9686585  40.2988392  23.7426674  56.5951129  39.6260460  23.5913466
  65.8044269  39.6444172  31.8850021  66.5497861  39.4553983  31.4713447
  65.3881574  40.1702410  31.3263878  65.8529244  39.6946318  31.7414594
  59.2434186  56.0474252  20.2962289  59.5332484  55.6563233  19.5721516
  59.9737667  56.2290957  20.7367564  59.3941070  56.0168066  20.2545096
  73.1806540  47.0153401  26.8355526  73.7314462  46.3821470  27.0752618
  73.1650656  47.5468794  27.5271030  73.2591737  47.0002349  26.9734384
  57.1840102  58.0241635  23.3622439  56.9640397  57.7338989  24.1549106
  56.9634624  57.3656590  22.8340351  57.1187696  57.8841343  23.4011348
  56.0957049  50.1114951  25.6278141  55.8070297  49.4852422  26.1623868
  56.9640397  50.0535238  25.6942821  56.1817301  50.0102495  25.7169095
  66.8834947  45.2549734  25.9460122  66.5399712  44.5340070  26.2967372
  66.9827989  45.0463586  25.1038481  66.8476989  45.1173938  25.8731802
  59.3508057  59.3971024  22.1453131  60.0032115  58.8647467  22.3744157
  58.6533666  59.0439677  22.5321005  59.3438775  59.2660547  22.2365299
  56.2989322  51.7510202  21.5520506  57.0535290  52.1323241  21.7655968
  55.7059935  52.2021346  22.0067202  56.3226036  51.8739029  21.6503384
  67.3447976  51.7175438  21.4884111  67.9106008  52.3768648  21.4042653
  66.6975879  52.0625137  21.9600513  67.3326732  51.8657380  21.5456867
  54.6078733  42.9724572  20.9955576  54.3203529  42.6025843  20.2587523
  55.2949201  43.4419427  20.7339281  54.6667630  42.9871542  20.8470651
  63.8154554  54.6614223  20.9121190  63.5741230  53.9282083  20.5048255
  63.9955887  55.2101080  20.2587523  63.8062178  54.6336614  20.7551413
  59.0453874  49.9522782  22.3242112  58.8496657  50.5597517  21.7302415
  59.2688220  49.2590726  21.8433786  59.0488515  49.9400308  22.1658193
  57.4432404  46.8377520  22.4422980  58.1655056  47.0018678  21.9826786
  56.9640397  47.5587185  22.3362320  57.4796135  46.9675750  22.3588594
  65.4025912  43.1741319  27.8219665  64.5637013  43.2002598  27.5857929
  65.4730279  43.8212055  28.4025012  65.2894305  43.2737445  27.8728782
  63.8495190  40.0726696  22.5547281  64.5521543  39.8734444  22.0767239
  63.5839379  39.3002639  22.8616125  63.9141823  39.9289662  22.5292723
  69.2783436  48.3809306  25.1080907  69.1917410  48.5364732  25.9615686
  68.8233916  49.0247381  24.7340312  69.1986692  48.4985061  25.1788014
  52.1806927  43.7505785  21.8440857  52.2823064  44.5531946  22.1721832
  52.9762814  43.5493121  21.5463937  52.3134833  43.8391683  21.8476212
  63.1509252  45.7020053  23.7306467  62.9043966  45.6215804  24.5643255
  63.4794375  44.9173521  23.5368994  63.1630495  45.5746318  23.8253990
  67.0457301  52.4103412  27.5193248  66.9071660  53.1084458  28.0241990
  66.2657299  52.2552069  27.1629430  66.9100528  52.4903579  27.5419522
  65.3835386  48.7099788  33.7715629  65.3783424  47.8379604  33.7758056
  66.0896380  48.9087957  33.2985085  65.4880390  48.6103662  33.7022665
  58.1834034  56.6279543  30.0090476  58.3323598  56.0682459  29.3563881
  58.9634036  56.7071545  30.3922995  58.3208128  56.5565109  29.9687426
  68.5410673  51.7681666  18.2809747  68.1617482  50.9818804  18.2739036
  67.8776919  52.3168523  18.1381391  68.3869148  51.7326490  18.2590544
  60.7087335  56.7994186  31.2874967  60.6331006  56.1302997  31.8425756
  60.6377194  57.5011974  31.8015634  60.6867942  56.8039094  31.4451815
  65.9955299  34.7107366  25.6843828  66.1138868  35.1683829  24.9511131
  65.8217475  33.9052627  25.3980045  65.9874470  34.6601138  25.5344762
  61.3657582  55.3195185  22.1198573  62.1307473  55.0504829  21.7981237
  61.2635672  54.8345196  22.8368636  61.4639077  55.2084750  22.1778401
  63.8876242  52.3507369  14.0998523  64.6549227  52.4107494  13.6904374
  63.4407551  51.7787810  13.6154841  63.9349669  52.2743945  13.9676233
  64.7854038  51.1562025  26.3851255  64.1099040  50.9247257  26.8864642
  64.7946414  50.5483208  25.7593360  64.6872542  51.0320950  26.3667407
  66.7870772  54.0127157  18.6161433  66.8690610  54.8194143  18.2922884
  67.2720514  54.0323116  19.3402206  66.8707930  54.1347820  18.6748331
  60.0978969  60.2062506  29.7452968  60.5874899  59.5073295  29.5628633
  59.5263201  59.9086376  30.3329025  60.0863499  60.0588730  29.8054009
  55.8849721  49.1864045  22.7159483  56.0414340  49.1210847  23.5715475
  56.2250314  49.9612597  22.5038163  55.9582955  49.2913243  22.8114077
  62.4228865  48.5621928  21.5852847  62.9644411  48.0592309  22.0491467
  62.7375424  48.5087123  20.7742332  62.5493262  48.4801349  21.5336659
  66.2945973  52.7724575  38.6979759  67.1080838  52.5009724  38.8584891
  66.1340939  52.4732115  37.8939955  66.3915921  52.6879501  38.6025165
  60.5915315  53.9539280  18.8692875  60.6608135  53.0953818  19.0085875
  61.3703770  54.1711161  18.5411899  60.7168165  53.8592144  18.8410032
  64.9822802  56.3776981  23.0829368  64.5902594  56.0743696  22.3652234
  65.1375875  57.2146071  22.8934322  64.9476392  56.4560818  22.9485865
  52.4583982  46.3698995  23.0320250  52.8382947  46.7883540  22.3680518
  51.8839347  46.9512451  23.3389094  52.4295307  46.5176854  22.9796991
  65.1462477  52.9426970  23.0235398  64.7877132  53.1141613  23.7999431
  64.6601188  53.4040175  22.4663397  65.0221174  53.0365941  23.0560668
  62.9632863  36.5658168  26.6262490  62.0926421  36.5396889  26.5795799
  63.2173204  36.3935360  25.8088335  62.8726423  36.5368312  26.4982627
  59.9350843  48.6226135  15.5635633  60.2243367  49.3991018  15.8379207
  60.0222641  48.1114867  16.2650132  59.9905099  48.6618054  15.7078131
  59.9882004  38.5764397  28.0835960  59.4720492  37.8844588  28.2087539
  59.4275933  39.2435174  28.0298559  59.8288517  38.5727654  28.0942026
  62.0574237  39.1157357  29.9128813  61.6705990  39.1406388  30.6942343
  61.5707174  38.5499035  29.4603329  61.9286746  39.0353108  29.9616716
  66.3067217  53.8330866  33.9702599  66.9446937  53.3391061  33.6365055
  65.6641308  53.7608266  33.3854826  66.3061443  53.7489874  33.8344954
  68.0324217  45.6820012  28.5368515  67.6051825  45.5946360  27.7816614
  67.3950270  45.7897787  29.1223359  67.8753824  45.6852672  28.5113956
  61.7231379  36.0024342  32.2039073  62.3524497  36.5384642  31.9260143
  61.8917242  35.9101701  33.0552638  61.8409173  36.0685704  32.2887601
  66.3621473  54.5250674  30.6107956  67.1513851  54.1739739  30.7310038
  66.5365071  55.3387062  30.3484590  66.5041755  54.5936531  30.5895824
  53.5790351  45.5578937  25.4920496  53.1847048  45.6321949  24.7170605
  53.0230467  45.9436883  26.0428857  53.4393163  45.6260711  25.4588155
  65.2155297  38.5360231  25.1724374  65.4204891  38.4682539  26.0181372
  64.8881721  39.3419052  25.1045552  65.1970545  38.6446171  25.2884030
  58.9697546  43.1741319  21.4778044  59.2457280  42.4560231  21.0655612
  59.5696215  43.7726239  21.2699150  59.0990810  43.1561689  21.3858805
  68.4688985  39.0891995  24.6527140  67.8563299  39.5762397  25.0380872
  68.5653160  38.4135486  25.1964791  68.3926883  39.0610304  24.7905998
  62.4708066  40.8454836  19.7524639  62.9251813  41.0165397  20.4772484
  62.9448112  40.2322947  19.3522415  62.6076386  40.7805721  19.7998401
  72.1114013  50.1608932  30.0804656  72.1697137  50.6095580  30.8264633
  71.4780481  50.5707745  29.6434736  72.0265308  50.2882666  30.1257204
  59.8121086  47.5497370  20.8569647  60.5563131  47.9371647  21.0952596
  59.9581782  46.7054796  21.0210134  59.9431671  47.4827843  20.9163616
  61.7300662  39.3447629  25.8901508  60.8836707  39.5170437  25.7642858
  61.7271794  38.5396973  26.2267336  61.6047811  39.2508658  25.9212635
  62.7998962  43.1222844  26.7563566  62.3258916  42.5964606  27.2668877
  63.1717098  42.5752317  26.1878427  62.7848851  42.9638840  26.7478713
  69.0635692  48.1825219  28.1670346  68.8233915  47.3431635  28.1712773
  69.5427700  48.2625386  28.8911120  69.0987876  48.0706619  28.2745149
  64.7282462  44.0159398  19.8189320  64.2005480  44.0988142  19.1295028
  65.1878170  44.7577270  19.8153964  64.7184312  44.1380061  19.7164015
  71.0640880  44.9626677  26.1199605  70.8250649  44.9222511  25.2820390
  71.2274781  45.8097829  26.2465327  71.0531183  45.0818762  26.0153087
  67.6686910  49.3476626  32.0504651  68.3921109  48.8949152  31.8715671
  67.4036872  49.6281292  31.2676978  67.7368183  49.3227594  31.9083366
  56.7215527  42.2861918  14.8430215  56.3728331  42.9381643  15.3061764
  56.2411973  42.2719031  14.1154086  56.5985771  42.3804972  14.8041306
  64.2819544  52.5862962  18.9498977  65.0053743  53.0521075  18.8063550
  63.8420135  52.6536572  18.1996574  64.3235236  52.6646799  18.8183758
  63.4505699  49.4460504  30.1999666  62.8362692  48.9018554  30.4948301
  63.9672984  48.9324741  29.7205482  63.4361362  49.2896913  30.1723894
  62.6901996  50.5164774  27.9343964  62.2629604  49.8914493  27.5009400
  62.6826941  50.2339696  28.7602972  62.6261137  50.3817555  27.9923792
  63.7484826  37.7191183  31.5583188  63.2525388  37.9154857  30.8674754
  64.5053888  38.1183851  31.3871989  63.7871651  37.8068917  31.4303325
  61.0187706  41.3933529  28.1486498  61.0430193  40.8593641  27.4599278
  61.2699180  40.8850838  28.8112089  61.0597625  41.2394433  28.1451143
  57.2989028  40.1204347  27.5292243  57.3387400  40.6213554  28.2426950
  56.4738693  40.2114741  27.2598166  57.1828554  40.2086163  27.5942781
  57.0939435  44.9120448  20.3556259  57.2342397  45.4092913  21.0584901
  57.5921968  44.2106743  20.4970473  57.1880516  44.8822427  20.4807838
  57.1239658  45.7787559  17.6848836  57.7584737  46.3747984  17.6198298
  57.2065269  45.4791017  18.4994706  57.2296209  45.8228468  17.7951923
  70.1022224  48.3103037  30.5535200  70.6940064  48.9500287  30.5853398
  70.5381218  47.6126073  30.8427267  70.2540655  48.3021387  30.6016033
  58.7018641  41.7101535  17.6594278  59.0234482  41.2304617  17.0053540
  58.9645584  42.5201181  17.4685090  58.7884666  41.7591433  17.5349770
  61.9315613  52.7320409  31.1793094  61.4240705  53.2856256  31.6233725
  61.6342260  52.7928699  30.3611869  61.8120498  52.8226720  31.1241551
  64.0977796  41.0973729  30.0217757  64.5232867  40.6446255  29.4101284
  63.4834789  40.5433799  30.2982545  64.0706441  40.9487705  29.9722783
  53.6292646  47.9755400  20.9538382  54.1384875  48.5719908  21.3349688
  54.1026918  47.7081374  20.2714802  53.7736021  48.0241216  20.9092905
  64.5423394  56.6483667  19.1097038  63.8252703  56.4744529  18.6444275
  65.1930131  56.4136239  18.5772524  64.5325244  56.5879459  18.9626256
  62.5372019  37.5688829  23.4308334  61.8940336  37.4186475  23.9993473
  62.1971425  37.3231174  22.6657439  62.3917096  37.5100951  23.4011349
  67.1271365  45.5248255  22.8538343  66.4562555  46.0677958  22.7251408
  67.8211115  45.9943111  22.6120038  67.1300232  45.6746527  22.7993871
  61.1758099  57.6644967  28.0850101  60.9523753  56.9063797  28.4534127
  60.6867942  57.6942989  27.3630541  61.0701548  57.5567192  28.0326842
  67.2899492  41.9804139  25.7628716  67.6427103  41.5533862  26.4374515
  66.4314294  41.8954983  25.8929792  67.2148937  41.9048880  25.8823727
  55.9883177  44.6111659  23.8211563  55.2695167  45.0275791  24.0884426
  56.3595540  45.1765897  23.2703201  55.9375109  44.7560940  23.7794370
  65.2882758  45.2439508  29.7113558  65.2680686  45.0622803  30.5648337
  65.3361959  46.1151526  29.6873142  65.2917399  45.3456046  29.8336853
  59.8236556  57.8845426  25.5387186  59.4096954  57.2219556  25.1491027
  60.5083930  58.0323284  25.0182880  59.8634927  57.8086084  25.4043683
  63.1901850  57.0435511  26.2910802  62.7918133  57.1537781  25.5231623
  62.5753069  57.2517577  26.8737362  63.0400739  57.0909079  26.2642102
  61.7629752  43.6509659  19.1584942  61.1694591  43.9726655  18.6069509
  61.8005030  42.8050754  18.9506048  61.6804141  43.5733987  19.0467713
  68.7223553  37.1022551  26.6913029  68.2154417  36.3951690  26.6234206
  69.5190986  36.7715740  26.8214105  68.7650792  36.9495702  26.7012024
  64.6387568  43.6089163  22.5886692  64.4101261  43.6321865  21.7465051
  64.8985645  42.7846630  22.7081703  64.6433756  43.4905243  22.4811890
  57.6932331  42.1465709  23.8840888  58.1689697  42.5082789  23.2491069
  57.1920931  42.8022177  24.1641031  57.6897690  42.2959898  23.8317629
  70.9243692  51.6187477  19.6753893  71.3077298  52.3678834  19.9051990
  70.1287806  51.8653297  19.4165882  70.8637475  51.7657171  19.6711467
  59.7358984  44.2906909  17.2514272  60.1157949  44.3086538  16.4665387
  58.9951580  44.7360898  17.1305119  59.6827822  44.3588684  17.1177840
  67.3644275  42.5989100  22.8389851  67.3638501  42.4437757  23.6974127
  67.1600455  43.4452087  22.7831236  67.3344052  42.7009721  22.9577790
  65.0885127  47.2786602  26.4926057  65.5838792  46.5609597  26.4530078
  64.2784902  46.9757400  26.3780544  65.0429020  47.1284248  26.4699783
  60.5343738  51.1284415  18.6423062  59.7255061  50.8051089  18.5956371
  61.0418647  50.4217638  18.5751311  60.4893405  50.9765732  18.6253356
  67.1536945  50.0290290  29.1803186  67.5792017  49.5064712  28.6273611
  66.7893865  50.6271127  28.6591809  67.1623548  50.0400517  29.0212196
  56.7891025  58.3254507  27.9400532  57.1037584  59.1390896  27.9478313
  57.1984439  57.9404726  28.6082691  56.8959123  58.3883210  28.0404623
  63.7415545  53.7424554  25.5104344  64.2126723  54.4564817  25.6794329
  64.0775723  53.1423304  26.0464213  63.8610660  53.7596018  25.6136720
  65.8292530  55.3525867  37.6896416  65.9389495  54.5634428  38.0453163
  66.1583426  55.2631804  36.8870754  65.8944935  55.2231720  37.6238807
  64.3789491  53.5342488  32.2732036  63.8310437  52.9100372  32.0052102
  64.8402520  53.7236760  31.5576116  64.3656701  53.4701538  32.1282467
  63.7317395  35.4382351  29.0643532  62.9263359  35.3280080  29.3811370
  63.6024131  35.5394806  28.2073398  63.5937528  35.4366021  28.9851572
  67.1883356  41.6027843  29.6583229  66.6046344  42.1037049  29.2460796
  67.5087650  41.0957399  29.0247552  67.1496531  41.6019678  29.5041736
  59.7278155  40.5168437  19.9341903  60.5493849  40.6866750  19.6923598
  59.2647806  40.6715698  19.2108201  59.7809317  40.5650170  19.7913548
  63.9447818  54.5393561  28.8041378  64.7646191  54.3956527  29.0657673
  63.6641895  55.1639760  29.3457815  64.0244561  54.6103913  28.9229317
  73.6161153  61.2834064  26.5237184  72.7599048  61.4442562  26.5746301
  73.6628807  60.4126127  26.5442245  73.4960264  61.1784865  26.5343250
  68.0002293  70.8196781  22.2874416  67.2485192  70.4412320  22.0590461
  68.4488304  70.8515215  21.5393226  67.9551959  70.7682389  22.1431918
  76.9254869  67.5520589  36.1297640  77.6321637  67.0572620  36.2584575
  77.1142805  67.9929671  35.4000298  77.0582775  67.5438939  36.0406686
  76.4612974  63.3426107  29.1668836  77.0068934  64.0211194  29.2262806
  76.4029850  63.2013568  28.3070417  76.5328888  63.4218109  29.0480897
  69.5787049  70.8315174  24.5537188  69.6797412  70.0215527  24.8634316
  68.9828794  70.7372120  23.9236867  69.5059587  70.6980202  24.5063427
  62.7752093  66.8535460  24.1789522  62.5402277  66.0203112  24.0721791
  62.9137734  67.1340126  23.3650723  62.7607755  66.7718964  24.0431877
  65.0742180  59.0221191  27.0773830  64.4547212  58.4313838  26.9083845
  64.9726044  59.6132626  26.4438153  64.9679856  59.0225273  26.9578819
  72.1710076  60.7620732  21.4106293  72.8690241  60.9408860  21.9027756
  72.4862409  60.2391072  20.7876682  72.3205413  60.7114505  21.3908303
  64.8011313  62.5673472  29.3217399  64.6770010  63.1535918  29.9567218
  65.4529598  62.0733668  29.6229674  64.8784963  62.5812277  29.4603328
  72.3598011  67.1491178  21.3986084  72.7991647  66.5408278  21.8440857
  72.2102674  66.7698551  20.6271549  72.4019477  67.0029649  21.3505252
  69.8269654  65.7435189  28.6004910  70.4718657  65.2507632  28.2815858
  70.0671431  65.8859976  29.4270988  69.9580240  65.6912632  28.6754443
  72.3655746  68.5890095  28.2511802  72.6478989  67.7941501  28.0298558
  73.0941906  69.0670683  28.2716863  72.5145309  68.5424692  28.2214818
  70.3436940  56.1313129  25.4927568  70.0140270  56.5824273  24.8231266
  69.6681941  56.0529293  26.0400574  70.1947376  56.1864264  25.4750791
  77.5513347  52.1198652  23.7377178  77.2366788  52.8102131  24.1697601
  77.0340289  52.0643434  23.0362679  77.4277818  52.2133541  23.6974127
  64.3369418  71.7321131  25.4545728  63.8536996  72.4571621  25.4305312
  65.1492736  72.0297261  25.5655886  64.3860165  71.8823485  25.4673007
  70.4083572  70.5253312  28.0595543  69.8910513  70.1660727  27.4556851
  71.1057963  70.0015486  28.0701609  70.4349153  70.3951000  27.9725801
  71.6317623  70.2579286  33.0029378  71.0688458  69.8451895  33.5269039
  72.3938647  70.1832191  33.4222521  71.6612072  70.1856686  33.1422378
  68.5492894  54.1925418  20.9750515  69.3038862  54.5603735  20.7367565
  68.3720428  54.5664972  21.7429695  68.6347372  54.3023605  21.0535404
  67.1913615  72.2477307  25.6066008  67.8934194  71.7329296  25.6638765
  67.1111098  72.5751458  26.4112883  67.2837375  72.2191533  25.7338800
  68.2392521  62.4852894  34.7346423  68.4113025  62.3758788  35.5831705
  68.7761879  63.1307299  34.4977615  68.3437525  62.5644895  34.8251520
  66.9049958  56.5995737  17.6728628  66.7225532  56.8167617  16.8469621
  67.7675571  56.7134749  17.7287243  67.0054548  56.6485634  17.5583115
  66.5164390  68.4383659  25.1151616  67.3553290  68.6706592  25.1625378
  66.5476159  67.5687970  25.0458652  66.6446108  68.3440605  25.1116261
  67.1417093  68.8584534  29.4164922  67.6815318  68.7155665  30.0868294
  66.4587040  69.2581285  29.7848948  67.1209247  68.8964205  29.5699343
  72.5849678  53.6022147  20.7077652  73.3135838  53.4238102  20.2615808
  72.6744570  54.4440227  20.9184830  72.7056340  53.7006026  20.6731170
  76.5657978  64.5375535  24.6109946  77.3215493  64.9707049  24.6498855
  76.6720303  63.8880304  25.1844582  76.6928149  64.5053018  24.7007972
  66.4511985  59.8769909  16.1851101  65.7370162  59.5908089  16.5973534
  66.9355954  60.2166535  16.8257489  66.4171349  59.8851559  16.3406736
  67.2952845  58.6163203  32.2166351  66.6024642  58.1460183  32.4627082
  67.9113172  58.3901508  32.7908058  67.2837375  58.5130335  32.3375503
  62.9547652  65.8643604  26.8511087  62.7723225  65.8390490  25.9983380
  63.6897321  66.3342542  26.8899996  63.0361716  65.9304966  26.7309006
  66.0193404  62.5828607  33.3593196  66.7433376  62.5681638  33.8458091
  66.1209540  63.2923962  32.8615164  66.1411613  62.6853310  33.3571983
  73.3938353  66.0627692  38.2242143  72.6011334  66.3771204  38.4094763
  73.5087280  66.2779160  37.3862928  73.2933764  66.1411528  38.1280478
  76.0669672  62.7861683  22.5137159  76.1616526  63.5250977  22.9676784
  75.4428516  62.3579158  22.9471723  75.9878702  62.8323003  22.6445306
  74.3222146  65.9647895  33.1627440  74.8961008  65.3275140  33.3176004
  74.2436950  65.9651978  32.2937097  74.3955381  65.8713007  33.0573851
  62.9218562  62.7437105  27.0010154  63.4992065  62.6073556  27.6402399
  62.2232624  62.2872889  27.2555738  62.9039584  62.6559371  27.1332444
  69.6785865  64.3971161  25.2148637  69.4205109  63.5642895  25.1879937
  69.7334347  64.6228774  24.3741138  69.6485642  64.3068932  25.0868774
  74.7586915  56.4999611  25.3152730  74.0543241  56.0108797  25.4736649
  74.8071889  56.5122086  24.4441174  74.6616966  56.4289259  25.2092070
  68.6520577  61.9508923  25.7013532  68.0770168  62.1101091  26.3377493
  68.2756253  61.3144332  25.2381983  68.5123389  61.8806736  25.7268090
  72.3193865  60.4232272  30.5605910  71.9308298  59.9986490  29.9058102
  71.6548564  60.6714422  31.0682937  72.1640793  60.3970993  30.5393778
  58.3977396  61.5948998  23.7157973  58.4837647  61.2180866  24.4971503
  59.0253193  61.2209443  23.2377931  58.5033947  61.4834480  23.7603450
  76.1420227  54.1206901  28.0729895  76.5230739  53.4385072  28.4597769
  75.3383511  53.8316503  27.8905559  76.0796689  53.9773950  28.1033951
  69.2940712  68.1252394  23.8855029  69.9314659  67.8864142  24.4306823
  69.7195783  68.3289553  23.1508190  69.4516878  68.1203405  23.8572187
  63.9853354  70.3640731  27.7689333  64.0257500  70.6355582  26.9409113
  64.5447878  70.8882639  28.1847121  64.0736700  70.4816486  27.7081221
  69.9343527  63.3454684  18.2229919  70.3188680  63.1262391  18.9746464
  69.6855147  64.1717630  18.3530995  69.9545599  63.4352830  18.3530995
  70.1012067  56.6261099  37.9392503  69.7865508  57.3960662  37.6762066
  69.7802000  56.0631355  37.3544730  70.0070986  56.6571368  37.8133853
  71.6762184  68.6024817  25.5648816  71.7501192  68.4399989  26.4190666
  72.4931690  68.7915007  25.3209297  71.8078542  68.6061559  25.6546841
  65.4367941  68.9482680  22.5943259  64.6106058  69.1944417  22.4677538
  65.4979932  68.8694761  23.4605317  65.3242107  68.9727629  22.7032204
  67.6543964  55.0151621  23.5538699  66.7866390  55.0874220  23.6196309
  67.9419169  55.8173700  23.7426674  67.5683712  55.1445768  23.5913466
  76.7776853  55.1629480  31.8850021  77.5230445  54.9739291  31.4713447
  76.3614158  55.6887718  31.3263878  76.8261827  55.2131626  31.7414594
  70.8061515  66.3677306  31.3815420  70.3073208  67.0793074  31.4600308
  71.6161739  66.6877973  31.3433582  70.8517621  66.5204155  31.3871988
  68.1572685  73.5426942  23.3622439  67.9372981  73.2524297  24.1549106
  67.9367207  72.8841897  22.8340351  68.0920279  73.4026651  23.4011348
  67.0689632  65.6300259  25.6278141  66.7802881  65.0037730  26.1623868
  67.9372980  65.5720546  25.6942821  67.1549884  65.5287803  25.7169095
  77.8567530  60.7735042  25.9460122  77.5132296  60.0525378  26.2967372
  77.9560573  60.5648893  25.1038481  77.8209573  60.6359246  25.8731802
  67.2721906  67.2695510  21.5520506  68.0267874  67.6508549  21.7655968
  66.6792518  67.7206654  22.0067202  67.2958619  67.3924337  21.6503384
  69.7328573  59.2258350  36.6777718  68.9228348  59.5316130  36.5667560
  70.2103259  59.9463933  36.7930302  69.6832051  59.3772952  36.6784789
  68.5920132  68.4404071  26.9260621  68.0700886  68.5804363  27.6112486
  68.9794153  67.6814736  27.1162738  68.5723833  68.3489595  27.0561697
  65.5811316  58.4909880  20.9955576  65.2936112  58.1211151  20.2587523
  66.2681785  58.9604735  20.7339281  65.6400214  58.5056849  20.8470651
  70.0186458  65.4708090  22.3242112  69.8229241  66.0782825  21.7302415
  70.2420803  64.7776034  21.8433786  70.0221099  65.4585616  22.1658193
  68.4164988  62.3562828  22.4422980  69.1387640  62.5203986  21.9826786
  67.9372981  63.0772493  22.3362320  68.4528719  62.4861058  22.3588594
  76.3758496  58.6926627  27.8219665  75.5369596  58.7187906  27.5857929
  76.4462863  59.3397363  28.4025012  76.2626889  58.7922753  27.8728782
  66.0672605  64.7620901  31.5477120  66.5793702  65.0405154  30.8985880
  65.7808947  65.5010195  31.9139933  66.1007468  64.9123254  31.5066998
  74.8227774  55.5912004  22.5547281  75.5254127  55.3919752  22.0767239
  74.5571963  54.8187946  22.8616125  74.8874406  55.4474970  22.5292723
  63.1539511  59.2691093  21.8440857  63.2555647  60.0717254  22.1721832
  63.9495398  59.0678428  21.5463937  63.2867417  59.3576991  21.8476212
  69.5856330  56.8547289  31.6078162  69.3939527  56.8702424  32.4577585
  70.4354926  57.0510964  31.5844817  69.6832052  56.8861640  31.7301457
  63.9703243  59.3838271  29.5861978  63.8288735  58.5322211  29.7106486
  64.2543806  59.4266931  28.7624184  63.9911089  59.2638021  29.4829602
  74.1241835  61.2205361  23.7306467  73.8776550  61.1401112  24.5643255
  74.4526958  60.4358829  23.5368994  74.1363079  61.0931626  23.8253990
  76.3567969  64.2285096  33.7715629  76.3516008  63.3564912  33.7758056
  77.0628963  64.4273265  33.2985085  76.4612973  64.1288970  33.7022665
  70.0838863  63.9562080  33.1429450  70.2282238  64.5363288  32.5072560
  70.4314511  64.3338376  33.8479304  70.1566324  64.0982784  33.1528445
  72.2558780  63.1552248  30.9254581  71.5082094  63.3483262  30.5202859
  72.4100305  62.3297467  30.6878703  72.1681208  63.0617359  30.8299987
  69.1566618  72.1464851  30.0090476  69.3056181  71.5867767  29.3563881
  69.9366620  72.2256853  30.3922995  69.2940711  72.0750417  29.9687426
  72.4960557  57.0502799  31.8149985  72.9533171  57.7826773  31.9422777
  72.5716886  56.6269264  32.5737241  72.5751527  57.0960037  31.9451061
  64.7393548  57.2968618  32.9039429  64.2035738  56.6848977  33.2200196
  64.8011313  57.8716754  33.5573095  64.6689181  57.2915546  33.0474855
  76.9687883  50.2292674  25.6843828  77.0871451  50.6869137  24.9511131
  76.7950059  49.4237935  25.3980045  76.9607054  50.1786446  25.5344762
  70.3742935  59.0404903  28.6591809  69.5839010  58.8596363  28.9809145
  70.7703558  58.2631855  28.6422103  70.3159811  58.8992363  28.7044357
  75.7586621  66.6747333  26.3851255  75.0831623  66.4432565  26.8864642
  75.7678997  66.0668516  25.7593360  75.6605126  66.5506258  26.3667407
  72.8880765  61.5165162  33.1415308  72.8239906  62.3775118  33.0135445
  73.0277953  61.1997155  32.3410859  72.8996235  61.5965328  33.0043521
  71.5699859  64.2097301  27.2831511  71.1462108  64.4101800  26.5470529
  71.3944714  63.3626149  27.3955811  71.4810740  64.1146082  27.1905201
  66.8582304  64.7049352  22.7159483  67.0146923  64.6396155  23.5715475
  67.1982897  65.4797905  22.5038163  66.9315539  64.8098551  22.8114077
  73.3961449  64.0807236  21.5852847  73.9376994  63.5777617  22.0491467
  73.7108008  64.0272431  20.7742332  73.5225846  63.9986657  21.5336659
  74.5450718  58.9743541  31.6375147  74.7592688  58.3354455  31.0838501
  73.9284617  59.4189364  31.2083009  74.4856047  58.9453684  31.4925578
  63.4316566  61.8884303  23.0320250  63.8115530  62.3068848  22.3680518
  62.8571930  62.4697759  23.3389094  63.4027891  62.0362162  22.9796991
  76.7089806  60.5832606  32.5758454  75.8966488  60.2758496  32.6571627
  77.1679741  60.1031606  33.1401166  76.6570191  60.4669098  32.6713048
  73.9365447  52.0843476  26.6262490  73.0659005  52.0582197  26.5795799
  74.1905788  51.9120668  25.8088335  73.8459007  52.0553620  26.4982627
  73.8043314  61.9892677  37.3587156  74.2742945  62.6134794  37.7455030
  73.8505194  61.3209653  37.9180371  73.8811189  61.9827357  37.4987228
  70.9614587  54.0949705  28.0835960  70.4453076  53.4029896  28.2087539
  70.4008516  54.7620482  28.0298559  70.8021101  54.0912962  28.0942026
  73.0306821  54.6342665  29.9128813  72.6438574  54.6591696  30.6942343
  72.5439758  54.0684343  29.4603329  72.9019330  54.5538416  29.9616716
  72.6963962  51.5209650  32.2039073  73.3257080  52.0569950  31.9260143
  72.8649825  51.4287009  33.0552638  72.8141757  51.5871012  32.2887601
  72.4977877  56.3080845  34.4765484  73.3251307  56.0365994  34.5324099
  72.5185723  57.1041687  34.8329302  72.6230727  56.3860599  34.5380667
  64.5522934  61.0764245  25.4920496  64.1579632  61.1507256  24.7170605
  63.9963051  61.4622191  26.0428857  64.4125746  61.1446019  25.4588155
  76.1887881  54.0545539  25.1724374  76.3937474  53.9867847  26.0181372
  75.8614305  54.8604360  25.1045552  76.1703129  54.1631479  25.2884030
  70.8864032  61.3826107  26.9133342  70.5827170  60.8282095  27.5143750
  70.1843453  61.5618317  26.4261377  70.7380242  61.3270889  26.9303048
  69.9430129  58.6926627  21.4778044  70.2189863  57.9745539  21.0655612
  70.5428798  59.2911547  21.2699150  70.0723394  58.6746997  21.3858805
  68.9482383  68.5975828  31.6205440  68.8402738  68.6077890  32.4867498
  69.1578165  69.4230608  31.4310394  68.9632494  68.7216902  31.7209532
  73.4440650  56.3640144  19.7524639  73.8984396  56.5350704  20.4772484
  73.9180695  55.7508255  19.3522415  73.5808970  56.2991029  19.7998401
  66.9656175  65.8488470  29.0827378  66.3744108  66.4897968  29.0530393
  67.7277199  66.2726087  29.0558677  66.9904436  66.0064308  29.0742525
  67.3616798  57.0090468  29.7495395  67.8218279  57.0829397  30.4870519
  67.4072905  57.8071722  29.3995217  67.4367353  57.1384615  29.8068152
  69.0100148  57.6757163  34.3167423  68.6185713  57.0290510  34.7523200
  69.1786010  58.2668598  34.9361678  68.9771058  57.6671430  34.4730128
  70.7853670  63.0682678  20.8569647  71.5295715  63.4556955  21.0952596
  70.9314366  62.2240104  21.0210134  70.9164255  63.0013151  20.9163616
  72.7033245  54.8632937  25.8901508  71.8569290  55.0355745  25.7642858
  72.7004378  54.0582281  26.2267336  72.5780395  54.7693966  25.9212635
  73.7731545  58.6408152  26.7563566  73.2991500  58.1149914  27.2668877
  74.1449681  58.0937625  26.1878427  73.7581434  58.4824148  26.7478713
  64.1504576  60.6379658  32.1247112  65.0130189  60.5375368  32.0384441
  63.8196359  60.0574368  31.5632684  64.2289772  60.5371285  32.0292517
  75.7015045  59.5344706  19.8189320  75.1738064  59.6173450  19.1295028
  76.1610753  60.2762578  19.8153964  75.6916896  59.6565369  19.7164015
  67.5106362  59.4622107  28.7857530  66.8859432  59.4740499  28.1783483
  67.1751956  59.9382283  29.4348770  67.3691853  59.5340624  28.7914098
  67.6948110  57.8047226  14.8430215  67.3460915  58.4566951  15.3061764
  67.2144556  57.7904339  14.1154086  67.5718354  57.8990279  14.8041306
  64.2232037  67.5222568  30.2261294  63.6931962  66.8315006  30.2756269
  64.4957130  67.5132753  29.3974003  64.1856759  67.4189699  30.1108710
  74.4238283  64.9645812  30.1999666  73.8095276  64.4203862  30.4948301
  74.9405568  64.4510049  29.7205482  74.4093945  64.8082221  30.1723894
  73.6634580  66.0350082  27.9343964  73.2362188  65.4099801  27.5009400
  73.6559524  65.7525004  28.7602972  73.5993721  65.9002863  27.9923792
  66.7797107  61.0715255  31.0032398  66.9390594  60.3158579  31.4084120
  66.5990001  61.6206195  31.6573136  66.7762466  61.0409069  31.1595104
  74.7217410  53.2376491  31.5583188  74.2257971  53.4340165  30.8674754
  75.4786472  53.6369159  31.3871989  74.7604235  53.3254225  31.4303325
  71.9920290  56.9118837  28.1486498  72.0162777  56.3778949  27.4599278
  72.2431763  56.4036146  28.8112089  72.0330208  56.7579741  28.1451143
  59.5027879  64.1950332  27.5829642  59.3971328  64.1497176  26.7181726
  58.7528099  64.5404112  27.8643927  59.3763482  64.2391240  27.4966972
  68.2721612  55.6389655  27.5292243  68.3119983  56.1398862  28.2426950
  67.4471276  55.7300049  27.2598166  68.1561138  55.7271471  27.5942781
  70.4551225  65.2050395  35.6312537  69.6046855  65.3422109  35.7670182
  70.6179352  64.4714173  36.0760239  70.3535088  65.1164496  35.7168136
  69.6935975  62.1550165  29.8266142  68.8627905  62.3223983  29.6201390
  69.6387492  61.7786116  30.6115027  69.5625390  62.1239896  29.9114670
  67.5019758  55.6459058  35.4622552  68.1272462  55.1021190  35.7351985
  67.0470238  55.1653975  34.8930343  67.5268019  55.4948539  35.4184146
  68.0672019  60.4305756  20.3556259  68.2074980  60.9278221  21.0584901
  68.5654552  59.7292051  20.4970473  68.1613100  60.4007735  20.4807838
  68.0972241  61.2972867  17.6848836  68.7317321  61.8933292  17.6198298
  68.1797852  60.9976325  18.4994706  68.2028792  61.3413775  17.7951923
  69.6751224  57.2286843  17.6594278  69.9967065  56.7489925  17.0053540
  69.9378168  58.0386489  17.4685090  69.7617250  57.2776741  17.5349770
  72.9048197  68.2505717  31.1793094  72.3973288  68.8041564  31.6233725
  72.6074843  68.3114007  30.3611869  72.7853082  68.3412028  31.1241551
  75.0710379  56.6159037  30.0217757  75.4965451  56.1631563  29.4101284
  74.4567372  56.0619107  30.2982545  75.0439025  56.4673013  29.9722783
  64.6025229  63.4940708  20.9538382  65.1117459  64.0905216  21.3349688
  65.0759502  63.2266682  20.2714802  64.7468605  63.5426524  20.9092905
  73.5104602  53.0874137  23.4308334  72.8672920  52.9371783  23.9993473
  73.1704009  52.8416482  22.6657439  73.3649679  53.0286259  23.4011349
  78.2632076  57.4989447  25.7628716  78.6159686  57.0719170  26.4374515
  77.4046878  57.4140290  25.8929792  78.1881521  57.4234188  25.8823727
  66.9615761  60.1296967  23.8211563  66.2427750  60.5461099  24.0884426
  67.3328123  60.6951205  23.2703201  66.9107693  60.2746248  23.7794370
  76.2615342  60.7624816  29.7113558  76.2413269  60.5808111  30.5648337
  76.3094543  61.6336834  29.6873142  76.2649983  60.8641354  29.8336853
  74.2061672  67.3512008  35.6362035  74.1657527  66.7061685  35.0507191
  75.0184990  67.2948625  35.9487447  74.3204825  67.2470974  35.5958984
  72.7362335  59.1694967  19.1584942  72.1427175  59.4911963  18.6069509
  72.7737613  58.3236062  18.9506048  72.6536725  59.0919295  19.0467713
  75.6120152  59.1274471  22.5886692  75.3833845  59.1507172  21.7465051
  75.8718228  58.3031938  22.7081703  75.6166340  59.0090551  22.4811890
  69.8939380  60.9808944  32.1911793  69.3818283  60.3730127  32.5496824
  69.7218877  61.6965537  32.6585768  69.7929017  60.9972243  32.3128016
  64.7405095  59.4246519  34.8414154  64.5707685  60.0847894  34.2962361
  64.2971045  59.6353081  35.5626643  64.6504429  59.5532502  34.8675784
  68.6664914  57.6651017  23.8840888  69.1422281  58.0268097  23.2491069
  68.1653514  58.3207485  24.1641031  68.6630273  57.8145206  23.8317629
  73.7708451  58.9033189  34.6314048  74.3279881  58.6746998  33.9992513
  73.4469516  59.6638854  34.3549260  73.8054861  58.9817025  34.4970545
  61.6407160  62.3293385  30.1002644  61.0933879  61.6594031  30.2183512
  62.4299538  61.9623233  30.1646111  61.6759343  62.1758371  30.1271345
  71.4891568  61.9900842  35.5966055  72.2402895  62.3052519  35.9105609
  71.6814144  61.7880013  34.7699977  71.6282982  62.0068224  35.5209451
  70.7091568  59.8092217  17.2514272  71.0890532  59.8271846  16.4665387
  69.9684164  60.2546206  17.1305119  70.6560405  59.8773992  17.1177840
  78.3376858  58.1174408  22.8389851  78.3371085  57.9623065  23.6974127
  78.1333038  58.9637395  22.7831236  78.3076636  58.2195029  22.9577790
  60.3994129  61.5414193  27.2548667  60.2215890  61.0890802  27.9803583
  60.1113151  62.3440354  27.4387145  60.3307082  61.5936751  27.3892170
  76.0617710  62.7971910  26.4926057  76.5571376  62.0794905  26.4530078
  75.2517486  62.4942708  26.3780544  76.0161603  62.6469556  26.4699783
  78.1269529  65.5475598  29.1803186  78.5524601  65.0250019  28.6273611
  77.7626449  66.1456435  28.6591809  78.1356132  65.5585825  29.0212196
  67.7623609  73.8439815  27.9400532  68.0770168  74.6576204  27.9478313
  68.1717022  73.4590034  28.6082691  67.8691707  73.9068518  28.0404623
  74.7148129  69.2609862  25.5104344  75.1859307  69.9750124  25.6794329
  75.0508307  68.6608612  26.0464213  74.8343244  69.2781326  25.6136720
  71.6317623  54.0337332  32.4662439  71.7645529  53.2368326  32.7943414
  72.0162776  54.5603735  33.0460714  71.7073952  53.9937249  32.6005941
  75.3522075  69.0527796  32.2732036  74.8043021  68.4285680  32.0052102
  75.8135104  69.2422068  31.5576116  75.3389284  68.9886846  32.1282467
  74.7049979  50.9567659  29.0643532  73.8995942  50.8465388  29.3811370
  74.5756714  51.0580114  28.2073398  74.5670111  50.9551329  28.9851572
  78.1615939  57.1213151  29.6583229  77.5778928  57.6222357  29.2460796
  78.4820233  56.6142707  29.0247552  78.1229115  57.1204986  29.5041736
  70.7010738  56.0353745  19.9341903  71.5226433  56.2052058  19.6923598
  70.2380389  56.1901006  19.2108201  70.7541901  56.0835478  19.7913548
  69.2906070  54.0296508  30.7140332  69.8350483  53.6887634  31.3044674
  69.3443006  54.8881969  30.8561617  69.3795190  54.1051767  30.8222206
  65.1036629  67.7912924  27.5879140  65.7081486  67.7508758  26.9592961
  64.8963942  68.6384076  27.6183196  65.1625526  67.9100926  27.4995257
  60.3387911  66.7747541  27.4578063  60.2412189  65.9643813  27.7668120
  61.1216781  66.7539334  27.0724331  60.4404048  66.6514631  27.4464926
  36.1940861   6.1314970  12.8892091  36.8378317   6.5728134  13.2788250
  36.5197117   5.3268396  12.8022350  36.3372690   6.0780165  12.9337569
  40.8400237   1.3570333  20.9551763  40.9283583   1.1696473  21.8029973
  41.2689949   0.7107763  20.5556609  40.9162339   1.2333341  21.0223514
  38.4070697   0.6401493  19.9369425  37.8441531   0.2274103  20.4609086
  39.1691720   0.5654399  20.3562568  38.4365145   0.5678894  20.0762425
  40.9520296   0.7879352  23.6195546  41.7360713   0.9010200  23.9851288
  40.7516891  -0.0379511  23.8154232  41.0386322   0.6826072  23.7029932
  35.9319691   2.5287059  16.9430523  36.0809255   1.9689975  16.2903928
  36.7119693   2.6079060  17.3263042  36.0693785   2.4572624  16.9027472
  38.4572992   2.7001702  18.2215014  38.3816663   2.0310512  18.7765802
  38.3862851   3.4019490  18.7355680  38.4353598   2.7046609  18.3791862
  37.8464626   6.1070021  16.6793015  38.3360556   5.4080811  16.4968679
  37.2748858   5.8093891  17.2669072  37.8349156   5.9596245  16.7394056
  35.7235456  -1.0201965  18.5545487  35.6155811  -1.0099903  19.4207545
  35.9331238  -0.1947185  18.3650441  35.7385567  -0.8960890  18.6549579
  43.4998764   1.6819989  13.4499449  43.3018453   2.1710803  12.7555660
  42.8786476   1.8861230  14.0283582  43.3786329   1.7836527  13.4322672
  39.6801270  -1.3672076  18.1133141  39.1726361  -0.8136229  18.5573772
  39.3827916  -1.3063786  17.2951916  39.5606155  -1.2765764  18.0581598
  38.9243756   3.5652483  15.0190148  38.7009410   2.8071312  15.3874174
  38.4353599   3.5950504  14.2970588  38.8187205   3.4574707  14.9666889
  40.9387507   2.9443026  13.2250849  40.5403790   3.0545296  12.4571669
  40.3238726   3.1525092  13.8077409  40.7886396   2.9916594  13.1982149
  34.5376682   4.2262023  14.8740579  34.8523241   5.0398411  14.8818360
  34.9470095   3.8412241  15.5422738  34.6444780   4.2890725  14.9744670
  43.5778186   1.2533383  24.6236463  43.6875152   0.4641943  24.9793210
  43.9069083   1.1639319  23.8210801  43.6430592   1.1239236  24.5578853
  41.6933474   0.4401076  15.7381424  42.5131848   0.2964042  15.9997720
  41.4127552   1.0647275  16.2797862  41.7730218   0.5111428  15.8569364
  51.3646810   7.1841579  13.4577231  50.5084705   7.3450077  13.5086348
  51.4114463   6.3133643  13.4782292  51.2445921   7.0792381  13.4683297
  45.7487949  16.7204297   9.2214463  44.9970849  16.3419835   8.9930508
  46.1973961  16.7522730   8.4733273  45.7037616  16.6689904   9.0771965
  54.6740526  13.4528104  23.0637687  55.3807293  12.9580135  23.1924622
  54.8628462  13.8937186  22.3340345  54.8068432  13.4446455  22.9746733
  51.2012909  17.1429666   4.6500010  50.8664278  17.8206588   4.2144232
  51.7139780  16.7534977   4.0616881  51.2278490  17.1854244   4.4986801
  50.7417200  19.0943935  10.5911121  51.1256580  19.6630834  10.0515897
  50.6776342  18.3693445  10.1116937  50.7890628  19.0719398  10.4404984
  54.2098631   9.2433623  16.1008883  54.7554591   9.9218709  16.1602852
  54.1515507   9.1021084  15.2410464  54.2814545   9.3225624  15.9820943
  47.3272705  16.7322689  11.4877235  47.4283068  15.9223043  11.7974363
  46.7314451  16.6379635  10.8576914  47.2545244  16.5987717  11.4403474
  55.9863699  10.6718230   6.9742611  55.8703225  11.4225916   7.4034749
  56.7819586  10.4142183   7.2238698  56.0868289  10.7453077   7.0746702
  47.1673445  21.6500278  12.8892091  47.8110901  22.0913442  13.2788250
  47.4929701  20.8453704  12.8022350  47.3105274  21.5965473  12.9337569
  40.5237750  12.7542975  11.1129569  40.2887934  11.9210628  11.0061838
  40.6623390  13.0347641  10.2990770  40.5093412  12.6726479  10.9771924
  42.8227837   4.9228706  14.0113877  42.2032869   4.3321353  13.8423891
  42.7211701   5.5140141  13.3778200  42.7165513   4.9232789  13.8918866
  47.8694025  14.6612253   8.2611953  48.1909866  15.2017460   7.6573261
  48.5166121  14.0909024   8.3934243  48.0120080  14.6571428   8.1918988
  49.9195733   6.6628248   8.3446340  50.6175898   6.8416375   8.8367803
  50.2348065   6.1398587   7.7216729  50.0691070   6.6122020   8.3248350
  42.5496970   8.4680988  16.2557446  42.4255667   9.0543433  16.8907264
  43.2015255   7.9741183  16.5569721  42.6270620   8.4819792  16.3943375
  50.1083668  13.0498693   8.3326131  50.5477304  12.4415793   8.7780904
  49.9588331  12.6706066   7.5611596  50.1505134  12.9037164   8.2845299
  47.5755311  11.6442705  15.5344957  48.2204314  11.1515148  15.2155905
  47.8157088  11.7867491  16.3611035  47.7065896  11.5920147  15.6094490
  50.1141403  14.4897611  15.1851849  50.3964645  13.6949016  14.9638605
  50.8427563  14.9678198  15.2056910  50.2630966  14.4432207  15.1554864
  48.0922596   2.0320645  12.4267614  47.7625926   2.4831788  11.7571313
  47.4167598   1.9536808  12.9740621  47.9433033   2.0871780  12.4090838
  53.7093005  11.4025874   5.2856900  53.6244300  12.2586841   5.4306469
  54.1977388  11.1270198   5.9539060  53.7681902  11.4883196   5.4058982
  54.6411438   8.0210668   6.7854636  54.1122909   8.2370302   7.4451942
  55.1636458   8.7146807   6.7055605  54.6399891   8.1553805   6.8710235
  60.0959491  13.5956973  12.1587680  59.2657194  13.8067616  12.3221097
  60.0468743  12.7694027  11.8829964  59.9666226  13.5046579  12.1425045
  42.0855074  17.6328646  12.3885775  41.6022653  18.3579136  12.3645359
  42.8978393  17.9304776  12.4995933  42.1345822  17.7831000  12.4013054
  48.1569228  16.4260827  14.9935590  47.6396170  16.0668242  14.3896898
  48.8543620  15.9023001  15.0041656  48.1834810  16.2958515  14.9065848
  51.8132820  16.8755641  20.9551763  51.9016166  16.6881781  21.8029973
  52.2422533  16.2293071  20.5556609  51.8894923  16.7518649  21.0223514
  49.3803280  16.1586801  19.9369425  48.8174115  15.7459411  20.4609086
  50.1424304  16.0839707  20.3562568  49.4097729  16.0864201  20.0762425
  44.9399272  18.1484822  12.5406055  45.6419851  17.6336811  12.5978811
  44.8596755  18.4758973  13.3452930  45.0323032  18.1199048  12.6678847
  59.5913449   6.2427373  15.9538101  58.7541870   6.3129560  16.1885696
  59.5601680   6.2451868  15.0812404  59.4631732   6.2537600  15.8597649
  45.9878178   8.3860409  21.6686470  46.1598682   8.2766304  22.5171751
  46.5247536   9.0314815  21.4317662  46.0923182   8.4652411  21.7591567
  44.2650047  14.3391174  12.0491663  45.1038947  14.5714107  12.0965425
  44.2961816  13.4695486  11.9798698  44.3931765  14.2448121  12.0456308
  44.8902750  14.7592049  16.3504968  45.4300975  14.6163180  17.0208341
  44.2072696  15.1588800  16.7188995  44.8694904  14.7971720  16.5039390
  54.3143635  10.4383050  11.5449993  55.0701150  10.8714564  11.5838902
  54.4205959   9.7887820  12.1184629  54.4413806  10.4060534  11.6348018
  57.3523806  14.2656327  12.2952396  56.9159038  14.2693070  13.0511367
  57.0186722  14.9461826  11.8631973  57.2386426  14.3668783  12.3433228
  51.9252880  16.3064660  23.6195546  52.7093296  16.4195508  23.9851288
  51.7249474  15.4805797  23.8154232  52.0118905  16.2011379  23.7029932
  40.2939895  10.9792340  16.5039390  40.0278310  10.1631457  16.6630380
  40.3078459  11.0245496  15.6334906  40.2564618  10.8649245  16.3992872
  45.0438502   4.5170718  19.1506398  44.3510298   4.0467698  19.3967129
  45.6598829   4.2909023  19.7248105  45.0323031   4.4137850  19.2715550
  52.0823273  18.2174762  17.2662002  51.2838519  17.9774262  17.5235870
  52.5309285  18.2689155  18.0129049  52.0297884  18.1897153  17.4146926
  60.4868152  10.9837247  11.1872033  61.1484586  10.4227916  11.0867941
  59.8459564  10.4889278  11.5124724  60.4897020  10.8273656  11.2204373
  51.3744960  14.2807378   3.4952956  51.7896109  13.9492402   2.8037452
  50.5436890  14.0476281   3.3673093  51.3132969  14.1978634   3.3743804
  40.7033309  11.7651120  13.7851134  40.5208882  11.7398006  12.9323426
  41.4382978  12.2350057  13.8240043  40.7847373  11.8312482  13.6649053
  56.7732983  12.0002629  10.9284022  57.0088572  12.1447828  10.1010872
  56.9222547  12.7645038  11.3215535  56.8298786  12.1341684  10.8647626
  43.7679061   8.4836122  20.2933243  44.4919033   8.4689153  20.7798138
  43.8695197   9.1931478  19.7955211  43.8897270   8.5860826  20.2912030
  58.6023440  10.8404295   8.7653626  58.9331657  11.3731936   8.1593720
  59.1756528  10.8943183   9.4215577  58.7357119  10.9273864   8.7731407
  51.1424010  11.9635207  25.1582190  50.3496991  12.2778719  25.3434810
  51.2572937  12.1786675  24.3202975  51.0419420  12.0419044  25.0620525
  53.8155329   8.6869198   9.4477206  53.9102183   9.4258492   9.9016831
  53.1914172   8.2586674   9.8811770  53.7364359   8.7330519   9.5785353
  52.0707803  11.8655411  20.0967487  52.6446664  11.2282655  20.2516051
  51.9922606  11.8659493  19.2277144  52.1441038  11.7720522  19.9913898
  40.6704219   8.6444620  13.9350201  41.2477722   8.5081071  14.5742446
  39.9718281   8.1880404  14.1895785  40.6525241   8.5566886  14.0672491
  47.4271521  10.2978676  12.1488684  47.1690766   9.4650411  12.1219984
  47.4820004  10.5236289  11.3081184  47.3971299  10.2076447  12.0208821
  46.4006234   7.8516438  12.6353579  45.8255825   8.0108607  13.2717540
  46.0241910   7.2151847  12.1722029  46.2609046   7.7814251  12.6608137
  50.0679522   6.3239788  17.4945957  49.6793955   5.8994005  16.8398148
  49.4034221   6.5721937  18.0022984  49.9126450   6.2978509  17.4733825
  51.1718460  10.5538392   5.6922764  51.9859099  10.8453285   5.5805536
  51.1077602   9.8998255   5.1181057  51.2821199  10.5003587   5.5911602
  57.3927951  13.2364388  20.1052340  57.1566588  12.4052453  19.9864400
  58.0371180  13.1849996  20.6907184  57.4522621  13.1062076  20.1738233
  47.0426369  14.0259910  10.8195076  47.6800316  13.7871657  11.3646870
  47.4681440  14.2297069  10.0848237  47.2002535  14.0210920  10.7912234
  41.7339011  16.2648246  14.7029380  41.7743156  16.5363097  13.8749160
  42.2933535  16.7890154  15.1187168  41.8222357  16.3824001  14.6421268
  47.8497724   2.5268615  24.8732550  47.5351165   3.2968177  24.6102113
  47.5287657   1.9638871  24.2884777  47.7556643   2.5578883  24.7473900
  58.4164371  13.0208837  16.1680634  58.1110188  13.7536894  16.5293950
  57.6970587  12.6146767  15.8873420  58.2651713  13.0690570  16.1793771
  49.4247841  14.5032332  12.4988863  49.4986849  14.3407504  13.3530712
  50.2417347  14.6922522  12.2549344  49.5564199  14.5069075  12.5886888
  64.1166163   9.6601838  15.4948979  64.0490664   9.6797797  14.6251565
  64.1021826  10.5032165  15.7204649  64.1044920   9.7875572  15.4001455
  43.1853597  14.8490195   9.5283306  42.3591715  15.0951932   9.4017585
  43.2465589  14.7702276  10.3945364  43.0727764  14.8735144   9.6372250
  47.9652426  17.4667075   7.2302336  48.2550725  17.0756057   6.5061563
  48.6955907  17.6483780   7.6707611  48.1159311  17.4360889   7.1885143
  61.9024781   8.4346224  13.7695573  62.4532702   7.8014293  14.0092665
  61.8868896   8.9661617  14.4611077  61.9809977   8.4195172  13.9074431
  48.5547172  12.2684821  18.3155466  48.0558865  12.9800589  18.3940355
  49.3647396  12.5885488  18.2773629  48.6003278  12.4211670  18.3212035
  45.9058342  19.4434458  10.2962486  45.6858637  19.1531812  11.0889153
  45.6852864  18.7849413   9.7680398  45.8405936  19.3034166  10.3351394
  44.8175289  11.5307774  12.5618187  44.5288538  10.9045246  13.0963915
  45.6858637  11.4728062  12.6282868  44.9035541  11.4295318  12.6509142
  55.6053187   6.6742558  12.8800169  55.2617953   5.9532893  13.2307419
  55.7046229   6.4656409  12.0378527  55.5695230   6.5366761  12.8071849
  48.0726298  20.8163848   9.0793178  48.7250356  20.2840290   9.3084204
  47.3751906  20.4632500   9.4661052  48.0657016  20.6853371   9.1705346
  45.0207562  13.1703025   8.4860552  45.7753530  13.5516064   8.6996015
  44.4278175  13.6214169   8.9407249  45.0444276  13.2931853   8.5843431
  56.0666216  13.1368262   8.4224157  56.6324249  13.7961472   8.3382700
  55.4194119  13.4817960   8.8940559  56.0544972  13.2850203   8.4796914
  47.4814230   5.1265866  23.6117765  46.6714005   5.4323645  23.5007607
  47.9588916   5.8471448  23.7270349  47.4317708   5.2780467  23.6124836
  46.3405789  14.3411587  13.8600668  45.8186543  14.4811878  14.5452532
  46.7279809  13.5822251  14.0502785  46.3209490  14.2497110  13.9901744
  52.5372794  16.0807046   7.8461237  52.2959470  15.3474907   7.4388301
  52.7174127  16.6293903   7.1927570  52.5280418  16.0529437   7.6891459
  47.7672115  11.3715606   9.2582159  47.5714897  11.9790340   8.6642462
  47.9906460  10.6783550   8.7773833  47.7706756  11.3593131   9.0998240
  46.1650645   8.2570344   9.3763027  46.8873297   8.4211502   8.9166833
  45.6858637   8.9780008   9.2702367  46.2014375   8.3868573   9.2928641
  54.1244152   4.5934142  14.7559712  53.2855253   4.6195421  14.5197975
  54.1948520   5.2404878  15.3365059  54.0112546   4.6930268  14.8068829
  43.8158261  10.6628416  18.4817167  44.3279358  10.9412669  17.8325927
  43.5294604  11.4017710  18.8479980  43.8493125  10.8130770  18.4407045
  58.0001676   9.8002129  12.0420954  57.9135651   9.9557555  12.8955733
  57.5452156  10.4440205  11.6680359  57.9204933   9.9177884  12.1128061
  47.3341987   2.7554805  18.5418209  47.1425184   2.7709939  19.3917632
  48.1840583   2.9518479  18.5184863  47.4317709   2.7869156  18.6641503
  41.7188900   5.2845786  16.5202025  41.5774392   4.4329727  16.6446533
  42.0029463   5.3274447  15.6964231  41.7396746   5.1645536  16.4169649
  51.8727492   7.1212876  10.6646513  51.6262206   7.0408627  11.4983302
  52.2012615   6.3366344  10.4709041  51.8848736   6.9939142  10.7594036
  55.7675541  13.8296236  14.4533295  55.6289900  14.5277281  14.9582037
  54.9875539  13.6744892  14.0969476  55.6318768  13.9096402  14.4759569
  54.1053626  10.1292611  20.7055676  54.1001665   9.2572428  20.7098103
  54.8114620  10.3280780  20.2325132  54.2098630  10.0296485  20.6362712
  47.8324519   9.8569595  20.0769496  47.9767895  10.4370803  19.4412606
  48.1800168  10.2345892  20.7819351  47.9051981   9.9990299  20.0868491
  50.0044437   9.0559763  17.8594628  49.2567751   9.2490778  17.4542906
  50.1585962   8.2304983  17.6218749  49.9166864   8.9624875  17.7640034
  46.9052274  18.0472367  16.9430523  47.0541838  17.4875283  16.2903928
  47.6852277  18.1264368  17.3263042  47.0426368  17.9757932  16.9027472
  49.4305575  18.2187010  18.2215014  49.3549246  17.5495820  18.7765802
  49.3595434  18.9204798  18.7355680  49.4086182  18.2231917  18.3791862
  50.2446214   2.9510314  18.7490032  50.7018828   3.6834288  18.8762824
  50.3202543   2.5276779  19.5077288  50.3237184   2.9967552  18.8791108
  42.4879205   3.1976134  19.8379475  41.9521395   2.5856492  20.1540243
  42.5496970   3.7724270  20.4913142  42.4174838   3.1923061  19.9814902
  50.0875822  16.7388008   9.0538620  50.8525713  16.4697652   8.7321284
  49.9853912  16.2538019   9.7708683  50.1857317  16.6277573   9.1118448
  48.1228592   4.9412418  15.5931856  47.3324667   4.7603878  15.9149192
  48.5189215   4.1639370  15.5762150  48.0645468   4.7999879  15.6384404
  53.5072278  12.5754848  13.3191302  52.8317280  12.3440080  13.8204689
  53.5164654  11.9676031  12.6933407  53.4090783  12.4513773  13.3007454
  50.6366422   7.4172677  20.0755355  50.5725563   8.2782633  19.9475491
  50.7763610   7.1004670  19.2750906  50.6481892   7.4972844  19.9383568
  55.5089013  15.4319980   5.5501480  55.5908850  16.2386967   5.2262931
  55.9938755  15.4515940   6.2742253  55.5926171  15.5540643   5.6088378
  49.3185516  10.1104816  14.2171558  48.8947765  10.3109315  13.4810576
  49.1430371   9.2633664  14.3295857  49.2296397  10.0153598  14.1245248
  48.8197209  21.6255329  16.6793015  49.3093140  20.9266119  16.4968679
  48.2481442  21.3279199  17.2669072  48.8081739  21.4781553  16.7394056
  44.6067961  10.6056868   9.6499530  44.7632580  10.5403671  10.5055522
  44.9468554  11.3805420   9.4378210  44.6801196  10.7106066   9.7454124
  51.1447106   9.9814751   8.5192893  51.6862651   9.4785132   8.9831514
  51.4593665   9.9279946   7.7082379  51.2711503   9.8994172   8.4676705
  55.0164213  14.1917399  25.6319806  55.8299078  13.9202548  25.7924938
  54.8559179  13.8924939  24.8280001  55.1134161  14.1072325  25.5365211
  49.3133555  15.3732103   5.8032921  49.3826376  14.5146641   5.9425922
  50.0922010  15.5903984   5.4751946  49.4386405  15.2784967   5.7750079
  52.2936375   4.8751056  18.5715194  52.5078344   4.2361970  18.0178548
  51.6770274   5.3196880  18.1423056  52.2341704   4.8461200  18.4265625
  53.7041043  17.7969804  10.0169415  53.3120835  17.4936519   9.2992281
  53.8594115  18.6338894   9.8274368  53.6694633  17.8753641   9.8825912
  41.1802222   7.7891818   9.9660297  41.5601187   8.2076363   9.3020565
  40.6057587   8.3705274  10.2729141  41.1513547   7.9369677   9.9137038
  54.4575463   6.4840121  19.5098501  53.6452145   6.1766011  19.5911674
  54.9165398   6.0039121  20.0741213  54.4055848   6.3676613  19.6053095
  53.8680718  14.3619793   9.9575445  53.5095372  14.5334436  10.7339478
  53.3819428  14.8232999   9.4003444  53.7439414  14.4558764   9.9900714
  51.5528970   7.8900192  24.2927203  52.0228602   8.5142309  24.6795077
  51.5990851   7.2217168  24.8520418  51.6296846   7.8834873  24.4327275
  55.0285457  15.2523689  20.9042646  55.6665177  14.7583885  20.5705102
  54.3859549  15.1801089  20.3194873  55.0279683  15.1682697  20.7685001
  56.7542457   7.1012835  15.4708562  56.3270065   7.0139184  14.7156661
  56.1168510   7.2090610  16.0563406  56.5972064   7.1045495  15.4454003
  55.0839714  15.9443497  17.5448003  55.8732092  15.5932562  17.6650084
  55.2583311  16.7579886  17.2824637  55.2259995  16.0129354  17.5235871
  44.8233024   9.3552223  14.5975792  43.9821031   9.2556097  14.8054686
  45.0323032  10.1247703  14.9490112  44.7297717   9.4544266  14.6803107
  42.3008591   6.9771760  12.4260542  41.9065289   7.0514772  11.6510652
  41.7448708   7.3629706  12.9768904  42.1611403   7.0453535  12.3928202
  48.6349689   7.2833622  13.8473389  48.3312826   6.7289610  14.4483797
  47.9329110   7.4625832  13.3601423  48.4865899   7.2278405  13.8643095
  46.6968040  14.4983343  18.5545487  46.5888395  14.5085405  19.4207545
  46.9063821  15.3238123  18.3650441  46.7118151  14.6224418  18.6549579
  44.7141832  11.7495985  16.0167425  44.1229765  12.3905483  15.9870440
  45.4762855  12.1733603  15.9898724  44.7390092  11.9071824  16.0082572
  45.1102455   2.9097983  16.6835442  45.5703936   2.9836912  17.4210566
  45.1558561   3.7079237  16.3335264  45.1853010   3.0392130  16.7408199
  46.7585804   3.5764678  21.2507469  46.3671369   2.9298025  21.6863247
  46.9271667   4.1676113  21.8701725  46.7256715   3.5678946  21.4070175
  60.8332253  11.5801755  17.0144703  60.8915377  12.0288404  17.7604679
  60.1998721  11.9900568  16.5774783  60.7483548  11.7075490  17.0597251
  54.4731348  17.2005297  13.4499449  54.2751037  17.6896111  12.7555660
  53.8519059  17.4046538  14.0283582  54.3518913  17.3021835  13.4322672
  48.5339326   8.9690194   7.7909693  49.2781371   9.3564470   8.0292643
  48.6800023   8.1247619   7.9550181  48.6649912   8.9020667   7.8503663
  51.5217202   4.5415667  13.6903613  51.0477157   4.0157429  14.2008924
  51.8935338   3.9945140  13.1218474  51.5067091   4.3831664  13.6818760
  41.8990232   6.5387174  19.0587158  42.7615845   6.4382883  18.9724488
  41.5682015   5.9581883  18.4972731  41.9775429   6.4378800  18.9632564
  57.7853933   9.6018043  15.1010393  57.5452156   8.7624458  15.1052820
  58.2645940   9.6818209  15.8251167  57.8206117   9.4899442  15.2085196
  59.7859120   6.3819500  13.0539652  59.5468890   6.3415334  12.2160437
  59.9493021   7.2290652  13.1805373  59.7749423   6.5011585  12.9493134
  56.3905150  10.7669449  18.9844697  57.1139349  10.3141976  18.8055717
  56.1255112  11.0474115  18.2017025  56.4586423  10.7420418  18.8423413
  45.2592018   5.3629623  15.7197577  44.6345089   5.3748015  15.1123529
  44.9237613   5.8389798  16.3688817  45.1177510   5.4348140  15.7254145
  41.9717694  13.4230083  17.1601341  41.4417618  12.7322522  17.2096316
  42.2442787  13.4140268  16.3314049  41.9342416  13.3197215  17.0448757
  53.0037784  14.0055785   5.8839024  53.7271983  14.4713898   5.7403597
  52.5638375  14.0729395   5.1336621  53.0453477  14.0839622   5.7523805
  52.1723939  10.8653327  17.1339713  51.5580933  10.3211378  17.4288348
  52.6891224  10.3517564  16.6545529  52.1579602  10.7089736  17.1063941
  51.4120237  11.9357597  14.8684011  50.9847845  11.3107316  14.4349447
  51.4045181  11.6532519  15.6943018  51.3479378  11.8010378  14.9263839
  44.5282764   6.9722771  17.9372445  44.6876250   6.2166095  18.3424167
  44.3475657   7.5213710  18.5913183  44.5248123   6.9416584  18.0935151
  49.7405946   2.8126352  15.0826545  49.7648434   2.2786464  14.3939325
  49.9917420   2.3043661  15.7452136  49.7815865   2.6587256  15.0791190
  37.2513536  10.0957847  14.5169689  37.1456985  10.0504691  13.6521773
  36.5013756  10.4411628  14.7983974  37.1249139  10.1398755  14.4307019
  46.0207269   1.5397170  14.4632289  46.0605640   2.0406377  15.1766997
  45.1956933   1.6307564  14.1938213  45.9046795   1.6278987  14.5282828
  48.2036881  11.1057910  22.5652584  47.3532512  11.2429624  22.7010229
  48.3665009  10.3721688  23.0100286  48.1020745  11.0172011  22.6508183
  47.4421632   8.0557680  16.7606188  46.6113562   8.2231498  16.5541437
  47.3873149   7.6793631  17.5455074  47.3111047   8.0247411  16.8454717
  45.2505415   1.5466573  22.3962599  45.8758119   1.0028706  22.6692031
  44.7955895   1.0661491  21.8270390  45.2753676   1.3956054  22.3524193
  58.8240464   9.7295860  17.4875247  59.4158304  10.3693111  17.5193445
  59.2599458   9.0318897  17.7767314  58.9758895   9.7214210  17.5356080
  50.6533854  14.1513232  18.1133141  50.1458945  14.7049079  18.5573772
  50.3560500  14.2121522  17.2951916  50.5338739  14.2419544  18.0581598
  53.2641634  18.0676490   6.0437085  52.5470944  17.8937352   5.5784322
  53.9148372  17.8329062   5.5112571  53.2543485  18.0072283   5.8966302
  55.8489605   6.9441079   9.7878390  55.1780795   7.4870781   9.6591455
  56.5429356   7.4135934   9.5460084  55.8518473   7.0939350   9.7333917
  49.8976339  19.0837791  15.0190148  49.6741994  18.3256620  15.3874174
  49.4086182  19.1135812  14.2970588  49.7919788  18.9760015  14.9666889
  44.7101418   6.0304482  10.7551609  43.9913407   6.4468615  11.0224473
  45.0813780   6.5958721  10.2043248  44.6593350   6.1753763  10.7134416
  54.0100999   6.6632331  16.6453605  53.9898926   6.4815626  17.4988384
  54.0580199   7.5344349  16.6213189  54.0135640   6.7648869  16.7676900
  51.9547328  13.2519523  22.5702082  51.9143183  12.6069200  21.9847238
  52.7670647  13.1956140  22.8827494  52.0690482  13.1478490  22.5299031
  48.5454796  19.3038249  12.4727233  48.1315195  18.6412379  12.0831074
  49.2302170  19.4516108  11.9522927  48.5853168  19.2278907  12.3383730
  51.9120090  18.4628334  13.2250849  51.5136373  18.5730604  12.4571669
  51.2971310  18.6710400  13.8077409  51.7618979  18.5101902  13.1982149
  53.3605809   5.0281986   9.5226739  53.1319502   5.0514688   8.6805097
  53.6203885   4.2039453   9.6421750  53.3651997   4.9098066   9.4151937
  47.6425037   6.8816459  19.1251839  47.1303940   6.2737642  19.4836871
  47.4704533   7.5973052  19.5925815  47.5414674   6.8979759  19.2468063
  42.4890752   5.3254035  21.7754201  42.3193342   5.9855410  21.2302408
  42.0456702   5.5360596  22.4966690  42.3990085   5.4540017  21.8015831
  51.5194108   4.8040704  21.5654095  52.0765538   4.5754514  20.9332560
  51.1955173   5.5646370  21.2889307  51.5540518   4.8824541  21.4310592
  39.3892816   8.2300900  17.0342691  38.8419536   7.5601546  17.1523559
  40.1785195   7.8630748  17.0986158  39.4245000   8.0765887  17.0611392
  49.2377225   7.8908357  22.5306102  49.9888552   8.2060034  22.8445656
  49.4299801   7.6887528  21.7040024  49.3768639   7.9075739  22.4549498
  38.1479786   7.4421708  14.1888714  37.9701547   6.9898317  14.9143630
  37.8598808   8.2447869  14.3727192  38.0792739   7.4944266  14.3232217
  53.8103367   8.6979425  13.4266104  54.3057032   7.9802420  13.3870125
  53.0003143   8.3950223  13.3120591  53.7647260   8.5477072  13.4039830
  49.2561978  12.5477239   5.5763109  48.4473301  12.2243912   5.5296418
  49.7636887  11.8410461   5.5091357  49.2111645  12.3958555   5.5593403
  39.8852256   9.9749432  11.3010473  39.0197775   9.9635122  11.1893244
  39.9851072   9.7879655  12.1481612  39.7726423   9.9455493  11.4099417
  55.8755186  11.4483113  16.1143233  56.3010257  10.9257535  15.5613658
  55.5112106  12.0463950  15.5931856  55.8841788  11.4593340  15.9552243
  45.5109266  19.7447330  14.8740579  45.8255825  20.5583719  14.8818360
  45.9202679  19.3597549  15.5422738  45.6177364  19.8076033  14.9744670
  52.4633785  15.1617377  12.4444391  52.9344963  15.8757640  12.6134376
  52.7993964  14.5616127  12.9804260  52.5828900  15.1788841  12.5476766
  54.5510770  16.7718691  24.6236463  54.6607735  15.9827251  24.9793210
  54.8801666  16.6824627  23.8210801  54.6163176  16.6424544  24.5578853
  53.1007732  14.9535311  19.2072083  52.5528678  14.3293195  18.9392148
  53.5620760  15.1429583  18.4916163  53.0874941  14.8894362  19.0622514
  42.8522286  13.6920439  14.5219187  43.4567143  13.6516273  13.8933008
  42.6449598  14.5391591  14.5523243  42.9111183  13.8108441  14.4335303
  52.6666058  15.9586384  15.7381424  53.4864432  15.8149350  15.9997720
  52.3860136  16.5832583  16.2797862  52.7462801  16.0296736  15.8569364
  38.0873568  12.6755056  14.3918110  37.9897846  11.8651328  14.7008167
  38.8702438  12.6546850  14.0064378  38.1889705  12.5522147  14.3804973
  62.3379393  22.7026887  13.4577231  61.4817289  22.8635385  13.5086348
  62.3847047  21.8318951  13.4782292  62.2178505  22.5977689  13.4683297
  56.7220533  32.2389605   9.2214463  55.9703432  31.8605143   8.9930508
  57.1706545  32.2708038   8.4733273  56.6770200  32.1875212   9.0771965
  65.6473110  28.9713412  23.0637687  66.3539877  28.4765443  23.1924622
  65.8361045  29.4122494  22.3340345  65.7801015  28.9631763  22.9746733
  62.1745493  32.6614974   4.6500010  61.8396861  33.3391896   4.2144232
  62.6872363  32.2720285   4.0616881  62.2011074  32.7039552   4.4986801
  61.7149784  34.6129243  10.5911121  62.0989163  35.1816141  10.0515897
  61.6508925  33.8878753  10.1116937  61.7623211  34.5904706  10.4404984
  65.1831214  24.7618931  16.1008883  65.7287174  25.4404017  16.1602852
  65.1248090  24.6206392  15.2410464  65.2547129  24.8410932  15.9820943
  58.3005289  32.2507997  11.4877235  58.4015652  31.4408351  11.7974363
  57.7047034  32.1564943  10.8576914  58.2277828  32.1173025  11.4403474
  66.9596283  26.1903538   6.9742611  66.8435809  26.9411224   7.4034749
  67.7552170  25.9327491   7.2238698  67.0600872  26.2638385   7.0746702
  58.1406029  37.1685586  12.8892091  58.7843484  37.6098750  13.2788250
  58.4662284  36.3639012  12.8022350  58.2837857  37.1150781  12.9337569
  51.4970333  28.2728283  11.1129569  51.2620518  27.4395936  11.0061838
  51.6355974  28.5532949  10.2990770  51.4825996  28.1911787  10.9771924
  53.7960421  20.4414014  14.0113877  53.1765452  19.8506661  13.8423891
  53.6944284  21.0325449  13.3778200  53.6898096  20.4418096  13.8918866
  58.8426608  30.1797561   8.2611953  59.1642449  30.7202768   7.6573261
  59.4898705  29.6094332   8.3934243  58.9852664  30.1756736   8.1918988
  60.8928316  22.1813556   8.3446340  61.5908481  22.3601683   8.8367803
  61.2080649  21.6583895   7.7216729  61.0423654  22.1307328   8.3248350
  53.5229554  23.9866296  16.2557446  53.3988251  24.5728741  16.8907264
  54.1747838  23.4926491  16.5569721  53.6003203  24.0005100  16.3943375
  61.0816252  28.5684001   8.3326131  61.5209887  27.9601101   8.7780904
  60.9320915  28.1891374   7.5611596  61.1237717  28.4222472   8.2845299
  58.5487895  27.1628013  15.5344957  59.1936897  26.6700456  15.2155905
  58.7889672  27.3052799  16.3611035  58.6798480  27.1105455  15.6094490
  61.0873986  30.0082918  15.1851849  61.3697229  29.2134324  14.9638605
  61.8160147  30.4863506  15.2056910  61.2363550  29.9617515  15.1554864
  59.0655180  17.5505952  12.4267614  58.7358510  18.0017096  11.7571313
  58.3900182  17.4722116  12.9740621  58.9165616  17.6057088  12.4090838
  64.6825588  26.9211182   5.2856900  64.5976883  27.7772149   5.4306469
  65.1709972  26.6455506   5.9539060  64.7414486  27.0068503   5.4058982
  65.6144022  23.5395976   6.7854636  65.0855493  23.7555610   7.4451942
  66.1369042  24.2332115   6.7055605  65.6132475  23.6739113   6.8710235
  71.0692074  29.1142281  12.1587680  70.2389778  29.3252924  12.3221097
  71.0201327  28.2879335  11.8829964  70.9398810  29.0231887  12.1425045
  57.5043629  27.4359193   5.5862103  56.9200845  27.9409224   5.9927967
  57.1013725  27.2101580   4.8458695  57.3582933  27.4767441   5.5367129
  53.0587658  33.1513954  12.3885775  52.5755236  33.8764444  12.3645359
  53.8710976  33.4490084  12.4995933  53.1078406  33.3016308  12.4013054
  59.1301812  31.9446135  14.9935590  58.6128754  31.5853550  14.3896898
  59.8276203  31.4208309  15.0041656  59.1567393  31.8143823  14.9065848
  62.7865404  32.3940949  20.9551763  62.8748750  32.2067089  21.8029973
  63.2155117  31.7478378  20.5556609  62.8627506  32.2703957  21.0223514
  60.3535864  31.6772109  19.9369425  59.7906699  31.2644719  20.4609086
  61.1156887  31.6025015  20.3562568  60.3830312  31.6049509  20.0762425
  57.2711134  15.6118241   7.9090562  58.0257102  15.9796558   7.6707612
  57.0938669  15.9857795   8.6769742  57.3565612  15.7216429   7.9875451
  55.9131855  33.6670130  12.5406055  56.6152435  33.1522119  12.5978811
  55.8329338  33.9944281  13.3452930  56.0055616  33.6384356  12.6678847
  70.5646033  21.7612681  15.9538101  69.7274454  21.8314868  16.1885696
  70.5334264  21.7637176  15.0812404  70.4364315  21.7722908  15.8597649
  56.9610762  23.9045717  21.6686470  57.1331266  23.7951612  22.5171751
  57.4980119  24.5500122  21.4317662  57.0655766  23.9837719  21.7591567
  55.6268199  18.0188560   4.6068675  55.4443772  18.2360441   3.7809668
  56.4893812  18.1327573   4.6627289  55.7272788  18.0678458   4.4923162
  55.2382631  29.8576482  12.0491663  56.0771530  30.0899415  12.0965425
  55.2694400  28.9880793  11.9798698  55.3664348  29.7633428  12.0456308
  55.8635334  30.2777357  16.3504968  56.4033559  30.1348488  17.0208341
  55.1805280  30.6774108  16.7188995  55.8427488  30.3157028  16.5039390
  65.2876219  25.9568358  11.5449993  66.0433734  26.3899872  11.5838902
  65.3938543  25.3073128  12.1184629  65.4146389  25.9245842  11.6348018
  68.3256390  29.7841635  12.2952396  67.8891622  29.7878378  13.0511367
  67.9919305  30.4647134  11.8631973  68.2119010  29.8854091  12.3433228
  62.8985463  31.8249968  23.6195546  63.6825880  31.9380816  23.9851288
  62.6982058  30.9991105  23.8154232  62.9851489  31.7196687  23.7029932
  51.2672479  26.4977648  16.5039390  51.0010894  25.6816765  16.6630380
  51.2811043  26.5430804  15.6334906  51.2297201  26.3834553  16.3992872
  68.2453873  16.8255463  14.5381824  68.8879781  16.8953568  15.1243739
  68.4976893  16.1584686  14.0361366  68.3776005  16.7381812  14.5509103
  55.1730226  21.2962732   3.1191148  54.4588403  21.0100912   3.5313581
  55.6574194  21.6359358   3.7597536  55.1389589  21.3044382   3.2746783
  56.0171085  20.0356026  19.1506398  55.3242882  19.5653006  19.3967129
  56.6331412  19.8094331  19.7248105  56.0055615  19.9323158  19.2715550
  63.0555857  33.7360070  17.2662002  62.2571102  33.4959570  17.5235870
  63.5041868  33.7874463  18.0129049  63.0030468  33.7082461  17.4146926
  71.4600736  26.5022555  11.1872033  72.1217170  25.9413223  11.0867941
  70.8192148  26.0074586  11.5124724  71.4629603  26.3458964  11.2204373
  62.3477544  29.7992686   3.4952956  62.7628692  29.4677710   2.8037452
  61.5169473  29.5661589   3.3673093  62.2865552  29.7163942   3.3743804
  51.6765892  27.2836427  13.7851134  51.4941466  27.2583313  12.9323426
  52.4115561  27.7535365  13.8240043  51.7579956  27.3497790  13.6649053
  67.7465567  27.5187937  10.9284022  67.9821156  27.6633136  10.1010872
  67.8955130  28.2830345  11.3215535  67.8031370  27.6526992  10.8647626
  54.7411644  24.0021430  20.2933243  55.4651616  23.9874461  20.7798138
  54.8427781  24.7116786  19.7955211  54.8629853  24.1046134  20.2912030
  69.5756023  26.3589603   8.7653626  69.9064240  26.8917243   8.1593720
  70.1489111  26.4128491   9.4215577  69.7089702  26.4459172   8.7731407
  62.1156594  27.4820515  25.1582190  61.3229574  27.7964027  25.3434810
  62.2305521  27.6971983  24.3202975  62.0152004  27.5604352  25.0620525
  64.7887912  24.2054506   9.4477206  64.8834767  24.9443800   9.9016831
  64.1646756  23.7771982   9.8811770  64.7096943  24.2515827   9.5785353
  63.0440386  27.3840719  20.0967487  63.6179248  26.7467963  20.2516051
  62.9655190  27.3844801  19.2277144  63.1173621  27.2905830  19.9913898
  51.6436803  24.1629928  13.9350201  52.2210305  24.0266379  14.5742446
  50.9450864  23.7065712  14.1895785  51.6257824  24.0752194  14.0672491
  58.4004105  25.8163984  12.1488684  58.1423349  24.9835719  12.1219984
  58.4552588  26.0421597  11.3081184  58.3703883  25.7261755  12.0208821
  63.4805155  17.9192434  12.2492777  62.7761482  17.4301620  12.4076696
  63.5290129  17.9314909  11.3781221  63.3835207  17.8482082  12.1432117
  57.3738817  23.3701746  12.6353579  56.7988408  23.5293915  13.2717540
  56.9974493  22.7337155  12.1722029  57.2341629  23.2999559  12.6608137
  61.0412106  21.8425096  17.4945957  60.6526538  21.4179313  16.8398148
  60.3766804  22.0907245  18.0022984  60.8859034  21.8163817  17.4733825
  47.1195636  23.0141821  10.6498019  47.2055888  22.6373689  11.4311549
  47.7471433  22.6402267  10.1717978  47.2252187  22.9027303  10.6943497
  64.8638467  15.5399724  15.0069941  65.2448979  14.8577895  15.3937816
  64.0601752  15.2509326  14.8245606  64.8014929  15.3966773  15.0373997
  62.1451044  26.0723700   5.6922764  62.9591683  26.3638593   5.5805536
  62.0810185  25.4183562   5.1181057  62.2553783  26.0188895   5.5911602
  68.3660534  28.7549696  20.1052340  68.1299172  27.9237761  19.9864400
  69.0103763  28.7035303  20.6907184  68.4255205  28.6247384  20.1738233
  58.0158952  29.5445218  10.8195076  58.6532899  29.3056965  11.3646870
  58.4414024  29.7482376  10.0848237  58.1735118  29.5396228  10.7912234
  52.7071595  31.7833554  14.7029380  52.7475740  32.0548405  13.8749160
  53.2666119  32.3075462  15.1187168  52.7954941  31.9009309  14.6421268
  58.6561767  24.7647507   5.1569966  59.0406920  24.5455214   5.9086511
  58.4073388  25.5910453   5.2871042  58.6763840  24.8545654   5.2871042
  58.8230308  18.0453923  24.8732550  58.5083749  18.8153485  24.6102113
  58.5020240  17.4824179  24.2884777  58.7289227  18.0764191  24.7473900
  69.3896955  28.5394145  16.1680634  69.0842772  29.2722202  16.5293950
  68.6703170  28.1332075  15.8873420  69.2384297  28.5875878  16.1793771
  60.3980424  30.0217640  12.4988863  60.4719432  29.8592812  13.3530712
  61.2149931  30.2107830  12.2549344  60.5296783  30.0254383  12.5886888
  75.0898747  25.1787146  15.4948979  75.0223247  25.1983105  14.6251565
  75.0754409  26.0217473  15.7204649  75.0777503  25.3060880  15.4001455
  54.1586181  30.3675503   9.5283306  53.3324299  30.6137240   9.4017585
  54.2198172  30.2887584  10.3945364  54.0460348  30.3920452   9.6372250
  56.3762205  16.4344444  10.4878746  55.5084630  16.5067044  10.5536355
  56.6637409  17.2366523  10.6766721  56.2901953  16.5638591  10.5253513
  65.4995093  16.5822303  18.8190068  66.2448685  16.3932114  18.4053493
  65.0832398  17.1080541  18.2603924  65.5480068  16.6324449  18.6754641
  58.9385010  32.9852383   7.2302336  59.2283308  32.5941365   6.5061563
  59.6688491  33.1669088   7.6707611  59.0891894  32.9546197   7.1885143
  72.8757364  23.9531532  13.7695573  73.4265286  23.3199601  14.0092665
  72.8601480  24.4846925  14.4611077  72.9542561  23.9380480  13.9074431
  59.5279755  27.7870129  18.3155466  59.0291449  28.4985897  18.3940355
  60.3379979  28.1070796  18.2773629  59.5735862  27.9396978  18.3212035
  56.8790925  34.9619766  10.2962486  56.6591221  34.6717120  11.0889153
  56.6585448  34.3034721   9.7680398  56.8138520  34.8219474  10.3351394
  55.7907873  27.0493082  12.5618187  55.5021121  26.4230553  13.0963915
  56.6591221  26.9913370  12.6282868  55.8768125  26.9480626  12.6509142
  66.5785770  22.1927866  12.8800169  66.2350536  21.4718201  13.2307419
  66.6778813  21.9841717  12.0378527  66.5427813  22.0552069  12.8071849
  59.0458881  36.3349156   9.0793178  59.6982939  35.8025598   9.3084204
  58.3484490  35.9817808   9.4661052  59.0389599  36.2038679   9.1705346
  55.9940146  28.6888333   8.4860552  56.7486114  29.0701372   8.6996015
  55.4010759  29.1399477   8.9407249  56.0176860  28.8117161   8.5843431
  67.0398800  28.6553570   8.4224157  67.6056832  29.3146780   8.3382700
  66.3926703  29.0003268   8.8940559  67.0277556  28.8035511   8.4796914
  58.4546813  20.6451174  23.6117765  57.6446589  20.9508953  23.5007607
  58.9321500  21.3656756  23.7270349  58.4050292  20.7965775  23.6124836
  57.3138373  29.8596895  13.8600668  56.7919126  29.9997186  14.5452532
  57.7012393  29.1007559  14.0502785  57.2942074  29.7682418  13.9901744
  63.5105378  31.5992354   7.8461237  63.2692054  30.8660215   7.4388301
  63.6906711  32.1479211   7.1927570  63.5013002  31.5714745   7.6891459
  58.7404698  26.8900914   9.2582159  58.5447481  27.4975648   8.6642462
  58.9639044  26.1968858   8.7773833  58.7439339  26.8778439   9.0998240
  57.1383228  23.7755652   9.3763027  57.8605880  23.9396810   8.9166833
  56.6591221  24.4965316   9.2702367  57.1746959  23.9053881   9.2928641
  65.0976736  20.1119450  14.7559712  64.2587837  20.1380729  14.5197975
  65.1681103  20.7590186  15.3365059  64.9845129  20.2115576  14.8068829
  54.7890845  26.1813724  18.4817167  55.3011942  26.4597977  17.8325927
  54.5027188  26.9203018  18.8479980  54.8225708  26.3316078  18.4407045
  68.9734260  25.3187437  12.0420954  68.8868234  25.4742863  12.8955733
  68.5184740  25.9625513  11.6680359  68.8937516  25.4363192  12.1128061
  51.8757751  20.6883916   8.7780904  51.9773888  21.4910077   9.1061879
  52.6713638  20.4871252   8.4803984  52.0085657  20.7769815   8.7816259
  58.3074570  18.2740113  18.5418209  58.1157767  18.2895247  19.3917632
  59.1573166  18.4703787  18.5184863  58.4050292  18.3054464  18.6641503
  52.6921483  20.8031094  16.5202025  52.5506975  19.9515035  16.6446533
  52.9762047  20.8459755  15.6964231  52.7129329  20.6830844  16.4169649
  62.8460076  22.6398184  10.6646513  62.5994790  22.5593935  11.4983302
  63.1745199  21.8551652  10.4709041  62.8581319  22.5124450  10.7594036
  66.7408125  29.3481544  14.4533295  66.6022484  30.0462589  14.9582037
  65.9608122  29.1930200  14.0969476  66.6051351  29.4281710  14.4759569
  65.0786210  25.6477919  20.7055676  65.0734248  24.7757735  20.7098103
  65.7847204  25.8466088  20.2325132  65.1831214  25.5481793  20.6362712
  58.8057103  25.3754903  20.0769496  58.9500479  25.9556111  19.4412606
  59.1532752  25.7531200  20.7819351  58.8784564  25.5175607  20.0868491
  60.9777020  24.5745071  17.8594628  60.2300334  24.7676086  17.4542906
  61.1318546  23.7490291  17.6218749  60.8899448  24.4810183  17.7640034
  57.8784858  33.5657675  16.9430523  58.0274422  33.0060590  16.2903928
  58.6584860  33.6449676  17.3263042  58.0158952  33.4943240  16.9027472
  61.2178797  18.4695622  18.7490032  61.6751412  19.2019596  18.8762824
  61.2935126  18.0462087  19.5077288  61.2969767  18.5152860  18.8791108
  53.4611789  18.7161442  19.8379475  52.9253978  18.1041800  20.1540243
  53.5229553  19.2909578  20.4913142  53.3907421  18.7108369  19.9814902
  61.0608406  32.2573316   9.0538620  61.8258297  31.9882960   8.7321284
  60.9586496  31.7723327   9.7708683  61.1589901  32.1462881   9.1118448
  59.0961175  20.4597726  15.5931856  58.3057250  20.2789186  15.9149192
  59.4921798  19.6824678  15.5762150  59.0378052  20.3185187  15.6384404
  64.4804862  28.0940156  13.3191302  63.8049863  27.8625388  13.8204689
  64.4897238  27.4861339  12.6933407  64.3823366  27.9699081  13.3007454
  61.6099006  22.9357985  20.0755355  61.5458147  23.7967941  19.9475491
  61.7496193  22.6189978  19.2750906  61.6214476  23.0158152  19.9383568
  66.4821596  30.9505288   5.5501480  66.5641434  31.7572275   5.2262931
  66.9671338  30.9701248   6.2742253  66.5658754  31.0725951   5.6088378
  60.2918100  25.6290124  14.2171558  59.8680349  25.8294623  13.4810576
  60.1162955  24.7818972  14.3295857  60.2028980  25.5338906  14.1245248
  59.7929793  37.1440637  16.6793015  60.2825723  36.4451426  16.4968679
  59.2214025  36.8464507  17.2669072  59.7814323  36.9966861  16.7394056
  55.5800545  26.1242176   9.6499530  55.7365164  26.0588979  10.5055522
  55.9201138  26.8990728   9.4378210  55.6533779  26.2291374   9.7454124
  62.1179689  25.5000059   8.5192893  62.6595235  24.9970440   8.9831514
  62.4326248  25.4465254   7.7082379  62.2444086  25.4179480   8.4676705
  65.9896797  29.7102707  25.6319806  66.8031662  29.4387856  25.7924938
  65.8291763  29.4110247  24.8280001  66.0866745  29.6257633  25.5365211
  60.2866139  30.8917411   5.8032921  60.3558959  30.0331949   5.9425922
  61.0654594  31.1089292   5.4751946  60.4118989  30.7970275   5.7750079
  63.2668958  20.3936364  18.5715194  63.4810928  19.7547278  18.0178548
  62.6502858  20.8382188  18.1423056  63.2074288  20.3646507  18.4265625
  64.6773626  33.3155112  10.0169415  64.2853418  33.0121827   9.2992281
  64.8326699  34.1524202   9.8274368  64.6427216  33.3938949   9.8825912
  52.1534806  23.3077126   9.9660297  52.5333771  23.7261671   9.3020565
  51.5790171  23.8890582  10.2729141  52.1246131  23.4554985   9.9137038
  65.4308046  22.0025429  19.5098501  64.6184728  21.6951319  19.5911674
  65.8897981  21.5224429  20.0741213  65.3788431  21.8861921  19.6053095
  64.8413301  29.8805101   9.9575445  64.4827956  30.0519744  10.7339478
  64.3552012  30.3418307   9.4003444  64.7171998  29.9744072   9.9900714
  62.6583687  13.5036299  13.5602537  61.7877245  13.4775021  13.5135846
  62.9124028  13.3313492  12.7428382  62.5677247  13.4746443  13.4322673
  59.6301667  25.5604266   2.4975680  59.9194191  26.3369149   2.7719254
  59.7173465  25.0492998   3.1990179  59.6855923  25.5996185   2.6418177
  62.5261554  23.4085500  24.2927203  62.9961185  24.0327617  24.6795077
  62.5723434  22.7402476  24.8520418  62.6029430  23.4020181  24.4327275
  59.6832828  15.5142528  15.0176007  59.1671316  14.8222719  15.1427586
  59.1226757  16.1813305  14.9638606  59.5239341  15.5105786  15.0282073
  61.7525061  16.0535488  16.8468860  61.3656814  16.0784519  17.6282389
  61.2657998  15.4877167  16.3943376  61.6237570  15.9731239  16.8956763
  66.0018041  30.7708997  20.9042646  66.6397761  30.2769193  20.5705102
  65.3592132  30.6986397  20.3194873  66.0012267  30.6868005  20.7685001
  67.7275041  22.6198143  15.4708562  67.3002649  22.5324491  14.7156661
  67.0901094  22.7275918  16.0563406  67.5704648  22.6230803  15.4454003
  61.4182203  12.9402473  19.1379119  62.0475321  13.4762773  18.8600190
  61.5868066  12.8479832  19.9892685  61.5359997  13.0063836  19.2227648
  61.2196118  17.7273668  21.4105531  62.0469547  17.4558817  21.4664146
  61.2403964  18.5234510  21.7669349  61.3448968  17.8053422  21.4720714
  66.0572297  31.4628805  17.5448003  66.8464675  31.1117870  17.6650084
  66.2315895  32.2765194  17.2824637  66.1992579  31.5314662  17.5235871
  55.7965608  24.8737531  14.5975792  54.9553614  24.7741405  14.8054686
  56.0055615  25.6433011  14.9490112  55.7030300  24.9729574  14.6803107
  53.2741174  22.4957068  12.4260542  52.8797872  22.5700080  11.6510652
  52.7181291  22.8815014  12.9768904  53.1343987  22.5638842  12.3928202
  64.9106121  15.4738362  12.1064421  65.1155715  15.4060670  12.9521418
  64.5832545  16.2797183  12.0385599  64.8921369  15.5824302  12.2224076
  59.6082272  22.8018930  13.8473389  59.3045410  22.2474918  14.4483797
  58.9061693  22.9811140  13.3601423  59.4598482  22.7463712  13.8643095
  58.6648370  20.1119450   8.4118091  58.9408104  19.3938362   7.9995659
  59.2647039  20.7104370   8.2039197  58.7941634  20.0939821   8.3198852
  57.6700623  30.0168651  18.5545487  57.5620978  30.0270713  19.4207545
  57.8796405  30.8423431  18.3650441  57.6850734  30.1409726  18.6549579
  55.6874415  27.2681293  16.0167425  55.0962349  27.9090791  15.9870440
  56.4495439  27.6918911  15.9898724  55.7122676  27.4257132  16.0082572
  56.0835038  18.4283291  16.6835442  56.5436520  18.5022220  17.4210566
  56.1291145  19.2264545  16.3335264  56.1585594  18.5577438  16.7408199
  57.7318388  19.0949986  21.2507469  57.3403953  18.4483333  21.6863247
  57.9004251  19.6861421  21.8701725  57.6989298  19.0864254  21.4070175
  71.8064837  27.0987063  17.0144703  71.8647961  27.5473712  17.7604679
  71.1731305  27.5085876  16.5774783  71.7216132  27.2260798  17.0597251
  65.4463932  32.7190605  13.4499449  65.2483620  33.2081419  12.7555660
  64.8251643  32.9231846  14.0283582  65.3251496  32.8207143  13.4322672
  59.5071910  24.4875502   7.7909693  60.2513955  24.8749778   8.0292643
  59.6532606  23.6432927   7.9550181  59.6382495  24.4205974   7.8503663
  61.4251485  16.2825761  12.8241555  60.5787531  16.4548568  12.6982905
  61.4222618  15.4775104  13.1607383  61.2998635  16.1886789  12.8552682
  62.4949786  20.0600975  13.6903613  62.0209740  19.5342737  14.2008924
  62.8667922  19.5130448  13.1218474  62.4799675  19.9016972  13.6818760
  52.8722816  22.0572482  19.0587158  53.7348429  21.9568191  18.9724488
  52.5414599  21.4767191  18.4972731  52.9508012  21.9564108  18.9632564
  68.7586516  25.1203351  15.1010393  68.5184739  24.2809766  15.1052820
  69.2378524  25.2003517  15.8251167  68.7938700  25.0084750  15.2085196
  70.7591703  21.9004808  13.0539652  70.5201473  21.8600642  12.2160437
  70.9225605  22.7475960  13.1805373  70.7482007  22.0196893  12.9493134
  67.3637734  26.2854757  18.9844697  68.0871932  25.8327284  18.8055717
  67.0987696  26.5659423  18.2017025  67.4319007  26.2605726  18.8423413
  56.2324602  20.8814931  15.7197577  55.6077672  20.8933323  15.1123529
  55.8970197  21.3575106  16.3688817  56.0910094  20.9533448  15.7254145
  56.4166351  19.2240049   1.7770262  56.0679155  19.8759774   2.2401811
  55.9362796  19.2097162   1.0494133  56.2936595  19.3183103   1.7381353
  52.9450278  28.9415391  17.1601341  52.4150202  28.2507830  17.2096316
  53.2175371  28.9325576  16.3314049  52.9075000  28.8382523  17.0448757
  63.9770368  29.5241093   5.8839024  64.7004567  29.9899206   5.7403597
  63.5370959  29.5914703   5.1336621  64.0186060  29.6024930   5.7523805
  63.1456523  26.3838635  17.1339713  62.5313516  25.8396686  17.4288348
  63.6623808  25.8702872  16.6545529  63.1312186  26.2275044  17.1063941
  62.3852820  27.4542905  14.8684011  61.9580428  26.8292624  14.4349447
  62.3777765  27.1717827  15.6943018  62.3211961  27.3195686  14.9263839
  55.5015347  22.4908078  17.9372445  55.6608834  21.7351403  18.3424167
  55.3208241  23.0399018  18.5913183  55.4980706  22.4601892  18.0935151
  63.4435650  14.6569314  18.4923235  62.9476212  14.8532988  17.8014801
  64.2004712  15.0561982  18.3212036  63.4822475  14.7447048  18.3643371
  60.7138530  18.3311660  15.0826545  60.7381017  17.7971772  14.3939325
  60.9650004  17.8228969  15.7452136  60.7548449  18.1772564  15.0791190
  48.2246120  25.6143155  14.5169689  48.1189569  25.5689999  13.6521773
  47.4746340  25.9596935  14.7983974  48.0981723  25.6584063  14.4307019
  56.9939852  17.0582478  14.4632289  57.0338224  17.5591685  15.1766997
  56.1689517  17.1492872  14.1938213  56.8779378  17.1464294  14.5282828
  59.1769465  26.6243218  22.5652584  58.3265096  26.7614932  22.7010229
  59.3397593  25.8906996  23.0100286  59.0753329  26.5357319  22.6508183
  58.4154216  23.5742988  16.7606188  57.5846145  23.7416806  16.5541437
  58.3605733  23.1978939  17.5455074  58.2843630  23.5432719  16.8454717
  56.2237999  17.0651881  22.3962599  56.8490702  16.5214014  22.6692031
  55.7688479  16.5846799  21.8270390  56.2486259  16.9141362  22.3524193
  56.7890259  21.8498580   7.2896306  56.9293220  22.3471044   7.9924948
  57.2872792  21.1484874   7.4310520  56.8831340  21.8200558   7.4147885
  56.8190482  22.7165691   4.6188883  57.4535561  23.3126116   4.5538345
  56.9016093  22.4169148   5.4334753  56.9247033  22.7606599   4.7291970
  69.7973048  25.2481168  17.4875247  70.3890888  25.8878419  17.5193445
  70.2332042  24.5504205  17.7767314  69.9491479  25.2399518  17.5356080
  58.3969465  18.6479666   4.5934325  58.7185306  18.1682748   3.9393587
  58.6596408  19.4579312   4.4025137  58.4835490  18.6969564   4.4689817
  61.6266437  29.6698540  18.1133141  61.1191528  30.2234387  18.5573772
  61.3293084  29.7306830  17.2951916  61.5071322  29.7604852  18.0581598
  63.7928620  18.0351860  16.9557804  64.2183691  17.5824386  16.3441330
  63.1785613  17.4811931  17.2322592  63.7657265  17.8865836  16.9062829
  53.3243470  24.9133531   7.8878429  53.8335699  25.5098039   8.2689735
  53.7977742  24.6459505   7.2054849  53.4686845  24.9619347   7.8432952
  64.2374218  33.5861798   6.0437085  63.5203527  33.4122660   5.5784322
  64.8880955  33.3514370   5.5112571  64.2276068  33.5257591   5.8966302
  62.2322842  14.5066960  10.3648381  61.5891160  14.3564606  10.9333520
  61.8922249  14.2609305   9.5997486  62.0867920  14.4479082  10.3351396
  66.8222189  22.4626387   9.7878390  66.1513379  23.0056089   9.6591455
  67.5161939  22.9321242   9.5460084  66.8251056  22.6124658   9.7333917
  60.8708923  34.6023099  15.0190148  60.6474577  33.8441928  15.3874174
  60.3818766  34.6321120  14.2970588  60.7652372  34.4945323  14.9666889
  66.9850316  18.9182270  12.6968763  67.3377926  18.4911993  13.3714562
  66.1265118  18.8333114  12.8269839  66.9099761  18.8427011  12.8163773
  55.6834001  21.5489790  10.7551609  54.9645991  21.9653922  11.0224473
  56.0546364  22.1144029  10.2043248  55.6325933  21.6939071  10.7134416
  64.9833582  22.1817639  16.6453605  64.9631510  22.0000934  17.4988384
  65.0312783  23.0529657  16.6213189  64.9868223  22.2834177  16.7676900
  62.9279912  28.7704831  22.5702082  62.8875767  28.1254508  21.9847238
  63.7403230  28.7141448  22.8827494  63.0423066  28.6663798  22.5299031
  59.5187380  34.8223557  12.4727233  59.1047778  34.1597687  12.0831074
  60.2034754  34.9701415  11.9522927  59.5585751  34.7464215  12.3383730
  62.8852674  33.9813642  13.2250849  62.4868957  34.0915912  12.4571669
  62.2703893  34.1895708  13.8077409  62.7351563  34.0287210  13.1982149
  61.4580576  20.5887790   6.0924989  60.8645415  20.9104786   5.5409556
  61.4955853  19.7428885   5.8846095  61.3754965  20.5112118   5.9807760
  64.3338392  20.5467294   9.5226739  64.1052085  20.5699996   8.6805097
  64.5936469  19.7224761   9.6421750  64.3384580  20.4283374   9.4151937
  58.6157621  22.4001767  19.1251839  58.1036524  21.7922950  19.4836871
  58.4437117  23.1158360  19.5925815  58.5147258  22.4165067  19.2468063
  53.4623335  20.8439343  21.7754201  53.2925926  21.5040717  21.2302408
  53.0189285  21.0545904  22.4966690  53.3722669  20.9725325  21.8015831
  57.3883155  19.0843841  10.8180935  57.8640521  19.4460920  10.1831116
  56.8871754  19.7400308  11.0981078  57.3848514  19.2338029  10.7657676
  62.4926691  20.3226012  21.5654095  63.0498121  20.0939821  20.9332560
  62.1687756  21.0831678  21.2889307  62.5273101  20.4009849  21.4310592
  50.3625400  23.7486208  17.0342691  49.8152119  23.0786854  17.1523559
  51.1517778  23.3816056  17.0986158  50.3977584  23.5951195  17.0611392
  60.2109808  23.4093665  22.5306102  60.9621135  23.7245342  22.8445656
  60.4032385  23.2072836  21.7040024  60.3501223  23.4261047  22.4549498
  59.4309808  21.2285040   4.1854319  59.8108773  21.2464670   3.4005434
  58.6902404  21.6739029   4.0645166  59.3778646  21.2966815   4.0517887
  67.0595099  19.5367232   9.7729897  67.0589325  19.3815888  10.6314174
  66.8551279  20.3830219   9.7171283  67.0294876  19.6387852   9.8917837
  49.1212369  22.9607016  14.1888714  48.9434131  22.5083625  14.9143630
  48.8331392  23.7633177  14.3727192  49.0525323  23.0129574  14.3232217
  64.7835951  24.2164733  13.4266104  65.2789616  23.4987728  13.3870125
  63.9735726  23.9135531  13.3120591  64.7379844  24.0662380  13.4039830
  60.2294562  28.0662547   5.5763109  59.4205885  27.7429220   5.5296418
  60.7369471  27.3595769   5.5091357  60.1844229  27.9143863   5.5593403
  50.8584839  25.4934740  11.3010473  49.9930359  25.4820430  11.1893244
  50.9583655  25.3064963  12.1481612  50.7459006  25.4640801  11.4099417
  66.8487769  26.9668421  16.1143233  67.2742841  26.4442843  15.5613658
  66.4844689  27.5649258  15.5931856  66.8574372  26.9778648  15.9552243
  56.4841849  35.2632638  14.8740579  56.7988408  36.0769027  14.8818360
  56.8935263  34.8782857  15.5422738  56.5909947  35.3261341  14.9744670
  63.4366369  30.6802685  12.4444391  63.9077547  31.3942948  12.6134376
  63.7726547  30.0801435  12.9804260  63.5561484  30.6974149  12.5476766
  65.5243353  32.2903999  24.6236463  65.6340319  31.5012559  24.9793210
  65.8534250  32.2009935  23.8210801  65.5895759  32.1609851  24.5578853
  60.3535864  15.4530156  19.4002485  60.4863769  14.6561149  19.7283461
  60.7381017  15.9796559  19.9800761  60.4292193  15.4130072  19.5345988
  64.0740315  30.4720619  19.2072083  63.5261261  29.8478503  18.9392148
  64.5353344  30.6614891  18.4916163  64.0607525  30.4079669  19.0622514
  63.4268219  12.3760482  15.9983579  62.6214183  12.2658211  16.3151417
  63.2974954  12.4772938  15.1413444  63.2888352  12.3744152  15.9191619
  66.8834180  18.5405974  16.5923275  66.2997168  19.0415180  16.1800843
  67.2038474  18.0335530  15.9587599  66.8447355  18.5397809  16.4381783
  59.4228979  17.4546569   6.8681950  60.2444673  17.6244881   6.6263645
  58.9598630  17.6093830   6.1448248  59.4760141  17.5028302   6.7253595
  58.0124311  15.4489331  17.6480379  58.5568724  15.1080458  18.2384721
  58.0661246  16.3074792  17.7901664  58.1013430  15.5244590  17.7562252
  53.8254869  29.2105747  14.5219187  54.4299727  29.1701581  13.8933008
  53.6182182  30.0576899  14.5523243  53.8843767  29.3293749  14.4335303
  63.6398642  31.4771692  15.7381424  64.4597015  31.3334658  15.9997720
  63.3592719  32.1017891  16.2797862  63.7195385  31.5482044  15.8569364
  49.0606152  28.1940364  14.3918110  48.9630430  27.3836636  14.7008167
  49.8435021  28.1732158  14.0064378  49.1622288  28.0707455  14.3804973
  73.3111977  38.2212195  13.4577231  72.4549872  38.3820693  13.5086348
  73.3579630  37.3504259  13.4782292  73.1911088  38.1162997  13.4683297
  67.6953116  47.7574913   9.2214463  66.9436016  47.3790451   8.9930508
  68.1439128  47.7893346   8.4733273  67.6502783  47.7060520   9.0771965
  76.6205693  44.4898720  23.0637687  77.3272461  43.9950751  23.1924622
  76.8093629  44.9307802  22.3340345  76.7533599  44.4817071  22.9746733
  76.1563798  40.2804239  16.1008883  76.7019758  40.9589325  16.1602852
  76.0980674  40.1391699  15.2410464  76.2279712  40.3596240  15.9820943
  69.2737873  47.7693305  11.4877235  69.3748236  46.9593659  11.7974363
  68.6779618  47.6750251  10.8576914  69.2010411  47.6358333  11.4403474
  69.1138612  52.6870894  12.8892091  69.7576068  53.1284058  13.2788250
  69.4394868  51.8824320  12.8022350  69.2570441  52.6336089  12.9337569
  62.4702917  43.7913591  11.1129569  62.2353101  42.9581244  11.0061838
  62.6088558  44.0718257  10.2990770  62.4558579  43.7097095  10.9771924
  64.7693004  35.9599322  14.0113877  64.1498036  35.3691969  13.8423891
  64.6676868  36.5510757  13.3778200  64.6630680  35.9603404  13.8918866
  71.8660900  37.6998864   8.3446340  72.5641065  37.8786991   8.8367803
  72.1813233  37.1769203   7.7216729  72.0156237  37.6492636   8.3248350
  64.4962137  39.5051604  16.2557446  64.3720834  40.0914049  16.8907264
  65.1480422  39.0111799  16.5569721  64.5735787  39.5190408  16.3943375
  72.0548835  44.0869309   8.3326131  72.4942471  43.4786409   8.7780904
  71.9053498  43.7076682   7.5611596  72.0970301  43.9407780   8.2845299
  69.5220478  42.6813321  15.5344957  70.1669481  42.1885764  15.2155905
  69.7622255  42.8238107  16.3611035  69.6531063  42.6290763  15.6094490
  72.0606570  45.5268226  15.1851849  72.3429813  44.7319632  14.9638605
  72.7892730  46.0048814  15.2056910  72.2096133  45.4802823  15.1554864
  70.0387764  33.0691260  12.4267614  69.7091094  33.5202404  11.7571313
  69.3632765  32.9907424  12.9740621  69.8898200  33.1242396  12.4090838
  64.0320242  48.6699262  12.3885775  63.5487820  49.3949752  12.3645359
  64.8443560  48.9675392  12.4995933  64.0810989  48.8201616  12.4013054
  70.1034396  47.4631443  14.9935590  69.5861337  47.1038858  14.3896898
  70.8008787  46.9393617  15.0041656  70.1299977  47.3329131  14.9065848
  73.7597988  47.9126257  20.9551763  73.8481333  47.7252397  21.8029973
  74.1887700  47.2663686  20.5556609  73.8360090  47.7889265  21.0223514
  71.3268447  47.1957417  19.9369425  70.7639282  46.7830027  20.4609086
  72.0889471  47.1210322  20.3562568  71.3562896  47.1234817  20.0762425
  68.2443718  31.1303549   7.9090562  68.9989686  31.4981866   7.6707612
  68.0671252  31.5043103   8.6769742  68.3298196  31.2401737   7.9875451
  66.8864439  49.1855438  12.5406055  67.5885018  48.6707427  12.5978811
  66.8061922  49.5129589  13.3452930  66.9788199  49.1569664  12.6678847
  67.9343345  39.4231025  21.6686470  68.1063849  39.3136920  22.5171751
  68.4712703  40.0685430  21.4317662  68.0388349  39.5023027  21.7591567
  66.6000782  33.5373868   4.6068675  66.4176356  33.7545749   3.7809668
  67.4626395  33.6512880   4.6627289  66.7005372  33.5863766   4.4923162
  66.2115214  45.3761790  12.0491663  67.0504114  45.6084723  12.0965425
  66.2426983  44.5066101  11.9798698  66.3396932  45.2818736  12.0456308
  66.8367917  45.7962665  16.3504968  67.3766142  45.6533796  17.0208341
  66.1537864  46.1959416  16.7188995  66.8160071  45.8342336  16.5039390
  76.2608802  41.4753666  11.5449993  77.0166317  41.9085180  11.5838902
  76.3671127  40.8258436  12.1184629  76.3878973  41.4431150  11.6348018
  73.8718047  47.3435276  23.6195546  74.6558463  47.4566124  23.9851288
  73.6714641  46.5176413  23.8154232  73.9584072  47.2381995  23.7029932
  62.2405062  42.0162956  16.5039390  61.9743478  41.2002073  16.6630380
  62.2543626  42.0616112  15.6334906  62.2029785  41.9019861  16.3992872
  66.1462809  36.8148040   3.1191148  65.4320986  36.5286220   3.5313581
  66.6306778  37.1544666   3.7597536  66.1122173  36.8229690   3.2746783
  66.9903669  35.5541334  19.1506398  66.2975465  35.0838314  19.3967129
  67.6063996  35.3279639  19.7248105  66.9788199  35.4508466  19.2715550
  74.0288440  49.2545378  17.2662002  73.2303686  49.0144878  17.5235870
  74.4774452  49.3059771  18.0129049  73.9763051  49.2267769  17.4146926
  62.6498476  42.8021735  13.7851134  62.4674049  42.7768621  12.9323426
  63.3848145  43.2720673  13.8240043  62.7312540  42.8683098  13.6649053
  65.7144228  39.5206738  20.2933243  66.4384200  39.5059769  20.7798138
  65.8160364  40.2302093  19.7955211  65.8362437  39.6231441  20.2912030
  73.0889177  43.0005823  25.1582190  72.2962158  43.3149335  25.3434810
  73.2038104  43.2157291  24.3202975  72.9884588  43.0789660  25.0620525
  75.7620496  39.7239814   9.4477206  75.8567350  40.4629108   9.9016831
  75.1379340  39.2957289   9.8811770  75.6829526  39.7701135   9.5785353
  74.0172970  42.9026027  20.0967487  74.5911832  42.2653271  20.2516051
  73.9387774  42.9030109  19.2277144  74.0906205  42.8091138  19.9913898
  62.6169386  39.6815236  13.9350201  63.1942889  39.5451687  14.5742446
  61.9183448  39.2251020  14.1895785  62.5990408  39.5937502  14.0672491
  69.3736688  41.3349292  12.1488684  69.1155933  40.5021027  12.1219984
  69.4285171  41.5606905  11.3081184  69.3436466  41.2447063  12.0208821
  74.4537739  33.4377742  12.2492777  73.7494065  32.9486928  12.4076696
  74.5022713  33.4500217  11.3781221  74.3567790  33.3667390  12.1432117
  68.3471401  38.8887054  12.6353579  67.7720992  39.0479223  13.2717540
  67.9707077  38.2522463  12.1722029  68.2074213  38.8184867  12.6608137
  72.0144689  37.3610403  17.4945957  71.6259122  36.9364621  16.8398148
  71.3499388  37.6092553  18.0022984  71.8591617  37.3349125  17.4733825
  58.0928220  38.5327129  10.6498019  58.1788471  38.1558997  11.4311549
  58.7204017  38.1587575  10.1717978  58.1984771  38.4212611  10.6943497
  75.8371051  31.0585032  15.0069941  76.2181563  30.3763203  15.3937816
  75.0334335  30.7694634  14.8245606  75.7747513  30.9152081  15.0373997
  68.9891536  45.0630526  10.8195076  69.6265483  44.8242273  11.3646870
  69.4146607  45.2667684  10.0848237  69.1467702  45.0581536  10.7912234
  63.6804178  47.3018862  14.7029380  63.7208323  47.5733713  13.8749160
  64.2398702  47.8260770  15.1187168  63.7687524  47.4194617  14.6421268
  69.6294351  40.2832815   5.1569966  70.0139504  40.0640522   5.9086511
  69.3805971  41.1095761   5.2871042  69.6496423  40.3730962   5.2871042
  69.7962891  33.5639230  24.8732550  69.4816332  34.3338793  24.6102113
  69.4752824  33.0009487  24.2884777  69.7021810  33.5949499  24.7473900
  71.3713008  45.5402948  12.4988863  71.4452016  45.3778120  13.3530712
  72.1882514  45.7293138  12.2549344  71.5029366  45.5439690  12.5886888
  65.1318764  45.8860811   9.5283306  64.3056882  46.1322548   9.4017585
  65.1930756  45.8072892  10.3945364  65.0192931  45.9105760   9.6372250
  67.3494788  31.9529752  10.4878746  66.4817214  32.0252351  10.5536355
  67.6369993  32.7551831  10.6766721  67.2634536  32.0823899  10.5253513
  76.4727677  32.1007611  18.8190068  77.2181269  31.9117422  18.4053493
  76.0564982  32.6265849  18.2603924  76.5212651  32.1509757  18.6754641
  70.5012339  43.3055437  18.3155466  70.0024032  44.0171205  18.3940355
  71.3112563  43.6256104  18.2773629  70.5468445  43.4582286  18.3212035
  67.8523509  50.4805074  10.2962486  67.6323804  50.1902428  11.0889153
  67.6318031  49.8220029   9.7680398  67.7871103  50.3404782  10.3351394
  66.7640456  42.5678390  12.5618187  66.4753705  41.9415861  13.0963915
  67.6323804  42.5098678  12.6282868  66.8500708  42.4665934  12.6509142
  77.5518354  37.7113173  12.8800169  77.2083120  36.9903509  13.2307419
  77.6511397  37.5027025  12.0378527  77.5160397  37.5737377  12.8071849
  66.9672730  44.2073641   8.4860552  67.7218698  44.5886680   8.6996015
  66.3743342  44.6584785   8.9407249  66.9909443  44.3302469   8.5843431
  69.4279397  36.1636482  23.6117765  68.6179172  36.4694261  23.5007607
  69.9054083  36.8842064  23.7270349  69.3782875  36.3151083  23.6124836
  68.2870956  45.3782203  13.8600668  67.7651710  45.5182494  14.5452532
  68.6744977  44.6192867  14.0502785  68.2674657  45.2867726  13.9901744
  65.2762140  35.4288011   7.9295622  64.9886936  35.0589282   7.1927570
  65.9632609  35.8982867   7.6679327  65.3351038  35.4434981   7.7810698
  69.7137282  42.4086222   9.2582159  69.5180064  43.0160956   8.6642462
  69.9371627  41.7154166   8.7773833  69.7171923  42.3963747   9.0998240
  68.1115812  39.2940959   9.3763027  68.8338464  39.4582118   8.9166833
  67.6323805  40.0150624   9.2702367  68.1479543  39.4239189   9.2928641
  76.0709319  35.6304758  14.7559712  75.2320420  35.6566037  14.5197975
  76.1413687  36.2775494  15.3365059  75.9577713  35.7300884  14.8068829
  65.7623429  41.6999032  18.4817167  66.2744526  41.9783285  17.8325927
  65.4759771  42.4388326  18.8479980  65.7958292  41.8501386  18.4407045
  62.8490335  36.2069224   8.7780904  62.9506471  37.0095385   9.1061879
  63.6446222  36.0056560   8.4803984  62.9818241  36.2955123   8.7816259
  69.2807154  33.7925420  18.5418209  69.0890351  33.8080555  19.3917632
  70.1305750  33.9889095  18.5184863  69.3782876  33.8239772  18.6641503
  63.6654067  36.3216402  16.5202025  63.5239559  35.4700343  16.6446533
  63.9494630  36.3645063  15.6964231  63.6861913  36.2016152  16.4169649
  73.8192659  38.1583492  10.6646513  73.5727374  38.0779243  11.4983302
  74.1477782  37.3736960  10.4709041  73.8313903  38.0309757  10.7594036
  77.7140708  44.8666851  14.4533295  77.5755067  45.5647897  14.9582037
  76.9340706  44.7115508  14.0969476  77.5783935  44.9467018  14.4759569
  76.0518793  41.1663227  20.7055676  76.0466832  40.2943043  20.7098103
  76.7579787  41.3651396  20.2325132  76.1563797  41.0667101  20.6362712
  69.7789687  40.8940211  20.0769496  69.9233062  41.4741419  19.4412606
  70.1265335  41.2716507  20.7819351  69.8517148  41.0360915  20.0868491
  71.9509604  40.0930379  17.8594628  71.2032918  40.2861393  17.4542906
  72.1051129  39.2675599  17.6218749  71.8632032  39.9995491  17.7640034
  68.8517442  49.0842983  16.9430523  69.0007005  48.5245898  16.2903928
  69.6317444  49.1634984  17.3263042  68.9891535  49.0128548  16.9027472
  71.3770742  49.2557625  18.2215014  71.3014413  48.5866436  18.7765802
  71.3060601  49.9575414  18.7355680  71.3551349  49.2602533  18.3791862
  72.1911381  33.9880930  18.7490032  72.6483995  34.7204904  18.8762824
  72.2667710  33.5647395  19.5077288  72.2702351  34.0338168  18.8791108
  64.4344372  34.2346750  19.8379475  63.8986562  33.6227108  20.1540243
  64.4962137  34.8094886  20.4913142  64.3640005  34.2293677  19.9814902
  70.0693759  35.9783034  15.5931856  69.2789834  35.7974494  15.9149192
  70.4654382  35.2009986  15.5762150  70.0110635  35.8370495  15.6384404
  75.4537445  43.6125464  13.3191302  74.7782447  43.3810696  13.8204689
  75.4629821  43.0046647  12.6933407  75.3555950  43.4884389  13.3007454
  72.5831589  38.4543293  20.0755355  72.5190730  39.3153249  19.9475491
  72.7228777  38.1375286  19.2750906  72.5947059  38.5343460  19.9383568
  71.2650683  41.1475432  14.2171558  70.8412932  41.3479931  13.4810576
  71.0895538  40.3004280  14.3295857  71.1761564  41.0524214  14.1245248
  70.7662377  52.6625945  16.6793015  71.2558307  51.9636734  16.4968679
  70.1946609  52.3649815  17.2669072  70.7546906  52.5152169  16.7394056
  66.5533128  41.6427484   9.6499530  66.7097747  41.5774286  10.5055522
  66.8933721  42.4176036   9.4378210  66.6266363  41.7476682   9.7454124
  73.0912273  41.0185367   8.5192893  73.6327818  40.5155748   8.9831514
  73.4058832  40.9650562   7.7082379  73.2176670  40.9364788   8.4676705
  76.9629380  45.2288015  25.6319806  77.7764245  44.9573163  25.7924938
  76.8024346  44.9295555  24.8280001  77.0599329  45.1442941  25.5365211
  74.2401542  35.9121672  18.5715194  74.4543512  35.2732586  18.0178548
  73.6235441  36.3567496  18.1423056  74.1806871  35.8831815  18.4265625
  63.1267390  38.8262434   9.9660297  63.5066354  39.2446979   9.3020565
  62.5522754  39.4075890  10.2729141  63.0978714  38.9740293   9.9137038
  76.4040630  37.5210737  19.5098501  75.5917312  37.2136627  19.5911674
  76.8630565  37.0409737  20.0741213  76.3521015  37.4047229  19.6053095
  73.6316271  29.0221607  13.5602537  72.7609829  28.9960328  13.5135846
  73.8856612  28.8498800  12.7428382  73.5409831  28.9931751  13.4322673
  73.4994138  38.9270808  24.2927203  73.9693769  39.5512925  24.6795077
  73.5456018  38.2587784  24.8520418  73.5762013  38.9205489  24.4327275
  70.6565411  31.0327836  15.0176007  70.1403900  30.3408027  15.1427586
  70.0959340  31.6998613  14.9638606  70.4971924  31.0291093  15.0282073
  72.7257645  31.5720796  16.8468860  72.3389398  31.5969827  17.6282389
  72.2390582  31.0062475  16.3943376  72.5970154  31.4916547  16.8956763
  76.9750624  46.2894305  20.9042646  77.6130345  45.7954500  20.5705102
  76.3324716  46.2171705  20.3194873  76.9744851  46.2053313  20.7685001
  78.7007624  38.1383451  15.4708562  78.2735232  38.0509799  14.7156661
  78.0633677  38.2461226  16.0563406  78.5437231  38.1416111  15.4454003
  72.3914786  28.4587781  19.1379119  73.0207904  28.9948081  18.8600190
  72.5600649  28.3665140  19.9892685  72.5092581  28.5249144  19.2227648
  72.1928701  33.2458976  21.4105531  73.0202131  32.9744125  21.4664146
  72.2136547  34.0419818  21.7669349  72.3181551  33.3238730  21.4720714
  77.0304881  46.9814113  17.5448003  77.8197259  46.6303178  17.6650084
  77.2048479  47.7950502  17.2824637  77.1725162  47.0499970  17.5235871
  66.7698191  40.3922839  14.5975792  65.9286198  40.2926713  14.8054686
  66.9788199  41.1618319  14.9490112  66.6762884  40.4914882  14.6803107
  64.2473758  38.0142376  12.4260542  63.8530456  38.0885388  11.6510652
  63.6913875  38.4000322  12.9768904  64.1076570  38.0824150  12.3928202
  75.8838705  30.9923670  12.1064421  76.0888298  30.9245978  12.9521418
  75.5565129  31.7982491  12.0385599  75.8653953  31.1009610  12.2224076
  70.5814856  38.3204238  13.8473389  70.2777993  37.7660226  14.4483797
  69.8794277  38.4996448  13.3601423  70.4331066  38.2649020  13.8643095
  69.6380953  35.6304758   8.4118091  69.9140687  34.9123670   7.9995659
  70.2379622  36.2289678   8.2039197  69.7674218  35.6125129   8.3198852
  68.6433207  45.5353959  18.5545487  68.5353562  45.5456021  19.4207545
  68.8528988  46.3608739  18.3650441  68.6583318  45.6595034  18.6549579
  66.6606999  42.7866601  16.0167425  66.0694932  43.4276099  15.9870440
  67.4228023  43.2104218  15.9898724  66.6855260  42.9442440  16.0082572
  67.0567622  33.9468599  16.6835442  67.5169103  34.0207528  17.4210566
  67.1023729  34.7449853  16.3335264  67.1318177  34.0762746  16.7408199
  68.7050972  34.6135294  21.2507469  68.3136537  33.9668641  21.6863247
  68.8736834  35.2046729  21.8701725  68.6721882  34.6049562  21.4070175
  76.4196515  48.2375913  13.4499449  76.2216204  48.7266727  12.7555660
  75.7984226  48.4417154  14.0283582  76.2984080  48.3392451  13.4322672
  70.4804494  40.0060810   7.7909693  71.2246539  40.3935086   8.0292643
  70.6265190  39.1618235   7.9550181  70.6115079  39.9391282   7.8503663
  72.3984069  31.8011068  12.8241555  71.5520114  31.9733876  12.6982905
  72.3955201  30.9960412  13.1607383  72.2731219  31.7072097  12.8552682
  73.4682369  35.5786283  13.6903613  72.9942324  35.0528045  14.2008924
  73.8400505  35.0315756  13.1218474  73.4532258  35.4202279  13.6818760
  63.8455400  37.5757790  19.0587158  64.7081013  37.4753499  18.9724488
  63.5147183  36.9952499  18.4972731  63.9240596  37.4749416  18.9632564
  67.2057186  36.4000239  15.7197577  66.5810256  36.4118631  15.1123529
  66.8702780  36.8760414  16.3688817  67.0642677  36.4718756  15.7254145
  67.3898934  34.7425357   1.7770262  67.0411739  35.3945082   2.2401811
  66.9095380  34.7282470   1.0494133  67.2669178  34.8368411   1.7381353
  63.9182861  44.4600699  17.1601341  63.3882786  43.7693138  17.2096316
  64.1907954  44.4510884  16.3314049  63.8807583  44.3567830  17.0448757
  74.1189107  41.9023943  17.1339713  73.5046100  41.3581994  17.4288348
  74.6356392  41.3888180  16.6545529  74.1044769  41.7460352  17.1063941
  73.3585404  42.9728213  14.8684011  72.9313012  42.3477932  14.4349447
  73.3510348  42.6903135  15.6943018  73.2944545  42.8380994  14.9263839
  66.4747931  38.0093386  17.9372445  66.6341418  37.2536711  18.3424167
  66.2940825  38.5584326  18.5913183  66.4713290  37.9787200  18.0935151
  74.4168234  30.1754622  18.4923235  73.9208795  30.3718296  17.8014801
  75.1737296  30.5747290  18.3212036  74.4555059  30.2632356  18.3643371
  71.6871114  33.8496968  15.0826545  71.7113601  33.3157080  14.3939325
  71.9382587  33.3414277  15.7452136  71.7281032  33.6957872  15.0791190
  59.1978703  41.1328463  14.5169689  59.0922152  41.0875307  13.6521773
  58.4478923  41.4782243  14.7983974  59.0714306  41.1769371  14.4307019
  67.9672436  32.5767786  14.4632289  68.0070807  33.0776993  15.1766997
  67.1422100  32.6678180  14.1938213  67.8511962  32.6649602  14.5282828
  70.1502049  42.1428526  22.5652584  69.2997679  42.2800240  22.7010229
  70.3130176  41.4092304  23.0100286  70.0485912  42.0542627  22.6508183
  69.3886799  39.0928296  16.7606188  68.5578729  39.2602114  16.5541437
  69.3338316  38.7164247  17.5455074  69.2576214  39.0618027  16.8454717
  67.1970582  32.5837189  22.3962599  67.8223286  32.0399322  22.6692031
  66.7421062  32.1032106  21.8270390  67.2218843  32.4326670  22.3524193
  67.7622843  37.3683887   7.2896306  67.9025804  37.8656352   7.9924948
  68.2605376  36.6670182   7.4310520  67.8563924  37.3385866   7.4147885
  67.7923065  38.2350999   4.6188883  68.4268145  38.8311424   4.5538345
  67.8748676  37.9354456   5.4334753  67.8979616  38.2791907   4.7291970
  69.3702048  34.1664974   4.5934325  69.6917889  33.6868056   3.9393587
  69.6328992  34.9764620   4.4025137  69.4568074  34.2154872   4.4689817
  72.5999021  45.1883848  18.1133141  72.0924112  45.7419695  18.5573772
  72.3025667  45.2492138  17.2951916  72.4803906  45.2790159  18.0581598
  74.7661203  33.5537168  16.9557804  75.1916275  33.1009694  16.3441330
  74.1518196  32.9997239  17.2322592  74.7389849  33.4051144  16.9062829
  64.2976053  40.4318839   7.8878429  64.8068283  41.0283347   8.2689735
  64.7710326  40.1644813   7.2054849  64.4419429  40.4804655   7.8432952
  73.2055426  30.0252268  10.3648381  72.5623744  29.8749914  10.9333520
  72.8654833  29.7794613   9.5997486  73.0600503  29.9664390  10.3351396
  77.7954772  37.9811694   9.7878390  77.1245962  38.5241397   9.6591455
  78.4894523  38.4506550   9.5460084  77.7983640  38.1309966   9.7333917
  71.8441506  50.1208406  15.0190148  71.6207161  49.3627236  15.3874174
  71.3551350  50.1506428  14.2970588  71.7384955  50.0130631  14.9666889
  77.9582900  34.4367578  12.6968763  78.3110510  34.0097301  13.3714562
  77.0997701  34.3518422  12.8269839  77.8832345  34.3612319  12.8163773
  66.6566585  37.0675098  10.7551609  65.9378574  37.4839230  11.0224473
  67.0278947  37.6329337  10.2043248  66.6058517  37.2124379  10.7134416
  75.9566166  37.7002947  16.6453605  75.9364093  37.5186242  17.4988384
  76.0045366  38.5714965  16.6213189  75.9600807  37.8019485  16.7676900
  73.9012496  44.2890139  22.5702082  73.8608350  43.6439816  21.9847238
  74.7135814  44.2326756  22.8827494  74.0155649  44.1849106  22.5299031
  70.4919963  50.3408865  12.4727233  70.0780362  49.6782995  12.0831074
  71.1767337  50.4886723  11.9522927  70.5318335  50.2649523  12.3383730
  73.8585257  49.4998950  13.2250849  73.4601541  49.6101220  12.4571669
  73.2436477  49.7081016  13.8077409  73.7084147  49.5472518  13.1982149
  72.4313159  36.1073098   6.0924989  71.8377999  36.4290094   5.5409556
  72.4688437  35.2614193   5.8846095  72.3487548  36.0297426   5.9807760
  75.3070976  36.0652602   9.5226739  75.0784669  36.0885304   8.6805097
  75.5669052  35.2410069   9.6421750  75.3117164  35.9468682   9.4151937
  69.5890204  37.9187075  19.1251839  69.0769107  37.3108258  19.4836871
  69.4169700  38.6343668  19.5925815  69.4879841  37.9350375  19.2468063
  64.4355919  36.3624651  21.7754201  64.2658509  37.0226025  21.2302408
  63.9921869  36.5731212  22.4966690  64.3455253  36.4910633  21.8015831
  68.3615738  34.6029149  10.8180935  68.8373105  34.9646228  10.1831116
  67.8604338  35.2585616  11.0981078  68.3581097  34.7523337  10.7657676
  73.4659275  35.8411320  21.5654095  74.0230705  35.6125129  20.9332560
  73.1420340  36.6016986  21.2889307  73.5005685  35.9195157  21.4310592
  61.3357984  39.2671516  17.0342691  60.7884703  38.5972162  17.1523559
  62.1250362  38.9001364  17.0986158  61.3710167  39.1136503  17.0611392
  71.1842392  38.9278973  22.5306102  71.9353719  39.2430650  22.8445656
  71.3764968  38.7258144  21.7040024  71.3233806  38.9446355  22.4549498
  70.4042392  36.7470348   4.1854319  70.7841356  36.7649977   3.4005434
  69.6634988  37.1924337   4.0645166  70.3511229  36.8152123   4.0517887
  78.0327682  35.0552540   9.7729897  78.0321909  34.9001196  10.6314174
  77.8283862  35.9015527   9.7171283  78.0027460  35.1573160   9.8917837
  60.0944953  38.4792324  14.1888714  59.9166714  38.0268933  14.9143630
  59.8063975  39.2818485  14.3727192  60.0257906  38.5314882  14.3232217
  75.7568534  39.7350041  13.4266104  76.2522199  39.0173036  13.3870125
  74.9468310  39.4320839  13.3120591  75.7112427  39.5847688  13.4039830
  61.8317423  41.0120048  11.3010473  60.9662942  41.0005738  11.1893244
  61.9316239  40.8250271  12.1481612  61.7191590  40.9826109  11.4099417
  77.8220353  42.4853729  16.1143233  78.2475425  41.9628151  15.5613658
  77.4577273  43.0834566  15.5931856  77.8306956  42.4963956  15.9552243
  67.4574433  50.7817946  14.8740579  67.7720992  51.5954335  14.8818360
  67.8667846  50.3968165  15.5422738  67.5642531  50.8446649  14.9744670
  74.4098952  46.1987993  12.4444391  74.8810131  46.9128256  12.6134376
  74.7459131  45.5986743  12.9804260  74.5294067  46.2159457  12.5476766
  76.4975937  47.8089306  24.6236463  76.6072903  47.0197867  24.9793210
  76.8266834  47.7195243  23.8210801  76.5628343  47.6795159  24.5578853
  71.3268447  30.9715464  19.4002485  71.4596353  30.1746457  19.7283461
  71.7113600  31.4981867  19.9800761  71.4024776  30.9315380  19.5345988
  75.0472899  45.9905927  19.2072083  74.4993845  45.3663811  18.9392148
  75.5085927  46.1800199  18.4916163  75.0340108  45.9264977  19.0622514
  74.4000803  27.8945790  15.9983579  73.5946766  27.7843519  16.3151417
  74.2707538  27.9958245  15.1413444  74.2620935  27.8929460  15.9191619
  77.8566763  34.0591282  16.5923275  77.2729752  34.5600488  16.1800843
  78.1771057  33.5520838  15.9587599  77.8179938  34.0583117  16.4381783
  70.3961562  32.9731877   6.8681950  71.2177257  33.1430189   6.6263645
  69.9331213  33.1279137   6.1448248  70.4492725  33.0213609   6.7253595
  68.9856894  30.9674639  17.6480379  69.5301307  30.6265766  18.2384721
  69.0393830  31.8260100  17.7901664  69.0746014  31.0429898  17.7562252
  64.7987453  44.7291055  14.5219187  65.4032310  44.6886889  13.8933008
  64.5914765  45.5762207  14.5523243  64.8576350  44.8479057  14.4335303
  74.6131225  46.9957000  15.7381424  75.4329599  46.8519966  15.9997720
  74.3325303  47.6203199  16.2797862  74.6927968  47.0667352  15.8569364
  60.0338735  43.7125672  14.3918110  59.9363013  42.9021944  14.7008167
  60.8167605  43.6917466  14.0064378  60.1354872  43.5892762  14.3804973
  75.7425588  51.4784630  14.0113877  75.1230620  50.8877277  13.8423891
  75.6409452  52.0696065  13.3778200  75.6363263  51.4788712  13.8918866
  75.4694721  55.0236912  16.2557446  75.3453418  55.6099357  16.8907264
  76.1213005  54.5297107  16.5569721  75.5468370  55.0375716  16.3943375
  73.2137646  57.5348264  16.5039390  72.9476061  56.7187381  16.6630380
  73.2276210  57.5801419  15.6334906  73.1762368  57.4205169  16.3992872
  77.9636252  51.0726642  19.1506398  77.2708049  50.6023622  19.3967129
  78.5796580  50.8464947  19.7248105  77.9520782  50.9693774  19.2715550
  76.6876811  55.0392046  20.2933243  77.4116784  55.0245077  20.7798138
  76.7892948  55.7487401  19.7955211  76.8095020  55.1416749  20.2912030
  76.7356012  57.2184340  18.4817167  77.2477109  57.4968593  17.8325927
  76.4492355  57.9573634  18.8479980  76.7690875  57.3686693  18.4407045
  74.6386651  51.8401710  16.5202025  74.4972142  50.9885651  16.6446533
  74.9227214  51.8830371  15.6964231  74.6594497  51.7201460  16.4169649
  75.4076956  49.7532057  19.8379475  74.8719145  49.1412416  20.1540243
  75.4694721  50.3280193  20.4913142  75.3372588  49.7478985  19.9814902
  78.0300205  49.4653907  16.6835442  78.4901687  49.5392836  17.4210566
  78.0756312  50.2635161  16.3335264  78.1050761  49.5948054  16.7408199
  74.8187983  53.0943098  19.0587158  75.6813596  52.9938807  18.9724488
  74.4879766  52.5137807  18.4972731  74.8973180  52.9934724  18.9632564
  78.1789769  51.9185547  15.7197577  77.5542839  51.9303938  15.1123529
  77.8435364  52.3945722  16.3688817  78.0375261  51.9904064  15.7254145
  77.4480515  53.5278694  17.9372445  77.6074001  52.7722018  18.3424167
  77.2673408  54.0769634  18.5913183  77.4445873  53.4972508  18.0935151
  75.4088503  51.8809959  21.7754201  75.2391093  52.5411333  21.2302408
  74.9654452  52.0916520  22.4966690  75.3187836  52.0095941  21.8015831
  72.3090567  54.7856824  17.0342691  71.7617287  54.1157470  17.1523559
  73.0982945  54.4186672  17.0986158  72.3442751  54.6321810  17.0611392
  71.0677537  53.9977632  14.1888714  70.8899298  53.5454241  14.9143630
  70.7796559  54.8003793  14.3727192  70.9990490  54.0500190  14.3232217
   4.5997268  45.9727574  47.6269521   4.5691273  46.8272210  47.7987790
   5.1978617  45.6722866  48.1855664   4.6834426  46.0544070  47.7344323
   1.1090670  51.3289750  61.9882907   1.8157437  50.8341781  62.1169842
   1.2978605  51.7698832  61.2585565   1.2418575  51.3208101  61.8991953
   0.6448774  47.1195269  55.0254103   1.1904734  47.7980355  55.0848072
   0.5865650  46.9782729  54.1655684   0.7164689  47.1987270  54.9066163
   2.4213843  48.5479876  45.8987831   2.3053369  49.2987562  46.3279969
   3.2169730  48.2903829  46.1483918   2.5218432  48.6214723  45.9991922
   1.7349148  35.8967813  49.5962445   1.4202589  36.5871292  50.0282867
   1.2176089  35.8412595  48.8947946   1.6113618  35.9902702  49.5559394
   1.0761582  45.8972314  45.7099856   0.5473053  46.1131948  46.3697162
   1.5986602  46.5908453  45.6300825   1.0750035  46.0315451  45.7955455
   6.5309634  51.4718619  51.0832900   5.7007338  51.6829262  51.2466317
   6.4818887  50.6455673  50.8075184   6.4016370  51.3808225  51.0670265
   6.0263593  44.1189019  54.8783321   5.1892014  44.1891206  55.1130916
   5.9951824  44.1213514  54.0057624   5.8981875  44.1299246  54.7842869
   0.7493779  48.3144696  50.4695213   1.5051294  48.7476210  50.5084122
   0.8556103  47.6649465  51.0429849   0.8763949  48.2822180  50.5593238
   3.7873950  52.1417973  51.2197616   3.3509182  52.1454715  51.9756587
   3.4536865  52.8223472  50.7877193   3.6736570  52.2430429  51.2678448
   3.7071433  39.1831801  53.4627044   4.3497341  39.2529905  54.0488959
   3.9594453  38.5161024  52.9606586   3.8393565  39.0958149  53.4754323
   6.9218296  48.8598893  50.1117253   7.5834730  48.2989561  50.0113162
   6.2809708  48.3650924  50.4369944   6.9247163  48.7035302  50.1449593
   3.2083127  49.8764275  49.8529242   3.4438716  50.0209474  49.0256092
   3.3572690  50.6406683  50.2460755   3.2648930  50.0103330  49.7892846
   5.0373583  48.7165941  47.6898846   5.3681800  49.2493581  47.0838940
   5.6106671  48.7704829  48.3460797   5.1707262  48.8035510  47.6976627
   0.5028494  48.4079584  41.6059378   0.4208656  48.4781771  42.4714365
   1.1408214  48.9709328  41.4143118   0.5848331  48.5018555  41.7049327
   6.1452935  43.9576438  49.1939007   5.8889500  43.1456380  49.0036890
   6.9882249  43.9654005  48.9669195   6.2318960  43.8388436  49.1323824
   3.8278094  51.1126034  59.0297560   3.5916732  50.2814099  58.9109620
   4.4721323  51.0611641  59.6152404   3.8872765  50.9823722  59.0983453
   4.8514515  50.8970483  55.0925854   4.5460332  51.6298540  55.4539170
   4.1320730  50.4908412  54.8118640   4.7001857  50.9452216  55.1038991
  10.5516307  47.5363484  54.4194199  10.4840807  47.5559443  53.5496785
  10.5371969  48.3793811  54.6449869  10.5395063  47.6637218  54.3246675
   0.9612653  38.9398641  57.7435288   1.7066245  38.7508452  57.3298713
   0.5449958  39.4656879  57.1849144   1.0097628  38.9900787  57.5999861
   8.3374924  46.3107870  52.6940793   8.8882846  45.6775939  52.9337885
   8.3219040  46.8423263  53.3856297   8.4160121  46.2956818  52.8319651
   2.0403330  44.5504203  51.8045389   1.6968096  43.8294539  52.1552639
   2.1396373  44.3418055  50.9623747   2.0045373  44.4128407  51.7317069
   2.5016360  51.0129908  47.3469377   3.0674392  51.6723117  47.2627920
   1.8544263  51.3579606  47.8185779   2.4895116  51.1611849  47.4042134
   4.4351820  47.6763775  50.9666174   4.3485794  47.8319201  51.8200953
   3.9802300  48.3201851  50.5925579   4.3555076  47.7939530  51.0373281
   2.2025685  51.7057881  53.3778515   2.0640044  52.4038927  53.8827257
   1.4225682  51.5506538  53.0214696   2.0668911  51.7858048  53.4004789
   0.5403770  48.0054257  59.6300896   0.5351808  47.1334073  59.6343323
   1.2464764  48.2042426  59.1570352   0.6448774  47.9058131  59.5607932
   3.6979057  51.0636135  44.1395014   3.3185866  50.2773273  44.1324303
   3.0345303  51.6122992  43.9966658   3.5437532  51.0280959  44.1175811
   1.1523683  34.0061835  51.5429095   1.2707251  34.4638298  50.8096397
   0.9785859  33.2007096  51.2565312   1.1442854  33.9555607  51.3930028
   1.9439156  53.3081626  44.4746700   2.0258994  54.1148612  44.1508151
   2.4288898  53.3277585  45.1987473   2.0276314  53.4302289  44.5333598
   1.4514357  52.0679045  64.5565026   2.2649222  51.7964193  64.7170158
   1.2909323  51.7686584  63.7525221   1.5484305  51.9833971  64.4610431
   1.4635601  53.1285335  59.8287866   2.1015321  52.6345530  59.4950322
   0.8209692  53.0562735  59.2440093   1.4629827  53.0444343  59.6930221
   3.1892601  44.9774481  54.3953782   2.7620209  44.8900829  53.6401881
   2.5518654  45.0852256  54.9808626   3.0322208  44.9807141  54.3699223
   1.5189857  53.8205143  56.4693223   2.3082235  53.4694208  56.5895305
   1.6933455  54.6341531  56.2069857   1.6610139  53.8891000  56.4481091
   3.6257369  38.3846464  50.5112407   3.0131683  38.8716866  50.8966139
   3.7221544  37.7089955  51.0550058   3.5495267  38.3564773  50.6491265
   7.2682397  49.4563401  55.9389923   7.3265521  49.9050050  56.6849899
   6.6348865  49.8662214  55.5020003   7.1833692  49.5837135  55.9842471
   4.2204076  47.4779689  54.0255613   3.9802299  46.6386104  54.0298040
   4.6996084  47.5579855  54.7496387   4.2556260  47.3661088  54.1330416
   6.2209263  44.2581146  51.9784872   5.9819033  44.2176980  51.1405657
   6.3843165  45.1052298  52.1050593   6.2099567  44.3773231  51.8738354
   2.8255294  48.6431095  57.9089917   3.5489492  48.1903621  57.7300937
   2.5605256  48.9235761  57.1262245   2.8936567  48.6182064  57.7668633
   5.2590608  47.6057506  56.4120467   5.8508448  48.2454757  56.4438665
   5.6949602  46.9080543  56.7012534   5.4109039  47.5975856  56.4601300
   2.2839749  44.8202724  48.7123610   1.6130939  45.3632427  48.5836675
   2.9779499  45.2897580  48.4705305   2.2868616  44.9700996  48.6579137
   2.4467876  41.2758608  51.6213983   2.7995486  40.8488331  52.2959782
   1.5882678  41.1909452  51.7515059   2.3717321  41.2003349  51.7408993
   0.4451142  44.5393977  55.5698825   0.4249070  44.3577272  56.4233604
   0.4930343  45.4105995  55.5458409   0.4485783  44.6410515  55.6922120
   3.8791936  36.3977020  52.5498295   3.3722801  35.6906160  52.4819473
   4.6759370  36.0670209  52.6799372   3.9219176  36.2450171  52.5597290
   6.0812076  50.9141947  45.5339160   6.4645682  51.6633303  45.7637257
   5.2856190  51.1607766  45.2751149   6.0205859  51.0611640  45.5296733
   2.5212659  41.8943569  48.6975117   2.5206885  41.7392226  49.5559394
   2.3168839  42.7406557  48.6416503   2.4912436  41.9964190  48.8163057
   2.3105329  49.3244759  55.0388453   2.7360401  48.8019181  54.4858878
   1.9462249  49.9225596  54.5177076   2.3191932  49.3354986  54.8797463
   2.3451740  40.8982312  55.5168495   1.7614728  41.3991518  55.1046063
   2.6656034  40.3911868  54.8832819   2.3064915  40.8974147  55.3627003
  15.5729852  61.4912882  47.6269521  15.5423856  62.3457518  47.7987790
  16.1711201  61.1908174  48.1855664  15.6567010  61.5729378  47.7344323
   8.7729537  60.5788533  52.3822451   7.9167432  60.7397031  52.4331568
   8.8197190  59.7080597  52.4027512   8.6528648  60.4739334  52.3928517
  12.0823253  66.8475058  61.9882907  12.7890021  66.3527089  62.1169842
  12.2711189  67.2884140  61.2585565  12.2151159  66.8393409  61.8991953
  11.6181358  62.6380577  55.0254103  12.1637318  63.3165663  55.0848072
  11.5598234  62.4968037  54.1655684  11.6897272  62.7172578  54.9066163
  13.3946426  64.0665184  45.8987831  13.2785952  64.8172870  46.3279969
  14.1902313  63.8089137  46.1483918  13.4951016  64.1400031  45.9991922
   5.2776752  68.0559207  47.1857173   5.5992593  68.5964414  46.5818481
   5.9248848  67.4855978  47.3179463   5.4202807  68.0518382  47.1164208
   7.3278460  60.0575202  47.2691560   8.0258625  60.2363329  47.7613023
   7.6430793  59.5345541  46.6461949   7.4773797  60.0068974  47.2493570
   7.5166395  66.4445647  47.2571351   7.9560031  65.8362747  47.7026124
   7.3671058  66.0653020  46.4856816   7.5587861  66.2984118  47.2090519
   4.9838038  65.0389658  54.4590177   5.6287041  64.5462102  54.1401125
   5.2239815  65.1814445  55.2856255   5.1148623  64.9867101  54.5339710
   7.5224130  67.8844564  54.1097069   7.8047373  67.0895970  53.8883825
   8.2510290  68.3625152  54.1302130   7.6713693  67.8379161  54.0800084
   5.5005324  55.4267598  51.3512834   5.1708654  55.8778742  50.6816533
   4.8250325  55.3483762  51.8985841   5.3515760  55.4818733  51.3336058
  11.1175732  64.7972828  44.2102120  11.0327027  65.6533795  44.3551689
  11.6060115  64.5217152  44.8784280  11.1764629  64.8830149  44.3304202
  12.7081731  51.4153121  49.5962445  12.3935172  52.1056600  50.0282867
  12.1908673  51.3597903  48.8947946  12.5846202  51.5088010  49.5559394
  12.0494165  61.4157622  45.7099856  11.5205637  61.6317256  46.3697162
  12.5719185  62.1093761  45.6300825  12.0482618  61.5500759  45.7955455
  17.5042218  66.9903927  51.0832900  16.6739921  67.2014570  51.2466317
  17.4551470  66.1640981  50.8075184  17.3748953  66.8993533  51.0670265
   3.9393773  65.3120839  44.5107324   3.3550988  65.8170870  44.9173187
   3.5363868  65.0863226  43.7703915   3.7933077  65.3529087  44.4612349
   9.2215548  70.2702595  59.8796983   9.3098893  70.0828735  60.7275193
   9.6505260  69.6240024  59.4801829   9.2977650  70.1465602  59.9468734
   6.7886007  69.5533755  58.8614645   6.2256842  69.1406365  59.3854306
   7.5507031  69.4786660  59.2807788   6.8180456  69.4811155  59.0007645
   8.3970987  61.5586491  42.9876244   8.6366991  61.7664475  42.1751587
   8.7186828  60.7544000  43.0965189   8.4808145  61.4700592  42.8836797
   3.7061278  53.4879887  46.8335782   4.4607246  53.8558204  46.5952832
   3.5288812  53.8619441  47.6014962   3.7915756  53.5978075  46.9120671
  16.9996176  59.6374327  54.8783321  16.1624597  59.7076514  55.1130916
  16.9684407  59.6398822  54.0057624  16.8714459  59.6484554  54.7842869
   3.3960905  61.7807363  60.5931690   3.5681409  61.6713257  61.4416971
   3.9330263  62.4261768  60.3562882   3.5005909  61.8599364  60.6836787
   2.0618342  55.8950206  43.5313895   1.8793916  56.1122086  42.7054888
   2.9243955  56.0089218  43.5872509   2.1622932  55.9440104  43.4168382
   1.6732774  67.7338128  50.9736883   2.5121674  67.9661061  51.0210645
   1.7044543  66.8642439  50.9043918   1.8014492  67.6395074  50.9701528
   7.7418061  52.8976616  46.5662919   8.4704222  52.7192571  46.1201075
   7.8312954  53.7394696  46.7770097   7.8624724  52.9960495  46.5316437
  11.7226362  63.8330004  50.4695213  12.4783877  64.2661518  50.5084122
  11.8288687  63.1834773  51.0429849  11.8496533  63.8007488  50.5593238
  14.7606533  67.6603281  51.2197616  14.3241765  67.6640023  51.9756587
  14.4269449  68.3408780  50.7877193  14.6469153  67.7615737  51.2678448
  14.6804016  54.7017109  53.4627044  15.3229925  54.7715213  54.0488959
  14.9327037  54.0346332  52.9606586  14.8126148  54.6143457  53.4754323
   1.6080369  59.1724378  42.0436368   0.8938546  58.8862558  42.4558801
   2.0924338  59.5121004  42.6842756   1.5739733  59.1806028  42.1992003
   2.4521229  57.9117672  58.0751618   1.7593025  57.4414652  58.3212349
   3.0681556  57.6855977  58.6493325   2.4405759  57.8084804  58.1960770
  17.8950879  64.3784201  50.1117253  18.5567314  63.8174869  50.0113162
  17.2542291  63.8836232  50.4369944  17.8979747  64.2220610  50.1449593
   8.7827687  67.6754332  42.4198176   9.1978836  67.3439356  41.7282672
   7.9519617  67.4423234  42.2918313   8.7215696  67.5925588  42.2989024
  14.1815710  65.3949583  49.8529242  14.4171299  65.5394782  49.0256092
  14.3305274  66.1591991  50.2460755  14.2381513  65.5288638  49.7892846
   1.1761788  61.8783076  59.2178463   1.9001760  61.8636107  59.7043358
   1.2777924  62.5878431  58.7200431   1.2979997  61.9807779  59.2157250
  16.0106167  64.2351249  47.6898846  16.3414384  64.7678889  47.0838940
  16.5839255  64.2890137  48.3460797  16.1439846  64.3220818  47.6976627
  11.2238056  62.0816152  48.3722426  11.3184910  62.8205446  48.8262051
  10.5996900  61.6533627  48.8056990  11.1447086  62.1277472  48.5030573
   9.4790530  65.2602364  59.0212707  10.0529392  64.6229609  59.1761271
   9.4005334  65.2606447  58.1522364   9.5523765  65.1667476  58.9159118
  11.4761077  63.9264892  41.6059378  11.3941240  63.9967079  42.4714365
  12.1140798  64.4894636  41.4143118  11.5580915  64.0203863  41.7049327
   4.8354248  63.6925630  51.0733904   4.5773493  62.8597364  51.0465204
   4.8902731  63.9183243  50.2326404   4.8054026  63.6023401  50.9454041
   9.9155299  55.7954080  51.1737997   9.2111625  55.3063266  51.3321916
   9.9640273  55.8076555  50.3026441   9.8185350  55.7243728  51.0677337
   3.8088961  61.2463392  51.5598799   3.2338552  61.4055560  52.1962760
   3.4324637  60.6098801  51.0967249   3.6691773  61.1761205  51.5853357
   7.4762249  59.7186741  56.4191177   7.0876682  59.2940959  55.7643368
   6.8116948  59.9668891  56.9268204   7.3209177  59.6925462  56.3979045
  17.1185518  59.4761746  49.1939007  16.8622083  58.6641688  49.0036890
  17.9614832  59.4839313  48.9669195  17.2051544  59.3573744  49.1323824
  11.2988611  53.4161370  53.9315161  11.6799123  52.7339541  54.3183036
  10.4951895  53.1270972  53.7490826  11.2365073  53.2728419  53.9619217
   8.5801188  63.9485346  44.6167984   9.3941826  64.2400239  44.5050756
   8.5160329  63.2945208  44.0426277   8.6903927  63.8950541  44.5156822
  14.8010678  66.6311342  59.0297560  14.5649315  65.7999407  58.9109620
  15.4453907  66.5796949  59.6152404  14.8605348  66.5009030  59.0983453
   4.4509096  67.4206863  49.7440296   5.0883043  67.1818611  50.2892090
   4.8764167  67.6244022  49.0093457   4.6085262  67.4157874  49.7157454
   5.0911911  62.6409153  44.0815186   5.4757064  62.4216860  44.8331731
   4.8423531  63.4672099  44.2116262   5.1113983  62.7307299  44.2116262
   5.2580451  55.9215568  63.7977770   4.9433892  56.6915131  63.5347333
   4.9370384  55.3585824  63.2129997   5.1639370  55.9525837  63.6719120
  15.8247098  66.4155791  55.0925854  15.5192915  67.1483848  55.4539170
  15.1053314  66.0093720  54.8118640  15.6734441  66.4637524  55.1038991
   6.8330568  67.8979286  51.4234083   6.9069576  67.7354458  52.2775932
   7.6500074  68.0869476  51.1794564   6.9646926  67.9016028  51.5132108
  21.5248890  63.0548792  54.4194199  21.4573391  63.0744751  53.5496785
  21.5104553  63.8979119  54.6449869  21.5127647  63.1822526  54.3246675
   2.8112348  54.3106090  49.4123966   1.9434774  54.3828689  49.4781575
   3.0987553  55.1128169  49.6011941   2.7252096  54.4400237  49.4498733
  11.9345237  54.4583949  57.7435288  12.6798829  54.2693760  57.3298713
  11.5182542  54.9842187  57.1849144  11.9830211  54.5086095  57.5999861
  19.3107508  61.8293178  52.6940793  19.8615429  61.1961247  52.9337885
  19.2951623  62.3608571  53.3856297  19.3892704  61.8142126  52.8319651
   5.9629899  65.6631775  57.2400686   5.4641592  66.3747543  57.3185575
   6.7730123  65.9832442  57.2018849   6.0086005  65.8158624  57.2457255
   2.2258016  64.9254728  51.4863407   1.9371265  64.2992199  52.0209135
   3.0941364  64.8675015  51.5528088   2.3118268  64.8242272  51.5754362
  13.0135914  60.0689511  51.8045389  12.6700680  59.3479847  52.1552639
  13.1128957  59.8603363  50.9623747  12.9777957  59.9313715  51.7317069
   2.4290290  66.5649979  47.4105772   3.1836258  66.9463018  47.6241235
   1.8360902  67.0161123  47.8652469   2.4527003  66.6878806  47.5088651
  13.4748943  66.5315215  47.3469377  14.0406976  67.1908425  47.2627920
  12.8276847  66.8764914  47.8185779  13.4627700  66.6797157  47.4042134
   4.8896957  58.5212819  62.5362985   4.0796732  58.8270599  62.4252827
   5.3671643  59.2418402  62.6515569   4.8400435  58.6727421  62.5370056
   3.7488516  67.7358540  52.7845888   3.2269270  67.8758832  53.4697752
   4.1362537  66.9769205  52.9748005   3.7292217  67.6444064  52.9146964
   0.7379700  57.7864349  46.8540842   0.4504496  57.4165620  46.1172790
   1.4250169  58.2559204  46.5924547   0.7968598  57.8011319  46.7055918
   9.9455521  69.4754000  46.7706457   9.7042197  68.7421860  46.3633521
  10.1256854  70.0240857  46.1172790   9.9363145  69.4476391  46.6136679
   5.1754842  64.7662559  48.1827379   4.9797624  65.3737294  47.5887682
   5.3989187  64.0730503  47.7019053   5.1789483  64.7540085  48.0243460
   3.5733372  61.6517297  48.3008247   4.2956024  61.8158455  47.8412053
   3.0941365  62.3726962  48.1947587   3.6097103  61.7815527  48.2173861
  11.5326879  57.9881096  53.6804932  10.6937980  58.0142375  53.4443195
  11.6031247  58.6351832  54.2610279  11.4195273  58.0877222  53.7314049
   9.9796158  54.8866473  48.4132548  10.6822511  54.6874221  47.9352506
   9.7140346  54.1142416  48.7201391  10.0442790  54.7429439  48.3877990
  15.4084403  63.1949083  50.9666174  15.3218378  63.3504509  51.8200953
  14.9534883  63.8387158  50.5925579  15.3287660  63.3124838  51.0373281
   4.7424714  56.1501758  57.4663429   4.5507911  56.1656893  58.3162852
   5.5923310  56.3465433  57.4430083   4.8400436  56.1816110  57.5886723
   9.2810219  60.5159830  49.5891733   9.0344934  60.4355581  50.4228522
   9.6095342  59.7313298  49.3954261   9.2931463  60.3886095  49.6839256
  13.1758268  67.2243189  53.3778515  13.0372627  67.9224235  53.8827257
  12.3958266  67.0691846  53.0214696  13.0401495  67.3043356  53.4004789
  11.5136353  63.5239565  59.6300896  11.5084392  62.6519381  59.6343323
  12.2197347  63.7227734  59.1570352  11.6181357  63.4243439  59.5607932
   5.2407247  63.2516549  59.0014716   5.3850622  63.8317757  58.3657826
   5.5882895  63.6292845  59.7064571   5.3134708  63.3937253  59.0113711
   7.4127164  62.4506717  56.7839848   6.6650478  62.6437731  56.3788126
   7.5668689  61.6251937  56.5463969   7.3249592  62.3571828  56.6885254
  14.6711641  66.5821443  44.1395014  14.2918450  65.7958581  44.1324303
  14.0077886  67.1308300  43.9966658  14.5170116  66.5466267  44.1175811
   7.6528941  56.3457268  57.6735252   8.1101555  57.0781242  57.8008044
   7.7285270  55.9223733  58.4322508   7.7319911  56.3914506  57.8036328
  12.1256267  49.5247143  51.5429095  12.2439835  49.9823606  50.8096397
  11.9518443  48.7192404  51.2565312  12.1175438  49.4740915  51.3930028
   5.5311319  58.3359372  54.5177076   4.7407394  58.1550832  54.8394412
   5.9271942  57.5586324  54.5007370   5.4728195  58.1946833  54.5629624
  10.0177210  67.1647146  39.9583789  10.7850195  67.2247271  39.5489641
   9.5708519  66.5927587  39.4740108  10.0650637  67.0883722  39.8261500
  10.9155005  65.9701802  52.2436522  10.2400007  65.7387034  52.7449909
  10.9247381  65.3622985  51.6178627  10.8173510  65.8460727  52.2252674
   8.0449149  60.8119631  59.0000575   7.9808290  61.6729587  58.8720711
   8.1846337  60.4951624  58.1996126   8.0564619  60.8919797  58.8628788
  12.9171740  68.8266934  44.4746700  12.9991577  69.6333920  44.1508151
  13.4021482  68.8462893  45.1987473  13.0008898  68.9487597  44.5333598
   6.7268243  63.5051770  53.1416778   6.3030492  63.7056269  52.4055796
   6.5513098  62.6580618  53.2541077   6.6379124  63.4100552  53.0490468
   2.0150688  64.0003822  48.5744750   2.1715307  63.9350624  49.4300742
   2.3551281  64.7752374  48.3623430   2.0883923  64.1053020  48.6699344
   8.5529833  63.3761705  47.4438113   9.0945378  62.8732086  47.9076734
   8.8676392  63.3226900  46.6327599   8.6794230  63.2941126  47.3921925
  12.4246940  67.5864352  64.5565026  13.2381805  67.3149501  64.7170158
  12.2641906  67.2871892  63.7525221  12.5216889  67.5019278  64.4610431
   6.7216282  68.7679057  44.7278141   6.7909103  67.9093595  44.8671142
   7.5004738  68.9850938  44.3997166   6.8469132  68.6731921  44.6995299
   9.7019102  58.2698010  57.4960414   9.9161072  57.6308924  56.9423768
   9.0853001  58.7143833  57.0668276   9.6424431  58.2408153  57.3510845
  11.8658190  59.8787075  58.4343721  11.0534872  59.5712965  58.5156894
  12.3248125  59.3986075  58.9986433  11.8138575  59.7623567  58.5298315
  11.2763445  67.7566747  48.8820665  10.9178099  67.9281390  49.6584698
  10.7902156  68.2179952  48.3248664  11.1522142  67.8505718  48.9145934
   9.0933831  51.3797945  52.4847757   8.2227389  51.3536666  52.4381066
   9.3474172  51.2075137  51.6673602   9.0027391  51.3508089  52.3567893
   6.0651810  63.4365912  41.4220900   6.3544335  64.2130795  41.6964474
   6.1523609  62.9254644  42.1235399   6.1206066  63.4757831  41.5663397
   8.9611698  61.2847146  63.2172423   9.4311329  61.9089263  63.6040297
   9.0073578  60.6164122  63.7765638   9.0379573  61.2781827  63.3572495
   6.1182971  53.3904174  53.9421227   5.6021460  52.6984365  54.0672806
   5.5576900  54.0574951  53.8883826   5.9589484  53.3867431  53.9527293
   8.1875205  53.9297134  55.7714080   7.8006958  53.9546165  56.5527609
   7.7008142  53.3638812  55.3188596   8.0587714  53.8492885  55.8201983
  12.4368184  68.6470643  59.8287866  13.0747905  68.1530838  59.4950322
  11.7942276  68.5748043  59.2440093  12.4362411  68.5629651  59.6930221
  14.1625184  60.4959789  54.3953782  13.7352792  60.4086137  53.6401881
  13.5251237  60.6037564  54.9808626  14.0054791  60.4992449  54.3699223
   7.8532346  50.8164119  58.0624339   8.4825464  51.3524419  57.7845410
   8.0218209  50.7241478  58.9137905   7.9710141  50.8825481  58.1472868
   7.6546261  55.6035314  60.3350751   8.4819691  55.3320463  60.3909366
   7.6754107  56.3996156  60.6914569   7.7799111  55.6815068  60.3965934
  12.4922441  69.3390451  56.4693223  13.2814819  68.9879516  56.5895305
  12.6666039  70.1526839  56.2069857  12.6342722  69.4076308  56.4481091
   2.2315751  62.7499177  53.5221012   1.3903758  62.6503051  53.7299906
   2.4405759  63.5194657  53.8735332   2.1380444  62.8491220  53.6048327
  11.3456265  53.3500008  51.0309641  11.5505858  53.2822316  51.8766638
  11.0182689  54.1558829  50.9630819  11.3271513  53.4585948  51.1469296
   6.0432416  60.6780576  52.7718609   5.7395553  60.1236564  53.3729017
   5.3411837  60.8572786  52.2846643   5.8948626  60.6225358  52.7888315
   5.0998513  57.9881096  47.3363311   5.3758247  57.2700008  46.9240879
   5.6997182  58.5866016  47.1284417   5.2291778  57.9701466  47.2444072
  14.5989953  53.9031772  50.5112407  13.9864266  54.3902174  50.8966139
  14.6954127  53.2275263  51.0550058  14.5227850  53.8750081  50.6491265
   8.6009034  55.6594613  45.6109906   9.0552780  55.8305174  46.3357751
   9.0749079  55.0462724  45.2107682   8.7377354  55.5945498  45.6583668
   2.1224559  65.1442939  54.9412645   1.5312492  65.7852437  54.9115660
   2.8845583  65.5680556  54.9143944   2.1472820  65.3018777  54.9327792
   2.5185182  56.3044937  55.6080662   2.9786663  56.3783866  56.3455786
   2.5641289  57.1026191  55.2580484   2.5935737  56.4339084  55.6653419
   4.1668532  56.9711632  60.1752689   3.7754097  56.3244979  60.6108467
   4.3354394  57.5623067  60.7946945   4.1339442  56.9625900  60.3315395
  18.2414981  64.9748709  55.9389923  18.2998104  65.4235357  56.6849899
  17.6081448  65.3847522  55.5020003  18.1566276  65.1022443  55.9842471
  11.8814075  70.5952251  52.3744669  11.6833764  71.0843065  51.6800880
  11.2601786  70.7993492  52.9528802  11.7601640  70.6968789  52.3567892
   5.9422054  62.3637147  46.7154913   6.6864099  62.7511424  46.9537863
   6.0882750  61.5194573  46.8795401   6.0732639  62.2967620  46.7748883
   7.8601629  54.1587406  51.7486775   7.0137674  54.3310214  51.6228125
   7.8572761  53.3536750  52.0852603   7.7348779  54.0648435  51.7797902
   8.9299929  57.9362621  52.6148833   8.4559884  57.4104383  53.1254144
   9.3018065  57.3892094  52.0463694   8.9149818  57.7778617  52.6063980
  15.1936660  62.9964996  54.0255613  14.9534883  62.1571412  54.0298040
  15.6728667  63.0765163  54.7496387  15.2288844  62.8846396  54.1330416
  10.8583429  58.8299175  45.6774586  10.3306448  58.9127919  44.9880295
  11.3179137  59.5717047  45.6739231  10.8485280  58.9519838  45.5749282
  17.1941847  59.7766454  51.9784872  16.9551617  59.7362288  51.1405657
  17.3575748  60.6237606  52.1050593  17.1832150  59.8958539  51.8738354
  13.7987877  64.1616403  57.9089917  14.5222076  63.7088929  57.7300937
  13.5337839  64.4421069  57.1262245  13.8669150  64.1367371  57.7668633
   2.6674746  58.7576576  54.6442797   2.0427816  58.7694968  54.0368749
   2.3320340  59.2336752  55.2934037   2.5260237  58.8295093  54.6499365
   2.8516494  57.1001695  40.7015482   2.5029299  57.7521420  41.1647031
   2.3712940  57.0858808  39.9739353   2.7286738  57.1944749  40.6626573
  10.4120512  67.4002739  44.8084244  11.1354710  67.8660852  44.6648817
   9.9721103  67.4676349  44.0581841  10.4536204  67.4786576  44.6769025
   9.5806667  64.2600281  56.0584933   8.9663660  63.7158331  56.3533568
  10.0973952  63.7464518  55.5790749   9.5662329  64.1036690  56.0309161
   8.8202964  65.3304551  53.7929231   8.3930572  64.7054270  53.3594667
   8.8127908  65.0479473  54.6188238   8.7562105  65.1957332  53.8509059
   1.9365491  60.3669724  56.8617665   2.0958978  59.6113048  57.2669387
   1.7558385  60.9160664  57.5158403   1.9330850  60.3363538  57.0180371
   9.8785794  52.5330960  57.4168455   9.3826355  52.7294634  56.7260021
  10.6354856  52.9323628  57.2457256   9.9172619  52.6208694  57.2888591
   7.1488674  56.2073306  54.0071765   7.1731161  55.6733418  53.3184545
   7.4000147  55.6990615  54.6697356   7.1898592  56.0534210  54.0036410
   3.4289996  54.9344124  53.3877509   3.4688367  55.4353331  54.1012217
   2.6039660  55.0254518  53.1183433   3.3129522  55.0225940  53.4528048
   4.8504359  61.4504634  55.6851408   4.0196289  61.6178452  55.4786657
   4.7955876  61.0740585  56.4700294   4.7193774  61.4194365  55.7699937
   2.6588142  54.9413527  61.3207819   3.2840846  54.3975660  61.5937251
   2.2038622  54.4608444  60.7515610   2.6836403  54.7903008  61.2769413
   3.2240403  59.7260225  46.2141526   3.3643364  60.2232690  46.9170168
   3.7222936  59.0246520  46.3555740   3.3181484  59.6962204  46.3393105
   3.2540625  60.5927336  43.5434103   3.8885705  61.1887761  43.4783565
   3.3366236  60.2930794  44.3579973   3.3597176  60.6368245  43.6537190
  16.2323191  63.1242814  56.4120467  16.8241031  63.7640064  56.4438665
  16.6682186  62.4265850  56.7012534  16.3841622  63.1161164  56.4601300
   4.8319608  56.5241312  43.5179545   5.1535449  56.0444394  42.8638807
   5.0946552  57.3340958  43.3270357   4.9185634  56.5731210  43.3935037
   8.0616581  67.5460186  57.0378361   7.5541672  68.0996033  57.4818992
   7.7643227  67.6068476  56.2197136   7.9421466  67.6366497  56.9826818
  10.2278763  55.9113506  55.8803024  10.6533835  55.4586032  55.2686551
   9.6135756  55.3573576  56.1567812  10.2007409  55.7627482  55.8308049
   8.6672986  52.3828606  49.2893601   8.0241304  52.2326252  49.8578740
   8.3272393  52.1370951  48.5242706   8.5218063  52.3240728  49.2596616
  13.2572332  60.3388032  48.7123610  12.5863522  60.8817735  48.5836675
  13.9512083  60.8082888  48.4705305  13.2601200  60.4886304  48.6579137
  13.4200460  56.7943916  51.6213983  13.7728070  56.3673639  52.2959782
  12.5615261  56.7094760  51.7515059  13.3449905  56.7188657  51.7408993
   2.1184145  59.4251436  49.6796829   1.3996134  59.8415568  49.9469693
   2.4896507  59.9905674  49.1288468   2.0676077  59.5700717  49.6379636
  11.4183726  60.0579285  55.5698825  11.3981653  59.8762580  56.4233604
  11.4662926  60.9291303  55.5458409  11.4218367  60.1595823  55.6922120
   9.3630056  66.6466477  61.4947302   9.3225910  66.0016154  60.9092458
  10.1753374  66.5903094  61.8072714   9.4773209  66.5425443  61.4544251
   7.8930719  58.4649436  45.0170209   7.2995559  58.7866432  44.4654776
   7.9305997  57.6190531  44.8091315   7.8105108  58.3873764  44.9052980
  14.8524520  51.9162328  52.5498295  14.3455385  51.2091467  52.4819473
  15.6491954  51.5855517  52.6799372  14.8951759  51.7635479  52.5597290
  10.7688536  58.4228940  48.4471959  10.5402229  58.4461642  47.6050317
  11.0286612  57.5986407  48.5666970  10.7734724  58.3045020  48.3397157
   5.0507764  60.2763413  58.0497059   4.5386667  59.6684596  58.4082091
   4.8787260  60.9920006  58.5171035   4.9497401  60.2926712  58.1713283
   3.8233298  56.9605486  49.7426155   4.2990665  57.3222566  49.1076336
   3.3221898  57.6161954  50.0226298   3.8198657  57.1099675  49.6902896
  17.0544660  66.4327254  45.5339160  17.4378266  67.1818611  45.7637257
  16.2588773  66.6793074  45.2751149  16.9938442  66.5796948  45.5296733
   8.9276835  58.1987658  60.4899315   9.4848265  57.9701467  59.8577780
   8.6037900  58.9593323  60.2134527   8.9623245  58.2771494  60.3555812
   6.6459952  61.2855311  61.4551322   7.3971279  61.6006988  61.7690876
   6.8382528  61.0834482  60.6285244   6.7851366  61.3022693  61.3794718
   5.8659952  59.1046686  43.1099539   6.2458916  59.1226315  42.3250654
   5.1252548  59.5500675  42.9890386   5.8128789  59.1728461  42.9763107
  11.2186094  62.0926379  52.3511324  11.7139759  61.3749374  52.3115345
  10.4085870  61.7897177  52.2365811  11.1729987  61.9424025  52.3285050
   6.6644706  65.9424192  44.5008329   5.8556028  65.6190866  44.4541638
   7.1719615  65.2357415  44.4336577   6.6194372  65.7905509  44.4838623
  13.2837913  64.8430067  55.0388453  13.7092985  64.3204489  54.4858878
  12.9194833  65.4410904  54.5177076  13.2924516  64.8540294  54.8797463
   9.8716512  68.5564331  51.3689611  10.3427691  69.2704594  51.5379596
  10.2076691  67.9563081  51.9049480   9.9911627  68.5735795  51.4721986
   6.7886007  53.3291802  58.3247705   6.9213913  52.5322795  58.6528681
   7.1731160  53.8558205  58.9045981   6.8642336  53.2891718  58.4591208
  10.5090459  68.3482265  58.1317303   9.9611405  67.7240149  57.8637368
  10.9703487  68.5376537  57.4161383  10.4957668  68.2841315  57.9867734
   9.8618363  50.2522128  54.9228799   9.0564326  50.1419857  55.2396637
   9.7325098  50.3534583  54.0658664   9.7238495  50.2505798  54.8436839
  13.3184323  56.4167620  55.5168495  12.7347312  56.9176826  55.1046063
  13.6388617  55.9097176  54.8832819  13.2797498  56.4159455  55.3627003
   5.8579122  55.3308214  45.7927170   6.6794817  55.5006527  45.5508865
   5.3948773  55.4855475  45.0693468   5.9110285  55.3789947  45.6498815
   4.4474454  53.3250977  56.5725599   4.9918867  52.9842103  57.1629941
   4.5011390  54.1836438  56.7146884   4.5363574  53.4006236  56.6807472
  10.0748785  69.3533338  54.6626644  10.8947159  69.2096304  54.9242940
   9.7942863  69.9779537  55.2043082  10.1545528  69.4243690  54.7814584
  16.4737907  70.9452906  51.3512834  16.1441237  71.3964050  50.6816533
  15.7982909  70.8669069  51.8985841  16.3248343  71.0004041  51.3336058
  23.6814315  66.9338429  49.5962445  23.3667756  67.6241908  50.0282867
  23.1641257  66.8783211  48.8947946  23.5578785  67.0273318  49.5559394
  14.6793861  69.0065195  46.8335782  15.4339829  69.3743512  46.5952832
  14.5021396  69.3804749  47.6014962  14.7648340  69.1163382  46.9120671
  27.9728760  75.1559635  54.8783321  27.1357181  75.2261822  55.1130916
  27.9416991  75.1584130  54.0057624  27.8447042  75.1669862  54.7842869
  13.0350926  71.4135514  43.5313895  12.8526499  71.6307394  42.7054888
  13.8976539  71.5274526  43.5872509  13.1355515  71.4625411  43.4168382
  18.7150645  68.4161924  46.5662919  19.4436805  68.2377879  46.1201075
  18.8045538  69.2580004  46.7770097  18.8357307  68.5145803  46.5316437
  25.6536600  70.2202417  53.4627044  26.2962508  70.2900521  54.0488959
  25.9059620  69.5531640  52.9606586  25.7858732  70.1328765  53.4754323
  20.8887882  71.3139388  51.1737997  20.1844209  70.8248574  51.3321916
  20.9372857  71.3261863  50.3026441  20.7917934  71.2429036  51.0677337
  28.0918102  74.9947054  49.1939007  27.8354667  74.1826995  49.0036890
  28.9347416  75.0024621  48.9669195  28.1784127  74.8759051  49.1323824
  22.2721194  68.9346678  53.9315161  22.6531706  68.2524849  54.3183036
  21.4684479  68.6456280  53.7490826  22.2097656  68.7913727  53.9619217
  16.2313035  71.4400876  63.7977770  15.9166476  72.2100439  63.5347333
  15.9102967  70.8771132  63.2129997  16.1371954  71.4711145  63.6719120
  13.7844932  69.8291398  49.4123966  12.9167357  69.9013997  49.4781575
  14.0720136  70.6313477  49.6011941  13.6984680  69.9585545  49.4498733
  22.9077821  69.9769257  57.7435288  23.6531413  69.7879068  57.3298713
  22.4915125  70.5027495  57.1849144  22.9562795  70.0271403  57.5999861
  30.2840091  77.3478486  52.6940793  30.8348013  76.7146555  52.9337885
  30.2684207  77.8793878  53.3856297  30.3625288  77.3327434  52.8319651
  23.9868498  75.5874819  51.8045389  23.6433263  74.8665155  52.1552639
  24.0861540  75.3788670  50.9623747  23.9510540  75.4499023  51.7317069
  22.5059463  73.5066404  53.6804932  21.6670564  73.5327683  53.4443195
  22.5763830  74.1537140  54.2610279  22.3927857  73.6062530  53.7314049
  20.9528741  70.4051781  48.4132548  21.6555094  70.2059529  47.9352506
  20.6872930  69.6327723  48.7201391  21.0175374  70.2614747  48.3877990
  15.7157298  71.6687066  57.4663429  15.5240495  71.6842201  58.3162852
  16.5655893  71.8650741  57.4430083  15.8133019  71.7001417  57.5886723
  18.6261525  71.8642576  57.6735252  19.0834139  72.5966550  57.8008044
  18.7017853  71.4409041  58.4322508  18.7052494  71.9099814  57.8036328
  23.0988851  65.0432451  51.5429095  23.2172419  65.5008914  50.8096397
  22.9251026  64.2377712  51.2565312  23.0908021  64.9926223  51.3930028
  20.6751686  73.7883318  57.4960414  20.8893655  73.1494232  56.9423768
  20.0585585  74.2329141  57.0668276  20.6157015  73.7593461  57.3510845
  22.8390774  75.3972383  58.4343721  22.0267455  75.0898273  58.5156894
  23.2980708  74.9171383  58.9986433  22.7871158  75.2808875  58.5298315
  20.0666414  66.8983253  52.4847757  19.1959972  66.8721974  52.4381066
  20.3206756  66.7260445  51.6673602  19.9759974  66.8693397  52.3567893
  17.0915555  68.9089482  53.9421227  16.5754043  68.2169673  54.0672806
  16.5309484  69.5760259  53.8883826  16.9322068  68.9052739  53.9527293
  19.1607788  69.4482442  55.7714080  18.7739541  69.4731473  56.5527609
  18.6740726  68.8824120  55.3188596  19.0320297  69.3678193  55.8201983
  18.8264930  66.3349427  58.0624339  19.4558048  66.8709727  57.7845410
  18.9950793  66.2426786  58.9137905  18.9442725  66.4010789  58.1472868
  18.6278845  71.1220622  60.3350751  19.4552274  70.8505771  60.3909366
  18.6486691  71.9181464  60.6914569  18.7531695  71.2000376  60.3965934
  22.3188848  68.8685316  51.0309641  22.5238442  68.8007624  51.8766638
  21.9915272  69.6744137  50.9630819  22.3004096  68.9771256  51.1469296
  25.5722536  69.4217080  50.5112407  24.9596850  69.9087482  50.8966139
  25.6686711  68.7460571  51.0550058  25.4960434  69.3935389  50.6491265
  19.5741617  71.1779921  45.6109906  20.0285364  71.3490481  46.3357751
  20.0481663  70.5648032  45.2107682  19.7109937  71.1130806  45.6583668
  18.8334213  69.6772714  51.7486775  17.9870258  69.8495522  51.6228125
  18.8305345  68.8722058  52.0852603  18.7081363  69.5833743  51.7797902
  19.9032513  73.4547929  52.6148833  19.4292467  72.9289691  53.1254144
  20.2750649  72.9077402  52.0463694  19.8882402  73.2963925  52.6063980
  21.8316013  74.3484483  45.6774586  21.3039031  74.4313227  44.9880295
  22.2911721  75.0902355  45.6739231  21.8217863  74.4705146  45.5749282
  28.1674431  75.2951762  51.9784872  27.9284201  75.2547596  51.1405657
  28.3308332  76.1422914  52.1050593  28.1564734  75.4143847  51.8738354
  20.8518377  68.0516268  57.4168455  20.3558939  68.2479942  56.7260021
  21.6087440  68.4508936  57.2457256  20.8905202  68.1394002  57.2888591
  18.1221257  71.7258614  54.0071765  18.1463744  71.1918726  53.3184545
  18.3732731  71.2175922  54.6697356  18.1631176  71.5719518  54.0036410
  14.4022579  70.4529432  53.3877509  14.4420951  70.9538638  54.1012217
  13.5772244  70.5439826  53.1183433  14.2862105  70.5411248  53.4528048
  13.6320726  70.4598835  61.3207819  14.2573429  69.9160967  61.5937251
  13.1771206  69.9793752  60.7515610  13.6568987  70.3088316  61.2769413
  15.8052192  72.0426620  43.5179545  16.1268033  71.5629702  42.8638807
  16.0679136  72.8526266  43.3270357  15.8918217  72.0916518  43.3935037
  21.2011347  71.4298814  55.8803024  21.6266418  70.9771340  55.2686551
  20.5868340  70.8758884  56.1567812  21.1739992  71.2812790  55.8308049
  19.6405570  67.9013913  49.2893601  18.9973888  67.7511560  49.8578740
  19.3004977  67.6556259  48.5242706  19.4950647  67.8426036  49.2596616
  24.3933044  72.3129224  51.6213983  24.7460654  71.8858947  52.2959782
  23.5347845  72.2280067  51.7515059  24.3182488  72.2373965  51.7408993
  25.8257104  67.4347636  52.5498295  25.3187968  66.7276775  52.4819473
  26.6224537  67.1040825  52.6799372  25.8684343  67.2820787  52.5597290
  21.7421119  73.9414248  48.4471959  21.5134812  73.9646949  47.6050317
  22.0019196  73.1171715  48.5666970  21.7467308  73.8230328  48.3397157
  24.4677826  72.9314185  48.6975117  24.4672052  72.7762842  49.5559394
  24.2634006  73.7777172  48.6416503  24.4377604  73.0334806  48.8163057
  17.7618591  68.8477109  58.3247705  17.8946497  68.0508103  58.6528681
  18.1463744  69.3743512  58.9045981  17.8374920  68.8077026  58.4591208
  20.8350946  65.7707436  54.9228799  20.0296910  65.6605165  55.2396637
  20.7057682  65.8719891  54.0658664  20.6971079  65.7691106  54.8436839
  24.2916907  71.9352927  55.5168495  23.7079896  72.4362134  55.1046063
  24.6121201  71.4282484  54.8832819  24.2530082  71.9344763  55.3627003
  16.8311706  70.8493522  45.7927170  17.6527400  71.0191835  45.5508865
  16.3681357  71.0040783  45.0693468  16.8842868  70.8975255  45.6498815
  15.4207038  68.8436285  56.5725599  15.9651451  68.5027411  57.1629941
  15.4743973  69.7021746  56.7146884  15.5096157  68.9191544  56.6807472
   4.2948092  22.9105705  34.5609568   4.2642097  23.7650342  34.7327837
   4.8929441  22.6100997  35.1195711   4.3785250  22.9922201  34.6684370
   0.8041494  28.2667881  48.9222954   1.5108261  27.7719912  49.0509889
   0.9929429  28.7076963  48.1925612   0.9369399  28.2586232  48.8332000
   2.1164667  25.4858007  32.8327877   2.0004193  26.2365693  33.2620016
   2.9120553  25.2281960  33.0823964   2.2169256  25.5592854  32.9331969
   1.4299972  12.8345944  36.5302492   1.1153413  13.5249423  36.9622914
   0.9126913  12.7790727  35.8287992   1.3064442  12.9280833  36.4899441
   6.2260458  28.4096750  38.0172947   5.3958162  28.6207393  38.1806363
   6.1769711  27.5833804  37.7415230   6.0967194  28.3186356  38.0010312
   5.7214417  21.0567150  41.8123368   4.8842838  21.1269337  42.0470963
   5.6902648  21.0591645  40.9397671   5.5932699  21.0677377  41.7182916
   0.4444603  25.2522827  37.4035260   1.2002118  25.6854341  37.4424168
   0.5506927  24.6027597  37.9769896   0.5714773  25.2200311  37.4933285
   3.4824774  29.0796104  38.1537663   3.0460006  29.0832847  38.9096634
   3.1487689  29.7601603  37.7217240   3.3687394  29.1808560  38.2018495
   3.4022257  16.1209932  40.3967091   4.0448165  16.1908037  40.9829006
   3.6545277  15.4539155  39.8946632   3.5344389  16.0336281  40.4094370
   6.6169120  25.7977024  37.0457300   7.2785554  25.2367693  36.9453208
   5.9760532  25.3029055  37.3709991   6.6197987  25.6413433  37.0789640
   2.9033951  26.8142406  36.7869289   3.1389540  26.9587605  35.9596139
   3.0523514  27.5784815  37.1800802   2.9599754  26.9481461  36.7232893
   4.7324407  25.6544072  34.6238892   5.0632624  26.1871713  34.0178987
   5.3057495  25.7082960  35.2800843   4.8658086  25.7413641  34.6316674
   5.8403759  20.8954569  36.1279054   5.5840324  20.0834511  35.9376937
   6.6833073  20.9032136  35.9009241   5.9269784  20.7766567  36.0663871
   3.5228918  28.0504165  45.9637607   3.2867555  27.2192230  45.8449667
   4.1672147  27.9989773  46.5492451   3.5823589  27.9201853  46.0323500
   4.5465339  27.8348614  42.0265901   4.2411156  28.5676671  42.3879217
   3.8271554  27.4286544  41.7458687   4.3952681  27.8830347  42.0379038
  10.2467131  24.4741615  41.3534245  10.1791631  24.4937574  40.4836832
  10.2322793  25.3171942  41.5789916  10.2345887  24.6015349  41.2586722
   8.0325748  23.2486001  39.6280840   8.5833670  22.6154070  39.8677932
   8.0169864  23.7801394  40.3196344   8.1110945  23.2334949  39.7659698
   1.7354154  21.4882335  38.7385436   1.3918920  20.7672670  39.0892686
   1.8347197  21.2796186  37.8963794   1.6996197  21.3506538  38.6657116
   2.1967183  27.9508039  34.2809424   2.7625216  28.6101249  34.1967967
   1.5495087  28.2957737  34.7525826   2.1845940  28.0989980  34.3382181
   4.1302644  24.6141906  37.9006221   4.0436618  24.7697332  38.7541000
   3.6753124  25.2579982  37.5265626   4.0505900  24.7317661  37.9713327
   1.8976509  28.6436013  40.3118561   1.7590868  29.3417058  40.8167304
   1.1176506  28.4884669  39.9554743   1.7619735  28.7236179  40.3344836
   3.3929881  28.0014266  31.0735061   3.0136690  27.2151404  31.0664350
   2.7296127  28.5501123  30.9306705   3.2388356  27.9659090  31.0515858
   1.6389980  30.2459757  31.4086746   1.7209818  31.0526744  31.0848197
   2.1239722  30.2655717  32.1327520   1.7227138  30.3680420  31.4673645
   1.1465180  29.0057176  51.4905072   1.9600046  28.7342325  51.6510205
   0.9860147  28.7064716  50.6865268   1.2435129  28.9212102  51.3950478
   1.1586424  30.0663466  46.7627913   1.7966145  29.5723662  46.4290369
   0.5160516  29.9940866  46.1780140   1.1580651  29.9822474  46.6270268
   2.8843425  21.9152612  41.3293829   2.4571033  21.8278961  40.5741928
   2.2469478  22.0230387  41.9148673   2.7273032  21.9185272  41.3039270
   1.2140681  30.7583274  43.4033270   2.0033059  30.4072339  43.5235351
   1.3884279  31.5719663  43.1409904   1.3560963  30.8269131  43.3821138
   3.3208193  15.3224595  37.4452454   2.7082507  15.8094997  37.8306185
   3.4172368  14.6468086  37.9890105   3.2446091  15.2942904  37.5831312
   6.9633221  26.3941532  42.8729970   7.0216345  26.8428181  43.6189946
   6.3299688  26.8040345  42.4360050   6.8784516  26.5215267  42.9182518
   3.9154900  24.4157820  40.9595660   3.6753123  23.5764235  40.9638086
   4.3946908  24.4957986  41.6836434   3.9507084  24.3039219  41.0670462
   5.9160087  21.1959277  38.9124919   5.6769857  21.1555111  38.0745704
   6.0793989  22.0430429  39.0390640   5.9050391  21.3151362  38.8078401
   2.5206118  25.5809226  44.8429964   3.2440316  25.1281753  44.6640984
   2.2556080  25.8613892  44.0602292   2.5887391  25.5560195  44.7008680
   4.9541431  24.5435637  43.3460514   5.5459272  25.1832888  43.3778712
   5.3900426  23.8458674  43.6352581   5.1059863  24.5353987  43.3941347
   1.9790573  21.7580856  35.6463656   1.3081763  22.3010558  35.5176722
   2.6730323  22.2275711  35.4045351   1.9819440  21.9079127  35.5919184
   2.1418700  18.2136739  38.5554030   2.4946310  17.7866462  39.2299828
   1.2833502  18.1287583  38.6855106   2.0668145  18.1381480  38.6749040
   3.5742760  13.3355151  39.4838342   3.0673625  12.6284291  39.4159520
   4.3710194  13.0048340  39.6139419   3.6170000  13.1828302  39.4937337
   5.7762900  27.8520078  32.4679207   6.1596506  28.6011434  32.6977304
   4.9807014  28.0985897  32.2091196   5.7156683  27.9989772  32.4636780
   2.2163482  18.8321701  35.6315164   2.2157709  18.6770357  36.4899441
   2.0119663  19.6784688  35.5756550   2.1863260  18.9342321  35.7503104
   2.0056153  26.2622890  41.9728500   2.4311225  25.7397312  41.4198925
   1.6413073  26.8603727  41.4517123   2.0142756  26.2733117  41.8137510
   0.6811737  31.5858468  50.4821729   0.7908703  30.7967028  50.8378477
   1.0102634  31.4964404  49.6796068   0.7464143  31.4564320  50.4164120
   2.0402563  17.8360443  42.4508542   1.4565552  18.3369649  42.0386110
   2.3606858  17.3289999  41.8172866   2.0015739  17.8352278  42.2967050
  15.2680676  38.4291013  34.5609568  15.2374680  39.2835649  34.7327837
  15.8662025  38.1286305  35.1195711  15.3517834  38.5107509  34.6684370
   8.4680361  37.5166664  39.3162498   7.6118256  37.6775162  39.3671615
   8.5148014  36.6458728  39.3367559   8.3479472  37.4117466  39.3268564
   2.8521500  47.0529382  35.0799730   2.1004400  46.6744920  34.8515775
   3.3007512  47.0847815  34.3318540   2.8071167  47.0014989  34.9357232
  11.7774077  43.7853189  48.9222954  12.4840844  43.2905220  49.0509889
  11.9662013  44.2262271  48.1925612  11.9101983  43.7771540  48.8332000
   8.3046460  47.4754751  30.5085277   7.9697829  48.1531673  30.0729499
   8.8173331  47.0860062  29.9202148   8.3312041  47.5179329  30.3572068
   7.8450752  49.4269020  36.4496388   8.2290131  49.9955918  35.9101163
   7.7809893  48.7018530  35.9702204   7.8924179  49.4044483  36.2990251
  11.3132182  39.5758708  41.9594150  11.8588142  40.2543794  42.0188119
  11.2549058  39.4346169  41.0995731  11.3848096  39.6550709  41.8406210
   4.4306257  47.0647774  37.3462502   4.5316619  46.2548128  37.6559630
   3.8348002  46.9704720  36.7162181   4.3578795  46.9312802  37.2988740
  13.0897250  41.0043315  32.8327877  12.9736776  41.7551001  33.2620016
  13.8853137  40.7467268  33.0823964  13.1901840  41.0778162  32.9331969
   4.2706996  51.9825363  38.7477358   4.9144452  52.4238527  39.1373516
   4.5963252  51.1778789  38.6607617   4.4138825  51.9290558  38.7922835
   4.9727576  44.9937338  34.1197220   5.2943417  45.5342545  33.5158528
   5.6199672  44.4234109  34.2519510   5.1153631  44.9896513  34.0504255
   7.0229284  36.9953333  34.2031607   7.7209449  37.1741460  34.6953070
   7.3381616  36.4723672  33.5801996   7.1724621  36.9447105  34.1833617
   7.2117219  43.3823778  34.1911398   7.6510855  42.7740878  34.6366171
   7.0621882  43.0031151  33.4196863   7.2538685  43.2362249  34.1430565
   4.6788862  41.9767790  41.3930223   5.3237865  41.4840233  41.0741172
   4.9190639  42.1192576  42.2196302   4.8099447  41.9245232  41.4679757
   7.2174954  44.8222695  41.0437116   7.4998197  44.0274101  40.8223872
   7.9461114  45.3003283  41.0642177   7.3664517  44.7757292  41.0140131
   5.1956148  32.3645729  38.2852881   4.8659478  32.8156873  37.6156580
   4.5201149  32.2861893  38.8325888   5.0466584  32.4196865  38.2676104
  10.8126556  41.7350959  31.1442167  10.7277851  42.5911926  31.2891736
  11.3010939  41.4595283  31.8124326  10.8715453  41.8208280  31.2644249
  12.4032555  28.3531252  36.5302492  12.0885996  29.0434731  36.9622914
  11.8859497  28.2976035  35.8287992  12.2797026  28.4466141  36.4899441
  11.7444989  38.3535753  32.6439902  11.2156461  38.5695387  33.3037209
  12.2670009  39.0471892  32.5640872  11.7433442  38.4878890  32.7295502
  17.1993042  43.9282058  38.0172947  16.3690745  44.1392701  38.1806363
  17.1502294  43.1019112  37.7415230  17.0699777  43.8371664  38.0010312
   3.6344597  42.2498970  31.4447370   3.0501812  42.7549001  31.8513234
   3.2314692  42.0241357  30.7043962   3.4883901  42.2907218  31.3952396
   5.2602780  46.7585912  40.8520856   4.7429721  46.3993327  40.2482164
   5.9577171  46.2348086  40.8626922   5.2868361  46.6283600  40.7651115
   8.9166372  47.2080726  46.8137029   9.0049717  47.0206866  47.6615240
   9.3456084  46.5618155  46.4141876   8.9928474  47.0843734  46.8808781
   6.4836831  46.4911886  45.7954692   5.9207666  46.0784496  46.3194353
   7.2457855  46.4164792  46.2147835   6.5131280  46.4189286  45.9347692
   8.0921811  38.4964622  29.9216291   8.3317815  38.7042606  29.1091634
   8.4137652  37.6922131  30.0305235   8.1758969  38.4078723  29.8176844
   3.4012102  30.4258018  33.7675829   4.1558070  30.7936335  33.5292879
   3.2239636  30.7997572  34.5355008   3.4866580  30.5356206  33.8460717
   2.0432823  48.4809907  38.3991322   2.7453402  47.9661896  38.4564078
   1.9630306  48.8084058  39.2038197   2.1356583  48.4524133  38.5264114
  16.6947000  36.5752458  41.8123368  15.8575421  36.6454645  42.0470963
  16.6635231  36.5776953  40.9397671  16.5665283  36.5862685  41.7182916
   3.0911729  38.7185494  47.5271737   3.2632233  38.6091389  48.3757018
   3.6281087  39.3639899  47.2902929   3.1956733  38.7977496  47.6176834
   1.7569166  32.8328337  30.4653942   1.5744739  33.0500218  29.6394935
   2.6194779  32.9467350  30.5212556   1.8573756  32.8818235  30.3508429
   1.3683598  44.6716259  37.9076930   2.2072498  44.9039192  37.9550691
   1.3995367  43.8020570  37.8383965   1.4965316  44.5773205  37.9041574
   1.9936301  45.0917134  42.2090235   2.5334526  44.9488265  42.8793608
   1.3106247  45.4913885  42.5774262   1.9728455  45.1296805  42.3624657
   7.4368885  29.8354748  33.5002966   8.1655046  29.6570702  33.0541122
   7.5263778  30.6772827  33.7110144   7.5575547  29.9338626  33.4656483
  11.4177186  40.7708135  37.4035260  12.1734701  41.2039649  37.4424168
  11.5239511  40.1212905  37.9769896  11.5447357  40.7385619  37.4933285
  14.4557357  44.5981412  38.1537663  14.0192589  44.6018155  38.9096634
  14.1220273  45.2786911  37.7217240  14.3419977  44.6993868  38.2018495
   9.0286431  46.6389745  49.4780813   9.8126847  46.7520593  49.8436555
   8.8283025  45.8130882  49.6739499   9.1152456  46.5336464  49.5615199
  14.3754840  31.6395240  40.3967091  15.0180749  31.7093345  40.9829006
  14.6277861  30.9724463  39.8946632  14.5076972  31.5521589  40.4094370
   1.3031193  36.1102509  28.9776415   0.5889370  35.8240689  29.3898847
   1.7875162  36.4499135  29.6182802   1.2690557  36.1184159  29.1332050
   2.1472053  34.8495803  45.0091665   1.4543849  34.3792783  45.2552396
   2.7632380  34.6234108  45.5833372   2.1356583  34.7462935  45.1300817
   9.1856824  48.5499847  43.1247269   8.3872070  48.3099347  43.3821137
   9.6342836  48.6014240  43.8714316   9.1331435  48.5222238  43.2732193
   8.4778511  44.6132463  29.3538223   8.8929660  44.2817487  28.6622719
   7.6470441  44.3801366  29.2258360   8.4166520  44.5303719  29.2329071
  13.8766534  42.3327714  36.7869289  14.1122123  42.4772913  35.9596139
  14.0256098  43.0970122  37.1800802  13.9332337  42.4666769  36.7232893
   0.8712612  38.8161207  46.1518510   1.5952584  38.8014238  46.6383404
   0.9728748  39.5256563  45.6540478   0.9930821  38.9185911  46.1497297
  15.7056991  41.1729380  34.6238892  16.0365208  41.7057020  34.0178987
  16.2790079  41.2268268  35.2800843  15.8390670  41.2598949  34.6316674
   8.2457561  42.2960292  51.0167457   7.4530542  42.6103804  51.2020076
   8.3606488  42.5111760  50.1788241   8.1452972  42.3744129  50.9205791
  10.9188880  39.0194283  35.3062473  11.0135734  39.7583577  35.7602098
  10.2947724  38.5911759  35.7397037  10.8397910  39.0655604  35.4370620
   9.1741354  42.1980496  45.9552753   9.7480215  41.5607740  46.1101317
   9.0956158  42.1984578  45.0862411   9.2474589  42.1045607  45.8499164
  11.1711901  40.8643023  28.5399425  11.0892064  40.9345210  29.4054412
  11.8091622  41.4272767  28.3483165  11.2531739  40.9581994  28.6389374
   4.5305072  40.6303761  38.0073951   4.2724317  39.7975496  37.9805250
   4.5853555  40.8561374  37.1666451   4.5004850  40.5401532  37.8794088
   9.6106123  32.7332211  38.1078044   8.9062449  32.2441397  38.2661963
   9.6591097  32.7454686  37.2366488   9.5136174  32.6621859  38.0017383
   3.5039785  38.1841523  38.4938846   2.9289376  38.3433692  39.1302807
   3.1275461  37.5476932  38.0307296   3.3642597  38.1139336  38.5193404
   7.1713073  36.6564873  43.3531224   6.7827506  36.2319090  42.6983415
   6.5067772  36.9047022  43.8608251   7.0160001  36.6303594  43.3319092
  16.8136342  36.4139877  36.1279054  16.5572907  35.6019819  35.9376937
  17.6565656  36.4217444  35.9009241  16.9002368  36.2951875  36.0663871
  10.9939435  30.3539501  40.8655208  11.3749947  29.6717672  41.2523082
  10.1902719  30.0649103  40.6830873  10.9315897  30.2106550  40.8959264
   8.2752012  40.8863477  31.5508031   9.0892650  41.1778370  31.4390802
   8.2111153  40.2323339  30.9766324   8.3854751  40.8328672  31.4496868
  14.4961502  43.5689473  45.9637607  14.2600139  42.7377538  45.8449667
  15.1404731  43.5175080  46.5492451  14.5556172  43.4387161  46.0323500
   4.1459920  44.3584995  36.6780343   4.7833867  44.1196742  37.2232136
   4.5714991  44.5622153  35.9433504   4.3036086  44.3536005  36.6497500
   4.7862735  39.5787284  31.0155232   5.1707888  39.3594991  31.7671778
   4.5374355  40.4050230  31.1456309   4.8064807  39.6685431  31.1456309
   4.9531275  32.8593700  50.7317817   4.6384716  33.6293262  50.4687379
   4.6321208  32.2963956  50.1470044   4.8590194  32.8903968  50.6059167
  15.5197922  43.3533922  42.0265901  15.2143739  44.0861979  42.3879217
  14.8004138  42.9471852  41.7458687  15.3685265  43.4015655  42.0379038
   6.5281392  44.8357417  38.3574129   6.6020400  44.6732589  39.2115979
   7.3450898  45.0247607  38.1134611   6.6597750  44.8394160  38.4472155
   2.5063172  31.2484221  36.3464013   1.6385598  31.3206821  36.4121622
   2.7938376  32.0506300  36.5351988   2.4202920  31.3778368  36.3838780
  11.6296061  31.3962080  44.6775335  12.3749653  31.2071891  44.2638760
  11.2133366  31.9220318  44.1189191  11.6781035  31.4464226  44.5339908
   5.0685977  47.7992160  33.0887603   5.3584276  47.4081142  32.3646829
   5.7989458  47.9808865  33.5292878   5.2192862  47.7685974  33.0470410
   5.6580723  42.6009906  44.1740733   5.1592416  43.3125674  44.2525622
   6.4680947  42.9210573  44.1358896   5.7036829  42.7536755  44.1797302
   3.0091893  49.7759543  36.1547752   2.7892188  49.4856897  36.9474419
   2.7886415  49.1174498  35.6265665   2.9439487  49.6359251  36.1936661
   1.9208840  41.8632859  38.4203454   1.6322089  41.2370330  38.9549181
   2.7892188  41.8053147  38.4868135   2.0069092  41.7620403  38.5094409
  12.7086738  37.0067643  38.7385436  12.3651504  36.2857978  39.0892686
  12.8079781  36.7981494  37.8963794  12.6728781  36.8691846  38.6657116
   5.1759849  51.1488933  34.9378445   5.8283907  50.6165375  35.1669471
   4.4785457  50.7957585  35.3246319   5.1690567  51.0178456  35.0290613
   2.1241114  43.5028110  34.3445819   2.8787082  43.8841149  34.5581282
   1.5311726  43.9539254  34.7992516   2.1477827  43.6256938  34.4428698
  13.1699767  43.4693347  34.2809424  13.7357800  44.1286557  34.1967967
  12.5227671  43.8143045  34.7525826  13.1578524  43.6175288  34.3382181
   4.5847781  35.4590951  49.4703032   3.7747556  35.7648730  49.3592874
   5.0622467  36.1796533  49.5855616   4.5351259  35.6105552  49.4710103
   3.4439340  44.6736672  39.7185935   2.9220094  44.8136963  40.4037799
   3.8313360  43.9147336  39.9088052   3.4243041  44.5822195  39.8487011
   9.6406345  46.4132131  33.7046503   9.3993021  45.6799992  33.2973568
   9.8207678  46.9618988  33.0512837   9.6313969  46.3854522  33.5476726
   4.8705666  41.7040691  35.1167426   4.6748448  42.3115425  34.5227729
   5.0940011  41.0108635  34.6359100   4.8740307  41.6918216  34.9583506
   3.2684196  38.5895429  35.2348294   3.9906848  38.7536587  34.7752100
   2.7892189  39.3105093  35.1287634   3.3047926  38.7193658  35.1513908
  11.2277703  34.9259227  40.6144979  10.3888804  34.9520506  40.3783242
  11.2982071  35.5729963  41.1950326  11.1146097  35.0255353  40.6654096
   0.9191812  40.9953501  44.3402434   1.4312909  41.2737754  43.6911194
   0.6328155  41.7342795  44.7065247   0.9526676  41.1455855  44.2992312
   9.6746982  31.8244604  35.3472595  10.3773334  31.6252353  34.8692553
   9.4091170  31.0520547  35.6541438   9.7393614  31.6807570  35.3218036
  15.1035227  40.1327214  37.9006221  15.0169202  40.2882640  38.7541000
  14.6485707  40.7765290  37.5265626  15.0238484  40.2502969  37.9713327
   4.4375538  33.0879890  44.4003475   4.2458735  33.1035024  45.2502899
   5.2874134  33.2843564  44.3770130   4.5351260  33.1194241  44.5226770
   8.9761043  37.4537961  36.5231780   8.7295758  37.3733712  37.3568569
   9.3046166  36.6691429  36.3294308   8.9882287  37.3264227  36.6179303
  12.8709092  44.1621321  40.3118561  12.7323451  44.8602366  40.8167304
  12.0909090  44.0069977  39.9554743  12.7352319  44.2421487  40.3344836
  11.2087177  40.4617696  46.5640943  11.2035216  39.5897512  46.5683370
  11.9148171  40.6605865  46.0910399  11.3132181  40.3621570  46.4947978
   4.9358071  40.1894680  45.9354763   5.0801446  40.7695888  45.2997873
   5.2833719  40.5670977  46.6404618   5.0085532  40.3315384  45.9453758
   7.1077988  39.3884848  43.7179895   6.3601302  39.5815863  43.3128173
   7.2619513  38.5630068  43.4804016   7.0200416  39.2949960  43.6225301
   4.0085826  48.3797452  42.8015790   4.1575389  47.8200367  42.1489195
   4.7885828  48.4589453  43.1848309   4.1459919  48.3083017  42.7612739
  14.3662465  43.5199574  31.0735061  13.9869274  42.7336712  31.0664350
  13.7028710  44.0686431  30.9306705  14.2120940  43.4844398  31.0515858
   6.5339126  48.5512094  44.0800281   6.4582797  47.8820905  44.6351069
   6.4628985  49.2529883  44.5940947   6.5119733  48.5557002  44.2377129
   7.3479765  33.2835399  44.6075299   7.8052379  34.0159373  44.7348091
   7.4236094  32.8601864  45.3662554   7.4270735  33.3292637  44.7376375
  11.8207091  26.4625274  38.4769142  11.9390659  26.9201737  37.7436444
  11.6469267  25.6570535  38.1905359  11.8126262  26.4119046  38.3270075
   7.1909373  47.0713093  34.9123887   7.9559264  46.8022737  34.5906551
   7.0887463  46.5863104  35.6293950   7.2890869  46.9602658  34.9703714
   5.2262143  35.2737503  41.4517123   4.4358218  35.0928963  41.7734458
   5.6222766  34.4964455  41.4347417   5.1679019  35.1324964  41.4969671
   9.7128034  44.1025277  26.8923836  10.4801019  44.1625402  26.4829688
   9.2659343  43.5305719  26.4080155   9.7601461  44.0261853  26.7601547
  10.6105829  42.9079933  39.1776569   9.9350831  42.6765165  39.6789956
  10.6198205  42.3001116  38.5518674  10.5124334  42.7838858  39.1592721
   7.7399973  37.7497762  45.9340622   7.6759114  38.6107718  45.8060758
   7.8797161  37.4329755  45.1336173   7.7515443  37.8297929  45.7968834
  12.6122564  45.7645065  31.4086746  12.6942401  46.5712052  31.0848197
  13.0972306  45.7841025  32.1327520  12.6959722  45.8865728  31.4673645
   6.4219067  40.4429901  40.0756824   5.9981316  40.6434400  39.3395843
   6.2463922  39.5958749  40.1881124   6.3329948  40.3478683  39.9830515
   5.9230761  51.9580414  42.5378282   6.4126691  51.2591203  42.3553946
   5.3514993  51.6604284  43.1254339   5.9115290  51.8106638  42.5979322
   1.7101512  40.9381953  35.5084797   1.8666131  40.8728756  36.3640789
   2.0502105  41.7130505  35.2963477   1.7834747  41.0431151  35.6039391
   8.2480657  40.3139836  34.3778160   8.7896202  39.8110217  34.8416781
   8.5627216  40.2605031  33.5667645   8.3745054  40.2319257  34.3261972
  12.1197764  44.5242484  51.4905072  12.9332629  44.2527633  51.6510205
  11.9592730  44.2250024  50.6865268  12.2167713  44.4397410  51.3950478
   6.4167106  45.7057188  31.6618188   6.4859927  44.8471726  31.8011189
   7.1955561  45.9229069  31.3337213   6.5419956  45.6110052  31.6335345
   9.3969926  35.2076141  44.4300461   9.6111896  34.5687055  43.8763815
   8.7803825  35.6521965  44.0008322   9.3375255  35.1786284  44.2850892
  10.8074594  48.1294889  35.8754682  10.4154386  47.8261604  35.1577548
  10.9627666  48.9663979  35.6859635  10.7728184  48.2078726  35.7411179
  11.5609014  36.8165206  45.3683768  10.7485696  36.5091096  45.4496940
  12.0198949  36.3364206  45.9326480  11.5089399  36.7001698  45.4638362
  10.9714269  44.6944878  35.8160712  10.6128923  44.8659521  36.5924744
  10.4852979  45.1558084  35.2588711  10.8472966  44.7883849  35.8485981
   8.7884655  28.3176076  39.4187803   7.9178213  28.2914798  39.3721113
   9.0424996  28.1453269  38.6013649   8.6978215  28.2886220  39.2907940
   5.7602634  40.3744043  28.3560946   6.0495159  41.1508926  28.6304521
   5.8474433  39.8632775  29.0575446   5.8156890  40.4135962  28.5003444
   8.6562522  38.2225277  50.1512470   9.1262153  38.8467394  50.5380344
   8.7024402  37.5542253  50.7105685   8.7330397  38.2159958  50.2912541
   5.8133795  30.3282305  40.8761274   5.2972284  29.6362496  41.0012853
   5.2527724  30.9953082  40.8223873   5.6540308  30.3245563  40.8867340
   7.8826029  30.8675265  42.7054126   7.4957782  30.8924296  43.4867656
   7.3958966  30.3016944  42.2528643   7.7538538  30.7871016  42.7542030
  12.1319008  45.5848774  46.7627913  12.7698729  45.0908970  46.4290369
  11.4893100  45.5126174  46.1780140  12.1313235  45.5007782  46.6270268
  13.8576008  37.4337920  41.3293829  13.4303616  37.3464268  40.5741928
  13.2202061  37.5415695  41.9148673  13.7005615  37.4370580  41.3039270
   7.5483170  27.7542250  44.9964386   8.1776288  28.2902550  44.7185457
   7.7169033  27.6619609  45.8477952   7.6660965  27.8203613  45.0812914
   7.3497085  32.5413445  47.2690798   8.1770515  32.2698594  47.3249412
   7.3704931  33.3374287  47.6254616   7.4749935  32.6193199  47.3305981
  12.1873265  46.2768582  43.4033270  12.9765643  45.9257647  43.5235351
  12.3616862  47.0904971  43.1409904  12.3293546  46.3454439  43.3821138
   1.9266575  39.6877308  40.4561059   1.0854582  39.5881182  40.6639952
   2.1356583  40.4572788  40.8075379   1.8331268  39.7869351  40.5388373
  11.0407089  30.2878139  37.9649688  11.2456682  30.2200447  38.8106685
  10.7133513  31.0936960  37.8970866  11.0222337  30.3964079  38.0809343
   5.7383240  37.6158707  39.7058656   5.4346377  37.0614695  40.3069064
   5.0362661  37.7950917  39.2186690   5.5899450  37.5603489  39.7228362
   4.7949337  34.9259227  34.2703358   5.0709071  34.2078139  33.8580925
   5.3948006  35.5244147  34.0624464   4.9242602  34.9079598  34.1784119
   3.8001591  44.8308428  44.4130754   3.6921946  44.8410490  45.2792812
   4.0097372  45.6563208  44.2235708   3.8151702  44.9549503  44.5134845
  14.2940777  30.8409903  37.4452454  13.6815090  31.3280305  37.8306185
  14.3904951  30.1653394  37.9890105  14.2178674  30.8128212  37.5831312
   8.2959858  32.5972744  32.5449953   8.7503604  32.7683305  33.2697797
   8.7699903  31.9840855  32.1447729   8.4328178  32.5323630  32.5923714
   1.8175383  42.0821070  41.8752691   1.2263316  42.7230568  41.8455707
   2.5796406  42.5058687  41.8483991   1.8423644  42.2396909  41.8667839
   2.2136006  33.2423068  42.5420709   2.6737487  33.3161997  43.2795833
   2.2592112  34.0404322  42.1920530   2.2886561  33.3717215  42.5993466
   3.8619355  33.9089763  47.1092736   3.4704921  33.2623110  47.5448514
   4.0305218  34.5001198  47.7286992   3.8290266  33.9004031  47.2655442
  17.9365804  41.9126840  42.8729970  17.9948928  42.3613489  43.6189946
  17.3032272  42.3225653  42.4360050  17.8517100  42.0400575  42.9182518
  11.5764899  47.5330382  39.3084716  11.3784588  48.0221196  38.6140927
  10.9552610  47.7371623  39.8868849  11.4552464  47.6346920  39.2907939
   5.6372878  39.3015279  33.6494960   6.3814922  39.6889555  33.8877910
   5.7833574  38.4572704  33.8135448   5.7683463  39.2345751  33.7088930
   7.5552453  31.0965538  38.6826822   6.7088498  31.2688345  38.5568171
   7.5523585  30.2914881  39.0192650   7.4299603  31.0026566  38.7137949
   8.6250753  34.8740752  39.5488879   8.1510708  34.3482514  40.0594190
   8.9968889  34.3270225  38.9803741   8.6100642  34.7156749  39.5404027
  14.8887484  39.9343128  40.9595660  14.6485707  39.0949543  40.9638086
  15.3679491  40.0143294  41.6836434  14.9239668  39.8224527  41.0670462
  10.5534253  35.7677307  32.6114633  10.0257272  35.8506051  31.9220342
  11.0129961  36.5095178  32.6079278  10.5436103  35.8897969  32.5089328
  16.8892671  36.7144585  38.9124919  16.6502441  36.6740419  38.0745704
  17.0526572  37.5615737  39.0390640  16.8782974  36.8336670  38.8078401
  13.4938701  41.0994534  44.8429964  14.2172900  40.6467061  44.6640984
  13.2288663  41.3799200  44.0602292  13.5619974  41.0745503  44.7008680
   2.3625569  35.6954708  41.5782843   1.7378640  35.7073100  40.9708796
   2.0271164  36.1714883  42.2274084   2.2211061  35.7673225  41.5839412
   2.5467318  34.0379826  27.6355528   2.1980123  34.6899551  28.0987078
   2.0663764  34.0236939  26.9079400   2.4237562  34.1322880  27.5966620
  10.1071336  44.3380870  31.7424290  10.8305534  44.8038983  31.5988864
   9.6671927  44.4054480  30.9921887  10.1487028  44.4164707  31.6109072
   9.2757491  41.1978412  42.9924979   8.6614484  40.6536463  43.2873615
   9.7924776  40.6842649  42.5130795   9.2613153  41.0414821  42.9649208
   8.5153788  42.2682682  40.7269278   8.0881396  41.6432401  40.2934713
   8.5078732  41.9857604  41.5528285   8.4512929  42.1335463  40.7849106
   1.6316315  37.3047855  43.7957712   1.7909802  36.5491180  44.2009434
   1.4509208  37.8538795  44.4498450   1.6281674  37.2741669  43.9520418
   9.5736618  29.4709091  44.3508501   9.0777179  29.6672765  43.6600068
  10.3305680  29.8701759  44.1797303   9.6123443  29.5586825  44.2228638
   3.1240820  31.8722255  40.3217556   3.1639191  32.3731462  41.0352264
   2.2990484  31.9632649  40.0523479   3.0080346  31.9604071  40.3868095
   5.3070433  41.4382995  48.4237851   4.4566063  41.5754709  48.5595496
   5.4698560  40.7046773  48.8685553   5.2054296  41.3497096  48.5093450
   4.5455183  38.3882765  42.6191455   3.7147113  38.5556583  42.4126703
   4.4906700  38.0118716  43.4040341   4.4144598  38.3572496  42.7039983
   2.3538966  31.8791658  48.2547866   2.9791670  31.3353791  48.5277298
   1.8989446  31.3986576  47.6855656   2.3787227  31.7281139  48.2109460
   2.9191227  36.6638357  33.1481573   3.0594188  37.1610821  33.8510214
   3.4173760  35.9624651  33.2895787   3.0132308  36.6340335  33.2733152
   2.9491449  37.5305468  30.4774150   3.5836529  38.1265893  30.4123612
   3.0317060  37.2308925  31.2920020   3.0548000  37.5746376  30.5877236
  15.9274015  40.0620945  43.3460514  16.5191855  40.7018196  43.3778712
  16.3633010  39.3643982  43.6352581  16.0792446  40.0539295  43.3941347
   4.5270432  33.4619443  30.4519592   4.8486273  32.9822525  29.7978854
   4.7897376  34.2719089  30.2610403   4.6136458  33.5109341  30.3275084
   7.7567405  44.4838317  43.9718408   7.2492496  45.0374164  44.4159038
   7.4594051  44.5446607  43.1537182   7.6372290  44.5744629  43.9166865
   9.9229587  32.8491637  42.8143071  10.3484659  32.3964163  42.2026597
   9.3086580  32.2951708  43.0907858   9.8958233  32.7005613  42.7648096
  10.3675185  48.4001575  31.9022351   9.6504495  48.2262437  31.4369589
  11.0181923  48.1654147  31.3697837  10.3577036  48.3397368  31.7551569
   8.3623810  29.3206737  36.2233648   7.7192128  29.1704383  36.7918786
   8.0223217  29.0749082  35.4582753   8.2168887  29.2618859  36.1936663
  12.9523156  37.2766164  35.6463656  12.2814346  37.8195866  35.5176722
  13.6462907  37.7461019  35.4045351  12.9552024  37.4264435  35.5919184
   7.0009890  49.4162876  40.8775415   6.7775545  48.6581705  41.2459441
   6.5119733  49.4460897  40.1555854   6.8953339  49.3085100  40.8252156
  13.1151284  33.7322047  38.5554030  13.4678894  33.3051770  39.2299828
  12.2566085  33.6472891  38.6855106  13.0400729  33.6566788  38.6749040
   1.8134969  36.3629567  36.6136876   1.0946958  36.7793699  36.8809740
   2.1847331  36.9283806  36.0628514   1.7626901  36.5078848  36.5719683
  11.1134550  36.9957416  42.5038872  11.0932477  36.8140711  43.3573651
  11.1613750  37.8669434  42.4798456  11.1169191  37.0973954  42.6262167
   9.0580880  43.5844608  48.4287349   9.0176734  42.9394285  47.8432504
   9.8704198  43.5281225  48.7412761   9.1724033  43.4803575  48.3884298
   5.6488347  49.6363334  38.3312499   5.2348746  48.9737464  37.9416341
   6.3335721  49.7841192  37.8108194   5.6886719  49.5603992  38.1968997
   9.0153641  48.7953419  39.0836116   8.6169924  48.9055689  38.3156936
   8.4004861  49.0035485  39.6662676   8.8652531  48.8426987  39.0567415
   7.5881543  35.4027567  31.9510256   6.9946383  35.7244563  31.3994823
   7.6256821  34.5568662  31.7431362   7.5055932  35.3251895  31.8393027
  14.5475344  28.8540459  39.4838342  14.0406209  28.1469599  39.4159520
  15.3442778  28.5233648  39.6139419  14.5902583  28.7013610  39.4937337
  10.4639360  35.3607071  35.3812006  10.2353053  35.3839773  34.5390364
  10.7237436  34.5364538  35.5007016  10.4685548  35.2423151  35.2737204
   4.7458588  37.2141544  44.9837106   4.2337491  36.6062727  45.3422138
   4.5738084  37.9298137  45.4511082   4.6448225  37.2304844  45.1053330
   3.5184122  33.8983618  36.6766202   3.9941489  34.2600697  36.0416383
   3.0172722  34.5540085  36.9566344   3.5149481  34.0477806  36.6242943
  16.7495484  43.3705386  32.4679207  17.1329090  44.1196742  32.6977304
  15.9539597  43.6171205  32.2091196  16.6889266  43.5175080  32.4636780
   8.6227659  35.1365789  47.4239362   9.1799089  34.9079598  46.7917827
   8.2988724  35.8971455  47.1474574   8.6574069  35.2149626  47.2895859
   6.3410776  38.2233442  48.3891369   7.0922103  38.5385119  48.7030923
   6.5333352  38.0212613  47.5625291   6.4802190  38.2400824  48.3134765
   5.5610775  36.0424817  30.0439586   5.9409740  36.0604447  29.2590700
   4.8203372  36.4878806  29.9230433   5.5079613  36.1106592  29.9103154
  13.1896066  34.3507009  35.6315164  13.1890292  34.1955665  36.4899441
  12.9852246  35.1969996  35.5756550  13.1595844  34.4527629  35.7503104
  10.9136918  39.0304510  39.2851371  11.4090583  38.3127505  39.2455391
  10.1036694  38.7275308  39.1705858  10.8680811  38.8802157  39.2625097
   6.3595530  42.8802324  31.4348376   5.5506852  42.5568997  31.3881685
   6.8670438  42.1735546  31.3676624   6.3145196  42.7283640  31.4178670
  12.9788737  41.7808198  41.9728500  13.4043808  41.2582620  41.4198925
  12.6145657  42.3789035  41.4517123  12.9875340  41.7918425  41.8137510
   2.6142817  50.0772415  40.7325845   2.9289376  50.8908804  40.7403627
   3.0236230  49.6922634  41.4008005   2.7210915  50.1401118  40.8329937
   9.5667336  45.4942462  38.3029657  10.0378515  46.2082725  38.4719643
   9.9027515  44.8941212  38.8389527   9.6862451  45.5113926  38.4062033
  11.6544321  47.1043776  50.4821729  11.7641286  46.3152336  50.8378477
  11.9835218  47.0149712  49.6796068  11.7196727  46.9749628  50.4164120
   6.4836831  30.2669933  45.2587752   6.6164737  29.4700926  45.5868728
   6.8681984  30.7936336  45.8386028   6.5593160  30.2269849  45.3931255
  10.2041283  45.2860396  45.0657350   9.6562229  44.6618280  44.7977415
  10.6654311  45.4754668  44.3501429  10.1908492  45.2219446  44.9207781
   9.5569187  27.1900259  41.8568845   8.7515150  27.0797988  42.1736684
   9.4275922  27.2912715  40.9998711   9.4189319  27.1883929  41.7776886
  13.0135147  33.3545751  42.4508542  12.4298136  33.8554957  42.0386110
  13.3339441  32.8475307  41.8172866  12.9748322  33.3537586  42.2967050
   5.5529946  32.2686346  32.7267217   6.3745641  32.4384658  32.4848912
   5.0899597  32.4233607  32.0033515   5.6061108  32.3168079  32.5838861
   4.1425278  30.2629108  43.5065646   4.6869691  29.9220235  44.0969988
   4.1962214  31.1214569  43.6486930   4.2314398  30.3384367  43.6147519
   9.7699609  46.2911469  41.5966691  10.5897983  46.1474435  41.8582986
   9.4893687  46.9157668  42.1383129   9.8496352  46.3621821  41.7154631
  19.4412944  53.0351972  39.3162498  18.5850840  53.1960470  39.3671615
  19.4880598  52.1644036  39.3367559  19.3212056  52.9302774  39.3268564
  13.8254084  62.5714690  35.0799730  13.0736983  62.1930228  34.8515775
  14.2740096  62.6033123  34.3318540  13.7803751  62.5200297  34.9357232
  22.7506661  59.3038497  48.9222954  23.4573428  58.8090528  49.0509889
  22.9394596  59.7447579  48.1925612  22.8834566  59.2956848  48.8332000
  19.2779044  62.9940059  30.5085277  18.9430412  63.6716981  30.0729499
  19.7905914  62.6045370  29.9202148  19.3044625  63.0364637  30.3572068
  18.8183335  64.9454328  36.4496388  19.2022714  65.5141226  35.9101163
  18.7542476  64.2203838  35.9702204  18.8656762  64.9229791  36.2990251
  22.2864765  55.0944016  41.9594150  22.8320725  55.7729102  42.0188119
  22.2281642  54.9531476  41.0995731  22.3580680  55.1736017  41.8406210
  15.4038840  62.5833082  37.3462502  15.5049203  61.7733436  37.6559630
  14.8080585  62.4890028  36.7162181  15.3311379  62.4498110  37.2988740
  24.0629834  56.5228623  32.8327877  23.9469360  57.2736309  33.2620016
  24.8585721  56.2652576  33.0823964  24.1634423  56.5963470  32.9331969
  15.2439580  67.5010671  38.7477358  15.8877035  67.9423835  39.1373516
  15.5695835  66.6964097  38.6607617  15.3871408  67.4475866  38.7922835
   8.6003884  58.6053368  36.9714836   8.3654069  57.7721021  36.8647105
   8.7389525  58.8858034  36.1576037   8.5859547  58.5236872  36.8357191
  10.8993972  50.7739099  39.8699143  10.2799003  50.1831746  39.7009158
  10.7977835  51.3650534  39.2363467  10.7931647  50.7743181  39.7504133
  15.9460159  60.5122646  34.1197220  16.2676001  61.0527853  33.5158528
  16.5932256  59.9419417  34.2519510  16.0886215  60.5081821  34.0504255
  17.9961867  52.5138641  34.2031607  18.6942032  52.6926768  34.6953070
  18.3114200  51.9908980  33.5801996  18.1457205  52.4632413  34.1833617
  10.6263105  54.3191381  42.1142712  10.5021802  54.9053826  42.7492531
  11.2781389  53.8251576  42.4154987  10.7036754  54.3330185  42.2528642
  18.1849803  58.9009086  34.1911398  18.6243438  58.2926186  34.6366171
  18.0354466  58.5216459  33.4196863  18.2271269  58.7547557  34.1430565
  15.6521446  57.4953098  41.3930223  16.2970448  57.0025541  41.0741172
  15.8923223  57.6377884  42.2196302  15.7832031  57.4430540  41.4679757
  18.1907537  60.3408003  41.0437116  18.4730780  59.5459409  40.8223872
  18.9193698  60.8188591  41.0642177  18.3397101  60.2942600  41.0140131
  16.1688731  47.8831037  38.2852881  15.8392061  48.3342181  37.6156580
  15.4933733  47.8047201  38.8325888  16.0199167  47.9382173  38.2676104
  21.7859139  57.2536267  31.1442167  21.7010435  58.1097234  31.2891736
  22.2743523  56.9780591  31.8124326  21.8448037  57.3393588  31.2644249
  22.7177573  53.8721061  32.6439902  22.1889044  54.0880695  33.3037209
  23.2402593  54.5657200  32.5640872  22.7166026  54.0064198  32.7295502
  14.6077180  57.7684278  31.4447370  14.0234396  58.2734309  31.8513234
  14.2047276  57.5426665  30.7043962  14.4616484  57.8092526  31.3952396
  10.1621209  63.4839039  38.2471042   9.6788787  64.2089529  38.2230625
  10.9744527  63.7815169  38.3581200  10.2111957  63.6341393  38.2598321
  16.2335363  62.2771220  40.8520856  15.7162305  61.9178635  40.2482164
  16.9309754  61.7533394  40.8626922  16.2600944  62.1468908  40.7651115
  19.8898955  62.7266034  46.8137029  19.9782301  62.5392174  47.6615240
  20.3188668  62.0803463  46.4141876  19.9661057  62.6029042  46.8808781
  17.4569415  62.0097194  45.7954692  16.8940250  61.5969804  46.3194353
  18.2190438  61.9350099  46.2147835  17.4863864  61.9374594  45.9347692
  19.0654395  54.0149930  29.9216291  19.3050399  54.2227914  29.1091634
  19.3870236  53.2107439  30.0305235  19.1491553  53.9264031  29.8176844
  14.3744685  45.9443326  33.7675829  15.1290653  46.3121643  33.5292879
  14.1972220  46.3182880  34.5355008  14.4599164  46.0541514  33.8460717
  13.0165406  63.9995215  38.3991322  13.7185986  63.4847204  38.4564078
  12.9362889  64.3269366  39.2038197  13.1089167  63.9709441  38.5264114
  27.6679584  52.0937766  41.8123368  26.8308005  52.1639953  42.0470963
  27.6367815  52.0962261  40.9397671  27.5397866  52.1047993  41.7182916
  14.0644313  54.2370802  47.5271737  14.2364817  54.1276697  48.3757018
  14.6013670  54.8825207  47.2902929  14.1689317  54.3162804  47.6176834
  12.7301750  48.3513645  30.4653942  12.5477323  48.5685526  29.6394935
  13.5927363  48.4652657  30.5212556  12.8306339  48.4003543  30.3508429
  12.3416182  60.1901567  37.9076930  13.1805081  60.4224500  37.9550691
  12.3727951  59.3205878  37.8383965  12.4697899  60.0958513  37.9041574
  12.9668885  60.6102442  42.2090235  13.5067110  60.4673573  42.8793608
  12.2838831  61.0099193  42.5774262  12.9461039  60.6482113  42.3624657
  18.4101469  45.3540055  33.5002966  19.1387629  45.1756010  33.0541122
  18.4996362  46.1958135  33.7110144  18.5308131  45.4523934  33.4656483
  22.3909770  56.2893443  37.4035260  23.1467285  56.7224957  37.4424168
  22.4972094  55.6398213  37.9769896  22.5179940  56.2570927  37.4933285
  25.4289941  60.1166720  38.1537663  24.9925173  60.1203462  38.9096634
  25.0952856  60.7972219  37.7217240  25.3152561  60.2179176  38.2018495
  20.0019014  62.1575053  49.4780813  20.7859431  62.2705901  49.8436555
  19.8015609  61.3316190  49.6739499  20.0885040  62.0521772  49.5615199
   8.3706030  56.8302733  42.3624657   8.1044445  56.0141850  42.5215647
   8.3844594  56.8755889  41.4920172   8.3330752  56.7159638  42.2578139
  12.2763777  51.6287817  28.9776415  11.5621954  51.3425997  29.3898847
  12.7607746  51.9684443  29.6182802  12.2423140  51.6369467  29.1332050
  13.1204636  50.3681111  45.0091665  12.4276433  49.8978091  45.2552396
  13.7364964  50.1419416  45.5833372  13.1089166  50.2648243  45.1300817
  20.1589408  64.0685155  43.1247269  19.3604653  63.8284655  43.3821137
  20.6075419  64.1199548  43.8714316  20.1064019  64.0407546  43.2732193
  19.4511095  60.1317771  29.3538223  19.8662243  59.8002795  28.6622719
  18.6203024  59.8986674  29.2258360  19.3899103  60.0489027  29.2329071
   8.7799444  57.6161512  39.6436401   8.5975017  57.5908398  38.7908693
   9.5149112  58.0860450  39.6825310   8.8613507  57.6822875  39.5234320
  11.8445195  54.3346515  46.1518510  12.5685168  54.3199546  46.6383404
  11.9461332  55.0441870  45.6540478  11.9663404  54.4371218  46.1497297
  19.2190145  57.8145600  51.0167457  18.4263125  58.1289112  51.2020076
  19.3339072  58.0297068  50.1788241  19.1185555  57.8929437  50.9205791
  21.8921464  54.5379591  35.3062473  21.9868318  55.2768885  35.7602098
  21.2680307  54.1097066  35.7397037  21.8130494  54.5840912  35.4370620
  20.1473937  57.7165804  45.9552753  20.7212799  57.0793048  46.1101317
  20.0688741  57.7169886  45.0862411  20.2207172  57.6230915  45.8499164
   8.7470354  54.4955013  39.7935468   9.3243856  54.3591464  40.4327713
   8.0484416  54.0390797  40.0481052   8.7291375  54.4077279  39.9257757
  20.5838706  48.2517519  38.1078044  19.8795033  47.7626705  38.2661963
  20.6323680  48.2639994  37.2366488  20.4868758  48.1807167  38.0017383
  14.4772368  53.7026831  38.4938846  13.9021959  53.8619000  39.1302807
  14.1008044  53.0662240  38.0307296  14.3375181  53.6324644  38.5193404
  18.1445657  52.1750180  43.3531224  17.7560090  51.7504398  42.6983415
  17.4800355  52.4232330  43.8608251  17.9892585  52.1488902  43.3319092
   4.2229187  53.3466906  36.5083286   4.3089439  52.9698774  37.2896816
   4.8504985  52.9727352  36.0303244   4.3285738  53.2352388  36.5528764
  21.9672018  45.8724809  40.8655208  22.3482530  45.1902980  41.2523082
  21.1635303  45.5834411  40.6830873  21.9048480  45.7291858  40.8959264
  19.2484595  56.4048785  31.5508031  20.0625234  56.6963678  31.4390802
  19.1843736  55.7508647  30.9766324  19.3587334  56.3513980  31.4496868
  25.4694085  59.0874781  45.9637607  25.2332723  58.2562846  45.8449667
  26.1137314  59.0360388  46.5492451  25.5288756  58.9572469  46.0323500
  15.1192503  59.8770302  36.6780343  15.7566450  59.6382050  37.2232136
  15.5447575  60.0807461  35.9433504  15.2768670  59.8721313  36.6497500
   9.8105146  62.1158639  40.5614647   9.8509291  62.3873490  39.7334426
  10.3699670  62.6400547  40.9772435   9.8988492  62.2334394  40.5006535
  15.7595318  55.0972592  31.0155232  16.1440471  54.8780299  31.7671778
  15.5106939  55.9235538  31.1456309  15.7797391  55.1870739  31.1456309
  15.9263859  48.3779007  50.7317817  15.6117300  49.1478570  50.4687379
  15.6053791  47.8149264  50.1470044  15.8322778  48.4089276  50.6059167
  26.4930506  58.8719230  42.0265901  26.1876323  59.6047287  42.3879217
  25.7736722  58.4657159  41.7458687  26.3417848  58.9200963  42.0379038
  17.5013975  60.3542725  38.3574129  17.5752984  60.1917897  39.2115979
  18.3183482  60.5432915  38.1134611  17.6330334  60.3579467  38.4472155
  32.1932298  55.5112231  41.3534245  32.1256798  55.5308190  40.4836832
  32.1787960  56.3542558  41.5789916  32.1811054  55.6385965  41.2586722
  11.2619732  60.7000588  35.3868573  10.4357850  60.9462325  35.2602852
  11.3231723  60.6212669  36.2530631  11.1493899  60.7245537  35.4957517
  13.4795756  46.7669529  36.3464013  12.6118181  46.8392128  36.4121622
  13.7670960  47.5691608  36.5351988  13.3935504  46.8963676  36.3838780
  22.6028644  46.9147388  44.6775335  23.3482236  46.7257199  44.2638760
  22.1865949  47.4405626  44.1189191  22.6513619  46.9649534  44.5339908
  16.0418561  63.3177468  33.0887603  16.3316859  62.9266450  32.3646829
  16.7722042  63.4994173  33.5292878  16.1925445  63.2871282  33.0470410
  16.6313306  58.1195214  44.1740733  16.1325000  58.8310982  44.2525622
  17.4413530  58.4395881  44.1358896  16.6769413  58.2722063  44.1797302
  13.9824477  65.2944851  36.1547752  13.7624772  65.0042205  36.9474419
  13.7618999  64.6359806  35.6265665  13.9172071  65.1544559  36.1936661
  12.8941424  57.3818167  38.4203454  12.6054672  56.7555638  38.9549181
  13.7624772  57.3238455  38.4868135  12.9801676  57.2805711  38.5094409
  23.6819322  52.5252950  38.7385436  23.3384087  51.8043286  39.0892686
  23.7812364  52.3166802  37.8963794  23.6461364  52.3877154  38.6657116
  16.1492432  66.6674241  34.9378445  16.8016490  66.1350683  35.1669471
  15.4518041  66.3142893  35.3246319  16.1423150  66.5363764  35.0290613
  13.0973697  59.0213418  34.3445819  13.8519665  59.4026457  34.5581282
  12.5044310  59.4724562  34.7992516  13.1210411  59.1442246  34.4428698
  24.1432351  58.9878655  34.2809424  24.7090383  59.6471864  34.1967967
  23.4960254  59.3328353  34.7525826  24.1311107  59.1360596  34.3382181
  15.5580364  50.9776259  49.4703032  14.7480140  51.2834038  49.3592874
  16.0355051  51.6981841  49.5855616  15.5083843  51.1290860  49.4710103
  14.4171924  60.1921980  39.7185935  13.8952677  60.3322271  40.4037799
  14.8045944  59.4332644  39.9088052  14.3975625  60.1007503  39.8487011
  11.4063108  50.2427788  33.7880889  11.1187904  49.8729059  33.0512837
  12.0933576  50.7122644  33.5264594  11.4652005  50.2574758  33.6395965
  20.6138929  61.9317439  33.7046503  20.3725605  61.1985299  33.2973568
  20.7940262  62.4804296  33.0512837  20.6046553  61.9039830  33.5476726
  15.8438249  57.2225999  35.1167426  15.6481032  57.8300733  34.5227729
  16.0672595  56.5293943  34.6359100  15.8472890  57.2103524  34.9583506
  14.2416779  54.1080736  35.2348294  14.9639431  54.2721895  34.7752100
  13.7624772  54.8290401  35.1287634  14.2780510  54.2378966  35.1513908
  22.2010287  50.4444535  40.6144979  21.3621388  50.4705814  40.3783242
  22.2714654  51.0915271  41.1950326  22.0878680  50.5440661  40.6654096
  11.8924396  56.5138809  44.3402434  12.4045493  56.7923062  43.6911194
  11.6060739  57.2528103  44.7065247  11.9259259  56.6641163  44.2992312
  20.6479565  47.3429912  35.3472595  21.3505918  47.1437661  34.8692553
  20.3823754  46.5705855  35.6541438  20.7126198  47.1992878  35.3218036
   8.9791302  51.0209001  34.6366170   9.0807439  51.8235162  34.9647146
   9.7747189  50.8196337  34.3389251   9.1119208  51.1094900  34.6401526
  15.4108121  48.6065197  44.4003475  15.2191319  48.6220332  45.2502899
  16.2606717  48.8028872  44.3770130  15.5083843  48.6379549  44.5226770
   9.7955034  51.1356179  42.3787292   9.6540526  50.2840120  42.5031800
  10.0795598  51.1784840  41.5549498   9.8162881  51.0155929  42.2754916
  19.9493627  52.9723269  36.5231780  19.7028341  52.8919020  37.3568569
  20.2778750  52.1876737  36.3294308  19.9614870  52.8449534  36.6179303
  23.8441676  59.6806628  40.3118561  23.7056035  60.3787674  40.8167304
  23.0641674  59.5255285  39.9554743  23.7084903  59.7606795  40.3344836
  22.1819761  55.9803004  46.5640943  22.1767799  55.1082820  46.5683370
  22.8880755  56.1791173  46.0910399  22.2864765  55.8806878  46.4947978
  15.9090654  55.7079988  45.9354763  16.0534030  56.2881196  45.2997873
  16.2566303  56.0856284  46.6404618  15.9818115  55.8500692  45.9453758
  18.0810571  54.9070156  43.7179895  17.3333886  55.1001170  43.3128173
  18.2352097  54.0815376  43.4804016  17.9932999  54.8135267  43.6225301
  14.9818409  63.8982760  42.8015790  15.1307973  63.3385675  42.1489195
  15.7618411  63.9774761  43.1848309  15.1192503  63.8268325  42.7612739
  25.3395049  59.0384882  31.0735061  24.9601857  58.2522020  31.0664350
  24.6761294  59.5871739  30.9306705  25.1853523  59.0029706  31.0515858
  17.5071710  64.0697402  44.0800281  17.4315381  63.4006213  44.6351069
  17.4361569  64.7715191  44.5940947  17.4852317  64.0742310  44.2377129
  18.3212349  48.8020707  44.6075299  18.7784963  49.5344681  44.7348091
  18.3968677  48.3787172  45.3662554  18.4003318  48.8477945  44.7376375
  10.5645340  49.0486527  45.6964742  10.0287529  48.4366885  46.0125510
  10.6263104  49.6234663  46.3498409  10.4940972  49.0433454  45.8400169
  18.1641957  62.5898401  34.9123887  18.9291848  62.3208045  34.5906551
  18.0620047  62.1048412  35.6293950  18.2623452  62.4787966  34.9703714
  16.1994726  50.7922811  41.4517123  15.4090801  50.6114271  41.7734458
  16.5955349  50.0149763  41.4347417  16.1411603  50.6510272  41.4969671
  20.6860617  59.6210585  26.8923836  21.4533602  59.6810710  26.4829688
  20.2391926  59.0491026  26.4080155  20.7334044  59.5447161  26.7601547
  21.5838413  58.4265241  39.1776569  20.9083415  58.1950473  39.6789956
  21.5930789  57.8186424  38.5518674  21.4856917  58.3024166  39.1592721
  18.7132557  53.2683070  45.9340622  18.6491698  54.1293026  45.8060758
  18.8529744  52.9515063  45.1336173  18.7248027  53.3483236  45.7968834
  23.5855147  61.2830373  31.4086746  23.6674985  62.0897359  31.0848197
  24.0704890  61.3026332  32.1327520  23.6692305  61.4051036  31.4673645
  17.3951651  55.9615209  40.0756824  16.9713900  56.1619708  39.3395843
  17.2196506  55.1144057  40.1881124  17.3062531  55.8663991  39.9830515
  16.8963344  67.4765722  42.5378282  17.3859274  66.7776511  42.3553946
  16.3247576  67.1789592  43.1254339  16.8847874  67.3291946  42.5979322
  12.6834096  56.4567261  35.5084797  12.8398715  56.3914063  36.3640789
  13.0234689  57.2315813  35.2963477  12.7567330  56.5616459  35.6039391
  19.2213240  55.8325144  34.3778160  19.7628786  55.3295525  34.8416781
  19.5359799  55.7790339  33.5667645  19.3477637  55.7504565  34.3261972
  23.0930348  60.0427792  51.4905072  23.9065213  59.7712940  51.6510205
  22.9325314  59.7435332  50.6865268  23.1900296  59.9582718  51.3950478
  17.3899690  61.2242496  31.6618188  17.4592510  60.3657034  31.8011189
  18.1688145  61.4414377  31.3337213  17.5152540  61.1295360  31.6335345
  20.3702510  50.7261449  44.4300461  20.5844479  50.0872363  43.8763815
  19.7536409  51.1707273  44.0008322  20.3107839  50.6971592  44.2850892
  21.7807177  63.6480197  35.8754682  21.3886969  63.3446912  35.1577548
  21.9360250  64.4849287  35.6859635  21.7460767  63.7264034  35.7411179
   9.2568357  53.6402211  35.8245564   9.6367322  54.0586756  35.1605831
   8.6823722  54.2215667  36.1314407   9.2279682  53.7880070  35.7722305
  22.5341598  52.3350514  45.3683768  21.7218279  52.0276404  45.4496940
  22.9931532  51.8549514  45.9326480  22.4821982  52.2187006  45.4638362
  21.9446852  60.2130186  35.8160712  21.5861507  60.3844829  36.5924744
  21.4585563  60.6743392  35.2588711  21.8205549  60.3069157  35.8485981
  19.7617238  43.8361384  39.4187803  18.8910796  43.8100105  39.3721113
  20.0157579  43.6638577  38.6013649  19.6710798  43.8071528  39.2907940
  16.7335218  55.8929351  28.3560946  17.0227742  56.6694234  28.6304521
  16.8207017  55.3818083  29.0575446  16.7889474  55.9321270  28.5003444
  19.6295105  53.7410585  50.1512470  20.0994736  54.3652702  50.5380344
  19.6756985  53.0727561  50.7105685  19.7062981  53.7345266  50.2912541
  16.7866379  45.8467613  40.8761274  16.2704867  45.1547804  41.0012853
  16.2260308  46.5138390  40.8223873  16.6272892  45.8430870  40.8867340
  18.8558612  46.3860573  42.7054126  18.4690365  46.4109604  43.4867656
  18.3691549  45.8202252  42.2528643  18.7271121  46.3056324  42.7542030
  23.1051592  61.1034082  46.7627913  23.7431312  60.6094277  46.4290369
  22.4625683  61.0311482  46.1780140  23.1045818  61.0193090  46.6270268
  24.8308592  52.9523228  41.3293829  24.4036200  52.8649576  40.5741928
  24.1934645  53.0601003  41.9148673  24.6738199  52.9555888  41.3039270
  18.5215754  43.2727558  44.9964386  19.1508872  43.8087858  44.7185457
  18.6901617  43.1804917  45.8477952  18.6393548  43.3388921  45.0812914
  18.3229669  48.0598753  47.2690798  19.1503098  47.7883902  47.3249412
  18.3437515  48.8559595  47.6254616  18.4482519  48.1378507  47.3305981
  23.1605848  61.7953890  43.4033270  23.9498226  61.4442955  43.5235351
  23.3349446  62.6090279  43.1409904  23.3026130  61.8639747  43.3821138
  12.8999159  55.2062616  40.4561059  12.0587165  55.1066490  40.6639952
  13.1089167  55.9758096  40.8075379  12.8063851  55.3054659  40.5388373
  10.3774726  52.8282153  38.2845809   9.9831423  52.9025165  37.5095919
   9.8214842  53.2140099  38.8354171  10.2377538  52.8963927  38.2513469
  16.7115823  53.1344015  39.7058656  16.4078961  52.5800003  40.3069064
  16.0095244  53.3136225  39.2186690  16.5632033  53.0788797  39.7228362
  15.7681921  50.4444535  34.2703358  16.0441655  49.7263447  33.8580925
  16.3680590  51.0429455  34.0624464  15.8975185  50.4264906  34.1784119
  14.7734175  60.3493736  44.4130754  14.6654529  60.3595798  45.2792812
  14.9829956  61.1748516  44.2235708  14.7884286  60.4734811  44.5134845
  19.2692441  48.1158052  32.5449953  19.7236188  48.2868613  33.2697797
  19.7432487  47.5026163  32.1447729  19.4060761  48.0508937  32.5923714
  12.7907966  57.6006378  41.8752691  12.1995900  58.2415876  41.8455707
  13.5528990  58.0243995  41.8483991  12.8156227  57.7582217  41.8667839
  13.1868589  48.7608376  42.5420709  13.6470071  48.8347305  43.2795833
  13.2324696  49.5589630  42.1920530  13.2619145  48.8902523  42.5993466
  14.8351939  49.4275071  47.1092736  14.4437504  48.7808418  47.5448514
  15.0037802  50.0186506  47.7286992  14.8022849  49.4189339  47.2655442
  28.9098388  57.4312148  42.8729970  28.9681512  57.8798797  43.6189946
  28.2764856  57.8410961  42.4360050  28.8249683  57.5585883  42.9182518
  22.5497483  63.0515690  39.3084716  22.3517171  63.5406504  38.6140927
  21.9285194  63.2556931  39.8868849  22.4285047  63.1532228  39.2907939
  16.6105461  54.8200587  33.6494960  17.3547506  55.2074863  33.8877910
  16.7566157  53.9758012  33.8135448  16.7416046  54.7531059  33.7088930
  18.5285037  46.6150845  38.6826822  17.6821082  46.7873653  38.5568171
  18.5256169  45.8100189  39.0192650  18.4032186  46.5211874  38.7137949
  19.5983337  50.3926060  39.5488879  19.1243291  49.8667822  40.0594190
  19.9701473  49.8455533  38.9803741  19.5833226  50.2342056  39.5404027
   9.9756367  52.3897567  44.9172425  10.8381980  52.2893276  44.8309755
   9.6448150  51.8092276  44.3557997  10.0541563  52.2889193  44.8217831
  25.8620068  55.4528436  40.9595660  25.6218290  54.6134851  40.9638086
  26.3412075  55.5328602  41.6836434  25.8972251  55.3409835  41.0670462
  21.5266837  51.2862614  32.6114633  20.9989855  51.3691358  31.9220342
  21.9862545  52.0280486  32.6079278  21.5168687  51.4083277  32.5089328
  27.8625255  52.2329893  38.9124919  27.6235025  52.1925727  38.0745704
  28.0259156  53.0801045  39.0390640  27.8515558  52.3521978  38.8078401
  24.4671285  56.6179842  44.8429964  25.1905484  56.1652368  44.6640984
  24.2021247  56.8984508  44.0602292  24.5352558  56.5930811  44.7008680
  13.3358153  51.2140016  41.5782843  12.7111223  51.2258408  40.9708796
  13.0003748  51.6900191  42.2274084  13.1943645  51.2858533  41.5839412
  13.5199902  49.5565134  27.6355528  13.1712706  50.2084859  28.0987078
  13.0396348  49.5422247  26.9079400  13.3970146  49.6508188  27.5966620
  10.0483829  59.2740476  43.0186608   9.5183753  58.5832915  43.0681582
  10.3208922  59.2650661  42.1899316  10.0108551  59.1707607  42.9034024
  21.0803919  59.8566178  31.7424290  21.8038118  60.3224291  31.5988864
  20.6404510  59.9239788  30.9921887  21.1219611  59.9350015  31.6109072
  20.2490074  56.7163720  42.9924979  19.6347067  56.1721771  43.2873615
  20.7657359  56.2027957  42.5130795  20.2345737  56.5600129  42.9649208
  19.4886371  57.7867990  40.7269278  19.0613979  57.1617709  40.2934713
  19.4811316  57.5042912  41.5528285  19.4245513  57.6520771  40.7849106
  12.6048898  52.8233163  43.7957712  12.7642385  52.0676488  44.2009434
  12.4241792  53.3724103  44.4498450  12.6014257  52.7926977  43.9520418
  20.5469201  44.9894399  44.3508501  20.0509763  45.1858073  43.6600068
  21.3038263  45.3887067  44.1797303  20.5856026  45.0772133  44.2228638
  17.8172081  48.6636745  40.9411812  17.8414568  48.1296857  40.2524592
  18.0683555  48.1554054  41.6037403  17.8582000  48.5097649  40.9376457
   5.3279671  55.9468240  40.3754956   5.2223120  55.9015084  39.5107040
   4.5779891  56.2922020  40.6569241   5.2015274  55.9909148  40.2892286
  14.0973403  47.3907563  40.3217556  14.1371775  47.8916770  41.0352264
  13.2723068  47.4817957  40.0523479  13.9812929  47.4789379  40.3868095
  16.2803016  56.9568303  48.4237851  15.4298647  57.0940017  48.5595496
  16.4431144  56.2232081  48.8685553  16.1786880  56.8682404  48.5093450
  15.5187767  53.9068073  42.6191455  14.6879696  54.0741891  42.4126703
  15.4639284  53.5304024  43.4040341  15.3877182  53.8757804  42.7039983
  13.3271550  47.3976966  48.2547866  13.9524253  46.8539099  48.5277298
  12.8722030  46.9171883  47.6855656  13.3519811  47.2466447  48.2109460
  13.8923810  52.1823664  33.1481573  14.0326772  52.6796129  33.8510214
  14.3906343  51.4809959  33.2895787  13.9864891  52.1525643  33.2733152
  13.9224033  53.0490776  30.4774150  14.5569112  53.6451201  30.4123612
  14.0049644  52.7494233  31.2920020  14.0280584  53.0931684  30.5877236
  26.9006599  55.5806253  43.3460514  27.4924439  56.2203504  43.3778712
  27.3365593  54.8829290  43.6352581  27.0525030  55.5724603  43.3941347
  15.5003016  48.9804751  30.4519592  15.8218857  48.5007833  29.7978854
  15.7629959  49.7904397  30.2610403  15.5869041  49.0294649  30.3275084
  18.7299988  60.0023625  43.9718408  18.2225080  60.5559472  44.4159038
  18.4326635  60.0631915  43.1537182  18.6104873  60.0929936  43.9166865
  20.8962171  48.3676945  42.8143071  21.3217242  47.9149471  42.2026597
  20.2819164  47.8137016  43.0907858  20.8690816  48.2190921  42.7648096
  10.4277021  55.2458616  33.7463696  10.9369250  55.8423124  34.1275001
  10.9011293  54.9784590  33.0640115  10.5720396  55.2944432  33.7018219
  21.3407769  63.9186883  31.9022351  20.6237079  63.7447745  31.4369589
  21.9914506  63.6839455  31.3697837  21.3309619  63.8582675  31.7551569
  19.3356394  44.8392045  36.2233648  18.6924711  44.6889691  36.7918786
  18.9955801  44.5934390  35.4582753  19.1901471  44.7804167  36.1936663
  23.9255740  52.7951471  35.6463656  23.2546930  53.3381174  35.5176722
  24.6195490  53.2646327  35.4045351  23.9284608  52.9449743  35.5919184
  17.9742474  64.9348183  40.8775415  17.7508128  64.1767013  41.2459441
  17.4852317  64.9646205  40.1555854  17.8685923  64.8270408  40.8252156
  24.0883867  49.2507355  38.5554030  24.4411478  48.8237078  39.2299828
  23.2298669  49.1658199  38.6855106  24.0133312  49.1752096  38.6749040
  12.7867552  51.8814875  36.6136876  12.0679542  52.2979007  36.8809740
  13.1579915  52.4469114  36.0628514  12.7359484  52.0264156  36.5719683
  22.0867133  52.5142724  42.5038872  22.0665061  52.3326019  43.3573651
  22.1346334  53.3854742  42.4798456  22.0901774  52.6159262  42.6262167
  20.0313463  59.1029916  48.4287349  19.9909318  58.4579593  47.8432504
  20.8436781  59.0466533  48.7412761  20.1456617  58.9988883  48.3884298
  16.6220931  65.1548642  38.3312499  16.2081329  64.4922772  37.9416341
  17.3068305  65.3026500  37.8108194  16.6619302  65.0789300  38.1968997
  19.9886225  64.3138727  39.0836116  19.5902508  64.4240997  38.3156936
  19.3737444  64.5220793  39.6662676  19.8385114  64.3612295  39.0567415
  18.5614127  50.9212875  31.9510256  17.9678966  51.2429871  31.3994823
  18.5989405  50.0753970  31.7431362  18.4788516  50.8437203  31.8393027
  21.4371943  50.8792379  35.3812006  21.2085636  50.9025081  34.5390364
  21.6970020  50.0549846  35.5007016  21.4418131  50.7608459  35.2737204
  15.7191172  52.7326852  44.9837106  15.2070075  52.1248035  45.3422138
  15.5470668  53.4483445  45.4511082  15.6180809  52.7490152  45.1053330
  10.5656887  51.1764428  47.6339468  10.3959477  51.8365802  47.0887675
  10.1222836  51.3870989  48.3551957  10.4756220  51.3050410  47.6601097
  14.4916706  49.4168926  36.6766202  14.9674072  49.7786005  36.0416383
  13.9905306  50.0725393  36.9566344  14.4882065  49.5663114  36.6242943
  19.5960242  50.6551097  47.4239362  20.1531672  50.4264906  46.7917827
  19.2721307  51.4156763  47.1474574  19.6306652  50.7334934  47.2895859
   7.4658951  54.0811293  42.8927958   6.9185671  53.4111939  43.0108826
   8.2551329  53.7141141  42.9571425   7.5011135  53.9276280  42.9196658
  17.3143359  53.7418750  48.3891369  18.0654686  54.0570427  48.7030923
  17.5065936  53.5397921  47.5625291  17.4534774  53.7586132  48.3134765
  16.5343359  51.5610125  30.0439586  16.9142324  51.5789754  29.2590700
  15.7935955  52.0064114  29.9230433  16.4812197  51.6291900  29.9103154
   6.2245921  53.2932101  40.0473981   6.0467682  52.8408710  40.7728896
   5.9364943  54.0958262  40.2312458   6.1558874  53.3454659  40.1817484
  21.8869502  54.5489818  39.2851371  22.3823167  53.8312813  39.2455391
  21.0769277  54.2460616  39.1705858  21.8413395  54.3987465  39.2625097
  17.3328113  58.3987632  31.4348376  16.5239436  58.0754305  31.3881685
  17.8403022  57.6920854  31.3676624  17.2877780  58.2468948  31.4178670
   7.9618390  55.8259825  37.1595740   7.0963910  55.8145515  37.0478511
   8.0617206  55.6390048  38.0066879   7.8492557  55.7965886  37.2684684
  23.9521321  57.2993506  41.9728500  24.3776392  56.7767928  41.4198925
  23.5878240  57.8974343  41.4517123  23.9607923  57.3103733  41.8137510
  13.5875400  65.5957723  40.7325845  13.9021959  66.4094112  40.7403627
  13.9968814  65.2107942  41.4008005  13.6943498  65.6586426  40.8329937
  20.5399920  61.0127770  38.3029657  21.0111098  61.7268033  38.4719643
  20.8760098  60.4126520  38.8389527  20.6595035  61.0299234  38.4062033
  22.6276905  62.6229083  50.4821729  22.7373870  61.8337644  50.8378477
  22.9567801  62.5335020  49.6796068  22.6929310  62.4934936  50.4164120
  17.4569415  45.7855241  45.2587752  17.5897321  44.9886234  45.5868728
  17.8414568  46.3121644  45.8386028  17.5325744  45.7455157  45.3931255
  21.1773866  60.8045704  45.0657350  20.6294812  60.1803588  44.7977415
  21.6386895  60.9939976  44.3501429  21.1641076  60.7404754  44.9207781
  20.5301770  42.7085567  41.8568845  19.7247734  42.5983296  42.1736684
  20.4008506  42.8098022  40.9998711  20.3921903  42.7069237  41.7776886
  23.9867731  48.8731059  42.4508542  23.4030719  49.3740265  42.0386110
  24.3072025  48.3660615  41.8172866  23.9480906  48.8722894  42.2967050
  16.5262530  47.7871653  32.7267217  17.3478224  47.9569966  32.4848912
  16.0632181  47.9418914  32.0033515  16.5793692  47.8353386  32.5838861
  15.1157862  45.7814416  43.5065646  15.6602275  45.4405543  44.0969988
  15.1694797  46.6399877  43.6486930  15.2046981  45.8569675  43.6147519
  10.9288420  59.5430832  40.3804454  11.5333278  59.5026666  39.7518275
  10.7215733  60.3901984  40.4108510  10.9877318  59.6618834  40.2920570
  20.7432193  61.8096777  41.5966691  21.5630566  61.6659743  41.8582986
  20.4626270  62.4342976  42.1383129  20.8228936  61.8807129  41.7154631
   6.1639703  58.5265449  40.2503377   6.0663981  57.7161721  40.5593434
   6.9468572  58.5057243  39.8649645   6.2655839  58.4032539  40.2390240
  37.2145843  69.4661629  34.5609568  37.1839847  70.3206265  34.7327837
  37.8127192  69.1656921  35.1195711  37.2983001  69.5478125  34.6684370
  30.4145528  68.5537280  39.3162498  29.5583423  68.7145778  39.3671615
  30.4613182  67.6829344  39.3367559  30.2944639  68.4488081  39.3268564
  33.7239244  74.8223805  48.9222954  34.4306012  74.3275836  49.0509889
  33.9127180  75.2632887  48.1925612  33.8567150  74.8142156  48.8332000
  33.2597349  70.6129324  41.9594150  33.8053309  71.2914410  42.0188119
  33.2014225  70.4716784  41.0995731  33.3313263  70.6921325  41.8406210
  35.0362417  72.0413931  32.8327877  34.9201943  72.7921617  33.2620016
  35.8318304  71.7837884  33.0823964  35.1367007  72.1148778  32.9331969
  21.8726555  66.2924407  39.8699143  21.2531587  65.7017054  39.7009158
  21.7710419  66.8835842  39.2363467  21.7664231  66.2928489  39.7504133
  26.9192743  76.0307954  34.1197220  27.2408584  76.5713161  33.5158528
  27.5664840  75.4604725  34.2519510  27.0618798  76.0267129  34.0504255
  28.9694451  68.0323949  34.2031607  29.6674616  68.2112076  34.6953070
  29.2846784  67.5094288  33.5801996  29.1189788  67.9817721  34.1833617
  21.5995688  69.8376689  42.1142712  21.4754385  70.4239134  42.7492531
  22.2513973  69.3436884  42.4154987  21.6769338  69.8515493  42.2528642
  29.1582386  74.4194394  34.1911398  29.5976022  73.8111494  34.6366171
  29.0087049  74.0401767  33.4196863  29.2003852  74.2732865  34.1430565
  26.6254029  73.0138405  41.3930223  27.2703032  72.5210849  41.0741172
  26.8655807  73.1563192  42.2196302  26.7564615  72.9615848  41.4679757
  29.1640121  75.8593311  41.0437116  29.4463364  75.0644717  40.8223872
  29.8926281  76.3373899  41.0642177  29.3129685  75.8127908  41.0140131
  27.1421315  63.4016345  38.2852881  26.8124645  63.8527489  37.6156580
  26.4666316  63.3232509  38.8325888  26.9931751  63.4567480  38.2676104
  32.7591723  72.7721575  31.1442167  32.6743018  73.6282542  31.2891736
  33.2476106  72.4965899  31.8124326  32.8180620  72.8578896  31.2644249
  33.6910156  69.3906369  32.6439902  33.1621628  69.6066003  33.3037209
  34.2135176  70.0842508  32.5640872  33.6898609  69.5249506  32.7295502
  39.1458209  74.9652674  38.0172947  38.3155912  75.1763317  38.1806363
  39.0967461  74.1389728  37.7415230  39.0164945  74.8742280  38.0010312
  25.5809764  73.2869586  31.4447370  24.9966979  73.7919617  31.8513234
  25.1779859  73.0611973  30.7043962  25.4349068  73.3277834  31.3952396
  30.8631539  78.2451342  46.8137029  30.9514885  78.0577482  47.6615240
  31.2921251  77.5988771  46.4141876  30.9393641  78.1214349  46.8808781
  30.0386978  69.5335238  29.9216291  30.2782982  69.7413222  29.1091634
  30.3602819  68.7292747  30.0305235  30.1224136  69.4449339  29.8176844
  25.3477269  61.4628634  33.7675829  26.1023237  61.8306951  33.5292879
  25.1704803  61.8368188  34.5355008  25.4331747  61.5726822  33.8460717
  38.6412167  67.6123074  41.8123368  37.8040589  67.6825261  42.0470963
  38.6100398  67.6147569  40.9397671  38.5130450  67.6233301  41.7182916
  25.0376896  69.7556110  47.5271737  25.2097400  69.6462004  48.3757018
  25.5746254  70.4010515  47.2902929  25.1421900  69.8348112  47.6176834
  23.7034333  63.8698953  30.4653942  23.5209907  64.0870833  29.6394935
  24.5659946  63.9837965  30.5212556  23.8038923  63.9188851  30.3508429
  33.3642353  71.8078751  37.4035260  34.1199868  72.2410265  37.4424168
  33.4704678  71.1583520  37.9769896  33.4912524  71.7756235  37.4933285
  36.4022524  75.6352028  38.1537663  35.9657756  75.6388770  38.9096634
  36.0685440  76.3157527  37.7217240  36.2885144  75.7364484  38.2018495
  30.9751598  77.6760361  49.4780813  31.7592015  77.7891209  49.8436555
  30.7748193  76.8501498  49.6739499  31.0617623  77.5707080  49.5615199
  19.3438613  72.3488041  42.3624657  19.0777029  71.5327158  42.5215647
  19.3577178  72.3941196  41.4920172  19.3063336  72.2344946  42.2578139
  36.3220007  62.6765856  40.3967091  36.9645916  62.7463960  40.9829006
  36.5743028  62.0095079  39.8946632  36.4542139  62.5892204  40.4094370
  23.2496360  67.1473125  28.9776415  22.5354538  66.8611305  29.3898847
  23.7340329  67.4869751  29.6182802  23.2155724  67.1554775  29.1332050
  24.0937220  65.8866419  45.0091665  23.4009017  65.4163399  45.2552396
  24.7097547  65.6604724  45.5833372  24.0821750  65.7833551  45.1300817
  39.5366871  72.3532948  37.0457300  40.1983305  71.7923616  36.9453208
  38.8958283  71.8584979  37.3709991  39.5395738  72.1969357  37.0789640
  30.4243678  75.6503079  29.3538223  30.8394827  75.3188103  28.6622719
  29.5935608  75.4171982  29.2258360  30.3631687  75.5674335  29.2329071
  19.7532027  73.1346820  39.6436401  19.5707600  73.1093706  38.7908693
  20.4881696  73.6045758  39.6825310  19.8346091  73.2008183  39.5234320
  35.8231701  73.3698330  36.7869289  36.0587290  73.5143529  35.9596139
  35.9721265  74.1340738  37.1800802  35.8797505  73.5037385  36.7232893
  22.8177779  69.8531823  46.1518510  23.5417751  69.8384854  46.6383404
  22.9193915  70.5627178  45.6540478  22.9395988  69.9556526  46.1497297
  37.6522158  72.2099996  34.6238892  37.9830375  72.7427636  34.0178987
  38.2255246  72.2638884  35.2800843  37.7855837  72.2969565  34.6316674
  30.1922728  73.3330908  51.0167457  29.3995709  73.6474420  51.2020076
  30.3071655  73.5482376  50.1788241  30.0918139  73.4114744  50.9205791
  32.8654047  70.0564899  35.3062473  32.9600902  70.7954193  35.7602098
  32.2412891  69.6282374  35.7397037  32.7863077  70.1026219  35.4370620
  31.1206521  73.2351112  45.9552753  31.6945383  72.5978356  46.1101317
  31.0421325  73.2355194  45.0862411  31.1939756  73.1416223  45.8499164
  19.7202937  70.0140321  39.7935468  20.2976440  69.8776772  40.4327713
  19.0216999  69.5576105  40.0481052  19.7023959  69.9262587  39.9257757
  33.1177068  71.9013639  28.5399425  33.0357231  71.9715826  29.4054412
  33.7556789  72.4643383  28.3483165  33.1996906  71.9952610  28.6389374
  26.4770240  71.6674377  38.0073951  26.2189484  70.8346112  37.9805250
  26.5318722  71.8931990  37.1666451  26.4470017  71.5772148  37.8794088
  31.5571290  63.7702827  38.1078044  30.8527616  63.2812013  38.2661963
  31.6056264  63.7825302  37.2366488  31.4601341  63.6992475  38.0017383
  25.4504952  69.2212139  38.4938846  24.8754543  69.3804307  39.1302807
  25.0740628  68.5847548  38.0307296  25.3107764  69.1509952  38.5193404
  29.1178240  67.6935488  43.3531224  28.7292673  67.2689706  42.6983415
  28.4532939  67.9417638  43.8608251  28.9625168  67.6674209  43.3319092
  38.7601510  67.4510493  36.1279054  38.5038074  66.6390435  35.9376937
  39.6030823  67.4588060  35.9009241  38.8467535  67.3322491  36.0663871
  15.1961771  68.8652214  36.5083286  15.2822022  68.4884082  37.2896816
  15.8237568  68.4912660  36.0303244  15.3018322  68.7537696  36.5528764
  32.9404602  61.3910117  40.8655208  33.3215114  60.7088288  41.2523082
  32.1367886  61.1019719  40.6830873  32.8781064  61.2477166  40.8959264
  30.2217179  71.9234093  31.5508031  31.0357817  72.2148986  31.4390802
  30.1576320  71.2693955  30.9766324  30.3319918  71.8699288  31.4496868
  36.4426669  74.6060089  45.9637607  36.2065306  73.7748154  45.8449667
  37.0869898  74.5545696  46.5492451  36.5021340  74.4757777  46.0323500
  26.0925087  75.3955610  36.6780343  26.7299034  75.1567358  37.2232136
  26.5180158  75.5992769  35.9433504  26.2501253  75.3906621  36.6497500
  26.7327902  70.6157900  31.0155232  27.1173055  70.3965607  31.7671778
  26.4839522  71.4420846  31.1456309  26.7529975  70.7056046  31.1456309
  26.8996442  63.8964315  50.7317817  26.5849883  64.6663878  50.4687379
  26.5786375  63.3334571  50.1470044  26.8055361  63.9274584  50.6059167
  37.4663089  74.3904538  42.0265901  37.1608906  75.1232595  42.3879217
  36.7469305  73.9842467  41.7458687  37.3150432  74.4386271  42.0379038
  28.4746559  75.8728033  38.3574129  28.5485567  75.7103205  39.2115979
  29.2916065  76.0618223  38.1134611  28.6062917  75.8764775  38.4472155
  43.1664882  71.0297539  41.3534245  43.0989382  71.0493498  40.4836832
  43.1520544  71.8727866  41.5789916  43.1543638  71.1571273  41.2586722
  24.4528339  62.2854837  36.3464013  23.5850765  62.3577436  36.4121622
  24.7403544  63.0876916  36.5351988  24.3668087  62.4148984  36.3838780
  33.5761228  62.4332696  44.6775335  34.3214820  62.2442507  44.2638760
  33.1598533  62.9590934  44.1189191  33.6246202  62.4834842  44.5339908
  40.9523499  69.8041925  39.6280840  41.5031420  69.1709994  39.8677932
  40.9367614  70.3357318  40.3196344  41.0308695  69.7890873  39.7659698
  27.6045890  73.6380522  44.1740733  27.1057583  74.3496290  44.2525622
  28.4146114  73.9581189  44.1358896  27.6501996  73.7907371  44.1797302
  23.8674007  72.9003475  38.4203454  23.5787256  72.2740946  38.9549181
  24.7357355  72.8423762  38.4868135  23.9534259  72.7991019  38.5094409
  34.6551905  68.0438258  38.7385436  34.3116671  67.3228594  39.0892686
  34.7544948  67.8352110  37.8963794  34.6193948  67.9062462  38.6657116
  24.0706281  74.5398726  34.3445819  24.8252249  74.9211765  34.5581282
  23.4776893  74.9909870  34.7992516  24.0942994  74.6627553  34.4428698
  35.1164934  74.5063963  34.2809424  35.6822967  75.1657172  34.1967967
  34.4692838  74.8513661  34.7525826  35.1043691  74.6545904  34.3382181
  26.5312948  66.4961566  49.4703032  25.7212723  66.8019346  49.3592874
  27.0087634  67.2167149  49.5855616  26.4816427  66.6476168  49.4710103
  25.3904507  75.7107287  39.7185935  24.8685261  75.8507579  40.4037799
  25.7778528  74.9517952  39.9088052  25.3708208  75.6192811  39.8487011
  22.3795691  65.7613096  33.7880889  22.0920487  65.3914367  33.0512837
  23.0666160  66.2307951  33.5264594  22.4384589  65.7760066  33.6395965
  31.5871512  77.4502747  33.7046503  31.3458188  76.7170607  33.2973568
  31.7672845  77.9989604  33.0512837  31.5779136  77.4225138  33.5476726
  26.8170833  72.7411306  35.1167426  26.6213616  73.3486041  34.5227729
  27.0405179  72.0479250  34.6359100  26.8205474  72.7288832  34.9583506
  25.2149363  69.6266044  35.2348294  25.9372015  69.7907203  34.7752100
  24.7357356  70.3475709  35.1287634  25.2513094  69.7564274  35.1513908
  33.1742871  65.9629843  40.6144979  32.3353971  65.9891122  40.3783242
  33.2447238  66.6100579  41.1950326  33.0611264  66.0625969  40.6654096
  22.8656980  72.0324117  44.3402434  23.3778077  72.3108370  43.6911194
  22.5793322  72.7713411  44.7065247  22.8991843  72.1826470  44.2992312
  37.0500394  71.1697830  37.9006221  36.9634369  71.3253256  38.7541000
  36.5950874  71.8135905  37.5265626  36.9703651  71.2873585  37.9713327
  19.9523886  66.5394309  34.6366170  20.0540022  67.3420470  34.9647146
  20.7479773  66.3381645  34.3389251  20.0851792  66.6280207  34.6401526
  26.3840705  64.1250505  44.4003475  26.1923902  64.1405640  45.2502899
  27.2339301  64.3214180  44.3770130  26.4816427  64.1564857  44.5226770
  20.7687618  66.6541487  42.3787292  20.6273110  65.8025428  42.5031800
  21.0528181  66.6970148  41.5549498  20.7895464  66.5341237  42.2754916
  30.9226210  68.4908577  36.5231780  30.6760925  68.4104328  37.3568569
  31.2511334  67.7062045  36.3294308  30.9347454  68.3634842  36.6179303
  34.8174259  75.1991936  40.3118561  34.6788619  75.8972982  40.8167304
  34.0374257  75.0440593  39.9554743  34.6817486  75.2792103  40.3344836
  33.1552344  71.4988312  46.5640943  33.1500383  70.6268128  46.5683370
  33.8613338  71.6976481  46.0910399  33.2597348  71.3992186  46.4947978
  26.8823238  71.2265296  45.9354763  27.0266613  71.8066504  45.2997873
  27.2298886  71.6041592  46.6404618  26.9550699  71.3686000  45.9453758
  29.0543155  70.4255464  43.7179895  28.3066469  70.6186478  43.3128173
  29.2084680  69.6000684  43.4804016  28.9665583  70.3320575  43.6225301
  36.3127632  74.5570190  31.0735061  35.9334441  73.7707328  31.0664350
  35.6493878  75.1057047  30.9306705  36.1586107  74.5215014  31.0515858
  29.2944932  64.3206015  44.6075299  29.7517546  65.0529989  44.7348091
  29.3701261  63.8972480  45.3662554  29.3735902  64.3663253  44.7376375
  21.5377923  64.5671834  45.6964742  21.0020113  63.9552193  46.0125510
  21.5995688  65.1419970  46.3498409  21.4673556  64.5618762  45.8400169
  33.7672258  57.4995890  38.4769142  33.8855826  57.9572353  37.7436444
  33.5934434  56.6941151  38.1905359  33.7591429  57.4489662  38.3270075
  27.1727310  66.3108119  41.4517123  26.3823385  66.1299579  41.7734458
  27.5687933  65.5335071  41.4347417  27.1144186  66.1695580  41.4969671
  31.6593201  75.1395893  26.8923836  32.4266186  75.1996018  26.4829688
  31.2124510  74.5676334  26.4080155  31.7066628  75.0632469  26.7601547
  32.5570996  73.9450549  39.1776569  31.8815998  73.7135781  39.6789956
  32.5663372  73.3371732  38.5518674  32.4589501  73.8209474  39.1592721
  29.6865140  68.7868378  45.9340622  29.6224282  69.6478334  45.8060758
  29.8262328  68.4700371  45.1336173  29.6980610  68.8668544  45.7968834
  34.5587731  76.8015681  31.4086746  34.6407568  77.6082667  31.0848197
  35.0437473  76.8211640  32.1327520  34.6424889  76.9236344  31.4673645
  28.3684234  71.4800517  40.0756824  27.9446483  71.6805016  39.3395843
  28.1929089  70.6329365  40.1881124  28.2795115  71.3849299  39.9830515
  23.6566679  71.9752569  35.5084797  23.8131298  71.9099371  36.3640789
  23.9967272  72.7501121  35.2963477  23.7299914  72.0801767  35.6039391
  30.1945824  71.3510452  34.3778160  30.7361369  70.8480833  34.8416781
  30.5092383  71.2975647  33.5667645  30.3210221  71.2689873  34.3261972
  34.0662931  75.5613099  51.4905072  34.8797796  75.2898248  51.6510205
  33.9057898  75.2620639  50.6865268  34.1632880  75.4768026  51.3950478
  28.3632273  76.7427804  31.6618188  28.4325094  75.8842342  31.8011189
  29.1420729  76.9599685  31.3337213  28.4885124  76.6480668  31.6335345
  31.3435093  66.2446757  44.4300461  31.5577063  65.6057671  43.8763815
  30.7268992  66.6892580  44.0008322  31.2840422  66.2156900  44.2850892
  20.2300941  69.1587519  35.8245564  20.6099906  69.5772064  35.1605831
  19.6556305  69.7400975  36.1314407  20.2012266  69.3065378  35.7722305
  33.5074181  67.8535822  45.3683768  32.6950863  67.5461712  45.4496940
  33.9664116  67.3734822  45.9326480  33.4554566  67.7372314  45.4638362
  32.9179436  75.7315494  35.8160712  32.5594091  75.9030137  36.5924744
  32.4318147  76.1928699  35.2588711  32.7938133  75.8254465  35.8485981
  27.7067801  71.4114659  28.3560946  27.9960326  72.1879542  28.6304521
  27.7939600  70.9003391  29.0575446  27.7622057  71.4506578  28.5003444
  30.6027689  69.2595893  50.1512470  31.0727320  69.8838010  50.5380344
  30.6489569  68.5912869  50.7105685  30.6795565  69.2530574  50.2912541
  27.7598962  61.3652921  40.8761274  27.2437451  60.6733112  41.0012853
  27.1992891  62.0323698  40.8223873  27.6005476  61.3616178  40.8867340
  29.8291196  61.9045881  42.7054126  29.4422949  61.9294912  43.4867656
  29.3424133  61.3387559  42.2528643  29.7003705  61.8241632  42.7542030
  34.0784175  76.6219390  46.7627913  34.7163896  76.1279585  46.4290369
  33.4358267  76.5496790  46.1780140  34.0778402  76.5378398  46.6270268
  35.8041175  68.4708536  41.3293829  35.3768783  68.3834884  40.5741928
  35.1667228  68.5786311  41.9148673  35.6470783  68.4741196  41.3039270
  29.4948337  58.7912866  44.9964386  30.1241455  59.3273166  44.7185457
  29.6634200  58.6990225  45.8477952  29.6126132  58.8574229  45.0812914
  29.2962252  63.5784061  47.2690798  30.1235682  63.3069210  47.3249412
  29.3170098  64.3744903  47.6254616  29.4215102  63.6563815  47.3305981
  34.1338432  77.3139198  43.4033270  34.9230810  76.9628263  43.5235351
  34.3082030  78.1275586  43.1409904  34.2758713  77.3825055  43.3821138
  23.8731742  70.7247924  40.4561059  23.0319749  70.6251798  40.6639952
  24.0821750  71.4943404  40.8075379  23.7796435  70.8239967  40.5388373
  21.3507309  68.3467461  38.2845809  20.9564007  68.4210473  37.5095919
  20.7947426  68.7325407  38.8354171  21.2110122  68.4149235  38.2513469
  27.6848407  68.6529323  39.7058656  27.3811545  68.0985311  40.3069064
  26.9827828  68.8321533  39.2186690  27.5364617  68.5974105  39.7228362
  26.7414504  65.9629843  34.2703358  27.0174239  65.2448755  33.8580925
  27.3413173  66.5614763  34.0624464  26.8707769  65.9450214  34.1784119
  23.7640550  73.1191686  41.8752691  23.1728483  73.7601184  41.8455707
  24.5261574  73.5429303  41.8483991  23.7888811  73.2767524  41.8667839
  24.1601173  64.2793684  42.5420709  24.6202654  64.3532613  43.2795833
  24.2057280  65.0774938  42.1920530  24.2351728  64.4087831  42.5993466
  25.8084523  64.9460379  47.1092736  25.4170088  64.2993726  47.5448514
  25.9770385  65.5371814  47.7286992  25.7755433  64.9374647  47.2655442
  39.8830972  72.9497456  42.8729970  39.9414095  73.3984105  43.6189946
  39.2497439  73.3596269  42.4360050  39.7982267  73.0771190  42.9182518
  33.5230066  78.5700998  39.3084716  33.3249755  79.0591812  38.6140927
  32.9017777  78.7742239  39.8868849  33.4017631  78.6717536  39.2907939
  27.5838045  70.3385894  33.6494960  28.3280090  70.7260171  33.8877910
  27.7298741  69.4943320  33.8135448  27.7148630  70.2716367  33.7088930
  29.5017620  62.1336153  38.6826822  28.6553665  62.3058961  38.5568171
  29.4988753  61.3285497  39.0192650  29.3764770  62.0397182  38.7137949
  30.5715921  65.9111368  39.5488879  30.0975875  65.3853130  40.0594190
  30.9434056  65.3640841  38.9803741  30.5565809  65.7527364  39.5404027
  20.9488951  67.9082875  44.9172425  21.8114564  67.8078584  44.8309755
  20.6180734  67.3277584  44.3557997  21.0274147  67.8074501  44.8217831
  36.8352651  70.9713743  40.9595660  36.5950874  70.1320159  40.9638086
  37.3144658  71.0513910  41.6836434  36.8704835  70.8595143  41.0670462
  32.4999420  66.8047922  32.6114633  31.9722439  66.8876666  31.9220342
  32.9595128  67.5465794  32.6079278  32.4901271  66.9268585  32.5089328
  38.8357838  67.7515201  38.9124919  38.5967608  67.7111035  38.0745704
  38.9991739  68.5986353  39.0390640  38.8248142  67.8707286  38.8078401
  35.4403868  72.1365150  44.8429964  36.1638067  71.6837676  44.6640984
  35.1753831  72.4169816  44.0602292  35.5085142  72.1116118  44.7008680
  24.3090737  66.7325324  41.5782843  23.6843807  66.7443715  40.9708796
  23.9736332  67.2085499  42.2274084  24.1676228  66.8043841  41.5839412
  24.4932485  65.0750442  27.6355528  24.1445290  65.7270167  28.0987078
  24.0128931  65.0607555  26.9079400  24.3702729  65.1693496  27.5966620
  21.0216412  74.7925784  43.0186608  20.4916337  74.1018223  43.0681582
  21.2941506  74.7835969  42.1899316  20.9841135  74.6892915  42.9034024
  32.0536503  75.3751486  31.7424290  32.7770702  75.8409599  31.5988864
  31.6137094  75.4425096  30.9921887  32.0952195  75.4535323  31.6109072
  31.2222658  72.2349028  42.9924979  30.6079651  71.6907079  43.2873615
  31.7389943  71.7213265  42.5130795  31.2078320  72.0785437  42.9649208
  30.4618955  73.3053298  40.7269278  30.0346563  72.6803017  40.2934713
  30.4543899  73.0228220  41.5528285  30.3978096  73.1706079  40.7849106
  23.5781482  68.3418471  43.7957712  23.7374969  67.5861795  44.2009434
  23.3974376  68.8909411  44.4498450  23.5746841  68.3112285  43.9520418
  31.5201785  60.5079707  44.3508501  31.0242346  60.7043381  43.6600068
  32.2770847  60.9072375  44.1797303  31.5588610  60.5957441  44.2228638
  28.7904665  64.1822053  40.9411812  28.8147152  63.6482165  40.2524592
  29.0416138  63.6739362  41.6037403  28.8314583  64.0282957  40.9376457
  16.3012254  71.4653548  40.3754956  16.1955704  71.4200392  39.5107040
  15.5512474  71.8107328  40.6569241  16.1747857  71.5094456  40.2892286
  25.0705987  62.9092871  40.3217556  25.1104358  63.4102078  41.0352264
  24.2455651  63.0003265  40.0523479  24.9545513  62.9974687  40.3868095
  27.2535600  72.4753611  48.4237851  26.4031230  72.6125325  48.5595496
  27.4163727  71.7417389  48.8685553  27.1519463  72.3867712  48.5093450
  26.4920350  69.4253381  42.6191455  25.6612280  69.5927199  42.4126703
  26.4371867  69.0489332  43.4040341  26.3609765  69.3943112  42.7039983
  24.3004133  62.9162274  48.2547866  24.9256837  62.3724407  48.5277298
  23.8454613  62.4357191  47.6855656  24.3252394  62.7651755  48.2109460
  24.8656394  67.7008972  33.1481573  25.0059355  68.1981437  33.8510214
  25.3638927  66.9995267  33.2895787  24.9597475  67.6710951  33.2733152
  24.8956616  68.5676083  30.4774150  25.5301696  69.1636508  30.4123612
  24.9782227  68.2679541  31.2920020  25.0013167  68.6116992  30.5877236
  37.8739182  71.0991561  43.3460514  38.4657022  71.7388811  43.3778712
  38.3098177  70.4014598  43.6352581  38.0257613  71.0909911  43.3941347
  26.4735599  64.4990059  30.4519592  26.7951440  64.0193141  29.7978854
  26.7362543  65.3089705  30.2610403  26.5601625  64.5479957  30.3275084
  29.7032572  75.5208933  43.9718408  29.1957663  76.0744780  44.4159038
  29.4059218  75.5817223  43.1537182  29.5837457  75.6115244  43.9166865
  31.8694754  63.8862253  42.8143071  32.2949826  63.4334779  42.2026597
  31.2551747  63.3322324  43.0907858  31.8423400  63.7376229  42.7648096
  21.4009604  70.7643924  33.7463696  21.9101834  71.3608432  34.1275001
  21.8743877  70.4969898  33.0640115  21.5452980  70.8129740  33.7018219
  34.8988324  68.3136779  35.6463656  34.2279513  68.8566482  35.5176722
  35.5928074  68.7831635  35.4045351  34.9017191  68.4635051  35.5919184
  35.0616451  64.7692663  38.5554030  35.4144061  64.3422386  39.2299828
  34.2031253  64.6843507  38.6855106  34.9865896  64.6937404  38.6749040
  23.7600136  67.4000183  36.6136876  23.0412125  67.8164315  36.8809740
  24.1312498  67.9654422  36.0628514  23.7092068  67.5449464  36.5719683
  33.0599717  68.0328032  42.5038872  33.0397644  67.8511327  43.3573651
  33.1078918  68.9040050  42.4798456  33.0634358  68.1344570  42.6262167
  31.0046047  74.6215224  48.4287349  30.9641902  73.9764901  47.8432504
  31.8169365  74.5651841  48.7412761  31.1189200  74.5174190  48.3884298
  29.5346710  66.4398183  31.9510256  28.9411550  66.7615179  31.3994823
  29.5721988  65.5939278  31.7431362  29.4521100  66.3622511  31.8393027
  36.4940511  59.8911075  39.4838342  35.9871376  59.1840214  39.4159520
  37.2907945  59.5604264  39.6139419  36.5367750  59.7384226  39.4937337
  32.4104527  66.3977687  35.3812006  32.1818220  66.4210389  34.5390364
  32.6702603  65.5735154  35.5007016  32.4150715  66.2793767  35.2737204
  26.6923755  68.2512160  44.9837106  26.1802659  67.6433343  45.3422138
  26.5203252  68.9668753  45.4511082  26.5913392  68.2675459  45.1053330
  21.5389470  66.6949735  47.6339468  21.3692060  67.3551110  47.0887675
  21.0955420  66.9056297  48.3551957  21.4488804  66.8235718  47.6601097
  25.4649289  64.9354233  36.6766202  25.9406656  65.2971313  36.0416383
  24.9637889  65.5910701  36.9566344  25.4614648  65.0848422  36.6242943
  38.6960651  74.4076002  32.4679207  39.0794257  75.1567358  32.6977304
  37.9004764  74.6541821  32.2091196  38.6354433  74.5545695  32.4636780
  30.5692826  66.1736405  47.4239362  31.1264256  65.9450214  46.7917827
  30.2453891  66.9342070  47.1474574  30.6039236  66.2520242  47.2895859
  18.4391535  69.5996601  42.8927958  17.8918254  68.9297247  43.0108826
  19.2283913  69.2326449  42.9571425  18.4743718  69.4461587  42.9196658
  28.2875943  69.2604058  48.3891369  29.0387270  69.5755735  48.7030923
  28.4798520  69.0583229  47.5625291  28.4267357  69.2771440  48.3134765
  27.5075943  67.0795433  30.0439586  27.8874907  67.0975062  29.2590700
  26.7668539  67.5249422  29.9230433  27.4544780  67.1477208  29.9103154
  35.1361233  65.3877624  35.6315164  35.1355460  65.2326281  36.4899441
  34.9317413  66.2340611  35.5756550  35.1061011  65.4898245  35.7503104
  17.1978504  68.8117409  40.0473981  17.0200265  68.3594018  40.7728896
  16.9097526  69.6143570  40.2312458  17.1291457  68.8639967  40.1817484
  28.3060697  73.9172939  31.4348376  27.4972019  73.5939613  31.3881685
  28.8135606  73.2106162  31.3676624  28.2610364  73.7654256  31.4178670
  18.9350974  71.3445133  37.1595740  18.0696493  71.3330823  37.0478511
  19.0349790  71.1575355  38.0066879  18.8225141  71.3151194  37.2684684
  34.9253904  72.8178814  41.9728500  35.3508976  72.2953236  41.4198925
  34.5610824  73.4159651  41.4517123  34.9340507  72.8289041  41.8137510
  31.5132504  76.5313078  38.3029657  31.9843682  77.2453341  38.4719643
  31.8492682  75.9311828  38.8389527  31.6327619  76.5484542  38.4062033
  33.6009488  78.1414391  50.4821729  33.7106454  77.3522952  50.8378477
  33.9300385  78.0520328  49.6796068  33.6661894  78.0120244  50.4164120
  28.4301999  61.3040549  45.2587752  28.5629904  60.5071542  45.5868728
  28.8147151  61.8306952  45.8386028  28.5058327  61.2640465  45.3931255
  32.1506450  76.3231012  45.0657350  31.6027396  75.6988896  44.7977415
  32.6119479  76.5125284  44.3501429  32.1373659  76.2590062  44.9207781
  31.5034354  58.2270875  41.8568845  30.6980317  58.1168604  42.1736684
  31.3741089  58.3283330  40.9998711  31.3654487  58.2254545  41.7776886
  34.9600314  64.3916367  42.4508542  34.3763303  64.8925573  42.0386110
  35.2804608  63.8845923  41.8172866  34.9213490  64.3908202  42.2967050
  27.4995113  63.3056961  32.7267217  28.3210808  63.4755274  32.4848912
  27.0364764  63.4604222  32.0033515  27.5526276  63.3538694  32.5838861
  26.0890445  61.2999724  43.5065646  26.6334858  60.9590850  44.0969988
  26.1427381  62.1585185  43.6486930  26.1779565  61.3754983  43.6147519
  31.7164776  77.3282085  41.5966691  32.5363150  77.1845051  41.8582986
  31.4358854  77.9528284  42.1383129  31.7961520  77.3992437  41.7154631
  38.1153898  78.9201653  38.2852881  37.7857228  79.3712797  37.6156580
  37.4398900  78.8417817  38.8325888  37.9664335  78.9752788  38.2676104
  45.3230306  74.9087176  36.5302492  45.0083747  75.5990655  36.9622914
  44.8057248  74.8531958  35.8287992  45.1994776  75.0022065  36.4899441
  36.3209852  76.9813942  33.7675829  37.0755820  77.3492259  33.5292879
  36.1437387  77.3553496  34.5355008  36.4064331  77.0912129  33.8460717
  49.6144751  83.1308382  41.8123368  48.7773172  83.2010569  42.0470963
  49.5832982  83.1332877  40.9397671  49.4863033  83.1418609  41.7182916
  40.3566636  76.3910671  33.5002966  41.0852797  76.2126626  33.0541122
  40.4461529  77.2328751  33.7110144  40.4773298  76.4894550  33.4656483
  47.2952591  78.1951164  40.3967091  47.9378499  78.2649268  40.9829006
  47.5475612  77.5280387  39.8946632  47.4274723  78.1077512  40.4094370
  42.5303873  79.2888135  38.1078044  41.8260200  78.7997321  38.2661963
  42.5788848  79.3010610  37.2366488  42.4333925  79.2177783  38.0017383
  49.7334093  82.9695801  36.1279054  49.4770658  82.1575742  35.9376937
  50.5763407  82.9773368  35.9009241  49.8200119  82.8507798  36.0663871
  43.9137186  76.9095425  40.8655208  44.2947697  76.2273596  41.2523082
  43.1100470  76.6205027  40.6830873  43.8513647  76.7662474  40.8959264
  37.8729026  79.4149623  50.7317817  37.5582467  80.1849186  50.4687379
  37.5518958  78.8519879  50.1470044  37.7787945  79.4459892  50.6059167
  35.4260923  77.8040145  36.3464013  34.5583348  77.8762744  36.4121622
  35.7136127  78.6062224  36.5351988  35.3400671  77.9334292  36.3838780
  44.5493812  77.9518004  44.6775335  45.2947404  77.7627815  44.2638760
  44.1331116  78.4776242  44.1189191  44.5978786  78.0020150  44.5339908
  44.1475454  81.4815151  40.6144979  43.3086555  81.5076430  40.3783242
  44.2179821  82.1285887  41.1950326  44.0343848  81.5811277  40.6654096
  42.5944732  78.3800528  35.3472595  43.2971085  78.1808276  34.8692553
  42.3288921  77.6076470  35.6541438  42.6591365  78.2363494  35.3218036
  37.3573289  79.6435813  44.4003475  37.1656486  79.6590948  45.2502899
  38.2071885  79.8399488  44.3770130  37.4549011  79.6750165  44.5226770
  40.2677516  79.8391323  44.6075299  40.7250130  80.5715297  44.7348091
  40.3433844  79.4157788  45.3662554  40.3468486  79.8848561  44.7376375
  44.7404842  73.0181198  38.4769142  44.8588410  73.4757661  37.7436444
  44.5667017  72.2126459  38.1905359  44.7324013  72.9674970  38.3270075
  41.7082405  74.8732000  39.4187803  40.8375963  74.8470721  39.3721113
  41.9622747  74.7009192  38.6013649  41.6175965  74.8442144  39.2907940
  38.7331546  76.8838229  40.8761274  38.2170034  76.1918420  41.0012853
  38.1725475  77.5509006  40.8223873  38.5738059  76.8801486  40.8867340
  40.8023779  77.4231189  42.7054126  40.4155532  77.4480220  43.4867656
  40.3156717  76.8572867  42.2528643  40.6736288  77.3426940  42.7542030
  40.4680921  74.3098174  44.9964386  41.0974039  74.8458474  44.7185457
  40.6366784  74.2175533  45.8477952  40.5858716  74.3759536  45.0812914
  40.2694836  79.0969369  47.2690798  41.0968265  78.8254518  47.3249412
  40.2902682  79.8930211  47.6254616  40.3947686  79.1749123  47.3305981
  43.9604840  76.8434063  37.9649688  44.1654433  76.7756371  38.8106685
  43.6331264  77.6492884  37.8970866  43.9420087  76.9520003  38.0809343
  47.2138527  77.3965827  37.4452454  46.6012841  77.8836229  37.8306185
  47.3102702  76.7209318  37.9890105  47.1376425  77.3684136  37.5831312
  41.2157608  79.1528668  32.5449953  41.6701355  79.3239228  33.2697797
  41.6897654  78.5396779  32.1447729  41.3525928  79.0879553  32.5923714
  40.4750204  77.6521461  38.6826822  39.6286249  77.8244269  38.5568171
  40.4721336  76.8470805  39.0192650  40.3497354  77.5582490  38.7137949
  41.5448504  81.4296676  39.5488879  41.0708458  80.9038438  40.0594190
  41.9166640  80.8826149  38.9803741  41.5298393  81.2712672  39.5404027
  49.8090422  83.2700509  38.9124919  49.5700192  83.2296343  38.0745704
  49.9724323  84.1171661  39.0390640  49.7980725  83.3892594  38.8078401
  42.4934369  76.0265015  44.3508501  41.9974930  76.2228689  43.6600068
  43.2503431  76.4257683  44.1797303  42.5321193  76.1142749  44.2228638
  39.7637248  79.7007361  40.9411812  39.7879735  79.1667473  40.2524592
  40.0148722  79.1924670  41.6037403  39.8047167  79.5468265  40.9376457
  36.0438570  78.4278179  40.3217556  36.0836942  78.9287386  41.0352264
  35.2188235  78.5188573  40.0523479  35.9278096  78.5159995  40.3868095
  35.2736717  78.4347582  48.2547866  35.8989420  77.8909714  48.5277298
  34.8187197  77.9542499  47.6855656  35.2984978  78.2837063  48.2109460
  42.8427338  79.4047561  42.8143071  43.2682409  78.9520087  42.2026597
  42.2284331  78.8507631  43.0907858  42.8155983  79.2561537  42.7648096
  41.2821561  75.8762661  36.2233648  40.6389879  75.7260307  36.7918786
  40.9420968  75.6305006  35.4582753  41.1366638  75.8174783  36.1936663
  46.0349035  80.2877971  38.5554030  46.3876645  79.8607694  39.2299828
  45.1763836  80.2028815  38.6855106  45.9598479  80.2122712  38.6749040
  47.4673095  75.4096383  39.4838342  46.9603959  74.7025522  39.4159520
  48.2640528  75.0789572  39.6139419  47.5100334  75.2569534  39.4937337
  43.3837111  81.9162995  35.3812006  43.1550804  81.9395697  34.5390364
  43.6435187  81.0920462  35.5007016  43.3883299  81.7979075  35.2737204
  46.1093817  80.9062932  35.6315164  46.1088043  80.7511589  36.4899441
  45.9049997  81.7525919  35.5756550  46.0793595  81.0083553  35.7503104
  39.4034582  76.8225857  45.2587752  39.5362488  76.0256850  45.5868728
  39.7879735  77.3492259  45.8386028  39.4790911  76.7825773  45.3931255
  42.4766937  73.7456183  41.8568845  41.6712901  73.6353912  42.1736684
  42.3473673  73.8468638  40.9998711  42.3387070  73.7439853  41.7776886
  45.9332898  79.9101675  42.4508542  45.3495887  80.4110881  42.0386110
  46.2537192  79.4031231  41.8172866  45.8946073  79.9093510  42.2967050
  38.4727697  78.8242269  32.7267217  39.2943391  78.9940582  32.4848912
  38.0097348  78.9789530  32.0033515  38.5258859  78.8724002  32.5838861
  37.0623029  76.8185032  43.5065646  37.6067442  76.4776158  44.0969988
  37.1159965  77.6770493  43.6486930  37.1512148  76.8940291  43.6147519
  14.9631500  15.3669144  21.4949614  14.9325504  16.2213781  21.6667884
  15.5612849  15.0664437  22.0535758  15.0468658  15.4485640  21.6024417
   8.1631185  14.4544795  26.2502545   7.3069080  14.6153293  26.3011662
   8.2098838  13.5836859  26.2707606   8.0430296  14.3495597  26.2608611
   2.5472324  23.9907513  22.0139776   1.7955224  23.6123051  21.7855821
   2.9958336  24.0225946  21.2658587   2.5021991  23.9393120  21.8697279
  11.4724901  20.7231321  35.8563001  12.1791668  20.2283351  35.9849935
  11.6612837  21.1640402  35.1265659  11.6052807  20.7149671  35.7672046
   7.9997284  24.4132882  17.4425323   7.6648653  25.0909804  17.0069546
   8.5124155  24.0238194  16.8542195   8.0262865  24.4557461  17.2912115
   7.5401575  26.3647151  23.3836435   7.9240955  26.9334050  22.8441210
   7.4760717  25.6396661  22.9042251   7.5875003  26.3422614  23.2330298
  11.0083006  16.5136839  28.8934196  11.5538966  17.1921925  28.9528166
  10.9499882  16.3724300  28.0335778  11.0798920  16.5928841  28.7746257
   4.1257080  24.0025905  24.2802549   4.2267443  23.1926259  24.5899677
   3.5298826  23.9082851  23.6502227   4.0529619  23.8690933  24.2328787
  12.7848074  17.9421446  19.7667924  12.6687600  18.6929132  20.1960062
  13.5803961  17.6845399  20.0164011  12.8852664  18.0156293  19.8672016
   3.9657820  28.9203494  25.6817405   4.6095276  29.3616658  26.0713563
   4.2914076  28.1156920  25.5947664   4.1089649  28.8668689  25.7262882
   4.6678400  21.9315469  21.0537267   4.9894241  22.4720676  20.4498575
   5.3150496  21.3612240  21.1859556   4.8104455  21.9274644  20.9844302
   6.7180108  13.9331464  21.1371653   7.4160273  14.1119591  21.6293117
   7.0332440  13.4101803  20.5142043   6.8675445  13.8825236  21.1173663
   6.9068043  20.3201909  21.1251445   7.3461679  19.7119009  21.5706218
   6.7572706  19.9409282  20.3536910   6.9489509  20.1740380  21.0770612
   4.3739686  18.9145921  28.3270270   5.0188689  18.4218364  28.0081219
   4.6141463  19.0570707  29.1536349   4.5050271  18.8623363  28.4019804
   6.9125778  21.7600827  27.9777163   7.1949020  20.9652232  27.7563919
   7.6411938  22.2381414  27.9982224   7.0615341  21.7135424  27.9480178
  10.5077380  18.6729090  18.0782214  10.4228675  19.5290057  18.2231783
  10.9961763  18.3973414  18.7464373  10.5666277  18.7586412  18.1984296
  11.4395813  15.2913884  19.5779949  10.9107284  15.5073518  20.2377255
  11.9620833  15.9850023  19.4980919  11.4384266  15.4257021  19.6635548
  16.8943866  20.8660189  24.9512994  16.0641569  21.0770833  25.1146410
  16.8453118  20.0397243  24.6755277  16.7650601  20.7749795  24.9350359
   4.9553604  23.6964043  27.7860903   4.4380545  23.3371458  27.1822211
   5.6527995  23.1726217  27.7966969   4.9819185  23.5661731  27.6991162
   8.6117195  24.1458857  33.7477076   8.7000541  23.9584998  34.5955287
   9.0406908  23.4996287  33.3481923   8.6879298  24.0221865  33.8148828
   6.1787655  23.4290017  32.7294738   5.6158490  23.0162627  33.2534400
   6.9408679  23.3542923  33.1487882   6.2082104  23.3567418  32.8687739
   1.7383647  25.4188038  25.3331369   2.4404226  24.9040027  25.3904125
   1.6581130  25.7462190  26.1378244   1.8307407  25.3902264  25.4604161
  16.3897824  13.5130590  28.7463415  15.5526245  13.5832777  28.9811009
  16.3586055  13.5155084  27.8737717  16.2616107  13.5240817  28.6522963
   2.7862553  15.6563625  34.4611784   2.9583057  15.5469520  35.3097065
   3.3231911  16.3018031  34.2242976   2.8907557  15.7355627  34.5516880
   1.0634422  21.6094390  24.8416977   1.9023322  21.8417323  24.8890738
   1.0946191  20.7398702  24.7724012   1.1916140  21.5151337  24.8381621
   1.6887125  22.0295265  29.1430282   2.2285350  21.8866396  29.8133654
   1.0057071  22.4292016  29.5114308   1.6679279  22.0674936  29.2964704
  11.1128010  17.7086266  24.3375306  11.8685525  18.1417780  24.3764215
  11.2190334  17.0591036  24.9109942  11.2398181  17.6763750  24.4273332
  14.1508181  21.5359543  25.0877709  13.7143413  21.5396286  25.8436681
  13.8171097  22.2165042  24.6557287  14.0370801  21.6371999  25.1358542
   8.7237255  23.5767876  36.4120860   9.5077671  23.6898724  36.7776602
   8.5233849  22.7509013  36.6079546   8.8103280  23.4714596  36.4955246
  14.0705664   8.5773371  27.3307137  14.7131572   8.6471476  27.9169053
  14.3228685   7.9102594  26.8286679  14.2027796   8.4899720  27.3434417
   8.8807648  25.4877978  30.0587315   8.0822894  25.2477478  30.3161184
   9.3293660  25.5392371  30.8054363   8.8282259  25.4600369  30.2072240
  17.2852527  18.2540463  23.9797347  17.9468961  17.6931132  23.8793255
  16.6443939  17.7592494  24.3050038  17.2881395  18.0976872  24.0129687
   8.1729335  21.5510595  16.2878270   8.5880484  21.2195618  15.5962766
   7.3421265  21.3179497  16.1598407   8.1117344  21.4681851  16.1669117
  13.5717358  19.2705846  23.7209335  13.8072947  19.4151044  22.8936186
  13.7206922  20.0348254  24.1140849  13.6283161  19.4044900  23.6572939
   0.5663436  15.7539338  33.0858557   1.2903408  15.7392369  33.5723451
   0.6679572  16.4634694  32.5880525   0.6881645  15.8564042  33.0837343
  15.4007815  18.1107512  21.5578939  15.7316032  18.6435152  20.9519034
  15.9740903  18.1646399  22.2140890  15.5341494  18.1977080  21.5656721
   7.9408385  19.2338423  37.9507504   7.1481366  19.5481935  38.1360123
   8.0557312  19.4489892  37.1128288   7.8403796  19.3122260  37.8545838
  10.6139704  15.9572414  22.2402519  10.7086558  16.6961708  22.6942145
   9.9898547  15.5289890  22.6737084  10.5348734  16.0033735  22.3710667
   8.8692178  19.1358627  32.8892800   9.4431039  18.4985871  33.0441364
   8.7906981  19.1362709  32.0202458   8.9425413  19.0423738  32.7839211
   4.2255896  17.5681892  24.9413998   3.9675141  16.7353627  24.9145297
   4.2804379  17.7939505  24.1006498   4.1955674  17.4779663  24.8134134
   9.3056947   9.6710343  25.0418090   8.6013273   9.1819528  25.2002009
   9.3541921   9.6832817  24.1706535   9.2086998   9.5999991  24.9357430
   3.1990609  15.1219654  25.4278892   2.6240200  15.2811823  26.0642853
   2.8226285  14.4855064  24.9647343   3.0593421  15.0517467  25.4533451
   6.8663897  13.5943004  30.2871271   6.4778330  13.1697221  29.6323462
   6.2018596  13.8425153  30.7948297   6.7110825  13.5681725  30.2659139
  16.5087166  13.3518008  23.0619101  16.2523731  12.5397950  22.8716984
  17.3516480  13.3595576  22.8349288  16.5953192  13.2330006  23.0003918
  10.6890259   7.2917632  27.7995255  11.0700770   6.6095804  28.1863129
   9.8853543   7.0027235  27.6170920  10.6266720   7.1484681  27.8299311
   7.9702835  17.8241608  18.4848078   8.7843474  18.1156501  18.3730849
   7.9061977  17.1701471  17.9106371   8.0805574  17.7706803  18.3836915
  14.1912326  20.5067604  32.8977653  13.9550963  19.6755669  32.7789714
  14.8355555  20.4553212  33.4832498  14.2506996  20.3765292  32.9663547
   3.8410744  21.2963126  23.6120390   4.4784691  21.0574873  24.1572183
   4.2665815  21.5000285  22.8773550   3.9986910  21.2914136  23.5837547
  15.2148746  20.2912053  28.9605948  14.9094563  21.0240110  29.3219264
  14.4954962  19.8849983  28.6798734  15.0636089  20.3393786  28.9719085
   6.2232216  21.7735548  25.2914176   6.2971224  21.6110720  26.1456026
   7.0401722  21.9625738  25.0474658   6.3548574  21.7772291  25.3812202
  20.9150538  16.9305054  28.2874292  20.8475039  16.9501013  27.4176879
  20.9006201  17.7735381  28.5129963  20.9029295  17.0578789  28.1926769
  11.3246885   8.3340212  31.6115382  12.0700477   8.1450022  31.1978807
  10.9084189   8.8598450  31.0529238  11.3731859   8.3842357  31.4679955
   4.7636801  24.7370291  20.0227650   5.0535100  24.3459273  19.2986876
   5.4940282  24.9186996  20.4632925   4.9143686  24.7064105  19.9810457
  18.7009156  15.7049440  26.5620887  19.2517077  15.0717509  26.8017979
  18.6853271  16.2364833  27.2536391  18.7794352  15.6898388  26.6999745
   5.3531547  19.5388037  31.1080780   4.8543240  20.2503805  31.1865668
   6.1631771  19.8588704  31.0698942   5.3987653  19.6914886  31.1137349
   2.7042717  26.7137674  23.0887799   2.4843012  26.4235029  23.8814466
   2.4837239  26.0552629  22.5605712   2.6390311  26.5737382  23.1276708
   1.6159664  18.8010990  25.3543501   1.3272913  18.1748462  25.8889228
   2.4843012  18.7431278  25.4208181   1.7019916  18.6998535  25.4434456
  12.4037562  13.9445774  25.6725483  12.0602328  13.2236109  26.0232732
  12.5030604  13.7359625  24.8303841  12.3679605  13.8069977  25.5997163
   4.8710673  28.0867064  21.8718492   5.5234731  27.5543506  22.1009518
   4.1736281  27.7335716  22.2586366   4.8641391  27.9556587  21.9630659
   1.8191938  20.4406241  21.2785866   2.5737906  20.8219280  21.4921329
   1.2262550  20.8917385  21.7332563   1.8428651  20.5635069  21.3768744
  12.8650591  20.4071478  21.2149471  13.4308624  21.0664688  21.1308014
  12.2178494  20.7521176  21.6865873  12.8529347  20.5553419  21.2722227
   4.2798605  12.3969082  36.4043078   3.4698380  12.7026861  36.2932921
   4.7573291  13.1174664  36.5195662   4.2302083  12.5483683  36.4050149
   3.1390164  21.6114803  26.6525981   2.6170918  21.7515094  27.3377846
   3.5264184  20.8525467  26.8428099   3.1193865  21.5200327  26.7827058
   9.3357169  23.3510262  20.6386550   9.0943845  22.6178123  20.2313615
   9.5158502  23.8997119  19.9852883   9.3264793  23.3232653  20.4816773
   4.5656490  18.6418822  22.0507472   4.3699272  19.2493556  21.4567775
   4.7890835  17.9486766  21.5699146   4.5691131  18.6296347  21.8923553
   2.9635020  15.5273560  22.1688341   3.6857672  15.6914718  21.7092147
   2.4843013  16.2483225  22.0627681   2.9998750  15.6571789  22.0853955
   9.3697806   8.7622736  22.2812642  10.0724158   8.5630484  21.8032600
   9.1041994   7.9898678  22.5881485   9.4344438   8.6185702  22.2558083
  14.7986051  17.0705345  24.8346267  14.7120026  17.2260771  25.6881046
  14.3436531  17.7143421  24.4605673  14.7189308  17.1881100  24.9053374
   4.1326362  10.0258021  31.3343522   3.9409559  10.0413155  32.1842946
   4.9824958  10.2221695  31.3110177   4.2302084  10.0572372  31.4566817
   8.6711867  14.3916092  23.4571827   8.4246582  14.3111843  24.2908616
   8.9996990  13.6069560  23.2634354   8.6833111  14.2642358  23.5519350
  12.5659916  21.0999452  27.2458608  12.4274275  21.7980498  27.7507351
  11.7859914  20.9448108  26.8894790  12.4303143  21.1799618  27.2684882
  10.9038001  17.3995827  33.4980990  10.8986040  16.5275644  33.5023416
  11.6098995  17.5983996  33.0250446  11.0083005  17.2999701  33.4288025
   4.6308895  17.1272811  32.8694810   4.7752270  17.7074019  32.2337920
   4.9784543  17.5049108  33.5744665   4.7036356  17.2693515  32.8793805
   6.8028812  16.3262979  30.6519942   6.0552126  16.5193994  30.2468220
   6.9570337  15.5008199  30.4144063   6.7151239  16.2328091  30.5565348
   3.7036649  25.3175583  29.7355837   3.8526213  24.7578499  29.0829241
   4.4836652  25.3967584  30.1188356   3.8410743  25.2461148  29.6952786
  14.0613289  20.4577705  18.0075107  13.6820098  19.6714843  18.0004397
  13.3979534  21.0064563  17.8646752  13.9071764  20.4222529  17.9855904
   6.2289950  25.4890226  31.0140328   6.1533621  24.8199036  31.5691116
   6.1579809  26.1908014  31.5280994   6.2070557  25.4935133  31.1717176
   7.0430589  10.2213530  31.5415345   7.5003203  10.9537504  31.6688138
   7.1186918   9.7979995  32.3002601   7.1221559  10.2670768  31.6716422
   6.8860197  24.0091225  21.8463934   7.6510088  23.7400868  21.5246598
   6.7838287  23.5241235  22.5633996   6.9841693  23.8980789  21.9043761
   4.9212967  12.2115634  28.3857169   4.1309042  12.0307094  28.7074505
   5.3173590  11.4342587  28.3687464   4.8629843  12.0703095  28.4309718
  10.3056653  19.8458064  26.1116615   9.6301655  19.6143296  26.6130002
  10.3149029  19.2379247  25.4858720  10.2075158  19.7216989  26.0932768
   7.4350797  14.6875893  32.8680668   7.3709938  15.5485850  32.7400805
   7.5747985  14.3707886  32.0676220   7.4466267  14.7676060  32.7308881
  12.3073388  22.7023197  18.3426793  12.3893225  23.5090183  18.0188244
  12.7923130  22.7219156  19.0667567  12.3910546  22.8243859  18.4013692
   6.1169891  17.3808032  27.0096871   5.6932140  17.5812531  26.2735890
   5.9414746  16.5336880  27.1221171   6.0280772  17.2856814  26.9170561
   5.6181584  28.8958545  29.4718329   6.1077515  28.1969335  29.2893993
   5.0465817  28.5982415  30.0594386   5.6066114  28.7484769  29.5319369
   1.4052336  17.8760084  22.4424844   1.5616955  17.8106887  23.2980836
   1.7452929  18.6508636  22.2303523   1.4785571  17.9809282  22.5379438
   7.9431481  17.2517967  21.3118207   8.4847026  16.7488349  21.7756828
   8.2578040  17.1983162  20.5007692   8.0695878  17.1697388  21.2602019
  11.8148588  21.4620615  38.4245119  12.6283453  21.1905764  38.5850252
  11.6543554  21.1628155  37.6205315  11.9118536  21.3775541  38.3290525
   6.1117930  22.6435319  18.5958235   6.1810751  21.7849857  18.7351235
   6.8906385  22.8607200  18.2677260   6.2370780  22.5488183  18.5675392
   9.0920750  12.1454272  31.3640507   9.3062720  11.5065186  30.8103861
   8.4754649  12.5900096  30.9348369   9.0326079  12.1164416  31.2190939
  10.5025418  25.0673020  22.8094728  10.1105210  24.7639735  22.0917594
  10.6578490  25.9042110  22.6199682  10.4679008  25.1456857  22.6751225
  11.2559838  13.7543337  32.3023815  10.4436520  13.4469228  32.3836987
  11.7149773  13.2742337  32.8666527  11.2040223  13.6379830  32.3978409
  10.6665093  21.6323009  22.7500759  10.3079747  21.8037652  23.5264791
  10.1803803  22.0936215  22.1928757  10.5423790  21.7261980  22.7826028
   8.3513345  15.1603409  37.0852517   8.8212977  15.7845525  37.4720391
   8.3975226  14.4920384  37.6445732   8.4281221  15.1538089  37.2252588
  11.8269832  22.5226905  33.6967960  12.4649552  22.0287101  33.3630416
  11.1843924  22.4504306  33.1120187  11.8264058  22.4385914  33.5610315
  13.5526832  14.3716051  28.2633875  13.1254440  14.2842400  27.5081975
  12.9152885  14.4793827  28.8488719  13.3956439  14.3748711  28.2379317
   7.0447909   9.4791576  34.2030845   7.8721338   9.2076725  34.2589459
   7.0655755  10.2752418  34.5594663   7.1700759   9.5571331  34.2646028
  11.8824089  23.2146713  30.3373317  12.6716467  22.8635778  30.4575398
  12.0567686  24.0283102  30.0749950  12.0244370  23.2832570  30.3161184
   1.6217399  16.6255439  27.3901105   0.7805406  16.5259313  27.5979999
   1.8307407  17.3950919  27.7415426   1.5282092  16.7247482  27.4728420
  10.7357913   7.2256270  24.8989735  10.9407506   7.1578578  25.7446732
  10.4084337   8.0315091  24.8310912  10.7173161   7.3342211  25.0149390
   5.4334064  14.5536838  26.6398703   5.1297201  13.9992827  27.2409111
   4.7313485  14.7329048  26.1526737   5.2850274  14.4981621  26.6568409
   3.4952415  21.7686559  31.3470801   3.3872770  21.7788621  32.2132859
   3.7048196  22.5941339  31.1575754   3.5102526  21.8927634  31.4474892
  13.9891600   7.7788034  24.3792500  13.3765914   8.2658436  24.7646232
  14.0855775   7.1031525  24.9230152  13.9129498   7.7506343  24.5171359
   1.5126207  19.0199201  28.8092738   0.9214140  19.6608700  28.7795753
   2.2747230  19.4436819  28.7824038   1.5374467  19.1775040  28.8007885
   3.5570179  10.8467894  34.0432783   3.1655745  10.2001241  34.4788561
   3.7256042  11.4379329  34.6627038   3.5241090  10.8382162  34.1995489
  17.6316628  18.8504971  29.8070016  17.6899752  19.2991620  30.5529993
  16.9983096  19.2603784  29.3700096  17.5467924  18.9778706  29.8522565
  11.2715723  24.4708513  26.2424763  11.0735412  24.9599327  25.5480974
  10.6503434  24.6749754  26.8208896  11.1503288  24.5725051  26.2247986
   5.3323701  16.2393410  20.5835007   6.0765746  16.6267686  20.8217957
   5.4784398  15.3950835  20.7475495   5.4634287  16.1723883  20.6428977
   8.3201577  11.8118883  26.4828926   7.8461532  11.2860645  26.9934237
   8.6919713  11.2648356  25.9143788   8.3051466  11.6534880  26.4744073
  14.5838308  16.8721259  27.8935707  14.3436531  16.0327674  27.8978133
  15.0630315  16.9521425  28.6176480  14.6190492  16.7602658  28.0010509
  16.5843495  13.6522716  25.8464966  16.3453265  13.6118550  25.0085751
  16.7477396  14.4993868  25.9730687  16.5733798  13.7714801  25.7418448
  13.1889525  18.0372665  31.7770011  13.9123724  17.5845192  31.5981031
  12.9239487  18.3177331  30.9942339  13.2570798  18.0123634  31.6348726
   2.0576393  12.6332839  28.5122890   1.4329464  12.6451231  27.9048843
   1.7221988  13.1093014  29.1614130   1.9161885  12.7051356  28.5179459
   9.8022159  21.2759001  18.6764337  10.5256358  21.7417114  18.5328910
   9.3622750  21.3432611  17.9261934   9.8437852  21.3542838  18.5449119
   8.9708315  18.1356544  29.9265026   8.3565308  17.5914594  30.2213661
   9.4875599  17.6220780  29.4470842   8.9563977  17.9792953  29.8989255
   8.2104612  19.2060814  27.6609325   7.7832220  18.5810532  27.2274760
   8.2029556  18.9235735  28.4868332   8.1463753  19.0713594  27.7189152
   1.3267139  14.2425987  30.7297759   1.4860626  13.4869311  31.1349481
   1.1460032  14.7916926  31.3838496   1.3232498  14.2119800  30.8860465
   9.2687442   6.4087222  31.2848548   8.7728003   6.6050896  30.5940115
  10.0256504   6.8079890  31.1137350   9.3074266   6.4964956  31.1568685
   5.0021257  18.3761126  35.3577898   4.1516887  18.5132841  35.4935543
   5.1649384  17.6424905  35.8025599   4.9005120  18.2875228  35.4433497
   4.2406007  15.3260896  29.5531502   3.4097937  15.4934714  29.3466750
   4.1857524  14.9496847  30.3380387   4.1095422  15.2950627  29.6380030
  15.6224839  16.9999076  30.2800561  16.2142679  17.6396327  30.3118759
  16.0583834  16.3022113  30.5692628  15.7743270  16.9917426  30.3281393
   7.4518229  21.4216448  30.9058455   6.9443320  21.9752295  31.3499085
   7.1544875  21.4824738  30.0877229   7.3323114  21.5122760  30.8506911
   9.6180411   9.7869768  29.7483118  10.0435483   9.3342295  29.1366644
   9.0037404   9.2329839  30.0247905   9.5909056   9.6383744  29.6988143
  10.0626009  25.3379706  18.8362398   9.3455319  25.1640568  18.3709636
  10.7132747  25.1032278  18.3037884  10.0527860  25.2775499  18.6891616
  12.6473980  14.2144295  22.5803703  11.9765170  14.7573997  22.4516769
  13.3413731  14.6839150  22.3385398  12.6502848  14.3642566  22.5259231
   6.6960714  26.3541007  27.8115462   6.4726369  25.5959836  28.1799488
   6.2070557  26.3839028  27.0895901   6.5904163  26.2463231  27.7592203
  12.8102108  10.6700178  25.4894077  13.1629718  10.2429901  26.1639875
  11.9516909  10.5851022  25.6195153  12.7351552  10.5944919  25.6089087
   1.5085793  13.3007698  23.5476923   0.7897782  13.7171831  23.8149787
   1.8798155  13.8661937  22.9968561   1.4577725  13.4456979  23.5059730
  10.8085374  13.9335547  29.4378919  10.7883301  13.7518842  30.2913698
  10.8564574  14.8047565  29.4138502  10.8120015  14.0352085  29.5602214
   8.7531704  20.5222739  35.3627395   8.7127558  19.8772416  34.7772551
   9.5655022  20.4659356  35.6752807   8.8674857  20.4181706  35.3224344
   5.3439171  26.5741465  25.2652546   4.9299570  25.9115595  24.8756388
   6.0286545  26.7219324  24.7448240   5.3837543  26.4982123  25.1309043
   8.7104465  25.7331550  26.0176163   8.3120748  25.8433820  25.2496983
   8.0955685  25.9413616  26.6002723   8.5603354  25.7805118  25.9907462
  14.2426168   5.7918590  26.4178389  13.7357033   5.0847730  26.3499567
  15.0393602   5.4611779  26.5479466  14.2853407   5.6391742  26.4277384
  10.1590184  12.2985202  22.3152053   9.9303877  12.3217904  21.4730411
  10.4188260  11.4742669  22.4347063  10.1636372  12.1801282  22.2077250
   4.4409412  14.1519675  31.9177153   3.9288315  13.5440858  32.2762184
   4.2688908  14.8676268  32.3851129   4.3399049  14.1682975  32.0393377
   3.2134946  10.8361749  23.6106248   3.6892313  11.1978829  22.9756430
   2.7123546  11.4918216  23.8906391   3.2100305  10.9855938  23.5582989
  16.4446308  20.3083517  19.4019253  16.8279914  21.0574873  19.6317350
  15.6490421  20.5549336  19.1431243  16.3840090  20.4553211  19.3976827
   8.3178483  12.0743920  34.3579409   8.8749913  11.8457730  33.7257874
   7.9939548  12.8349586  34.0814621   8.3524893  12.1527757  34.2235906
   6.0361600  15.1611573  35.3231416   6.7872927  15.4763250  35.6370970
   6.2284176  14.9590744  34.4965337   6.1753014  15.1778955  35.2474811
  12.8846890  11.2885140  22.5655211  12.8841116  11.1333796  23.4239487
  12.6803070  12.1348127  22.5096597  12.8546668  11.3905760  22.6843150
  10.6087742  15.9682642  26.2191418  11.1041407  15.2505637  26.1795438
   9.7987518  15.6653439  26.1045905  10.5631635  15.8180288  26.1965144
   6.0546354  19.8180455  18.3688422   5.2457676  19.4947128  18.3221732
   6.5621262  19.1113677  18.3016671   6.0096020  19.6661771  18.3518717
  12.6739561  18.7186329  28.9068547  13.0994632  18.1960751  28.3538972
  12.3096481  19.3167166  28.3857170  12.6826163  18.7296556  28.7477556
   2.3093641  27.0150547  27.6665892   2.6240200  27.8286935  27.6743674
   2.7187054  26.6300765  28.3348051   2.4161739  27.0779249  27.7669984
   9.2618160  22.4320593  25.2369704   9.7329339  23.1460856  25.4059689
   9.5978339  21.8319343  25.7729574   9.3813275  22.4492058  25.3402080
  11.3495145  24.0421907  37.4161776  11.4592110  23.2530467  37.7718523
  11.6786042  23.9527843  36.6136114  11.4147551  23.9127760  37.3504167
   9.8992107  22.2238527  31.9997397   9.3513053  21.5996411  31.7317462
  10.3605135  22.4132799  31.2841476   9.8859316  22.1597578  31.8547828
  12.7085971  10.2923882  29.3848589  12.1248960  10.7933088  28.9726156
  13.0290265   9.7853438  28.7512912  12.6699146  10.2915717  29.2307096
   9.4650433  23.2289600  28.5306738  10.2848807  23.0852566  28.7923033
   9.1844511  23.8535799  29.0723176   9.5447176  23.2999952  28.6494677
  19.1363768  29.9730103  26.2502545  18.2801664  30.1338601  26.3011662
  19.1831422  29.1022167  26.2707606  19.0162880  29.8680905  26.2608611
  13.5204908  39.5092821  22.0139776  12.7687807  39.1308359  21.7855821
  13.9690920  39.5411254  21.2658587  13.4754575  39.4578428  21.8697279
  18.9729868  39.9318190  17.4425323  18.6381236  40.6095112  17.0069546
  19.4856738  39.5423502  16.8542195  18.9995449  39.9742768  17.2912115
  18.5134159  41.8832459  23.3836435  18.8973538  42.4519358  22.8441210
  18.4493300  41.1581969  22.9042251  18.5607586  41.8607922  23.2330298
  15.0989664  39.5211213  24.2802549  15.2000027  38.7111567  24.5899677
  14.5031409  39.4268159  23.6502227  15.0262203  39.3876241  24.2328787
  23.7580658  33.4606754  19.7667924  23.6420184  34.2114440  20.1960062
  24.5536545  33.2030707  20.0164011  23.8585247  33.5341601  19.8672016
  14.9390404  44.4388802  25.6817405  15.5827859  44.8801966  26.0713563
  15.2646659  43.6342228  25.5947664  15.0822232  44.3853997  25.7262882
   8.2954708  35.5431499  23.9054883   8.0604893  34.7099152  23.7987151
   8.4340349  35.8236165  23.0916083   8.2810371  35.4615003  23.7697238
  10.5944796  27.7117230  26.8039190   9.9749827  27.1209877  26.6349205
  10.4928659  28.3028665  26.1703513  10.4882471  27.7121313  26.6844180
  15.6410983  37.4500777  21.0537267  15.9626824  37.9905984  20.4498575
  16.2883080  36.8797548  21.1859556  15.7837039  37.4459952  20.9844302
  17.6912691  29.4516772  21.1371653  18.3892856  29.6304899  21.6293117
  18.0065024  28.9287111  20.5142043  17.8408029  29.4010544  21.1173663
  10.3213929  31.2569512  29.0482759  10.1972626  31.8431957  29.6832578
  10.9732213  30.7629707  29.3495034  10.3987578  31.2708316  29.1868689
  17.8800627  35.8387217  21.1251445  18.3194262  35.2304317  21.5706218
  17.7305290  35.4594590  20.3536910  17.9222093  35.6925688  21.0770612
  15.3472270  34.4331229  28.3270270  15.9921272  33.9403672  28.0081219
  15.5874047  34.5756015  29.1536349  15.4782855  34.3808671  28.4019804
  17.8858361  37.2786135  27.9777163  18.1681604  36.4837540  27.7563919
  18.6144522  37.7566722  27.9982224  18.0347925  37.2320731  27.9480178
  15.8639555  24.8209169  25.2192928  15.5342885  25.2720312  24.5496627
  15.1884557  24.7425332  25.7665934  15.7149991  24.8760304  25.2016151
  21.4809963  34.1914398  18.0782214  21.3961258  35.0475365  18.2231783
  21.9694347  33.9158722  18.7464373  21.5398861  34.2771720  18.1984296
  23.0715963  20.8094691  23.4642539  22.7569404  21.4998170  23.8962961
  22.5542904  20.7539474  22.7628039  22.9480433  20.9029580  23.4239488
  22.4128397  30.8099192  19.5779949  21.8839868  31.0258826  20.2377255
  22.9353417  31.5035331  19.4980919  22.4116850  30.9442329  19.6635548
  14.3028004  34.7062409  18.3787417  13.7185220  35.2112441  18.7853281
  13.8998100  34.4804796  17.6384009  14.1567308  34.7470657  18.3292442
   9.8572033  40.4217170  25.1811089   9.3739611  41.1467660  25.1570672
  10.6695351  40.7193300  25.2921246   9.9062781  40.5719524  25.1938368
  15.9286187  39.2149351  27.7860903  15.4113129  38.8556766  27.1822211
  16.6260578  38.6911525  27.7966969  15.9551768  39.0847039  27.6991162
  18.7605219  30.9528061  16.8556338  19.0001223  31.1606045  16.0431681
  19.0821060  30.1485570  16.9645282  18.8442377  30.8642162  16.7516891
  14.0695509  22.8821457  20.7015876  14.8241477  23.2499774  20.4632926
  13.8923044  23.2561011  21.4695055  14.1549987  22.9919645  20.7800764
  12.7116230  40.9373346  25.3331369  13.4136810  40.4225335  25.3904125
  12.6313713  41.2647498  26.1378244  12.8039991  40.9087572  25.4604161
  13.7595137  31.1748933  34.4611784  13.9315641  31.0654828  35.3097065
  14.2964494  31.8203339  34.2242976  13.8640141  31.2540935  34.5516880
  12.4252574  25.2891776  17.3993989  12.2428147  25.5063657  16.5734981
  13.2878187  25.4030789  17.4552603  12.5257163  25.3381674  17.2848476
  12.0367006  37.1279698  24.8416977  12.8755905  37.3602631  24.8890738
  12.0678775  36.2584010  24.7724012  12.1648723  37.0336645  24.8381621
  12.6619709  37.5480573  29.1430282  13.2017934  37.4051704  29.8133654
  11.9789655  37.9477324  29.5114308  12.6411863  37.5860244  29.2964704
  18.1052293  22.2918187  20.4343012  18.8338453  22.1134142  19.9881169
  18.1947186  23.1336266  20.6450191  18.2258955  22.3902065  20.3996530
   8.0656854  33.7680864  29.2964704   7.7995269  32.9519981  29.4555694
   8.0795418  33.8134020  28.4260219   8.0281576  33.6537769  29.1918186
  11.9714601  28.5665949  15.9116462  11.2572778  28.2804128  16.3238894
  12.4558569  28.9062574  16.5522849  11.9373964  28.5747598  16.0672097
  12.8155460  27.3059242  31.9431711  12.1227257  26.8356222  32.1892443
  13.4315787  27.0797547  32.5173418  12.8039990  27.2026374  32.0640864
  19.1461919  37.0695903  16.2878270  19.5613067  36.7380926  15.5962766
  18.3153848  36.8364805  16.1598407  19.0849927  36.9867158  16.1669117
   8.4750267  34.5539644  26.5776448   8.2925841  34.5286530  25.7248740
   9.2099936  35.0238581  26.6165357   8.5564331  34.6201006  26.4574366
  24.5449942  34.7891154  23.7209335  24.7805531  34.9336352  22.8936186
  24.6939505  35.5533562  24.1140849  24.6015745  34.9230208  23.6572939
  11.5396019  31.2724646  33.0858557  12.2635991  31.2577677  33.5723451
  11.6412156  31.9820002  32.5880525  11.6614228  31.3749350  33.0837343
  26.3740398  33.6292819  21.5578939  26.7048615  34.1620460  20.9519034
  26.9473486  33.6831707  22.2140890  26.5074077  33.7162388  21.5656721
  18.9140969  34.7523731  37.9507504  18.1213949  35.0667243  38.1360123
  19.0289896  34.9675199  37.1128288  18.8136379  34.8307568  37.8545838
  21.5872287  31.4757722  22.2402519  21.6819142  32.2147016  22.6942145
  20.9631131  31.0475198  22.6737084  21.5081318  31.5219043  22.3710667
   8.4421178  31.4333144  26.7275514   9.0194680  31.2969595  27.3667760
   7.7435240  30.9768928  26.9821099   8.4242199  31.3455410  26.8597804
  21.8395309  33.3206462  15.4739471  21.7575471  33.3908649  16.3394458
  22.4775029  33.8836206  15.2823212  21.9215146  33.4145433  15.5729421
  15.1988480  33.0867200  24.9413998  14.9407724  32.2538935  24.9145297
  15.2536963  33.3124813  24.1006498  15.1688258  32.9964971  24.8134134
  20.2789530  25.1895651  25.0418090  19.5745857  24.7004836  25.2002009
  20.3274504  25.2018125  24.1706535  20.1819582  25.1185299  24.9357430
  14.1723192  30.6404962  25.4278892  13.5972783  30.7997131  26.0642853
  13.7958868  30.0040371  24.9647343  14.0326004  30.5702775  25.4533451
  17.8396481  29.1128312  30.2871271  17.4510914  28.6882529  29.6323462
  17.1751179  29.3610461  30.7948297  17.6843409  29.0867033  30.2659139
   3.9180011  30.2845037  23.4423333   4.0040263  29.9076905  24.2236863
   4.5455808  29.9105483  22.9643291   4.0236562  30.1730519  23.4868810
  18.9435419  33.3426916  18.4848078  19.7576058  33.6341809  18.3730849
  18.8794560  32.6886779  17.9106371  19.0538158  33.2892111  18.3836915
  14.8143327  36.8148434  23.6120390  15.4517274  36.5760181  24.1572183
  15.2398399  37.0185593  22.8773550  14.9719494  36.8099444  23.5837547
   9.5055970  39.0536770  27.4954694   9.5460115  39.3251621  26.6674473
  10.0650494  39.5778678  27.9112482   9.5939316  39.1712525  27.4346582
  15.4546142  32.0350723  17.9495279  15.8391295  31.8158430  18.7011824
  15.2057763  32.8613669  18.0796356  15.4748215  32.1248870  18.0796356
  15.6214683  25.3157139  37.6657864  15.3068124  26.0856701  37.4027426
  15.3004615  24.7527395  37.0810090  15.5273602  25.3467407  37.5399213
  17.1964799  37.2920856  25.2914176  17.2703807  37.1296028  26.1456026
  18.0134306  37.4811046  25.0474658  17.3281158  37.2957599  25.3812202
  10.9570556  37.6378719  22.3208620  10.1308674  37.8840456  22.1942898
  11.0182547  37.5590800  23.1870678  10.8444723  37.6623668  22.4297564
  13.1746580  23.7047660  23.2804060  12.3069005  23.7770260  23.3461669
  13.4621784  24.5069739  23.4692035  13.0886328  23.8341807  23.3178826
  15.7369385  40.2555599  20.0227650  16.0267683  39.8644581  19.2986876
  16.4672866  40.4372304  20.4632925  15.8876269  40.2249413  19.9810457
  16.3264130  35.0573345  31.1080780  15.8275824  35.7689113  31.1865668
  17.1364354  35.3774012  31.0698942  16.3720237  35.2100194  31.1137349
  13.6775301  42.2322982  23.0887799  13.4575596  41.9420336  23.8814466
  13.4569823  41.5737937  22.5605712  13.6122895  42.0922690  23.1276708
  12.5892248  34.3196298  25.3543501  12.3005496  33.6933770  25.8889228
  13.4575596  34.2616586  25.4208181  12.6752500  34.2183843  25.4434456
  15.8443256  43.6052372  21.8718492  16.4967314  43.0728814  22.1009518
  15.1468865  43.2521024  22.2586366  15.8373974  43.4741895  21.9630659
  12.7924521  35.9591549  21.2785866  13.5470489  36.3404588  21.4921329
  12.1995134  36.4102693  21.7332563  12.8161235  36.0820377  21.3768744
  23.8383175  35.9256786  21.2149471  24.4041207  36.5849996  21.1308014
  23.1911078  36.2706484  21.6865873  23.8261931  36.0738727  21.2722227
  15.2531188  27.9154390  36.4043078  14.4430964  28.2212169  36.2932921
  15.7305875  28.6359972  36.5195662  15.2034667  28.0668991  36.4050149
  14.1122748  37.1300111  26.6525981  13.5903501  37.2700402  27.3377846
  14.4996768  36.3710775  26.8428099  14.0926449  37.0385635  26.7827058
  11.1013932  27.1805919  20.7220936  10.8138727  26.8107190  19.9852883
  11.7884400  27.6500775  20.4604641  11.1602829  27.1952889  20.5736012
  20.3089753  38.8695570  20.6386550  20.0676429  38.1363431  20.2313615
  20.4891086  39.4182427  19.9852883  20.2997377  38.8417961  20.4816773
  15.5389073  34.1604130  22.0507472  15.3431856  34.7678864  21.4567775
  15.7623419  33.4672074  21.5699146  15.5423714  34.1481655  21.8923553
  13.9367603  31.0458868  22.1688341  14.6590255  31.2100026  21.7092147
  13.4575596  31.7668532  22.0627681  13.9731334  31.1757097  22.0853955
  11.5875220  33.4516940  31.2742481  12.0996317  33.7301193  30.6251240
  11.3011563  34.1906234  31.6405294  11.6210083  33.6019294  31.2332359
  20.3430389  24.2808043  22.2812642  21.0456742  24.0815792  21.8032600
  20.0774578  23.5083986  22.5881485  20.4077021  24.1371009  22.2558083
   8.6742126  27.9587132  21.5706217   8.7758263  28.7613293  21.8987193
   9.4698013  27.7574468  21.2729298   8.8070032  28.0473031  21.5741573
  15.1058945  25.5443329  31.3343522  14.9142142  25.5598463  32.1842946
  15.9557541  25.7407003  31.3110177  15.2034667  25.5757680  31.4566817
   9.4905858  28.0734310  29.3127339   9.3491350  27.2218251  29.4371847
   9.7746422  28.1162971  28.4889545   9.5113705  27.9534060  29.2094963
  19.6444451  29.9101400  23.4571827  19.3979165  29.8297151  24.2908616
  19.9729574  29.1254868  23.2634354  19.6565694  29.7827666  23.5519350
  15.6041478  32.6458119  32.8694810  15.7484854  33.2259327  32.2337920
  15.9517127  33.0234416  33.5744665  15.6768939  32.7878823  32.8793805
  14.6769233  40.8360891  29.7355837  14.8258797  40.2763807  29.0829241
  15.4569235  40.9152892  30.1188356  14.8143327  40.7646456  29.6952786
  25.0345872  35.9763013  18.0075107  24.6552681  35.1900151  18.0004397
  24.3712118  36.5249870  17.8646752  24.8804347  35.9407837  17.9855904
  18.0163172  25.7398838  31.5415345  18.4735787  26.4722812  31.6688138
  18.0919501  25.3165303  32.3002601  18.0954142  25.7856076  31.6716422
  10.2596164  25.9864658  32.6304789   9.7238353  25.3745016  32.9465556
  10.3213928  26.5612794  33.2838456  10.1891796  25.9811585  32.7740216
  22.4890498  18.9188713  25.4109188  22.6074067  19.3765176  24.6776491
  22.3152674  18.1133974  25.1245406  22.4809669  18.8682485  25.2610122
  17.8592781  39.5276532  21.8463934  18.6242672  39.2586176  21.5246598
  17.7570871  39.0426543  22.5633996  17.9574276  39.4166097  21.9043761
  15.8945550  27.7300942  28.3857169  15.1041625  27.5492402  28.7074505
  16.2906173  26.9527894  28.3687464  15.8362427  27.5888403  28.4309718
  20.3811441  36.5588716  13.8263883  21.1484426  36.6188841  13.4169735
  19.9342750  35.9869158  13.3420202  20.4284868  36.4825292  13.6941593
  21.2789237  35.3643372  26.1116615  20.6034238  35.1328604  26.6130002
  21.2881613  34.7564555  25.4858720  21.1807741  35.2402297  26.0932768
  18.4083381  30.2061201  32.8680668  18.3442522  31.0671157  32.7400805
  18.5480568  29.8893194  32.0676220  18.4198851  30.2861368  32.7308881
  23.2805971  38.2208504  18.3426793  23.3625809  39.0275491  18.0188244
  23.7655713  38.2404464  19.0667567  23.3643129  38.3429167  18.4013692
  17.0902475  32.8993340  27.0096871  16.6664724  33.0997839  26.2735890
  16.9147330  32.0522188  27.1221171  17.0013355  32.8042122  26.9170561
  16.5914168  44.4143853  29.4718329  17.0810098  43.7154643  29.2893993
  16.0198400  44.1167723  30.0594386  16.5798698  44.2670077  29.5319369
  12.3784920  33.3945392  22.4424844  12.5349539  33.3292195  23.2980836
  12.7185513  34.1693944  22.2303523  12.4518154  33.4994590  22.5379438
  18.9164064  32.7703275  21.3118207  19.4579610  32.2673656  21.7756828
  19.2310623  32.7168470  20.5007692  19.0428461  32.6882696  21.2602019
  17.0850514  38.1620627  18.5958235  17.1543334  37.3035165  18.7351235
  17.8638969  38.3792508  18.2677260  17.2103364  38.0673491  18.5675392
  21.4758001  40.5858328  22.8094728  21.0837793  40.2825043  22.0917594
  21.6311074  41.4227418  22.6199682  21.4411591  40.6642165  22.6751225
   8.9519181  30.5780342  22.7585611   9.3318146  30.9964887  22.0945878
   8.3774546  31.1593798  23.0654454   8.9230506  30.7258201  22.7062352
  21.6397676  37.1508317  22.7500759  21.2812331  37.3222960  23.5264791
  21.1536387  37.6121523  22.1928757  21.5156373  37.2447288  22.7826028
  19.4568062  20.7739516  26.3527850  18.5861620  20.7478237  26.3061160
  19.7108403  20.6016708  25.5353696  19.3661622  20.7449659  26.2247987
  16.4286042  32.8307482  15.2900993  16.7178566  33.6072365  15.5644568
  16.5157840  32.3196214  15.9915493  16.4840298  32.8699401  15.4343491
  16.4817203  22.7845744  27.8101321  15.9655691  22.0925935  27.9352900
  15.9211132  23.4516521  27.7563919  16.3223716  22.7809002  27.8207387
  18.5509436  23.3238704  29.6394173  18.1641189  23.3487736  30.4207703
  18.0642373  22.7580383  29.1868690  18.4221945  23.2434455  29.6882077
  18.2166578  20.2105690  31.9304433  18.8459696  20.7465990  31.6525503
  18.3852441  20.1183048  32.7817999  18.3344372  20.2767052  32.0152961
  18.0180493  24.9976884  34.2030845  18.8453922  24.7262033  34.2589459
  18.0388339  25.7937726  34.5594663  18.1433343  25.0756638  34.2646028
  12.5949983  32.1440747  27.3901105  11.7537989  32.0444621  27.5979999
  12.8039991  32.9136227  27.7415426  12.5014675  32.2432790  27.4728420
  10.0725550  29.7660284  25.2185856   9.6782247  29.8403296  24.4435966
   9.5165666  30.1518230  25.7694218   9.9328362  29.8342059  25.1853516
  21.7090496  22.7441578  24.8989735  21.9140090  22.6763886  25.7446732
  21.3816920  23.5500399  24.8310912  21.6905744  22.8527518  25.0149390
  16.4066647  30.0722146  26.6398703  16.1029785  29.5178134  27.2409111
  15.7046068  30.2514356  26.1526737  16.2582857  30.0166929  26.6568409
  15.4632745  27.3822666  21.2043405  15.7392479  26.6641579  20.7920972
  16.0631414  27.9807586  20.9964511  15.5926009  27.3643037  21.1124166
  14.4684998  37.2871867  31.3470801  14.3605353  37.2973929  32.2132859
  14.6780780  38.1126647  31.1575754  14.4835110  37.4112942  31.4474892
  24.9624184  23.2973342  24.3792500  24.3498498  23.7843744  24.7646232
  25.0588359  22.6216833  24.9230152  24.8862082  23.2691651  24.5171359
  18.9643265  25.0536183  19.4790000  19.4187012  25.2246744  20.2037844
  19.4383311  24.4404294  19.0787775  19.1011585  24.9887069  19.5263761
  12.4858790  34.5384509  28.8092738  11.8946724  35.1794008  28.7795753
  13.2479814  34.9622127  28.7824038  12.5107051  34.6960348  28.8007885
  12.8819413  25.6986507  29.4760756  13.3420895  25.7725437  30.2135880
  12.9275520  26.4967761  29.1260577  12.9569969  25.8280654  29.5333512
  14.5302763  26.3653202  34.0432783  14.1388328  25.7186549  34.4788561
  14.6988626  26.9564637  34.6627038  14.4973673  26.3567470  34.1995489
  22.2448307  39.9893821  26.2424763  22.0467995  40.4784635  25.5480974
  21.6236018  40.1935062  26.8208896  22.1235871  40.0910359  26.2247986
  16.3056285  31.7578718  20.5835007  17.0498330  32.1452994  20.8217957
  16.4516981  30.9136143  20.7475495  16.4366870  31.6909191  20.6428977
  18.2235860  23.5528977  25.6166868  17.3771906  23.7251784  25.4908218
  18.2206993  22.7478320  25.9532697  18.0983010  23.4590006  25.6477995
  19.2934161  27.3304191  26.4828926  18.8194115  26.8045953  26.9934237
  19.6652297  26.7833664  25.9143788  19.2784050  27.1720188  26.4744073
   9.6707191  29.3275698  31.8512472  10.5332804  29.2271407  31.7649802
   9.3398974  28.7470407  31.2898044   9.7492387  29.2267324  31.7557878
  21.2217661  28.2240746  19.5454680  20.6940679  28.3069490  18.8560389
  21.6813369  28.9658617  19.5419325  21.2119511  28.3461408  19.4429375
  13.0308977  28.1518147  28.5122890  12.4062047  28.1636539  27.9048843
  12.6954572  28.6278322  29.1614130  12.8894469  28.2236664  28.5179459
  13.2150726  26.4943265  14.5695575  12.8663530  27.1462990  15.0327125
  12.7347172  26.4800378  13.8419446  13.0920970  26.5886319  14.5306667
   9.7434653  36.2118607  29.9526655   9.2134577  35.5211046  30.0021629
  10.0159746  36.2028792  29.1239363   9.7059375  36.1085739  29.8374071
  20.7754743  36.7944309  18.6764337  21.4988942  37.2602422  18.5328910
  20.3355334  36.8617919  17.9261934  20.8170435  36.8728146  18.5449119
  19.1837195  34.7246121  27.6609325  18.7564803  34.0995840  27.2274760
  19.1762140  34.4421043  28.4868332  19.1196336  34.5898902  27.7189152
  12.2999722  29.7611295  30.7297759  12.4593209  29.0054619  31.1349481
  12.1192616  30.3102234  31.3838496  12.2965081  29.7305108  30.8860465
  20.2420025  21.9272530  31.2848548  19.7460587  22.1236204  30.5940115
  20.9989087  22.3265198  31.1137350  20.2806850  22.0150264  31.1568685
  17.5122905  25.6014876  27.8751859  17.5365392  25.0674988  27.1864639
  17.7634379  25.0932185  28.5377449  17.5532824  25.4475780  27.8716503
   5.0230495  32.8846371  27.3095003   4.9173944  32.8393215  26.4447087
   4.2730715  33.2300152  27.5909288   4.8966098  32.9287279  27.2232333
  13.7924227  24.3285694  27.2557603  13.8322599  24.8294901  27.9692310
  12.9673892  24.4196088  26.9863526  13.6763753  24.4167511  27.3208141
  15.9753840  33.8946434  35.3577898  15.1249471  34.0318149  35.4935543
  16.1381968  33.1610212  35.8025599  15.8737704  33.8060535  35.4433497
  15.2138591  30.8446204  29.5531502  14.3830520  31.0120022  29.3466750
  15.1590108  30.4682155  30.3380387  15.0828005  30.8135935  29.6380030
  13.0222374  24.3355097  35.1887913  13.6475077  23.7917230  35.4617345
  12.5672854  23.8550015  34.6195703  13.0470634  24.1844578  35.1449507
  13.5874634  29.1201796  20.0821620  13.7277595  29.6174260  20.7850261
  14.0857167  28.4188090  20.2235833  13.6815715  29.0903774  20.2073199
  13.6174857  29.9868907  17.4114197  14.2519936  30.5829332  17.3463658
  13.7000468  29.6872364  18.2260067  13.7231408  30.0309815  17.5217283
  15.1953840  25.9182882  17.3859639  15.5169681  25.4385965  16.7318901
  15.4580783  26.7282528  17.1950450  15.2819865  25.9672780  17.2615131
  18.4250812  36.9401756  30.9058455  17.9175904  37.4937603  31.3499085
  18.1277459  37.0010046  30.0877229  18.3055697  37.0308068  30.8506911
  10.1227845  32.1836747  20.6803743  10.6320074  32.7801255  21.0615048
  10.5962117  31.9162721  19.9980162  10.2671220  32.2322563  20.6358265
  21.0358593  40.8565014  18.8362398  20.3187902  40.6825876  18.3709636
  21.6865330  40.6217586  18.3037884  21.0260443  40.7960807  18.6891616
  19.0307217  21.7770176  23.1573695  18.3875535  21.6267822  23.7258833
  18.6906624  21.5312521  22.3922799  18.8852295  21.7182298  23.1276710
  17.6693298  41.8726315  27.8115462  17.4458952  41.1145144  28.1799488
  17.1803141  41.9024336  27.0895901  17.5636747  41.7648539  27.7592203
  23.7834691  26.1885486  25.4894077  24.1362302  25.7615209  26.1639875
  22.9249493  26.1036330  25.6195153  23.7084136  26.1130227  25.6089087
  12.4818376  28.8193006  23.5476923  11.7630366  29.2357139  23.8149787
  12.8530739  29.3847245  22.9968561  12.4310308  28.9642287  23.5059730
  16.3171755  42.0926773  25.2652546  15.9032153  41.4300903  24.8756388
  17.0019129  42.2404632  24.7448240  16.3570126  42.0167431  25.1309043
  19.6837049  41.2516858  26.0176163  19.2853332  41.3619128  25.2496983
  19.0688268  41.4598924  26.6002723  19.5335938  41.2990426  25.9907462
  18.2564951  27.8591006  18.8850303  17.6629790  28.1808002  18.3334870
  18.2940228  27.0132101  18.6771409  18.1739340  27.7815334  18.7733074
  25.2158752  21.3103898  26.4178389  24.7089616  20.6033038  26.3499567
  26.0126185  20.9797087  26.5479466  25.2585991  21.1577050  26.4277384
  21.1322767  27.8170510  22.3152053  20.9036460  27.8403212  21.4730411
  21.3920844  26.9927977  22.4347063  21.1368955  27.6986590  22.2077250
  15.4141996  29.6704983  31.9177153  14.9020899  29.0626166  32.2762184
  15.2421492  30.3861576  32.3851129  15.3131633  29.6868283  32.0393377
  10.2607711  28.1142559  34.5679515  10.0910301  28.7743934  34.0227721
   9.8173660  28.3249120  35.2892004  10.1707044  28.2428541  34.5941144
  14.1867530  26.3547057  23.6106248  14.6624896  26.7164137  22.9756430
  13.6856129  27.0103524  23.8906391  14.1832889  26.5041245  23.5582989
  27.4178891  35.8268825  19.4019253  27.8012497  36.5760181  19.6317350
  26.6223005  36.0734644  19.1431243  27.3572674  35.9738519  19.3976827
  19.2911066  27.5929228  34.3579409  19.8482496  27.3643038  33.7257874
  18.9672131  28.3534894  34.0814621  19.3257476  27.6713065  34.2235906
   7.1609775  31.0189424  29.8268005   6.6136494  30.3490070  29.9448873
   7.9502153  30.6519272  29.8911472   7.1961959  30.8654411  29.8536705
  17.0094183  30.6796881  35.3231416  17.7605510  30.9948558  35.6370970
  17.2016760  30.4776052  34.4965337  17.1485598  30.6964263  35.2474811
  16.2294183  28.4988256  16.9779632  16.6093148  28.5167886  16.1930747
  15.4886779  28.9442245  16.8570480  16.1763021  28.5670031  16.8443201
  23.8579474  26.8070448  22.5655211  23.8573700  26.6519104  23.4239487
  23.6535654  27.6533435  22.5096597  23.8279251  26.9091068  22.6843150
   5.9196744  30.2310232  26.9814028   5.7418506  29.7786841  27.7068943
   5.6315767  31.0336394  27.1652505   5.8509698  30.2832790  27.1157531
  17.0278937  35.3365763  18.3688422  16.2190260  35.0132436  18.3221732
  17.5353846  34.6298985  18.3016671  16.9828604  35.1847079  18.3518717
   7.6569214  32.7637956  24.0935787   6.7914734  32.7523646  23.9818558
   7.7568030  32.5768179  24.9406926   7.5443381  32.7344017  24.2024731
  13.2826224  42.5335854  27.6665892  13.5972783  43.3472243  27.6743674
  13.6919638  42.1486073  28.3348051  13.3894322  42.5964557  27.7669984
  20.2350744  37.9505901  25.2369704  20.7061922  38.6646164  25.4059689
  20.5710922  37.3504651  25.7729574  20.3545859  37.9677366  25.3402080
  17.1520239  22.7233372  32.1927799  17.2848144  21.9264365  32.5208775
  17.5365392  23.2499775  32.7726075  17.2276568  22.6833289  32.3271302
  20.2252594  19.6463698  28.7908892  19.4198558  19.5361428  29.1076731
  20.0959330  19.7476154  27.9338758  20.0872727  19.6447368  28.7116933
  16.2213354  24.7249785  19.6607264  17.0429048  24.8948098  19.4188959
  15.7583005  24.8797046  18.9373562  16.2744516  24.7731518  19.5178908
  14.8108686  22.7192547  30.4405693  15.3553099  22.3783674  31.0310034
  14.8645621  23.5778008  30.5826977  14.8997805  22.7947806  30.5487566
  10.6239244  36.4808963  27.3144501  11.2284102  36.4404797  26.6858321
  10.4166557  37.3280115  27.3448556  10.6828142  36.5996965  27.2260617
   5.8590527  35.4643580  27.1843424   5.7614805  34.6539852  27.4933480
   6.6419396  35.4435374  26.7989692   5.9606663  35.3410671  27.1730287
  36.9096667  46.4039760  21.4949614  36.8790671  47.2584396  21.6667884
  37.5078016  46.1035052  22.0535758  36.9933825  46.4856256  21.6024417
  30.1096352  45.4915411  26.2502545  29.2534247  45.6523909  26.3011662
  30.1564005  44.6207475  26.2707606  29.9895463  45.3866213  26.2608611
  24.4937491  55.0278129  22.0139776  23.7420391  54.6493667  21.7855821
  24.9423503  55.0596562  21.2658587  24.4487158  54.9763736  21.8697279
  29.9462451  55.4503498  17.4425323  29.6113820  56.1280420  17.0069546
  30.4589322  55.0608809  16.8542195  29.9728032  55.4928076  17.2912115
  29.4866743  57.4017767  23.3836435  29.8706122  57.9704665  22.8441210
  29.4225884  56.6767277  22.9042251  29.5340170  57.3793230  23.2330298
  32.9548173  47.5507455  28.8934196  33.5004133  48.2292541  28.9528166
  32.8965049  47.4094916  28.0335778  33.0264087  47.6299456  28.7746257
  26.0722248  55.0396521  24.2802549  26.1732611  54.2296875  24.5899677
  25.4763993  54.9453467  23.6502227  25.9994786  54.9061549  24.2328787
  34.7313241  48.9792062  19.7667924  34.6152767  49.7299748  20.1960062
  35.5269128  48.7216015  20.0164011  34.8317831  49.0526909  19.8672016
  25.9122987  59.9574110  25.6817405  26.5560443  60.3987274  26.0713563
  26.2379243  59.1527536  25.5947664  26.0554816  59.9039305  25.7262882
  19.2687292  51.0616807  23.9054883  19.0337476  50.2284460  23.7987151
  19.4072933  51.3421473  23.0916083  19.2542954  50.9800311  23.7697238
  21.5677379  43.2302538  26.8039190  20.9482411  42.6395185  26.6349205
  21.4661243  43.8213973  26.1703513  21.4615055  43.2306620  26.6844180
  26.6143567  52.9686085  21.0537267  26.9359408  53.5091292  20.4498575
  27.2615663  52.3982856  21.1859556  26.7569622  52.9645260  20.9844302
  28.6645275  44.9702080  21.1371653  29.3625440  45.1490207  21.6293117
  28.9797608  44.4472419  20.5142043  28.8140612  44.9195852  21.1173663
  21.2946512  46.7754820  29.0482759  21.1705209  47.3617265  29.6832578
  21.9464797  46.2815015  29.3495034  21.3720162  46.7893624  29.1868689
  28.8533210  51.3572525  21.1251445  29.2926846  50.7489625  21.5706218
  28.7037873  50.9779898  20.3536910  28.8954676  51.2110996  21.0770612
  26.3204853  49.9516537  28.3270270  26.9653856  49.4588980  28.0081219
  26.5606630  50.0941323  29.1536349  26.4515439  49.8993979  28.4019804
  28.8590945  52.7971442  27.9777163  29.1414188  52.0022848  27.7563919
  29.5877105  53.2752030  27.9982224  29.0080508  52.7506039  27.9480178
  26.8372139  40.3394476  25.2192928  26.5075469  40.7905620  24.5496627
  26.1617140  40.2610640  25.7665934  26.6882575  40.3945612  25.2016151
  32.4542547  49.7099706  18.0782214  32.3693842  50.5660673  18.2231783
  32.9426930  49.4344030  18.7464373  32.5131444  49.7957028  18.1984296
  33.3860980  46.3284500  19.5779949  32.8572452  46.5444134  20.2377255
  33.9086000  47.0220639  19.4980919  33.3849433  46.4627637  19.6635548
  25.2760588  50.2247717  18.3787417  24.6917803  50.7297748  18.7853281
  24.8730683  49.9990104  17.6384009  25.1299892  50.2655965  18.3292442
  20.8304617  55.9402478  25.1811089  20.3472195  56.6652968  25.1570672
  21.6427935  56.2378608  25.2921246  20.8795364  56.0904832  25.1938368
  26.9018771  54.7334659  27.7860903  26.3845712  54.3742074  27.1822211
  27.5993162  54.2096833  27.7966969  26.9284352  54.6032347  27.6991162
  29.7337802  46.4713369  16.8556338  29.9733806  46.6791353  16.0431681
  30.0553643  45.6670878  16.9645282  29.8174960  46.3827470  16.7516891
  25.0428093  38.4006765  20.7015876  25.7974061  38.7685082  20.4632926
  24.8655627  38.7746319  21.4695055  25.1282571  38.5104953  20.7800764
  23.6848814  56.4558654  25.3331369  24.3869393  55.9410643  25.3904125
  23.6046297  56.7832805  26.1378244  23.7772574  56.4272880  25.4604161
  23.3985157  40.8077084  17.3993989  23.2160731  41.0248965  16.5734981
  24.2610770  40.9216097  17.4552603  23.4989747  40.8566982  17.2848476
  23.0099589  52.6465006  24.8416977  23.8488489  52.8787939  24.8890738
  23.0411358  51.7769317  24.7724012  23.1381307  52.5521953  24.8381621
  23.6352292  53.0665881  29.1430282  24.1750517  52.9237012  29.8133654
  22.9522239  53.4662632  29.5114308  23.6144446  53.1045552  29.2964704
  29.0784877  37.8103495  20.4343012  29.8071037  37.6319449  19.9881169
  29.1679769  38.6521574  20.6450191  29.1991539  37.9087373  20.3996530
  19.0389437  49.2866172  29.2964704  18.7727853  48.4705289  29.4555694
  19.0528002  49.3319328  28.4260219  19.0014160  49.1723077  29.1918186
  22.9447184  44.0851256  15.9116462  22.2305361  43.7989436  16.3238894
  23.4291153  44.4247882  16.5522849  22.9106548  44.0932906  16.0672097
  30.1194502  52.5881210  16.2878270  30.5345651  52.2566234  15.5962766
  29.2886432  52.3550113  16.1598407  30.0582511  52.5052466  16.1669117
  19.4482851  50.0724951  26.5776448  19.2658424  50.0471837  25.7248740
  20.1832520  50.5423889  26.6165357  19.5296915  50.1386314  26.4574366
  22.5128603  46.7909954  33.0858557  23.2368575  46.7762985  33.5723451
  22.6144739  47.5005310  32.5880525  22.6346812  46.8934658  33.0837343
  32.5604871  46.9943030  22.2402519  32.6551725  47.7332324  22.6942145
  31.9363715  46.5660506  22.6737084  32.4813901  47.0404351  22.3710667
  19.4153761  46.9518452  26.7275514  19.9927264  46.8154903  27.3667760
  18.7167823  46.4954236  26.9821099  19.3974783  46.8640718  26.8597804
  32.8127892  48.8391770  15.4739471  32.7308055  48.9093957  16.3394458
  33.4507613  49.4021514  15.2823212  32.8947730  48.9330741  15.5729421
  26.1721064  48.6052508  24.9413998  25.9140308  47.7724243  24.9145297
  26.2269546  48.8310121  24.1006498  26.1420841  48.5150279  24.8134134
  31.2522114  40.7080959  25.0418090  30.5478440  40.2190144  25.2002009
  31.3007088  40.7203433  24.1706535  31.1552165  40.6370606  24.9357430
  25.1455776  46.1590270  25.4278892  24.5705367  46.3182439  26.0642853
  24.7691452  45.5225679  24.9647343  25.0058588  46.0888083  25.4533451
  28.8129064  44.6313620  30.2871271  28.4243497  44.2067837  29.6323462
  28.1483763  44.8795769  30.7948297  28.6575992  44.6052341  30.2659139
  38.4552333  44.3888624  23.0619101  38.1988898  43.5768566  22.8716984
  39.2981647  44.3966191  22.8349288  38.5418359  44.2700622  23.0003918
  14.8912595  45.8030345  23.4423333  14.9772846  45.4262213  24.2236863
  15.5188392  45.4290791  22.9643291  14.9969146  45.6915827  23.4868810
  32.6355426  38.3288248  27.7995255  33.0165938  37.6466419  28.1863129
  31.8318710  38.0397850  27.6170920  32.5731888  38.1855297  27.8299311
  29.9168003  48.8612224  18.4848078  30.7308641  49.1527117  18.3730849
  29.8527144  48.2072087  17.9106371  30.0270742  48.8077419  18.3836915
  25.7875911  52.3333742  23.6120390  26.4249858  52.0945489  24.1572183
  26.2130982  52.5370901  22.8773550  25.9452077  52.3284752  23.5837547
  20.4788553  54.5722078  27.4954694  20.5192699  54.8436929  26.6674473
  21.0383077  55.0963986  27.9112482  20.5671899  54.6897833  27.4346582
  26.4278726  47.5536031  17.9495279  26.8123879  47.3343738  18.7011824
  26.1790346  48.3798977  18.0796356  26.4480798  47.6434178  18.0796356
  28.1697383  52.8106164  25.2914176  28.2436391  52.6481336  26.1456026
  28.9866889  52.9996354  25.0474658  28.3013741  52.8142907  25.3812202
  21.9303140  53.1564027  22.3208620  21.1041257  53.4025764  22.1942898
  21.9915131  53.0776108  23.1870678  21.8177306  53.1808976  22.4297564
  24.1479163  39.2232968  23.2804060  23.2801589  39.2955568  23.3461669
  24.4354368  40.0255047  23.4692035  24.0618911  39.3527115  23.3178826
  26.7101969  55.7740907  20.0227650  27.0000267  55.3829889  19.2986876
  27.4405449  55.9557612  20.4632925  26.8608853  55.7434721  19.9810457
  24.6507884  57.7508290  23.0887799  24.4308180  57.4605644  23.8814466
  24.4302406  57.0923245  22.5605712  24.5855478  57.6107998  23.1276708
  23.5624831  49.8381606  25.3543501  23.2738080  49.2119077  25.8889228
  24.4308179  49.7801894  25.4208181  23.6485083  49.7369150  25.4434456
  26.8175840  59.1237680  21.8718492  27.4699898  58.5914122  22.1009518
  26.1201449  58.7706332  22.2586366  26.8106558  58.9927203  21.9630659
  23.7657105  51.4776857  21.2785866  24.5203073  51.8589896  21.4921329
  23.1727717  51.9288001  21.7332563  23.7893818  51.6005685  21.3768744
  34.8115758  51.4442094  21.2149471  35.3773791  52.1035304  21.1308014
  34.1643662  51.7891792  21.6865873  34.7994515  51.5924035  21.2722227
  25.0855331  52.6485419  26.6525981  24.5636085  52.7885710  27.3377846
  25.4729352  51.8896083  26.8428099  25.0659032  52.5570942  26.7827058
  22.0746515  42.6991227  20.7220936  21.7871311  42.3292498  19.9852883
  22.7616984  43.1686083  20.4604641  22.1335413  42.7138197  20.5736012
  31.2822336  54.3880878  20.6386550  31.0409012  53.6548739  20.2313615
  31.4623669  54.9367735  19.9852883  31.2729960  54.3603269  20.4816773
  26.5121657  49.6789438  22.0507472  26.3164440  50.2864172  21.4567775
  26.7356002  48.9857382  21.5699146  26.5156298  49.6666963  21.8923553
  24.9100187  46.5644176  22.1688341  25.6322839  46.7285334  21.7092147
  24.4308180  47.2853840  22.0627681  24.9463918  46.6942405  22.0853955
  32.8693695  42.9007974  27.5485026  32.0304795  42.9269253  27.3123289
  32.9398062  43.5478710  28.1290372  32.7562088  43.0004100  27.5994143
  22.5607804  48.9702248  31.2742481  23.0728901  49.2486501  30.6251240
  22.2744146  49.7091542  31.6405294  22.5942667  49.1204602  31.2332359
  31.3162973  39.7993351  22.2812642  32.0189326  39.6001100  21.8032600
  31.0507161  39.0269294  22.5881485  31.3809605  39.6556317  22.2558083
  19.6474710  43.4772440  21.5706217  19.7490846  44.2798601  21.8987193
  20.4430597  43.2759776  21.2729298  19.7802616  43.5658339  21.5741573
  30.6177034  45.4286708  23.4571827  30.3711749  45.3482459  24.2908616
  30.9462157  44.6440176  23.2634354  30.6298278  45.3012974  23.5519350
  34.5125083  52.1370068  27.2458608  34.3739443  52.8351113  27.7507351
  33.7325081  51.9818724  26.8894790  34.3768310  52.2170234  27.2684882
  25.6501817  56.3546199  29.7355837  25.7991380  55.7949115  29.0829241
  26.4301819  56.4338200  30.1188356  25.7875910  56.2831764  29.6952786
  36.0078456  51.4948321  18.0075107  35.6285265  50.7085459  18.0004397
  35.3444701  52.0435178  17.8646752  35.8536931  51.4593145  17.9855904
  28.1755117  56.5260842  31.0140328  28.0998788  55.8569652  31.5691116
  28.1044976  57.2278630  31.5280994  28.1535724  56.5305749  31.1717176
  28.8325364  55.0461840  21.8463934  29.5975255  54.7771484  21.5246598
  28.7303454  54.5611851  22.5633996  28.9306860  54.9351405  21.9043761
  26.8678134  43.2486250  28.3857169  26.0774209  43.0677710  28.7074505
  27.2638757  42.4713202  28.3687464  26.8095010  43.1073711  28.4309718
  31.3544025  52.0774024  13.8263883  32.1217010  52.1374149  13.4169735
  30.9075334  51.5054466  13.3420202  31.4017452  52.0010600  13.6941593
  32.2521820  50.8828680  26.1116615  31.5766822  50.6513912  26.6130002
  32.2614196  50.2749863  25.4858720  32.1540325  50.7587605  26.0932768
  34.2538555  53.7393812  18.3426793  34.3358392  54.5460799  18.0188244
  34.7388297  53.7589772  19.0667567  34.3375713  53.8614475  18.4013692
  28.0635058  48.4178648  27.0096871  27.6397307  48.6183147  26.2735890
  27.8879913  47.5707496  27.1221171  27.9745939  48.3227430  26.9170561
  27.5646752  59.9329161  29.4718329  28.0542682  59.2339951  29.2893993
  26.9930984  59.6353031  30.0594386  27.5531282  59.7855385  29.5319369
  23.3517503  48.9130700  22.4424844  23.5082122  48.8477503  23.2980836
  23.6918096  49.6879252  22.2303523  23.4250738  49.0179898  22.5379438
  29.8896648  48.2888583  21.3118207  30.4312193  47.7858964  21.7756828
  30.2043207  48.2353778  20.5007692  30.0161045  48.2068004  21.2602019
  28.0583097  53.6805935  18.5958235  28.1275918  52.8220473  18.7351235
  28.8371553  53.8977816  18.2677260  28.1835948  53.5858799  18.5675392
  32.4490585  56.1043636  22.8094728  32.0570377  55.8010351  22.0917594
  32.6043657  56.9412726  22.6199682  32.4144175  56.1827473  22.6751225
  19.9251765  46.0965650  22.7585611  20.3050729  46.5150195  22.0945878
  19.3507129  46.6779106  23.0654454  19.8963089  46.2443509  22.7062352
  32.6130260  52.6693625  22.7500759  32.2544915  52.8408268  23.5264791
  32.1268971  53.1306831  22.1928757  32.4888957  52.7632596  22.7826028
  27.4018625  48.3492790  15.2900993  27.6911150  49.1257673  15.5644568
  27.4890424  47.8381522  15.9915493  27.4572881  48.3884709  15.4343491
  23.5682566  47.6626055  27.3901105  22.7270573  47.5629929  27.5979999
  23.7772574  48.4321535  27.7415426  23.4747259  47.7618098  27.4728420
  21.0458133  45.2845592  25.2185856  20.6514831  45.3588604  24.4435966
  20.4898250  45.6703538  25.7694218  20.9060945  45.3527367  25.1853516
  27.3799231  45.5907454  26.6398703  27.0762369  45.0363442  27.2409111
  26.6778652  45.7699664  26.1526737  27.2315441  45.5352236  26.6568409
  26.4365328  42.9007974  21.2043405  26.7125062  42.1826886  20.7920972
  27.0363997  43.4992894  20.9964511  26.5658593  42.8828345  21.1124166
  25.4417582  52.8057175  31.3470801  25.3337937  52.8159237  32.2132859
  25.6513364  53.6311955  31.1575754  25.4567693  52.9298250  31.4474892
  35.9356768  38.8158650  24.3792500  35.3231081  39.3029052  24.7646232
  36.0320943  38.1402141  24.9230152  35.8594665  38.7876959  24.5171359
  29.9375849  40.5721491  19.4790000  30.3919595  40.7432052  20.2037844
  30.4115894  39.9589602  19.0787775  30.0744169  40.5072377  19.5263761
  23.4591374  50.0569817  28.8092738  22.8679307  50.6979315  28.7795753
  24.2212398  50.4807435  28.7824038  23.4839635  50.2145656  28.8007885
  27.2788869  47.2764026  20.5835007  28.0230914  47.6638302  20.8217957
  27.4249565  46.4321451  20.7475495  27.4099454  47.2094498  20.6428977
  30.2666744  42.8489499  26.4828926  29.7926699  42.3231261  26.9934237
  30.6384880  42.3018972  25.9143788  30.2516633  42.6905496  26.4744073
  32.1950244  43.7426054  19.5454680  31.6673263  43.8254798  18.8560389
  32.6545952  44.4843925  19.5419325  32.1852095  43.8646716  19.4429375
  24.0041561  43.6703455  28.5122890  23.3794631  43.6821847  27.9048843
  23.6687155  44.1463630  29.1614130  23.8627052  43.7421972  28.5179459
  24.1883309  42.0128573  14.5695575  23.8396114  42.6648298  15.0327125
  23.7079755  41.9985686  13.8419446  24.0653553  42.1071627  14.5306667
  20.7167236  51.7303915  29.9526655  20.1867161  51.0396354  30.0021629
  20.9892329  51.7214100  29.1239363  20.6791958  51.6271047  29.8374071
  31.7487327  52.3129617  18.6764337  32.4721526  52.7787730  18.5328910
  31.3087918  52.3803227  17.9261934  31.7903019  52.3913454  18.5449119
  30.9173482  49.1727159  29.9265026  30.3030475  48.6285210  30.2213661
  31.4340767  48.6591396  29.4470842  30.9029144  49.0163568  29.8989255
  30.1569779  50.2431429  27.6609325  29.7297387  49.6181148  27.2274760
  30.1494723  49.9606351  28.4868332  30.0928920  50.1084210  27.7189152
  23.2732306  45.2796602  30.7297759  23.4325793  44.5239927  31.1349481
  23.0925200  45.8287542  31.3838496  23.2697665  45.2490416  30.8860465
  28.4855489  41.1200184  27.8751859  28.5097976  40.5860296  27.1864639
  28.7366962  40.6117493  28.5377449  28.5265407  40.9661088  27.8716503
  15.9963078  48.4031679  27.3095003  15.8906527  48.3578523  26.4447087
  15.2463298  48.7485459  27.5909288  15.8698681  48.4472587  27.2232333
  24.7656811  39.8471002  27.2557603  24.8055182  40.3480209  27.9692310
  23.9406475  39.9381396  26.9863526  24.6496337  39.9352819  27.3208141
  26.1871174  46.3631512  29.5531502  25.3563104  46.5305330  29.3466750
  26.1322691  45.9867463  30.3380387  26.0560589  46.3321243  29.6380030
  24.5607218  44.6387104  20.0821620  24.7010179  45.1359568  20.7850261
  25.0589751  43.9373398  20.2235833  24.6548299  44.6089082  20.2073199
  24.5907440  45.5054215  17.4114197  25.2252520  46.1014640  17.3463658
  24.6733051  45.2057672  18.2260067  24.6963991  45.5495123  17.5217283
  26.1686423  41.4368190  17.3859639  26.4902264  40.9571273  16.7318901
  26.4313367  42.2467836  17.1950450  26.2552449  41.4858088  17.2615131
  21.0960428  47.7022055  20.6803743  21.6052658  48.2986563  21.0615048
  21.5694701  47.4348029  19.9980162  21.2403804  47.7507871  20.6358265
  32.0091176  56.3750322  18.8362398  31.2920486  56.2011184  18.3709636
  32.6597914  56.1402894  18.3037884  31.9993027  56.3146115  18.6891616
  34.5939148  45.2514911  22.5803703  33.9230337  45.7944613  22.4516769
  35.2878898  45.7209766  22.3385398  34.5968015  45.4013182  22.5259231
  28.6425881  57.3911623  27.8115462  28.4191536  56.6330452  28.1799488
  28.1535725  57.4209644  27.0895901  28.5369330  57.2833847  27.7592203
  34.7567275  41.7070794  25.4894077  35.1094885  41.2800517  26.1639875
  33.8982076  41.6221638  25.6195153  34.6816720  41.6315535  25.6089087
  23.4550960  44.3378314  23.5476923  22.7362949  44.7542446  23.8149787
  23.8263322  44.9032553  22.9968561  23.4042892  44.4827595  23.5059730
  27.2904338  57.6112081  25.2652546  26.8764737  56.9486211  24.8756388
  27.9751712  57.7589939  24.7448240  27.3302710  57.5352739  25.1309043
  30.6569632  56.7702166  26.0176163  30.2585916  56.8804436  25.2496983
  30.0420852  56.9784232  26.6002723  30.5068522  56.8175734  25.9907462
  29.2297534  43.3776314  18.8850303  28.6362374  43.6993310  18.3334870
  29.2672812  42.5317409  18.6771409  29.1471923  43.3000642  18.7733074
  32.1055351  43.3355818  22.3152053  31.8769044  43.3588520  21.4730411
  32.3653427  42.5113285  22.4347063  32.1101539  43.2171898  22.2077250
  25.1600113  41.8732365  23.6106248  25.6357480  42.2349444  22.9756430
  24.6588713  42.5288832  23.8906391  25.1565472  42.0226553  23.5582989
  18.1342359  46.5374732  29.8268005  17.5869078  45.8675378  29.9448873
  18.9234737  46.1704580  29.8911472  18.1694542  46.3839719  29.8536705
  27.2026767  44.0173564  16.9779632  27.5825731  44.0353194  16.1930747
  26.4619363  44.4627553  16.8570480  27.1495604  44.0855339  16.8443201
  34.8312057  42.3255756  22.5655211  34.8306284  42.1704412  23.4239487
  34.6268237  43.1718743  22.5096597  34.8011835  42.4276376  22.6843150
  16.8929328  45.7495540  26.9814028  16.7151089  45.2972149  27.7068943
  16.6048350  46.5521701  27.1652505  16.8242281  45.8018098  27.1157531
  32.5552909  47.0053257  26.2191418  33.0506574  46.2876252  26.1795438
  31.7452685  46.7024055  26.1045905  32.5096802  46.8550904  26.1965144
  28.0011521  50.8551071  18.3688422  27.1922843  50.5317744  18.3221732
  28.5086430  50.1484293  18.3016671  27.9561187  50.7032387  18.3518717
  18.6301798  48.2823264  24.0935787  17.7647317  48.2708954  23.9818558
  18.7300614  48.0953487  24.9406926  18.5175965  48.2529325  24.2024731
  24.2558808  58.0521162  27.6665892  24.5705367  58.8657551  27.6743674
  24.6652221  57.6671381  28.3348051  24.3626906  58.1149865  27.7669984
  31.2083327  53.4691209  25.2369704  31.6794506  54.1831472  25.4059689
  31.5443506  52.8689959  25.7729574  31.3278443  53.4862673  25.3402080
  27.1945937  40.2435093  19.6607264  28.0161632  40.4133405  19.4188959
  26.7315588  40.3982354  18.9373562  27.2477100  40.2916826  19.5178908
  21.5971828  51.9994271  27.3144501  22.2016685  51.9590105  26.6858321
  21.3899141  52.8465423  27.3448556  21.6560725  52.1182273  27.2260617
  16.8323110  50.9828888  27.1843424  16.7347388  50.1725160  27.4933480
  17.6151980  50.9620682  26.7989692  16.9339247  50.8595979  27.1730287
  35.4670075  70.5463437  22.0139776  34.7152975  70.1678975  21.7855821
  35.9156087  70.5781870  21.2658587  35.4219742  70.4949044  21.8697279
  44.3922652  67.2787244  35.8563001  45.0989419  66.7839275  35.9849935
  44.5810587  67.7196326  35.1265659  44.5250557  67.2705595  35.7672046
  40.9195035  70.9688806  17.4425323  40.5846403  71.6465728  17.0069546
  41.4321905  70.5794117  16.8542195  40.9460616  71.0113384  17.2912115
  40.4599326  72.9203075  23.3836435  40.8438706  73.4889973  22.8441210
  40.3958467  72.1952585  22.9042251  40.5072753  72.8978538  23.2330298
  43.9280756  63.0692763  28.8934196  44.4736716  63.7477849  28.9528166
  43.8697633  62.9280224  28.0335778  43.9996671  63.1484764  28.7746257
  37.0454831  70.5581829  24.2802549  37.1465194  69.7482183  24.5899677
  36.4496576  70.4638775  23.6502227  36.9727370  70.4246857  24.2328787
  45.7045825  64.4977370  19.7667924  45.5885351  65.2485056  20.1960062
  46.5001712  64.2401323  20.0164011  45.8050414  64.5712217  19.8672016
  36.8855571  75.4759418  25.6817405  37.5293026  75.9172582  26.0713563
  37.2111826  74.6712844  25.5947664  37.0287399  75.4224613  25.7262882
  30.2419876  66.5802115  23.9054883  30.0070060  65.7469768  23.7987151
  30.3805516  66.8606781  23.0916083  30.2275538  66.4985619  23.7697238
  37.5876151  68.4871393  21.0537267  37.9091992  69.0276600  20.4498575
  38.2348247  67.9168164  21.1859556  37.7302206  68.4830568  20.9844302
  39.6377859  60.4887388  21.1371653  40.3358023  60.6675515  21.6293117
  39.9530191  59.9657727  20.5142043  39.7873196  60.4381160  21.1173663
  39.8265794  66.8757833  21.1251445  40.2659429  66.2674933  21.5706218
  39.6770457  66.4965206  20.3536910  39.8687260  66.7296304  21.0770612
  39.8323528  68.3156750  27.9777163  40.1146771  67.5208156  27.7563919
  40.5609689  68.7937338  27.9982224  39.9813092  68.2691347  27.9480178
  43.4275131  65.2285014  18.0782214  43.3426426  66.0845981  18.2231783
  43.9159514  64.9529338  18.7464373  43.4864028  65.3142335  18.1984296
  44.3593564  61.8469808  19.5779949  43.8305035  62.0629442  20.2377255
  44.8818584  62.5405947  19.4980919  44.3582017  61.9812945  19.6635548
  49.8141617  67.4216113  24.9512994  48.9839320  67.6326756  25.1146410
  49.7650869  66.5953167  24.6755277  49.6848352  67.3305719  24.9350359
  36.2493172  65.7433025  18.3787417  35.6650387  66.2483056  18.7853281
  35.8463267  65.5175412  17.6384009  36.1032475  65.7841273  18.3292442
  31.8037200  71.4587786  25.1811089  31.3204778  72.1838276  25.1570672
  32.6160518  71.7563916  25.2921246  31.8527948  71.6090140  25.1938368
  37.8751354  70.2519967  27.7860903  37.3578296  69.8927382  27.1822211
  38.5725745  69.7282141  27.7966969  37.9016935  70.1217655  27.6991162
  41.5314946  70.7014781  33.7477076  41.6198292  70.5140921  34.5955287
  41.9604659  70.0552210  33.3481923  41.6077049  70.5777789  33.8148828
  40.7070386  61.9898677  16.8556338  40.9466390  62.1976661  16.0431681
  41.0286227  61.1856186  16.9645282  40.7907544  61.9012778  16.7516891
  36.0160676  53.9192073  20.7015876  36.7706644  54.2870390  20.4632926
  35.8388211  54.2931627  21.4695055  36.1015155  54.0290261  20.7800764
  34.6581397  71.9743962  25.3331369  35.3601977  71.4595951  25.3904125
  34.5778881  72.3018113  26.1378244  34.7505158  71.9458188  25.4604161
  34.3717741  56.3262392  17.3993989  34.1893314  56.5434273  16.5734981
  35.2343354  56.4401404  17.4552603  34.4722330  56.3752290  17.2848476
  33.9832173  68.1650314  24.8416977  34.8221072  68.3973247  24.8890738
  34.0143942  67.2954625  24.7724012  34.1113890  68.0707260  24.8381621
  34.6084876  68.5851189  29.1430282  35.1483101  68.4422320  29.8133654
  33.9254822  68.9847940  29.5114308  34.5877030  68.6230860  29.2964704
  44.0325761  64.2642190  24.3375306  44.7883276  64.6973704  24.3764215
  44.1388085  63.6146960  24.9109942  44.1595931  64.2319674  24.4273332
  47.0705932  68.0915467  25.0877709  46.6341164  68.0952209  25.8436681
  46.7368847  68.7720966  24.6557287  46.9568552  68.1927923  25.1358542
  41.6435005  70.1323800  36.4120860  42.4275422  70.2454648  36.7776602
  41.4431600  69.3064937  36.6079546  41.7301031  70.0270519  36.4955246
  30.0122021  64.8051480  29.2964704  29.7460436  63.9890597  29.4555694
  30.0260585  64.8504636  28.4260219  29.9746743  64.6908385  29.1918186
  33.9179768  59.6036564  15.9116462  33.2037945  59.3174744  16.3238894
  34.4023737  59.9433190  16.5522849  33.8839131  59.6118214  16.0672097
  41.8005399  72.0433902  30.0587315  41.0020645  71.8033402  30.3161184
  42.2491410  72.0948295  30.8054363  41.7480010  72.0156293  30.2072240
  41.0927086  68.1066518  16.2878270  41.5078234  67.7751542  15.5962766
  40.2619015  67.8735421  16.1598407  41.0315095  68.0237774  16.1669117
  30.4215435  65.5910259  26.5776448  30.2391008  65.5657145  25.7248740
  31.1565104  66.0609197  26.6165357  30.5029498  65.6571622  26.4574366
  46.4915109  65.8261769  23.7209335  46.7270698  65.9706968  22.8936186
  46.6404672  66.5904177  24.1140849  46.5480912  65.9600824  23.6572939
  48.3205566  64.6663435  21.5578939  48.6513783  65.1991075  20.9519034
  48.8938654  64.7202323  22.2140890  48.4539245  64.7533004  21.5656721
  40.8606136  65.7894347  37.9507504  40.0679116  66.1037859  38.1360123
  40.9755063  66.0045815  37.1128288  40.7601546  65.8678184  37.8545838
  43.5337455  62.5128338  22.2402519  43.6284309  63.2517632  22.6942145
  42.9096298  62.0845813  22.6737084  43.4546485  62.5589659  22.3710667
  41.7889929  65.6914551  32.8892800  42.3628790  65.0541795  33.0441364
  41.7104732  65.6918633  32.0202458  41.8623163  65.5979662  32.7839211
  43.7860476  64.3577078  15.4739471  43.7040639  64.4279265  16.3394458
  44.4240196  64.9206822  15.2823212  43.8680313  64.4516049  15.5729421
  37.1453647  64.1237816  24.9413998  36.8872891  63.2909551  24.9145297
  37.2002130  64.3495429  24.1006498  37.1153425  64.0335587  24.8134134
  25.8645178  61.3215653  23.4423333  25.9505430  60.9447521  24.2236863
  26.4920976  60.9476099  22.9643291  25.9701729  61.2101135  23.4868810
  40.8900586  64.3797532  18.4848078  41.7041225  64.6712425  18.3730849
  40.8259727  63.7257394  17.9106371  41.0003325  64.3262727  18.3836915
  47.1110076  67.0623528  32.8977653  46.8748714  66.2311593  32.7789714
  47.7553305  67.0109135  33.4832498  47.1704747  66.9321216  32.9663547
  36.7608494  67.8519050  23.6120390  37.3982441  67.6130797  24.1572183
  37.1863566  68.0556208  22.8773550  36.9184661  67.8470060  23.5837547
  31.4521137  70.0907386  27.4954694  31.4925282  70.3622237  26.6674473
  32.0115661  70.6149294  27.9112482  31.5404483  70.2083141  27.4346582
  37.4011309  63.0721339  17.9495279  37.7856462  62.8529046  18.7011824
  37.1522930  63.8984285  18.0796356  37.4213382  63.1619486  18.0796356
  39.1429966  68.3291472  25.2914176  39.2168975  68.1666644  26.1456026
  39.9599473  68.5181662  25.0474658  39.2746325  68.3328215  25.3812202
  32.9035723  68.6749335  22.3208620  32.0773841  68.9211072  22.1942898
  32.9647714  68.5961416  23.1870678  32.7909890  68.6994284  22.4297564
  37.6834552  71.2926215  20.0227650  37.9732851  70.9015197  19.2986876
  38.4138033  71.4742920  20.4632925  37.8341436  71.2620029  19.9810457
  38.2729297  66.0943961  31.1080780  37.7740991  66.8059729  31.1865668
  39.0829522  66.4144628  31.0698942  38.3185404  66.2470810  31.1137349
  35.6240468  73.2693598  23.0887799  35.4040763  72.9790952  23.8814466
  35.4034990  72.6108553  22.5605712  35.5588062  73.1293306  23.1276708
  34.5357415  65.3566914  25.3543501  34.2470664  64.7304385  25.8889228
  35.4040763  65.2987202  25.4208181  34.6217667  65.2554458  25.4434456
  37.7908423  74.6422988  21.8718492  38.4432481  74.1099430  22.1009518
  37.0934032  74.2891640  22.2586366  37.7839141  74.5112511  21.9630659
  34.7389688  66.9962165  21.2785866  35.4935656  67.3775204  21.4921329
  34.1460301  67.4473309  21.7332563  34.7626402  67.1190993  21.3768744
  45.7848342  66.9627402  21.2149471  46.3506374  67.6220611  21.1308014
  45.1376245  67.3077100  21.6865873  45.7727098  67.1109343  21.2722227
  36.0587915  68.1670727  26.6525981  35.5368668  68.3071018  27.3377846
  36.4461935  67.4081391  26.8428099  36.0391616  68.0756250  26.7827058
  33.0479099  58.2176535  20.7220936  32.7603895  57.8477806  19.9852883
  33.7349567  58.6871391  20.4604641  33.1067996  58.2323505  20.5736012
  42.2554920  69.9066186  20.6386550  42.0141596  69.1734046  20.2313615
  42.4356253  70.4553043  19.9852883  42.2462544  69.8788577  20.4816773
  37.4854240  65.1974746  22.0507472  37.2897023  65.8049480  21.4567775
  37.7088586  64.5042690  21.5699146  37.4888881  65.1852271  21.8923553
  35.8832770  62.0829484  22.1688341  36.6055422  62.2470642  21.7092147
  35.4040763  62.8039148  22.0627681  35.9196501  62.2127713  22.0853955
  30.6207294  58.9957748  21.5706217  30.7223430  59.7983909  21.8987193
  31.4163180  58.7945084  21.2729298  30.7535199  59.0843647  21.5741573
  41.5909618  60.9472016  23.4571827  41.3444332  60.8667767  24.2908616
  41.9194741  60.1625484  23.2634354  41.6030862  60.8198281  23.5519350
  45.4857667  67.6555375  27.2458608  45.3472026  68.3536421  27.7507351
  44.7057665  67.5004032  26.8894790  45.3500894  67.7355542  27.2684882
  43.8235752  63.9551751  33.4980990  43.8183790  63.0831567  33.5023416
  44.5296746  64.1539920  33.0250446  43.9280756  63.8555625  33.4288025
  36.6234400  71.8731507  29.7355837  36.7723964  71.3134422  29.0829241
  37.4034402  71.9523508  30.1188356  36.7608494  71.8017072  29.6952786
  46.9811040  67.0133629  18.0075107  46.6017848  66.2270767  18.0004397
  46.3177285  67.5620486  17.8646752  46.8269514  66.9778453  17.9855904
  39.1487701  72.0446149  31.0140328  39.0731372  71.3754960  31.5691116
  39.0777560  72.7463938  31.5280994  39.1268308  72.0491057  31.1717176
  39.8057948  70.5647148  21.8463934  40.5707839  70.2956792  21.5246598
  39.7036038  70.0797159  22.5633996  39.9039443  70.4536713  21.9043761
  42.3276608  67.5959332  13.8263883  43.0949593  67.6559457  13.4169735
  41.8807917  67.0239774  13.3420202  42.3750036  67.5195908  13.6941593
  43.2254404  66.4013988  26.1116615  42.5499406  66.1699220  26.6130002
  43.2346780  65.7935171  25.4858720  43.1272908  66.2772913  26.0932768
  45.2271138  69.2579120  18.3426793  45.3090976  70.0646107  18.0188244
  45.7120881  69.2775080  19.0667567  45.3108296  69.3799783  18.4013692
  39.0367642  63.9363956  27.0096871  38.6129891  64.1368455  26.2735890
  38.8612497  63.0892804  27.1221171  38.9478522  63.8412738  26.9170561
  38.5379335  75.4514469  29.4718329  39.0275265  74.7525258  29.2893993
  37.9663567  75.1538339  30.0594386  38.5263865  75.3040693  29.5319369
  34.3250087  64.4316008  22.4424844  34.4814706  64.3662810  23.2980836
  34.6650680  65.2064560  22.2303523  34.3983322  64.5365206  22.5379438
  40.8629231  63.8073891  21.3118207  41.4044777  63.3044272  21.7756828
  41.1775790  63.7539086  20.5007692  40.9893628  63.7253312  21.2602019
  44.7346339  68.0176539  38.4245119  45.5481204  67.7461687  38.5850252
  44.5741305  67.7184079  37.6205315  44.8316287  67.9331465  38.3290525
  39.0315681  69.1991243  18.5958235  39.1008501  68.3405781  18.7351235
  39.8104136  69.4163124  18.2677260  39.1568531  69.1044107  18.5675392
  43.4223169  71.6228944  22.8094728  43.0302960  71.3195659  22.0917594
  43.5776241  72.4598034  22.6199682  43.3876758  71.7012781  22.6751225
  30.8984348  61.6150958  22.7585611  31.2783313  62.0335503  22.0945878
  30.3239713  62.1964414  23.0654454  30.8695673  61.7628817  22.7062352
  43.5862843  68.1878933  22.7500759  43.2277498  68.3593576  23.5264791
  43.1001554  68.6492139  22.1928757  43.4621540  68.2817904  22.7826028
  38.3751209  63.8678098  15.2900993  38.6643734  64.6442981  15.5644568
  38.4623008  63.3566830  15.9915493  38.4305465  63.9070017  15.4343491
  44.7467583  69.0782829  33.6967960  45.3847303  68.5843025  33.3630416
  44.1041674  69.0060229  33.1120187  44.7461809  68.9941837  33.5610315
  44.8021839  69.7702637  30.3373317  45.5914217  69.4191702  30.4575398
  44.9765437  70.5839026  30.0749950  44.9442121  69.8388494  30.3161184
  32.0190717  60.8030900  25.2185856  31.6247414  60.8773912  24.4435966
  31.4630834  61.1888846  25.7694218  31.8793529  60.8712674  25.1853516
  37.4097912  58.4193282  21.2043405  37.6857646  57.7012194  20.7920972
  38.0096581  59.0178202  20.9964511  37.5391176  58.4013653  21.1124166
  36.4150166  68.3242483  31.3470801  36.3070521  68.3344545  32.2132859
  36.6245947  69.1497263  31.1575754  36.4300277  68.4483558  31.4474892
  44.1913474  71.0264437  26.2424763  43.9933162  71.5155251  25.5480974
  43.5701185  71.2305678  26.8208896  44.0701038  71.1280975  26.2247986
  38.2521452  62.7949334  20.5835007  38.9963497  63.1823610  20.8217957
  38.3982148  61.9506759  20.7475495  38.3832037  62.7279806  20.6428977
  46.1087276  64.5928589  31.7770011  46.8321475  64.1401115  31.5981031
  45.8437238  64.8733255  30.9942339  46.1768549  64.5679558  31.6348726
  35.1615893  57.5313881  14.5695575  34.8128697  58.1833606  15.0327125
  34.6812339  57.5170994  13.8419446  35.0386137  57.6256935  14.5306667
  31.6899820  67.2489223  29.9526655  31.1599744  66.5581662  30.0021629
  31.9624913  67.2399408  29.1239363  31.6524542  67.1456355  29.8374071
  42.7219910  67.8314925  18.6764337  43.4454109  68.2973038  18.5328910
  42.2820501  67.8988535  17.9261934  42.7635602  67.9098762  18.5449119
  41.8906065  64.6912467  29.9265026  41.2763058  64.1470518  30.2213661
  42.4073350  64.1776704  29.4470842  41.8761728  64.5348876  29.8989255
  41.1302362  65.7616737  27.6609325  40.7029970  65.1366456  27.2274760
  41.1227307  65.4791659  28.4868332  41.0661504  65.6269518  27.7189152
  26.9695662  63.9216987  27.3095003  26.8639111  63.8763831  26.4447087
  26.2195882  64.2670767  27.5909288  26.8431265  63.9657895  27.2232333
  37.9219007  64.9317050  35.3577898  37.0714638  65.0688764  35.4935543
  38.0847135  64.1980828  35.8025599  37.8202871  64.8431151  35.4433497
  35.5339802  60.1572412  20.0821620  35.6742763  60.6544876  20.7850261
  36.0322334  59.4558706  20.2235833  35.6280882  60.1274390  20.2073199
  35.5640024  61.0239523  17.4114197  36.1985103  61.6199948  17.3463658
  35.6465635  60.7242980  18.2260067  35.6696575  61.0680431  17.5217283
  37.1419007  56.9553498  17.3859639  37.4634848  56.4756580  16.7318901
  37.4045951  57.7653144  17.1950450  37.2285032  57.0043396  17.2615131
  40.3715980  67.9772372  30.9058455  39.8641071  68.5308219  31.3499085
  40.0742626  68.0380662  30.0877229  40.2520865  68.0678683  30.8506911
  32.0693012  63.2207363  20.6803743  32.5785241  63.8171871  21.0615048
  32.5427284  62.9533337  19.9980162  32.2136388  63.2693179  20.6358265
  42.9823760  71.8935630  18.8362398  42.2653070  71.7196492  18.3709636
  43.6330497  71.6588202  18.3037884  42.9725610  71.8331422  18.6891616
  39.6158465  72.9096931  27.8115462  39.3924119  72.1515760  28.1799488
  39.1268308  72.9394952  27.0895901  39.5101914  72.8019155  27.7592203
  34.4283544  59.8563622  23.5476923  33.7095533  60.2727754  23.8149787
  34.7995906  60.4217861  22.9968561  34.3775475  60.0012903  23.5059730
  41.6729454  67.0778663  35.3627395  41.6325309  66.4328340  34.7772551
  42.4852772  67.0215280  35.6752807  41.7872608  66.9737630  35.3224344
  38.2636922  73.1297389  25.2652546  37.8497320  72.4671519  24.8756388
  38.9484296  73.2775247  24.7448240  38.3035293  73.0538047  25.1309043
  41.6302216  72.2887474  26.0176163  41.2318499  72.3989744  25.2496983
  41.0153435  72.4969540  26.6002723  41.4801105  72.3361042  25.9907462
  40.2030118  58.8961622  18.8850303  39.6094957  59.2178618  18.3334870
  40.2405396  58.0502717  18.6771409  40.1204507  58.8185950  18.7733074
  49.3644059  66.8639441  19.4019253  49.7477664  67.6130797  19.6317350
  48.5688172  67.1105260  19.1431243  49.3037841  67.0109134  19.3976827
  29.1074942  62.0560040  29.8268005  28.5601662  61.3860686  29.9448873
  29.8967320  61.6889888  29.8911472  29.1427126  61.9025027  29.8536705
  38.1759350  59.5358872  16.9779632  38.5558315  59.5538502  16.1930747
  37.4351946  59.9812861  16.8570480  38.1228188  59.6040647  16.8443201
  27.8661912  61.2680848  26.9814028  27.6883673  60.8157457  27.7068943
  27.5780934  62.0707009  27.1652505  27.7974865  61.3203406  27.1157531
  43.5285493  62.5238565  26.2191418  44.0239158  61.8061560  26.1795438
  42.7185268  62.2209363  26.1045905  43.4829386  62.3736212  26.1965144
  38.9744104  66.3736379  18.3688422  38.1655427  66.0503052  18.3221732
  39.4819013  65.6669601  18.3016671  38.9293771  66.2217695  18.3518717
  29.6034382  63.8008572  24.0935787  28.7379901  63.7894262  23.9818558
  29.7033197  63.6138795  24.9406926  29.4908548  63.7714633  24.2024731
  35.2291391  73.5706470  27.6665892  35.5437950  74.3842859  27.6743674
  35.6384805  73.1856689  28.3348051  35.3359489  73.6335173  27.7669984
  42.1815911  68.9876517  25.2369704  42.6527089  69.7016780  25.4059689
  42.5176090  68.3875267  25.7729574  42.3011026  69.0047981  25.3402080
  44.2692896  70.5977830  37.4161776  44.3789861  69.8086391  37.7718523
  44.5983792  70.5083767  36.6136114  44.3345301  70.4683683  37.3504167
  38.1678521  55.7620401  19.6607264  38.9894215  55.9318713  19.4188959
  37.7048172  55.9167662  18.9373562  38.2209683  55.8102134  19.5178908
  32.5704412  67.5179579  27.3144501  33.1749269  67.4775413  26.6858321
  32.3631724  68.3650731  27.3448556  32.6293309  67.6367581  27.2260617
  27.8055694  66.5014196  27.1843424  27.7079972  65.6910468  27.4933480
  28.5884564  66.4805990  26.7989692  27.9071830  66.3781286  27.1730287
  58.8561834  77.4410376  21.4949614  58.8255838  78.2955012  21.6667884
  59.4543183  77.1405668  22.0535758  58.9398992  77.5226872  21.6024417
  52.0561519  76.5286027  26.2502545  51.1999414  76.6894525  26.3011662
  52.1029173  75.6578091  26.2707606  51.9360630  76.4236829  26.2608611
  55.3655235  82.7972552  35.8563001  56.0722003  82.3024583  35.9849935
  55.5543171  83.2381634  35.1265659  55.4983141  82.7890903  35.7672046
  54.9013340  78.5878071  28.8934196  55.4469300  79.2663157  28.9528166
  54.8430216  78.4465531  28.0335778  54.9729254  78.6670072  28.7746257
  43.5142547  74.2673154  26.8039190  42.8947578  73.6765801  26.6349205
  43.4126410  74.8584589  26.1703513  43.4080222  74.2677236  26.6844180
  50.6110442  76.0072696  21.1371653  51.3090607  76.1860823  21.6293117
  50.9262775  75.4843035  20.5142043  50.7605779  75.9566468  21.1173663
  43.2411680  77.8125436  29.0482759  43.1170376  78.3987881  29.6832578
  43.8929964  77.3185631  29.3495034  43.3185329  77.8264240  29.1868689
  48.2670021  80.9887153  28.3270270  48.9119023  80.4959596  28.0081219
  48.5071798  81.1311939  29.1536349  48.3980606  80.9364595  28.4019804
  50.8056112  83.8342058  27.9777163  51.0879355  83.0393464  27.7563919
  51.5342272  84.3122646  27.9982224  50.9545676  83.7876655  27.9480178
  48.7837306  71.3765092  25.2192928  48.4540636  71.8276236  24.5496627
  48.1082308  71.2981256  25.7665934  48.6347742  71.4316228  25.2016151
  55.9913714  67.3650615  23.4642539  55.6767155  68.0554094  23.8962961
  55.4740655  67.3095397  22.7628039  55.8678184  67.4585504  23.4239488
  46.9893260  69.4377381  20.7015876  47.7439228  69.8055698  20.4632926
  46.8120794  69.8116935  21.4695055  47.0747738  69.5475569  20.7800764
  60.2828159  75.5871821  28.7463415  59.4456580  75.6574008  28.9811009
  60.2516389  75.5896316  27.8737717  60.1546441  75.5982048  28.6522963
  46.6792888  77.7304857  34.4611784  46.8513391  77.6210751  35.3097065
  47.2162245  78.3759262  34.2242976  46.7837892  77.8096859  34.5516880
  45.3450324  71.8447700  17.3993989  45.1625898  72.0619581  16.5734981
  46.2075937  71.9586712  17.4552603  45.4454914  71.8937598  17.2848476
  51.0250044  68.8474110  20.4343012  51.7536204  68.6690065  19.9881169
  51.1144937  69.6892190  20.6450191  51.1456706  68.9457989  20.3996530
  55.0058344  79.7827498  24.3375306  55.7615859  80.2159012  24.3764215
  55.1120669  79.1332267  24.9109942  55.1328515  79.7504982  24.4273332
  40.9854605  80.3236788  29.2964704  40.7193020  79.5075905  29.4555694
  40.9993169  80.3689943  28.4260219  40.9479327  80.2093693  29.1918186
  57.9635998  70.6514603  27.3307137  58.6061907  70.7212707  27.9169053
  58.2159019  69.9843826  26.8286679  58.0958130  70.5640951  27.3434417
  44.8912351  75.1221872  15.9116462  44.1770529  74.8360052  16.3238894
  45.3756320  75.4618498  16.5522849  44.8571715  75.1303522  16.0672097
  45.7353211  73.8615166  31.9431711  45.0425008  73.3912146  32.1892443
  46.3513538  73.6353471  32.5173418  45.7237741  73.7582298  32.0640864
  41.3948018  81.1095567  26.5776448  41.2123591  81.0842453  25.7248740
  42.1297687  81.5794505  26.6165357  41.4762082  81.1756930  26.4574366
  44.4593770  77.8280570  33.0858557  45.1833742  77.8133601  33.5723451
  44.5609906  78.5375925  32.5880525  44.5811979  77.9305273  33.0837343
  51.8338719  81.3079655  37.9507504  51.0411700  81.6223167  38.1360123
  51.9487646  81.5231123  37.1128288  51.7334130  81.3863491  37.8545838
  54.5070038  78.0313646  22.2402519  54.6016893  78.7702940  22.6942145
  53.8828882  77.6031121  22.6737084  54.4279068  78.0774967  22.3710667
  52.7622512  81.2099859  32.8892800  53.3361374  80.5727103  33.0441364
  52.6837316  81.2103941  32.0202458  52.8355747  81.1164970  32.7839211
  41.3618929  77.9889068  26.7275514  41.9392431  77.8525519  27.3667760
  40.6632990  77.5324852  26.9821099  41.3439950  77.9011334  26.8597804
  48.1186231  79.6423124  24.9413998  47.8605475  78.8094859  24.9145297
  48.1734714  79.8680737  24.1006498  48.0886009  79.5520895  24.8134134
  53.1987281  71.7451574  25.0418090  52.4943608  71.2560760  25.2002009
  53.2472255  71.7574049  24.1706535  53.1017332  71.6741222  24.9357430
  47.0920943  77.1960886  25.4278892  46.5170534  77.3553055  26.0642853
  46.7156619  76.5596295  24.9647343  46.9523755  77.1258699  25.4533451
  50.7594231  75.6684235  30.2871271  50.3708664  75.2438453  29.6323462
  50.0948930  75.9166385  30.7948297  50.6041159  75.6422957  30.2659139
  60.4017501  75.4259240  23.0619101  60.1454065  74.6139182  22.8716984
  61.2446815  75.4336807  22.8349288  60.4883526  75.3071238  23.0003918
  36.8377762  76.8400961  23.4423333  36.9238014  76.4632829  24.2236863
  37.4653559  76.4661407  22.9643291  36.9434313  76.7286443  23.4868810
  54.5820593  69.3658864  27.7995255  54.9631105  68.6837035  28.1863129
  53.7783877  69.0768466  27.6170920  54.5197055  69.2225913  27.8299311
  47.7341078  83.3704357  23.6120390  48.3715025  83.1316105  24.1572183
  48.1596150  83.5741516  22.8773550  47.8917244  83.3655368  23.5837547
  48.3743893  78.5906647  17.9495279  48.7589046  78.3714354  18.7011824
  48.1255513  79.4169593  18.0796356  48.3945966  78.6804793  18.0796356
  48.5412433  71.8713062  37.6657864  48.2265875  72.6412625  37.4027426
  48.2202366  71.3083318  37.0810090  48.4471353  71.9023331  37.5399213
  50.1162550  83.8476780  25.2914176  50.1901558  83.6851952  26.1456026
  50.9332056  84.0366970  25.0474658  50.2478909  83.8513522  25.3812202
  46.0944330  70.2603584  23.2804060  45.2266756  70.3326183  23.3461669
  46.3819535  71.0625663  23.4692035  46.0084078  70.3897731  23.3178826
  55.2177219  70.4081443  31.6115382  55.9630811  70.2191254  31.1978807
  54.8014524  70.9339681  31.0529238  55.2662193  70.4583589  31.4679955
  62.5939490  77.7790672  26.5620887  63.1447412  77.1458741  26.8017979
  62.5783605  78.3106065  27.2536391  62.6724686  77.7639620  26.6999745
  49.2461881  81.6129269  31.1080780  48.7473575  82.3245037  31.1865668
  50.0562105  81.9329936  31.0698942  49.2917988  81.7656118  31.1137349
  45.5089998  80.8752222  25.3543501  45.2203247  80.2489693  25.8889228
  46.3773347  80.8172509  25.4208181  45.5950250  80.7739766  25.4434456
  56.2967896  76.0187005  25.6725483  55.9532662  75.2977341  26.0232732
  56.3960939  75.8100857  24.8303841  56.2609939  75.8811209  25.5997163
  45.7122272  82.5147473  21.2785866  46.4668240  82.8960512  21.4921329
  45.1192885  82.9658617  21.7332563  45.7358985  82.6376300  21.3768744
  48.1728939  74.4710313  36.4043078  47.3628715  74.7768093  36.2932921
  48.6503626  75.1915896  36.5195662  48.1232418  74.6224915  36.4050149
  47.0320498  83.6856034  26.6525981  46.5101252  83.8256326  27.3377846
  47.4194519  82.9266699  26.8428099  47.0124199  83.5941558  26.7827058
  44.0211682  73.7361843  20.7220936  43.7336478  73.3663114  19.9852883
  44.7082151  74.2056699  20.4604641  44.0800580  73.7508813  20.5736012
  48.4586824  80.7160054  22.0507472  48.2629607  81.3234788  21.4567775
  48.6821170  80.0227998  21.5699146  48.4621465  80.7037579  21.8923553
  46.8565354  77.6014791  22.1688341  47.5788006  77.7655950  21.7092147
  46.3773347  78.3224456  22.0627681  46.8929085  77.7313021  22.0853955
  54.8158862  73.9378590  27.5485026  53.9769962  73.9639869  27.3123289
  54.8863229  74.5849326  28.1290372  54.7027255  74.0374716  27.5994143
  44.5072971  80.0072864  31.2742481  45.0194068  80.2857117  30.6251240
  44.2209313  80.7462158  31.6405294  44.5407834  80.1575218  31.2332359
  53.2628140  70.8363967  22.2812642  53.9654493  70.6371716  21.8032600
  52.9972329  70.0639910  22.5881485  53.3274772  70.6926933  22.2558083
  58.6916385  79.1446577  24.8346267  58.6050360  79.3002003  25.6881046
  58.2366865  79.7884653  24.4605673  58.6119642  79.2622332  24.9053374
  41.5939877  74.5143056  21.5706217  41.6956014  75.3169217  21.8987193
  42.3895764  74.3130392  21.2729298  41.7267783  74.6028954  21.5741573
  48.0256696  72.0999252  31.3343522  47.8339893  72.1154387  32.1842946
  48.8755292  72.2962927  31.3110177  48.1232418  72.1313604  31.4566817
  42.4103609  74.6290234  29.3127339  42.2689101  73.7774175  29.4371847
  42.6944173  74.6718895  28.4889545  42.4311455  74.5089984  29.2094963
  52.5642202  76.4657324  23.4571827  52.3176916  76.3853075  24.2908616
  52.8927325  75.6810792  23.2634354  52.5763445  76.3383589  23.5519350
  54.7968336  79.4737059  33.4980990  54.7916374  78.6016875  33.5023416
  55.5029329  79.6725228  33.0250446  54.9013340  79.3740933  33.4288025
  48.5239229  79.2014043  32.8694810  48.6682605  79.7815251  32.2337920
  48.8714877  79.5790339  33.5744665  48.5966690  79.3434747  32.8793805
  50.6959146  78.4004211  30.6519942  49.9482460  78.5935225  30.2468220
  50.8500671  77.5749431  30.4144063  50.6081574  78.3069322  30.5565348
  50.9360923  72.2954762  31.5415345  51.3933537  73.0278736  31.6688138
  51.0117252  71.8721227  32.3002601  51.0151893  72.3412000  31.6716422
  43.1793914  72.5420582  32.6304789  42.6436104  71.9300940  32.9465556
  43.2411679  73.1168717  33.2838456  43.1089547  72.5367509  32.7740216
  55.4088249  65.4744637  25.4109188  55.5271817  65.9321100  24.6776491
  55.2350425  64.6689898  25.1245406  55.4007420  65.4238409  25.2610122
  48.8143301  74.2856866  28.3857169  48.0239376  74.1048326  28.7074505
  49.2103924  73.5083818  28.3687464  48.7560177  74.1444327  28.4309718
  54.1986987  81.9199296  26.1116615  53.5231989  81.6884528  26.6130002
  54.2079364  81.3120479  25.4858720  54.1005492  81.7958221  26.0932768
  51.3281131  76.7617125  32.8680668  51.2640273  77.6227081  32.7400805
  51.4678319  76.4449118  32.0676220  51.3396601  76.8417291  32.7308881
  50.0100225  79.4549264  27.0096871  49.5862474  79.6553763  26.2735890
  49.8345080  78.6078112  27.1221171  49.9211106  79.3598046  26.9170561
  45.2982670  79.9501316  22.4424844  45.4547289  79.8848118  23.2980836
  45.6383263  80.7249868  22.2303523  45.3715905  80.0550514  22.5379438
  51.8361815  79.3259199  21.3118207  52.3777360  78.8229580  21.7756828
  52.1508374  79.2724394  20.5007692  51.9626212  79.2438620  21.2602019
  52.9851084  74.2195504  31.3640507  53.1993054  73.5806418  30.8103861
  52.3684983  74.6641328  30.9348369  52.9256414  74.1905647  31.2190939
  41.8716932  77.1336266  22.7585611  42.2515897  77.5520811  22.0945878
  41.2972297  77.7149722  23.0654454  41.8428257  77.2814125  22.7062352
  55.1490172  75.8284569  32.3023815  54.3366854  75.5210459  32.3836987
  55.6080107  75.3483569  32.8666527  55.0970557  75.7121061  32.3978409
  52.2443680  77.2344640  37.0852517  52.7143311  77.8586757  37.4720391
  52.2905560  76.5661616  37.6445732  52.3211556  77.2279321  37.2252588
  49.4014953  69.3401668  27.8101321  48.8853442  68.6481859  27.9352900
  48.8408882  70.0072445  27.7563919  49.2421467  69.3364925  27.8207387
  51.4707187  69.8794628  29.6394173  51.0838940  69.9043659  30.4207703
  50.9840124  69.3136306  29.1868690  51.3419696  69.7990379  29.6882077
  57.4457166  76.4457283  28.2633875  57.0184774  76.3583631  27.5081975
  56.8083219  76.5535058  28.8488719  57.2886774  76.4489943  28.2379317
  50.9378243  71.5532808  34.2030845  51.7651673  71.2817957  34.2589459
  50.9586090  72.3493650  34.5594663  51.0631094  71.6312562  34.2646028
  45.5147733  78.6996671  27.3901105  44.6735740  78.6000545  27.5979999
  45.7237741  79.4692151  27.7415426  45.4212426  78.7988714  27.4728420
  42.9923300  76.3216208  25.2185856  42.5979998  76.3959220  24.4435966
  42.4363417  76.7074154  25.7694218  42.8526113  76.3897982  25.1853516
  54.6288247  69.2997502  24.8989735  54.8337840  69.2319810  25.7446732
  54.3014671  70.1056323  24.8310912  54.6103495  69.4083442  25.0149390
  49.3264398  76.6278070  26.6398703  49.0227536  76.0734058  27.2409111
  48.6243819  76.8070280  26.1526737  49.1780608  76.5722852  26.6568409
  48.3830495  73.9378590  21.2043405  48.6590230  73.2197502  20.7920972
  48.9829165  74.5363510  20.9964511  48.5123760  73.9198961  21.1124166
  57.8821935  69.8529266  24.3792500  57.2696248  70.3399668  24.7646232
  57.9786110  69.1772757  24.9230152  57.8059832  69.8247575  24.5171359
  51.8841016  71.6092107  19.4790000  52.3384762  71.7802668  20.2037844
  52.3581062  70.9960218  19.0787775  52.0209336  71.5442992  19.5263761
  45.4056541  81.0940433  28.8092738  44.8144474  81.7349931  28.7795753
  46.1677565  81.5178050  28.7824038  45.4304802  81.2516272  28.8007885
  45.8017164  72.2542431  29.4760756  46.2618646  72.3281360  30.2135880
  45.8473271  73.0523685  29.1260577  45.8767719  72.3836578  29.5333512
  47.4500514  72.9209126  34.0432783  47.0586079  72.2742473  34.4788561
  47.6186376  73.5120561  34.6627038  47.4171424  72.9123394  34.1995489
  49.2254036  78.3134642  20.5835007  49.9696081  78.7008918  20.8217957
  49.3714732  77.4692067  20.7475495  49.3564621  78.2465114  20.6428977
  51.1433611  70.1084900  25.6166868  50.2969656  70.2807708  25.4908218
  51.1404744  69.3034244  25.9532697  51.0180761  70.0145929  25.6477995
  52.2131912  73.8860115  26.4828926  51.7391866  73.3601877  26.9934237
  52.5850047  73.3389588  25.9143788  52.1981801  73.7276111  26.4744073
  42.5904942  75.8831622  31.8512472  43.4530555  75.7827331  31.7649802
  42.2596725  75.3026331  31.2898044  42.6690138  75.7823248  31.7557878
  58.4768642  78.9462491  27.8935707  58.2366865  78.1068906  27.8978133
  58.9560649  79.0262657  28.6176480  58.5120826  78.8343890  28.0010509
  54.1415411  74.7796669  19.5454680  53.6138430  74.8625413  18.8560389
  54.6011119  75.5214541  19.5419325  54.1317262  74.9017332  19.4429375
  60.4773829  75.7263948  25.8464966  60.2383599  75.6859782  25.0085751
  60.6407730  76.5735100  25.9730687  60.4664133  75.8456033  25.7418448
  57.0819859  80.1113897  31.7770011  57.8054058  79.6586423  31.5981031
  56.8169822  80.3918563  30.9942339  57.1501133  80.0864866  31.6348726
  45.9506728  74.7074071  28.5122890  45.3259798  74.7192463  27.9048843
  45.6152323  75.1834246  29.1614130  45.8092220  74.7792588  28.5179459
  46.1348476  73.0499189  14.5695575  45.7861281  73.7018914  15.0327125
  45.6544922  73.0356302  13.8419446  46.0118720  73.1442243  14.5306667
  52.8638649  80.2097775  29.9265026  52.2495642  79.6655826  30.2213661
  53.3805934  79.6962012  29.4470842  52.8494311  80.0534184  29.8989255
  52.1034946  81.2802045  27.6609325  51.6762554  80.6551764  27.2274760
  52.0959890  80.9976967  28.4868332  52.0394087  81.1454826  27.7189152
  45.2197473  76.3167218  30.7297759  45.3790960  75.5610542  31.1349481
  45.0390367  76.8658158  31.3838496  45.2162832  76.2861032  30.8860465
  53.1617776  68.4828454  31.2848548  52.6658337  68.6792128  30.5940115
  53.9186838  68.8821122  31.1137350  53.2004601  68.5706188  31.1568685
  50.4320656  72.1570800  27.8751859  50.4563143  71.6230912  27.1864639
  50.6832129  71.6488109  28.5377449  50.4730574  72.0031704  27.8716503
  37.9428246  79.4402295  27.3095003  37.8371695  79.3949139  26.4447087
  37.1928465  79.7856075  27.5909288  37.8163848  79.4843203  27.2232333
  46.7121978  70.8841618  27.2557603  46.7520350  71.3850825  27.9692310
  45.8871643  70.9752012  26.9863526  46.5961504  70.9723434  27.3208141
  48.8951591  80.4502358  35.3577898  48.0447221  80.5874072  35.4935543
  49.0579719  79.7166136  35.8025599  48.7935454  80.3616459  35.4433497
  48.1336341  77.4002128  29.5531502  47.3028271  77.5675946  29.3466750
  48.0787858  77.0238079  30.3380387  48.0025756  77.3691859  29.6380030
  45.9420125  70.8911021  35.1887913  46.5672828  70.3473154  35.4617345
  45.4870604  70.4105938  34.6195703  45.9668385  70.7400502  35.1449507
  46.5072385  75.6757719  20.0821620  46.6475346  76.1730184  20.7850261
  47.0054918  74.9744014  20.2235833  46.6013466  75.6459698  20.2073199
  46.5372608  76.5424830  17.4114197  47.1717687  77.1385256  17.3463658
  46.6198218  76.2428288  18.2260067  46.6429159  76.5865739  17.5217283
  59.5155173  79.0740308  30.2800561  60.1073014  79.7137559  30.3118759
  59.9514168  78.3763345  30.5692628  59.6673605  79.0658658  30.3281393
  48.1151590  72.4738806  17.3859639  48.4367431  71.9941888  16.7318901
  48.3778534  73.2838452  17.1950450  48.2017616  72.5228704  17.2615131
  51.3448563  83.4957680  30.9058455  50.8373654  84.0493527  31.3499085
  51.0475209  83.5565970  30.0877229  51.2253448  83.5863991  30.8506911
  53.5110745  71.8611000  29.7483118  53.9365817  71.4083526  29.1366644
  52.8967738  71.3071071  30.0247905  53.4839391  71.7124976  29.6988143
  43.0425595  78.7392671  20.6803743  43.5517825  79.3357179  21.0615048
  43.5159868  78.4718645  19.9980162  43.1868971  78.7878487  20.6358265
  51.9504968  68.3326100  23.1573695  51.3073286  68.1823746  23.7258833
  51.6104375  68.0868445  22.3922799  51.8050046  68.2738222  23.1276710
  56.5404315  76.2885526  22.5803703  55.8695505  76.8315229  22.4516769
  57.2344065  76.7580382  22.3385398  56.5433182  76.4383798  22.5259231
  56.7032442  72.7441410  25.4894077  57.0560052  72.3171133  26.1639875
  55.8447244  72.6592254  25.6195153  56.6281887  72.6686151  25.6089087
  45.4016127  75.3748930  23.5476923  44.6828116  75.7913062  23.8149787
  45.7728489  75.9403169  22.9968561  45.3508059  75.5198211  23.5059730
  54.7015708  76.0076779  29.4378919  54.6813635  75.8260074  30.2913698
  54.7494909  76.8788797  29.4138502  54.7050349  76.1093317  29.5602214
  52.6462038  82.5963971  35.3627395  52.6057893  81.9513648  34.7772551
  53.4585356  82.5400588  35.6752807  52.7605191  82.4922938  35.3224344
  51.1762702  74.4146930  18.8850303  50.5827541  74.7363926  18.3334870
  51.2137979  73.5688025  18.6771409  51.0937091  74.3371258  18.7733074
  58.1356502  67.8659822  26.4178389  57.6287367  67.1588961  26.3499567
  58.9323936  67.5353011  26.5479466  58.1783741  67.7132973  26.4277384
  54.0520518  74.3726434  22.3152053  53.8234211  74.3959136  21.4730411
  54.3118594  73.5483901  22.4347063  54.0566706  74.2542514  22.2077250
  48.3339747  76.2260907  31.9177153  47.8218650  75.6182090  32.2762184
  48.1619243  76.9417500  32.3851129  48.2329384  76.2424207  32.0393377
  43.1805461  74.6698483  34.5679515  43.0108052  75.3299857  34.0227721
  42.7371411  74.8805044  35.2892004  43.0904795  74.7984465  34.5941144
  47.1065281  72.9102980  23.6106248  47.5822647  73.2720060  22.9756430
  46.6053880  73.5659448  23.8906391  47.1030640  73.0597169  23.5582989
  52.2108817  74.1485152  34.3579409  52.7680247  73.9198961  33.7257874
  51.8869882  74.9090817  34.0814621  52.2455227  74.2268989  34.2235906
  40.0807526  77.5745348  29.8268005  39.5334245  76.9045994  29.9448873
  40.8699904  77.2075196  29.8911472  40.1159709  77.4210335  29.8536705
  49.9291934  77.2352805  35.3231416  50.6803261  77.5504482  35.6370970
  50.1214511  77.0331976  34.4965337  50.0683348  77.2520187  35.2474811
  49.1491934  75.0544180  16.9779632  49.5290899  75.0723809  16.1930747
  48.4084530  75.4998169  16.8570480  49.0960772  75.1225955  16.8443201
  56.7777224  73.3626371  22.5655211  56.7771451  73.2075028  23.4239487
  56.5733404  74.2089359  22.5096597  56.7477002  73.4646992  22.6843150
  38.8394495  76.7866156  26.9814028  38.6616256  76.3342765  27.7068943
  38.5513517  77.5892317  27.1652505  38.7707448  76.8388714  27.1157531
  54.5018076  78.0423873  26.2191418  54.9971742  77.3246868  26.1795438
  53.6917852  77.7394671  26.1045905  54.4561970  77.8921520  26.1965144
  40.5766965  79.3193880  24.0935787  39.7112485  79.3079570  23.9818558
  40.6765781  79.1324103  24.9406926  40.4641132  79.2899941  24.2024731
  56.5669895  80.7927561  28.9068547  56.9924967  80.2701983  28.3538972
  56.2026815  81.3908398  28.3857170  56.5756498  80.8037788  28.7477556
  53.1548495  84.5061825  25.2369704  53.6259673  85.2202088  25.4059689
  53.4908673  83.9060575  25.7729574  53.2743610  84.5233289  25.3402080
  50.0717990  69.2789296  32.1927799  50.2045895  68.4820289  32.5208775
  50.4563142  69.8055699  32.7726075  50.1474318  69.2389212  32.3271302
  53.7922441  84.2979759  31.9997397  53.2443387  83.6737643  31.7317462
  54.2535470  84.4874031  31.2841476  53.7789650  84.2338809  31.8547828
  56.6016305  72.3665114  29.3848589  56.0179294  72.8674320  28.9726156
  56.9220599  71.8594670  28.7512912  56.5629481  72.3656949  29.2307096
  49.1411104  71.2805708  19.6607264  49.9626799  71.4504021  19.4188959
  48.6780755  71.4352969  18.9373562  49.1942267  71.3287441  19.5178908
  47.7306436  69.2748471  30.4405693  48.2750849  68.9339597  31.0310034
  47.7843372  70.1333932  30.5826977  47.8195556  69.3503730  30.5487566
  22.1408309  13.1794760  22.7903048  22.8475076  12.6846790  22.9189982
  22.3296244  13.6203841  22.0605706  22.2736214  13.1713110  22.7012093
  19.2800603  16.6022296  20.6817123  19.3683949  16.4148437  21.5295333
  19.7090316  15.9559726  20.2821970  19.3562705  16.4785304  20.7488874
  16.8471063  15.8853456  19.6634785  16.2841898  15.4726066  20.1874446
  17.6092086  15.8106362  20.0827928  16.8765511  15.8130857  19.8027786
  13.4545961   8.1127064  21.3951830  13.6266465   8.0032959  22.2437112
  13.9915318   8.7581470  21.1583023  13.5590965   8.1919066  21.4856927
  19.3920662  16.0331315  23.3460907  20.1761079  16.1462163  23.7116649
  19.1917257  15.2072452  23.5419592  19.4786688  15.9278035  23.4295293
  19.5491056  17.9441417  16.9927362  18.7506301  17.7040917  17.2501231
  19.9977067  17.9955810  17.7394410  19.4965667  17.9163808  17.1412286
  18.6091792  11.6901862  24.8847550  17.8164773  12.0045374  25.0700170
  18.7240720  11.9053331  24.0468335  18.5087203  11.7685699  24.7885885
  19.5375585  11.5922066  19.8232847  20.1114447  10.9549310  19.9781411
  19.4590389  11.5926148  18.9542505  19.6108820  11.4987177  19.7179258
  24.8595733  12.9631044  19.8317700  24.6234371  12.1319108  19.7129761
  25.5038962  12.9116651  20.4172544  24.9190404  12.8328731  19.9003594
  25.8832154  12.7475492  15.8945995  25.5777971  13.4803549  16.2559310
  25.1638369  12.3413422  15.6138781  25.7319496  12.7957225  15.9059132
  31.5833946   9.3868493  15.2214339  31.5158446   9.4064452  14.3516926
  31.5689608  10.2298820  15.4470010  31.5712702   9.5142228  15.1266816
  16.0214954  11.9951476  18.0420827  15.5226648  12.7067244  18.1205715
  16.8315178  12.3152143  18.0038989  16.0671061  12.1478325  18.0477395
  14.9482012   4.8532521  23.3383125  14.1381788   5.1590301  23.2272967
  15.4256699   5.5738103  23.4535709  14.8985491   5.0047122  23.3390196
  21.5721409   9.8559266  20.4321037  21.5669447   8.9839083  20.4363463
  22.2782403  10.0547435  19.9590492  21.6766413   9.7563140  20.3628072
  15.2992302   9.5836250  19.8034857  15.4435678  10.1637458  19.1677967
  15.6467951   9.9612547  20.5084711  15.3719763   9.7256954  19.8133852
  14.3720057  17.7739022  16.6695884  14.5209621  17.2141938  16.0169288
  15.1520059  17.8531024  17.0528403  14.5094151  17.7024587  16.6292833
  16.8973358  17.9453665  17.9480375  16.8217029  17.2762475  18.5031163
  16.8263217  18.6471453  18.4621041  16.8753965  17.9498572  18.1057223
  16.2864992  21.3521985  16.4058375  16.7760922  20.6532774  16.2234040
  15.7149224  21.0545855  16.9934433  16.2749522  21.2048208  16.4659416
  22.4831996  13.9184054  25.3585166  23.2966861  13.6469203  25.5190298
  22.3226962  13.6191594  24.5545362  22.5801944  13.8338980  25.2630572
  21.9243245   6.2106776  19.2363861  21.1119927   5.9032667  19.3177034
  22.3833180   5.7305776  19.8006574  21.8723630   6.0943269  19.3318456
  19.0196753   7.6166848  24.0192564  19.4896384   8.2408964  24.4060438
  19.0658633   6.9483823  24.5785778  19.0964629   7.6101528  24.1592635
  22.4953240  14.9790344  20.6308007  23.1332960  14.4850540  20.2970463
  21.8527331  14.9067745  20.0460233  22.4947466  14.8949353  20.4950362
  22.5507496  15.6710152  17.2713363  23.3399874  15.3199217  17.3915445
  22.7251094  16.4846541  17.0089997  22.6927778  15.7396010  17.2501231
  14.1635822  14.2249998  18.2810847  14.0556177  14.2352060  19.1472906
  14.3731604  15.0504779  18.0915801  14.1785933  14.3491073  18.3814939
  28.3000036  11.3068410  16.7410063  28.3583160  11.7555059  17.4870040
  27.6666504  11.7167223  16.3040143  28.2151331  11.4342145  16.7862612
  21.9399131  16.9271952  13.1764809  21.7418819  17.4162767  12.4821021
  21.3186842  17.1313194  13.7548943  21.8186695  17.0288490  13.1588033
  23.8572933  10.4936104  18.7110058  24.5807131  10.0408631  18.5321078
  23.5922895  10.7740770  17.9282386  23.9254206  10.4687073  18.5688773
  15.6704664  10.8324565  22.2917944  14.8200295  10.9696280  22.4275589
  15.8332792  10.0988344  22.7365646  15.5688528  10.7438667  22.3773544
  26.2908247   9.4562515  17.2140608  26.8826087  10.0959766  17.2458806
  26.7267241   8.7585552  17.5032674  26.4426678   9.4480866  17.2621440
  18.1201636  13.8779888  17.8398502  17.6126727  14.4315734  18.2839132
  17.8228283  13.9388177  17.0217276  18.0006521  13.9686199  17.7846958
  17.3644122  18.8104446  14.7455508  17.1409776  18.0523275  15.1139535
  16.8753965  18.8402467  14.0235948  17.2587571  18.7026670  14.6932249
  19.4215111  12.9786178  22.2967442  19.3810966  12.3335855  21.7112598
  20.2338429  12.9222795  22.6092854  19.5358265  12.8745145  22.2564391
  18.9861890   4.5307359  21.2919455  19.5433320   4.3021169  20.6597921
  18.6622955   5.2913025  21.0154668  19.0208300   4.6091196  21.1575952
  16.7045007   7.6175013  22.2571462  17.4556334   7.9326689  22.5711017
  16.8967584   7.4154183  21.4305384  16.8436422   7.6342394  22.1814858
  23.3422968  11.1749768  15.8408594  23.7678040  10.6524190  15.2879019
  22.9779888  11.7730606  15.3197216  23.3509571  11.1859995  15.6817603
  12.9777048  19.4713986  14.6005939  13.2923607  20.2850374  14.6083721
  13.3870462  19.0864204  15.2688098  13.0845146  19.5342688  14.7010031
  22.0178552  16.4985346  24.3501823  22.1275518  15.7093906  24.7058570
  22.3469449  16.4091282  23.5476161  22.0830958  16.3691199  24.2844214
  20.5675514  14.6801967  18.9337444  20.0196460  14.0559850  18.6657509
  21.0288543  14.8696239  18.2181523  20.5542724  14.6161017  18.7887875
  20.1333840  15.6853039  15.4646785  20.9532214  15.5416005  15.7263080
  19.8527918  16.3099238  16.0063223  20.2130584  15.7563391  15.5834724
  36.6047491  23.3417891   8.4289661  36.5741495  24.1962528   8.6007931
  37.2028840  23.0413184   8.9875805  36.6884649  23.4234388   8.5364463
  29.8047176  22.4293542  13.1842592  28.9485071  22.5902040  13.2351708
  29.8514829  21.5585606  13.2047653  29.6846287  22.3244344  13.1948658
  24.1888315  31.9656260   8.9479823  23.4371215  31.5871798   8.7195868
  24.6374327  31.9974693   8.1998633  24.1437982  31.9141867   8.8037325
  29.6413275  32.3881629   4.3765370  29.3064644  33.0658551   3.9409592
  30.1540146  31.9986941   3.7882242  29.6678856  32.4306208   4.2252162
  29.1817567  34.3395898  10.3176482  29.5656946  34.9082797   9.7781257
  29.1176708  33.6145408   9.8382298  29.2290994  34.3171361  10.1670344
  32.6498997  24.4885586  15.8274243  33.1954957  25.1670672  15.8868213
  32.5915873  24.3473047  14.9675825  32.7214911  24.5677588  15.7086304
  25.7673072  31.9774652  11.2142596  25.8683435  31.1675006  11.5239723
  25.1714817  31.8831598  10.5842274  25.6945610  31.8439680  11.1668834
  34.4264065  25.9170193   6.7007971  34.3103591  26.6677879   7.1300109
  35.2219952  25.6594146   6.9504058  34.5268655  25.9905040   6.8012063
  25.6073811  36.8952241  12.6157452  26.2511267  37.3365405  13.0053610
  25.9330067  36.0905667  12.5287710  25.7505640  36.8417436  12.6602929
  18.9638116  27.9994939  10.8394929  18.7288300  27.1662591  10.7327198
  19.1023757  28.2799604  10.0256130  18.9493778  27.9178442  10.7037284
  21.2628203  20.1680669  13.7379237  20.6433235  19.5773316  13.5689252
  21.1612067  20.7592104  13.1043560  21.1565879  20.1684752  13.6184227
  26.3094391  29.9064216   7.9877313  26.6310232  30.4469423   7.3838622
  26.9566487  29.3360987   8.1199603  26.4520446  29.9023391   7.9184349
  28.3596099  21.9080211   8.0711700  29.0576264  22.0868338   8.5633163
  28.6748431  21.3850550   7.4482089  28.5091436  21.8573983   8.0513710
  20.9897336  23.7132951  15.9822806  20.8656033  24.2995396  16.6172625
  21.6415621  23.2193147  16.2835081  21.0670986  23.7271755  16.1208735
  28.5484034  28.2950656   8.0591492  28.9877670  27.6867756   8.5046264
  28.3988697  27.9158029   7.2876957  28.5905500  28.1489127   8.0110659
  26.0155677  26.8894668  15.2610317  26.6604680  26.3967111  14.9421266
  26.2557454  27.0319454  16.0876395  26.1466262  26.8372110  15.3359850
  28.5541769  29.7349574  14.9117210  28.8365012  28.9400979  14.6903966
  29.2827929  30.2130161  14.9322271  28.7031332  29.6884171  14.8820225
  26.5322963  17.2772608  12.1532975  26.2026293  17.7283751  11.4836673
  25.8567964  17.1988771  12.7005981  26.3833399  17.3323743  12.1356198
  32.1493371  26.6477837   5.0122261  32.0644666  27.5038804   5.1571830
  32.6377754  26.3722161   5.6804420  32.2082268  26.7335159   5.1324342
  33.7399370  13.2658130  10.3982585  33.4252811  13.9561609  10.8303008
  33.2226312  13.2102913   9.6968086  33.6163841  13.3593019  10.3579535
  33.0811804  23.2662631   6.5119996  32.5523276  23.4822265   7.1717302
  33.6036824  23.9598770   6.4320965  33.0800257  23.4005768   6.5975595
  38.5359857  28.8408936  11.8853040  37.7057560  29.0519580  12.0486457
  38.4869109  28.0145990  11.6095324  38.4066592  28.7498542  11.8690406
  20.5255441  32.8780609  12.1151135  20.0423019  33.6031099  12.0910719
  21.3378759  33.1756739  12.2261293  20.5746188  33.0282963  12.1278415
  26.5969595  31.6712790  14.7200950  26.0796536  31.3120205  14.1162258
  27.2943986  31.1474964  14.7307016  26.6235176  31.5410478  14.6331209
  27.8203646  31.4038764  19.6634785  27.2574481  30.9911374  20.1874446
  28.5824670  31.3291670  20.0827928  27.8498095  31.3316165  19.8027786
  23.3799638  33.3936785  12.2671415  24.0820217  32.8788774  12.3244172
  23.2997121  33.7210937  13.0718290  23.4723398  33.3651011  12.3944208
  38.0313815  21.4879337  15.6803462  37.1942236  21.5581524  15.9151056
  38.0002046  21.4903831  14.8077764  37.9032098  21.4989564  15.5863010
  24.4278544  23.6312372  21.3951830  24.5999048  23.5218267  22.2437112
  24.9647902  24.2766778  21.1583023  24.5323548  23.7104374  21.4856927
  22.7050413  29.5843137  11.7757023  23.5439313  29.8166070  11.8230785
  22.7362182  28.7147449  11.7064059  22.8332131  29.4900084  11.7721668
  23.3303116  30.0044012  16.0770329  23.8701341  29.8615143  16.7473701
  22.6473063  30.4040763  16.4454355  23.3095270  30.0423683  16.2304751
  32.7544001  25.6835013  11.2715353  33.5101516  26.1166527  11.3104262
  32.8606326  25.0339783  11.8449989  32.8814172  25.6512497  11.3613379
  35.7924172  29.5108290  12.0217756  35.3559404  29.5145033  12.7776728
  35.4587088  30.1913789  11.5897334  35.6786792  29.6120746  12.0698589
  18.7340261  26.2244303  16.2304750  18.4678677  25.4083420  16.3895741
  18.7478825  26.2697459  15.3600266  18.6964984  26.1101208  16.1258232
  35.7121655  16.5522118  14.2647184  36.3547564  16.6220223  14.8509099
  35.9644676  15.8851341  13.7626726  35.8443787  16.4648467  14.2774463
  23.4838868  19.7622682  18.8771758  22.7910664  19.2919661  19.1232490
  24.0999195  19.5360986  19.4513465  23.4723398  19.6589813  18.9980911
  30.5223639  33.4626725  16.9927362  29.7238885  33.2226225  17.2501231
  30.9709651  33.5141118  17.7394410  30.4698250  33.4349116  17.1412286
  38.9268518  26.2289210  10.9137393  39.5884953  25.6679879  10.8133302
  38.2859930  25.7341241  11.2390085  38.9297386  26.0725619  10.9469734
  29.8145326  29.5259342   3.2218317  30.2296475  29.1944365   2.5302812
  28.9837256  29.2928244   3.0938453  29.7533335  29.4430598   3.1009164
  19.1433675  27.0103083  13.5116495  18.9609248  26.9849969  12.6588787
  19.8783344  27.4802020  13.5505403  19.2247739  27.0764445  13.3914413
  35.2133349  27.2454593  10.6549382  35.4488938  27.3899792   9.8276233
  35.3622913  28.0097001  11.0480896  35.2699152  27.3793647  10.5912986
  22.2079427  23.7288086  20.0198603  22.9319399  23.7141116  20.5063498
  22.3095563  24.4383441  19.5220572  22.3297636  23.8312789  20.0177390
  37.0423806  26.0856259   8.4918986  37.3732023  26.6183899   7.8859081
  37.6156894  26.1395146   9.1480937  37.1757485  26.1725827   8.4996768
  32.2555695  23.9321161   9.1742566  32.3502549  24.6710455   9.6282192
  31.6314539  23.5038637   9.6077131  32.1764725  23.9782482   9.3050714
  30.5108169  27.1107374  19.8232847  31.0847031  26.4734618  19.9781411
  30.4322973  27.1111456  18.9542505  30.5841404  27.0172485  19.7179258
  19.1104585  23.8896583  13.6615561  19.6878088  23.7533034  14.3007807
  18.4118647  23.4332367  13.9161146  19.0925607  23.8018850  13.7937851
  25.8671887  25.5430639  11.8754045  25.6091132  24.7102374  11.8485344
  25.9220370  25.7688252  11.0346545  25.8371665  25.4528410  11.7474181
  30.9472938  17.6459090  11.9758137  30.2429264  17.1568275  12.1342056
  30.9957912  17.6581564  11.1046582  30.8502989  17.5748738  11.8697477
  24.8406600  23.0968401  12.3618939  24.2656191  23.2560570  12.9982900
  24.4642276  22.4603811  11.8987390  24.7009412  23.0266214  12.3873498
  28.5079888  21.5691751  17.2211318  28.1194321  21.1445968  16.5663509
  27.8434587  21.8173900  17.7288344  28.3526816  21.5430472  17.1999186
  38.1503157  21.3266755   9.9959148  37.8939722  20.5146697   9.8057030
  38.9932471  21.3344323   9.7689335  38.2369183  21.2078753   9.9343965
  32.3306250  15.2666380  14.7335302  32.7116762  14.5844551  15.1203176
  31.5269534  14.9775982  14.5510966  32.2682712  15.1233428  14.7639358
  29.6118827  25.7990355   5.4188125  30.4259465  26.0905248   5.3070896
  29.5477968  25.1450218   4.8446418  29.7221566  25.7455550   5.3176962
  35.8328317  28.4816351  19.8317700  35.5966954  27.6504416  19.7129761
  36.4771546  28.4301959  20.4172544  35.8922987  28.3514039  19.9003594
  25.4826735  29.2711873  10.5460437  26.1200682  29.0323620  11.0912230
  25.9081806  29.4749032   9.8113597  25.6402901  29.2662883  10.5177594
  20.1739377  31.5100209  14.4294741  20.2143522  31.7815060  13.6014520
  20.7333901  32.0342117  14.8452528  20.2622723  31.6275964  14.3686629
  26.2898090  17.7720578  24.5997910  25.9751531  18.5420140  24.3367473
  25.9688023  17.2090834  24.0150137  26.1957009  17.8030846  24.4739260
  36.8564737  28.2660800  15.8945995  36.5510554  28.9988857  16.2559310
  36.1370953  27.8598730  15.6138781  36.7052080  28.3142533  15.9059132
  27.8648207  29.7484295  12.2254223  27.9387215  29.5859467  13.0796073
  28.6817713  29.9374485  11.9814705  27.9964565  29.7521038  12.3152249
  42.5566529  24.9053801  15.2214339  42.4891030  24.9249760  14.3516926
  42.5422192  25.7484128  15.4470010  42.5445286  25.0327536  15.1266816
  21.6253963  30.0942158   9.2548666  20.7992081  30.3403895   9.1282945
  21.6865955  30.0154239  10.1210725  21.5128130  30.1187107   9.3637611
  32.9662876  16.3088959  18.5455428  33.7116468  16.1198769  18.1318854
  32.5500181  16.8347197  17.9869285  33.0147850  16.3591104  18.4020002
  26.4052792  32.7119038   6.9567696  26.6951091  32.3208020   6.2326923
  27.1356273  32.8935743   7.3972972  26.5559677  32.6812852   6.9150503
  40.3425147  23.6798187  13.4960933  40.8933068  23.0466256  13.7358026
  40.3269262  24.2113580  14.1876438  40.4210343  23.6647135  13.6339792
  26.9947538  27.5136784  18.0420827  26.4959231  28.2252552  18.1205715
  27.8047762  27.8337451  18.0038989  27.0403644  27.6663633  18.0477395
  24.3458708  34.6886421  10.0227846  24.1259003  34.3983776  10.8154513
  24.1253230  34.0301376   9.4945758  24.2806302  34.5486129  10.0616755
  23.2575655  26.7759737  12.2883548  22.9688904  26.1497209  12.8229275
  24.1259003  26.7180025  12.3548228  23.3435907  26.6747282  12.3774502
  34.0453553  21.9194521  12.6065530  33.7018319  21.1984856  12.9572779
  34.1446596  21.7108372  11.7643888  34.0095596  21.7818724  12.5337210
  26.5126664  36.0615811   8.8058538  27.1650722  35.5292253   9.0349565
  25.8152272  35.7084463   9.1926413  26.5057382  35.9305334   8.8970706
  23.4607929  28.4154988   8.2125913  24.2153897  28.7968028   8.4261375
  22.8678541  28.8666132   8.6672609  23.4844642  28.5383816   8.3108791
  34.5066582  28.3820225   8.1489518  35.0724615  29.0413435   8.0648061
  33.8594486  28.7269923   8.6205920  34.4945339  28.5302166   8.2062274
  25.9214596  20.3717829  23.3383125  25.1114371  20.6775608  23.2272967
  26.3989282  21.0923411  23.4535709  25.8718074  20.5232430  23.3390196
  24.7806155  29.5863550  13.5866028  24.2586909  29.7263841  14.2717893
  25.1680176  28.8274214  13.7768146  24.7609856  29.4949074  13.7167105
  30.9773160  31.3259009   7.5726597  30.7359836  30.5926870   7.1653662
  31.1574493  31.8745866   6.9192930  30.9680784  31.2981400   7.4156820
  26.2072481  26.6167569   8.9847519  26.0115263  27.2242303   8.3907822
  26.4306826  25.9235513   8.5039193  26.2107122  26.6045094   8.8263600
  24.6051011  23.5022307   9.1028388  25.3273663  23.6663465   8.6432194
  24.1259004  24.2231972   8.9967727  24.6414742  23.6320536   9.0194002
  32.5644518  19.8386106  14.4825073  31.7255619  19.8647384  14.2463336
  32.6348886  20.4856841  15.0630419  32.4512912  19.9382231  14.5334189
  22.2558628  25.9080379  18.2082527  22.7679724  26.1864632  17.5591287
  21.9694970  26.6469673  18.5745341  22.2893491  26.0582733  18.1672406
  31.0113797  16.7371483   9.2152688  31.7140150  16.5379231   8.7372647
  30.7457985  15.9647425   9.5221532  31.0760429  16.5934449   9.1898130
  36.4402042  25.0454092  11.7686314  36.3536017  25.2009518  12.6221093
  35.9852522  25.6892168  11.3945719  36.3605299  25.1629847  11.8393421
  25.7742353  18.0006768  18.2683569  25.5825550  18.0161902  19.1182993
  26.6240949  18.1970442  18.2450224  25.8718075  18.0321119  18.3906864
  20.1589266  20.5297749  16.2467386  20.0174758  19.6781690  16.3711893
  20.4429829  20.5726410  15.4229592  20.1797112  20.4097499  16.1435010
  30.3127858  22.3664839  10.3911874  30.0662573  22.2860590  11.2248663
  30.6412981  21.5818307  10.1974401  30.3249102  22.2391105  10.4859397
  34.2075907  29.0748199  14.1798655  34.0690266  29.7729245  14.6847397
  33.4275905  28.9196855  13.8234837  34.0719134  29.1548365  14.2024929
  26.2724886  25.1021558  19.8034857  26.4168261  25.6822766  19.1677967
  26.6200534  25.4797855  20.5084711  26.3452347  25.2442262  19.8133852
  28.4444803  24.3011726  17.5859988  27.6968117  24.4942741  17.1808267
  28.5986328  23.4756946  17.3484110  28.3567231  24.2076838  17.4905394
  25.3452641  33.2924330  16.6695884  25.4942204  32.7327246  16.0169288
  26.1252643  33.3716332  17.0528403  25.4826734  33.2209895  16.6292833
  35.7029280  28.4326453   4.9415154  35.3236089  27.6463590   4.9344444
  35.0395525  28.9813310   4.7986798  35.5487755  28.3971277   4.9195951
  27.8705941  33.4638973  17.9480375  27.7949612  32.7947783  18.5031163
  27.7995800  34.1656761  18.4621041  27.8486548  33.4683880  18.1057223
  28.6846580  18.1962277  18.4755392  29.1419194  18.9286251  18.6028184
  28.7602909  17.7728742  19.2342648  28.7637550  18.2419515  18.6056469
  20.9279571  18.4428097  19.5644836  20.3921761  17.8308455  19.8805603
  20.9897336  19.0176233  20.2178503  20.8575204  18.4375025  19.7080263
  33.1573906  11.3752152  12.3449235  33.2757474  11.8328616  11.6116538
  32.9836082  10.5697414  12.0585453  33.1493077  11.3245924  12.1950169
  28.5276188  31.9839972   8.7803981  29.2926079  31.7149615   8.4586645
  28.4254278  31.4989982   9.4974043  28.6257684  31.8729536   8.8383808
  26.5628958  20.1864381  15.3197216  25.7725033  20.0055841  15.6414552
  26.9589581  19.4091334  15.3027511  26.5045834  20.0451842  15.3649765
  31.9472644  27.8206811  13.0456662  31.2717646  27.5892043  13.5470049
  31.9565020  27.2127994  12.4198767  31.8491149  27.6965736  13.0272814
  29.0766788  22.6624640  19.8020715  29.0125929  23.5234597  19.6740852
  29.2163976  22.3456633  19.0016266  29.0882258  22.7424807  19.6648928
  33.9489379  30.6771944   5.2766840  34.0309216  31.4838930   4.9528291
  34.4339121  30.6967903   6.0007614  34.0326537  30.7992606   5.3353739
  27.7585882  25.3556779  13.9436918  27.3348131  25.5561279  13.2075936
  27.5830737  24.5085627  14.0561218  27.6696763  25.2605561  13.8510608
  27.2597576  36.8707292  16.4058375  27.7493506  36.1718082  16.2234040
  26.6881808  36.5731162  16.9934433  27.2482105  36.7233516  16.4659416
  23.0468327  25.8508831   9.3764891  23.2032946  25.7855634  10.2320883
  23.3868920  26.6257383   9.1643570  23.1201562  25.9558029   9.4719485
  29.5847472  25.2266714   8.2458254  30.1263017  24.7237096   8.7096874
  29.8994031  25.1731909   7.4347739  29.7111869  25.1446135   8.1942066
  27.7533921  30.6184066   5.5298282  27.8226742  29.7598604   5.6691282
  28.5322377  30.8355947   5.2017306  27.8786771  30.5236930   5.5015439
  32.1441409  33.0421767   9.7434775  31.7521201  32.7388482   9.0257641
  32.2994481  33.8790857   9.5539729  32.1094999  33.1205604   9.6091272
  32.8975829  21.7292084  19.2363861  32.0852511  21.4217975  19.3177034
  33.3565764  21.2491084  19.8006574  32.8456214  21.6128577  19.3318456
  32.3081084  29.6071756   9.6840806  31.9495738  29.7786399  10.4604838
  31.8219794  30.0684962   9.1268804  32.1839781  29.7010727   9.7166075
  30.1251470  13.2302955  13.2867897  29.2545028  13.2041676  13.2401207
  30.3791811  13.0580147  12.4693743  30.0345030  13.2013098  13.1588034
  29.9929337  23.1352156  24.0192564  30.4628968  23.7594272  24.4060438
  30.0391217  22.4669131  24.5785778  30.0697212  23.1286836  24.1592635
  27.1500610  15.2409183  14.7441367  26.6339099  14.5489375  14.8692946
  26.5894539  15.9079960  14.6903966  26.9907123  15.2372441  14.7547433
  29.2192844  15.7802143  16.5734220  28.8324597  15.8051175  17.3547750
  28.7325781  15.2143822  16.1208737  29.0905353  15.6997894  16.6222124
  35.1942823  22.3464798  15.1973922  34.7670431  22.2591147  14.4422022
  34.5568876  22.4542574  15.7828766  35.0372430  22.3497458  15.1719364
  28.8849985  12.6669129  18.8644480  29.5143103  13.2029429  18.5865550
  29.0535848  12.5746488  19.7158046  29.0027780  12.7330491  18.9493008
  28.6863900  17.4540323  21.1370892  29.5137330  17.1825472  21.1929506
  28.7071746  18.2501165  21.4934710  28.8116750  17.5320078  21.1986074
  33.5240080  31.1895460  17.2713363  34.3132458  30.8384525  17.3915445
  33.6983677  32.0031849  17.0089997  33.6660361  31.2581318  17.2501231
  23.2633390  24.6004186  14.3241152  22.4221397  24.5008060  14.5320046
  23.4723398  25.3699666  14.6755473  23.1698083  24.6996229  14.4068467
  20.7408957  22.2223723  12.1525903  20.3465655  22.2966735  11.3776012
  20.1849074  22.6081669  12.7034265  20.6011769  22.2905498  12.1193563
  32.3773904  15.2005017  11.8329782  32.5823497  15.1327325  12.6786779
  32.0500328  16.0063838  11.7650959  32.3589152  15.3090958  11.9489437
  27.0750055  22.5285585  13.5738750  26.7713192  21.9741574  14.1749157
  26.3729476  22.7077795  13.0866784  26.9266265  22.4730368  13.5908455
  25.1368406  29.7435306  18.2810847  25.0288761  29.7537368  19.1472906
  25.3464187  30.5690086  18.0915801  25.1518517  29.8676381  18.3814939
  35.6307592  15.7536781  11.3132547  35.0181905  16.2407184  11.6986279
  35.7271766  15.0780272  11.8570198  35.5545489  15.7255090  11.4511405
  23.1542198  26.9947948  15.7432785  22.5630131  27.6357447  15.7135800
  23.9163222  27.4185566  15.7164085  23.1790459  27.1523787  15.7347932
  25.1986170  18.8216641  20.9772830  24.8071736  18.1749988  21.4128608
  25.3672033  19.4128076  21.5967085  25.1657081  18.8130909  21.1335536
  39.2732620  26.8253718  16.7410063  39.3315743  27.2740367  17.4870040
  38.6399087  27.2352531  16.3040143  39.1883915  26.9527453  16.7862612
  32.9131714  32.4457260  13.1764809  32.7151403  32.9348074  12.4821021
  32.2919425  32.6498502  13.7548943  32.7919279  32.5473798  13.1588033
  26.9739693  24.2142157   7.5175054  27.7181737  24.6016433   7.7558004
  27.1200389  23.3699582   7.6815542  27.1050278  24.1472630   7.5769023
  28.8919268  16.0092416  12.5506915  28.0455313  16.1815224  12.4248265
  28.8890400  15.2041759  12.8872744  28.7666418  15.9153445  12.5818042
  29.9617568  19.7867630  13.4168973  29.4877523  19.2609392  13.9274284
  30.3335704  19.2397103  12.8483835  29.9467457  19.6283627  13.4084120
  20.3390599  21.7839137  18.7852519  21.2016212  21.6834846  18.6989849
  20.0082382  21.2033846  18.2238091  20.4175795  21.6830764  18.6897925
  36.2254299  24.8470006  14.8275754  35.9852522  24.0076421  14.8318180
  36.7046306  24.9270173  15.5516527  36.2606483  24.7351406  14.9350556
  38.2259486  21.6271463  12.7805013  37.9869256  21.5867297  11.9425797
  38.3893387  22.4742615  12.9070734  38.2149789  21.7463548  12.6758495
  34.8305516  26.0121412  18.7110058  35.5539715  25.5593939  18.5321078
  34.5655478  26.2926078  17.9282386  34.8986789  25.9872381  18.5688773
  23.6992385  20.6081586  15.4462937  23.0745455  20.6199978  14.8388890
  23.3637979  21.0841761  16.0954177  23.5577876  20.6800103  15.4519506
  20.4118060  28.6682046  16.8866701  19.8817985  27.9774485  16.9361676
  20.6843153  28.6592231  16.0579410  20.3742782  28.5649178  16.7714117
  31.4438151  29.2507748   5.6104384  32.1672349  29.7165861   5.4668957
  31.0038742  29.3181358   4.8601981  31.4853843  29.3291585   5.4789165
  30.6124306  26.1105291  16.8605073  29.9981299  25.5663341  17.1553708
  31.1291591  25.5969527  16.3810889  30.5979968  25.9541700  16.8329301
  29.8520603  27.1809561  14.5949372  29.4248211  26.5559279  14.1614807
  29.8445547  26.8984482  15.4208379  29.7879744  27.0462341  14.6529199
  22.9683130  22.2174734  17.6637806  23.1276617  21.4618058  18.0689527
  22.7876024  22.7665673  18.3178543  22.9648489  22.1868547  17.8200512
  30.9103433  14.3835969  18.2188595  30.4143994  14.5799643  17.5280162
  31.6672495  14.7828637  18.0477397  30.9490258  14.4713703  18.0908732
  15.6913902  25.3409810  14.2435050  15.5857351  25.2956654  13.3787134
  14.9414122  25.6863591  14.5249335  15.5649505  25.3850718  14.1572379
  24.4607635  16.7849133  14.1897650  24.5006006  17.2858340  14.9032357
  23.6357299  16.8759527  13.9203573  24.3447161  16.8730950  14.2548188
  26.6437248  26.3509873  22.2917944  25.7932878  26.4881588  22.4275589
  26.8065375  25.6173652  22.7365646  26.5421111  26.2623975  22.3773544
  25.8821998  23.3009643  16.4871549  25.0513928  23.4683461  16.2806797
  25.8273515  22.9245594  17.2720434  25.7511413  23.2699374  16.5720077
  23.6905781  16.7918536  22.1227960  24.3158485  16.2480669  22.3957392
  23.2356261  16.3113454  21.5535750  23.7154042  16.6408017  22.0789553
  37.2640830  24.9747823  17.2140608  37.8558670  25.6145074  17.2458806
  37.6999825  24.2770860  17.5032674  37.4159261  24.9666173  17.2621440
  29.0934220  29.3965196  17.8398502  28.5859311  29.9501042  18.2839132
  28.7960866  29.4573485  17.0217276  28.9739105  29.4871507  17.7846958
  31.2596402  17.7618515  16.6823165  31.6851474  17.3091042  16.0706691
  30.6453395  17.2078586  16.9587952  31.2325048  17.6132491  16.6328190
  31.7042000  33.3128453   5.7702445  30.9871310  33.1389315   5.3049682
  32.3548738  33.0781026   5.2377931  31.6943851  33.2524246   5.6231663
  34.2889971  22.1893042   9.5143750  33.6181161  22.7322744   9.3856816
  34.9829722  22.6587897   9.2725445  34.2918839  22.3391313   9.4599278
  28.3376705  34.3289754  14.7455508  28.1142360  33.5708583  15.1139535
  27.8486549  34.3587775  14.0235948  28.2320154  34.2211978  14.6932249
  34.4518099  18.6448925  12.4234123  34.8045709  18.2178648  13.0979922
  33.5932900  18.5599769  12.5535200  34.3767544  18.5693666  12.5429134
  23.1501784  21.2756445  10.4816970  22.4313773  21.6920578  10.7489833
  23.5214146  21.8410684   9.9308608  23.0993716  21.4205727  10.4399777
  32.4501365  21.9084294  16.3718966  32.4299292  21.7267589  17.2253744
  32.4980565  22.7796313  16.3478549  32.4536006  22.0100832  16.4942260
  30.3947695  28.4971486  22.2967442  30.3543549  27.8521163  21.7112598
  31.2071013  28.4408103  22.6092854  30.5090848  28.3930453  22.2564391
  26.9855162  34.5490212  12.1992593  26.5715561  33.8864342  11.8096435
  27.6702536  34.6968071  11.6788287  27.0253534  34.4730870  12.0649090
  30.3520456  33.7080297  12.9516210  29.9536739  33.8182567  12.1837030
  29.7371676  33.9162363  13.5342769  30.2019346  33.7553865  12.9247509
  35.8842159  13.7667337  13.3518436  35.3773024  13.0596477  13.2839613
  36.6809593  13.4360526  13.4819512  35.9269398  13.6140489  13.3617431
  31.8006175  20.2733949   9.2492100  31.5719868  20.2966651   8.4070458
  32.0604251  19.4491416   9.3687110  31.8052363  20.1550029   9.1417297
  26.0825403  22.1268423  18.8517200  25.5704306  21.5189605  19.2102231
  25.9104899  22.8425015  19.3191176  25.9815040  22.1431722  18.9733423
  20.9291118  20.5705998  21.5019562  20.7593708  21.2307373  20.9567768
  20.4857068  20.7812559  22.2232051  20.8390452  20.6991980  21.5281191
  24.8550937  18.8110496  10.5446295  25.3308304  19.1727576   9.9096476
  24.3539537  19.4666963  10.8246438  24.8516296  18.9604685  10.4923036
  38.0862299  28.2832264   6.3359300  38.4695905  29.0323620   6.5657397
  37.2906412  28.5298084   6.0771289  38.0256081  28.4301958   6.3316874
  29.9594474  20.0492667  21.2919455  30.5165904  19.8206477  20.6597921
  29.6355539  20.8098333  21.0154668  29.9940884  20.1276504  21.1575952
  17.8293183  23.4752863  16.7608051  17.2819902  22.8053509  16.8788920
  18.6185561  23.1082711  16.8251519  17.8645366  23.3217850  16.7876752
  27.6777591  23.1360320  22.2571462  28.4288918  23.4511997  22.5711017
  27.8700167  22.9339491  21.4305384  27.8169005  23.1527702  22.1814858
  34.5262881  19.2633887   9.4995258  34.5257107  19.1082543  10.3579534
  34.3219061  20.1096874   9.4436643  34.4962659  19.3654508   9.6183197
  16.5880152  22.6873671  13.9154074  16.4101913  22.2350280  14.6408990
  16.2999174  23.4899833  14.0992552  16.5193105  22.7396229  14.0497577
  32.2503733  23.9431389  13.1531465  32.7457398  23.2254384  13.1135485
  31.4403509  23.6402186  13.0385952  32.2047626  23.7929035  13.1305191
  27.6962345  27.7929202   5.3028469  26.8873667  27.4695875   5.2561779
  28.2037253  27.0862424   5.2356718  27.6512011  27.6410518   5.2858764
  18.3252622  25.2201395  11.0275834  17.4598141  25.2087085  10.9158605
  18.4251438  25.0331618  11.8746973  18.2126789  25.1907456  11.1364778
  34.3155552  26.6935076  15.8408594  34.7410624  26.1709498  15.2879019
  33.9512472  27.2915913  15.3197216  34.3242155  26.7045303  15.6817603
  23.9509632  34.9899294  14.6005939  24.2656191  35.8035682  14.6083721
  24.3603045  34.6049512  15.2688098  24.0577730  35.0527996  14.7010031
  30.9034151  30.4069340  12.1709751  31.3745330  31.1209603  12.3399736
  31.2394330  29.8068090  12.7069620  31.0229266  30.4240805  12.2742127
  27.8203646  15.1796811  19.1267846  27.9531552  14.3827804  19.4548821
  28.2048799  15.7063214  19.7066121  27.8959975  15.1396728  19.2611349
  31.5408098  30.1987275  18.9337444  30.9929044  29.5745158  18.6657509
  32.0021126  30.3881547  18.2181523  31.5275307  30.1346325  18.7887875
  30.8936002  12.1027137  15.7248939  30.0881965  11.9924867  16.0416777
  30.7642737  12.2039593  14.8678805  30.7556134  12.1010807  15.6456979
  34.3501962  18.2672629  16.3188636  33.7664951  18.7681835  15.9066203
  34.6706256  17.7602185  15.6852959  34.3115137  18.2664464  16.1647143
  25.4792093  15.1755986  17.3745740  26.0236506  14.8347113  17.9650081
  25.5329029  16.0341448  17.5167024  25.5681213  15.2511245  17.4827613
  21.2922652  28.9372402  14.2484547  21.8967509  28.8968236  13.6198368
  21.0849964  29.7843554  14.2788603  21.3511549  29.0560405  14.1600664
  31.1066424  31.2038347  15.4646785  31.9264798  31.0601313  15.7263080
  30.8260502  31.8284546  16.0063223  31.1863167  31.2748699  15.5834724
  16.5273934  27.9207020  14.1183471  16.4298212  27.1103291  14.4273527
  17.3102804  27.8998813  13.7329739  16.6290071  27.7974110  14.1070333
  47.5780074  38.8603199   8.4289661  47.5474079  39.7147836   8.6007931
  48.1761423  38.5598491   8.9875805  47.6617232  38.9419695   8.5364463
  40.7779759  37.9478850  13.1842592  39.9217655  38.1087348  13.2351708
  40.8247413  37.0770914  13.2047653  40.6578871  37.8429652  13.1948658
  35.1620899  47.4841568   8.9479823  34.4103799  47.1057106   8.7195868
  35.6106911  47.5160001   8.1998633  35.1170566  47.4327175   8.8037325
  40.6145859  47.9066937   4.3765370  40.2797227  48.5843859   3.9409592
  41.1272729  47.5172249   3.7882242  40.6411440  47.9491515   4.2252162
  40.1550150  49.8581206  10.3176482  40.5389529  50.4268105   9.7781257
  40.0909291  49.1330716   9.8382298  40.2023577  49.8356669  10.1670344
  43.6231580  40.0070894  15.8274243  44.1687540  40.6855980  15.8868213
  43.5648457  39.8658355  14.9675825  43.6947495  40.0862896  15.7086304
  36.7405655  47.4959960  11.2142596  36.8416018  46.6860314  11.5239723
  36.1447400  47.4016906  10.5842274  36.6678194  47.3624988  11.1668834
  45.3996649  41.4355501   6.7007971  45.2836175  42.1863187   7.1300109
  46.1952536  41.1779454   6.9504058  45.5001238  41.5090348   6.8012063
  36.5806395  52.4137549  12.6157452  37.2243850  52.8550713  13.0053610
  36.9062650  51.6090975  12.5287710  36.7238223  52.3602744  12.6602929
  29.9370699  43.5180246  10.8394929  29.7020884  42.6847899  10.7327198
  30.0756340  43.7984912  10.0256130  29.9226362  43.4363750  10.7037284
  32.2360787  35.6865977  13.7379237  31.6165819  35.0958624  13.5689252
  32.1344650  36.2777412  13.1043560  32.1298462  35.6870060  13.6184227
  37.2826974  45.4249524   7.9877313  37.6042816  45.9654731   7.3838622
  37.9299071  44.8546295   8.1199603  37.4253030  45.4208699   7.9184349
  39.3328683  37.4265519   8.0711700  40.0308847  37.6053646   8.5633163
  39.6481015  36.9035858   7.4482089  39.4824020  37.3759291   8.0513710
  31.9629920  39.2318259  15.9822806  31.8388617  39.8180704  16.6172625
  32.6148204  38.7378455  16.2835081  32.0403569  39.2457063  16.1208735
  39.5216618  43.8135964   8.0591492  39.9610253  43.2053064   8.5046264
  39.3721281  43.4343337   7.2876957  39.5638084  43.6674435   8.0110659
  36.9888261  42.4079976  15.2610317  37.6337263  41.9152419  14.9421266
  37.2290038  42.5504762  16.0876395  37.1198846  42.3557418  15.3359850
  39.5274352  45.2534882  14.9117210  39.8097595  44.4586287  14.6903966
  40.2560513  45.7315469  14.9322271  39.6763916  45.2069479  14.8820225
  37.5055546  32.7957916  12.1532975  37.1758876  33.2469059  11.4836673
  36.8300548  32.7174079  12.7005981  37.3565982  32.8509051  12.1356198
  43.1225954  42.1663145   5.0122261  43.0377250  43.0224112   5.1571830
  43.6110338  41.8907469   5.6804420  43.1814852  42.2520467   5.1324342
  44.7131954  28.7843438  10.3982585  44.3985395  29.4746917  10.8303008
  44.1958896  28.7288221   9.6968086  44.5896424  28.8778327  10.3579535
  44.0544388  38.7847939   6.5119996  43.5255859  39.0007573   7.1717302
  44.5769408  39.4784078   6.4320965  44.0532841  38.9191076   6.5975595
  49.5092441  44.3594244  11.8853040  48.6790144  44.5704887  12.0486457
  49.4601693  43.5331298  11.6095324  49.3799176  44.2683850  11.8690406
  35.9443995  42.6811156   5.3127464  35.3601211  43.1861188   5.7193328
  35.5414091  42.4553543   4.5724056  35.7983299  42.7219404   5.2632489
  31.4988024  48.3965917  12.1151135  31.0155602  49.1216407  12.0910719
  32.3111342  48.6942047  12.2261293  31.5478772  48.5468271  12.1278415
  37.5702178  47.1898098  14.7200950  37.0529120  46.8305513  14.1162258
  38.2676569  46.6660272  14.7307016  37.5967759  47.0595786  14.6331209
  41.2265770  47.6392912  20.6817123  41.3149116  47.4519052  21.5295333
  41.6555483  46.9930342  20.2821970  41.3027873  47.5155920  20.7488874
  38.7936230  46.9224072  19.6634785  38.2307065  46.5096682  20.1874446
  39.5557253  46.8476978  20.0827928  38.8230679  46.8501473  19.8027786
  40.4021210  38.9276808   3.7896385  40.6417214  39.1354792   2.9771728
  40.7237051  38.1234317   3.8985329  40.4858368  38.8390909   3.6856938
  35.7111500  30.8570204   7.6355922  36.4657468  31.2248521   7.3972973
  35.5339035  31.2309758   8.4035102  35.7965979  30.9668392   7.7140811
  34.3532221  48.9122093  12.2671415  35.0552801  48.3974082  12.3244172
  34.2729704  49.2396245  13.0718290  34.4455982  48.8836319  12.3944208
  49.0046399  37.0064644  15.6803462  48.1674820  37.0766832  15.9151056
  48.9734630  37.0089139  14.8077764  48.8764681  37.0174872  15.5863010
  35.4011128  39.1497680  21.3951830  35.5731632  39.0403575  22.2437112
  35.9380485  39.7952086  21.1583023  35.5056132  39.2289682  21.4856927
  34.0668565  33.2640523   4.3334035  33.8844138  33.4812404   3.5075028
  34.9294178  33.3779536   4.3892650  34.1673154  33.3130421   4.2188523
  33.6782997  45.1028445  11.7757023  34.5171896  45.3351378  11.8230785
  33.7094766  44.2332757  11.7064059  33.8064714  45.0085392  11.7721668
  34.3035700  45.5229320  16.0770329  34.8433925  45.3800451  16.7473701
  33.6205646  45.9226071  16.4454355  34.2827854  45.5608991  16.2304751
  39.7468284  30.2666934   7.3683059  40.4754444  30.0882889   6.9221216
  39.8363177  31.1085013   7.5790237  39.8674946  30.3650812   7.3336577
  43.7276585  41.2020321  11.2715353  44.4834100  41.6351835  11.3104262
  43.8338909  40.5525091  11.8449989  43.8546755  41.1697805  11.3613379
  46.7656756  45.0293598  12.0217756  46.3291988  45.0330341  12.7776728
  46.4319671  45.7099097  11.5897334  46.6519376  45.1306054  12.0698589
  29.7072845  41.7429611  16.2304750  29.4411260  40.9268728  16.3895741
  29.7211409  41.7882767  15.3600266  29.6697567  41.6286516  16.1258232
  46.6854239  32.0707426  14.2647184  47.3280147  32.1405531  14.8509099
  46.9377259  31.4036649  13.7626726  46.8176371  31.9833775  14.2774463
  33.6130592  36.5414696   2.8456509  32.8988769  36.2552875   3.2578941
  34.0974561  36.8811321   3.4862896  33.5789955  36.5496345   3.0012143
  34.4571451  35.2807989  18.8771758  33.7643248  34.8104969  19.1232490
  35.0731779  35.0546294  19.4513465  34.4455981  35.1775121  18.9980911
  41.4956223  48.9812033  16.9927362  40.6971469  48.7411533  17.2501231
  41.9442234  49.0326426  17.7394410  41.4430834  48.9534424  17.1412286
  40.7877910  45.0444650   3.2218317  41.2029058  44.7129673   2.5302812
  39.9569839  44.8113552   3.0938453  40.7265918  44.9615906   3.1009164
  30.1166259  42.5288391  13.5116495  29.9341832  42.5035277  12.6588787
  30.8515927  42.9987328  13.5505403  30.1980322  42.5949753  13.3914413
  46.1865933  42.7639901  10.6549382  46.4221522  42.9085099   9.8276233
  46.3355496  43.5282309  11.0480896  46.2431736  42.8978955  10.5912986
  33.1812010  39.2473393  20.0198603  33.9051983  39.2326424  20.5063498
  33.2828147  39.9568749  19.5220572  33.3030219  39.3498097  20.0177390
  48.0156389  41.6041566   8.4918986  48.3464607  42.1369207   7.8859081
  48.5889478  41.6580454   9.1480937  48.1490069  41.6911135   8.4996768
  43.2288279  39.4506469   9.1742566  43.3235133  40.1895763   9.6282192
  42.6047122  39.0223945   9.6077131  43.1497309  39.4967790   9.3050714
  41.4840752  42.6292682  19.8232847  42.0579614  41.9919926  19.9781411
  41.4055556  42.6296764  18.9542505  41.5573987  42.5357793  19.7179258
  30.0837169  39.4081891  13.6615561  30.6610672  39.2718342  14.3007807
  29.3851231  38.9517675  13.9161146  30.0658190  39.3204157  13.7937851
  43.4811300  41.2955209   2.4079518  43.3991462  41.3657396   3.2734505
  44.1191020  41.8584953   2.2163259  43.5631137  41.3894180   2.5069468
  36.8404471  41.0615947  11.8754045  36.5823715  40.2287682  11.8485344
  36.8952954  41.2873560  11.0346545  36.8104249  40.9713718  11.7474181
  41.9205521  33.1644398  11.9758137  41.2161848  32.6753583  12.1342056
  41.9690496  33.1766872  11.1046582  41.8235573  33.0934046  11.8697477
  35.8139183  38.6153709  12.3618939  35.2388774  38.7745878  12.9982900
  35.4374860  37.9789119  11.8987390  35.6741996  38.5451522  12.3873498
  39.4812472  37.0877059  17.2211318  39.0926905  36.6631276  16.5663509
  38.8167170  37.3359208  17.7288344  39.3259400  37.0615780  17.1999186
  49.1235741  36.8452063   9.9959148  48.8672306  36.0332005   9.8057030
  49.9665055  36.8529631   9.7689335  49.2101766  36.7264061   9.9343965
  25.5596002  38.2593784  10.3763380  25.6456254  37.8825652  11.1576910
  26.1871800  37.8854230   9.8983338  25.6652553  38.1479266  10.4208857
  43.3038833  30.7851687  14.7335302  43.6849345  30.1029859  15.1203176
  42.5002118  30.4961290  14.5510966  43.2415295  30.6418736  14.7639358
  40.5851410  41.3175663   5.4188125  41.3992049  41.6090556   5.3070896
  40.5210551  40.6635526   4.8446418  40.6954149  41.2640858   5.3176962
  46.8060900  44.0001659  19.8317700  46.5699538  43.1689724  19.7129761
  47.4504129  43.9487267  20.4172544  46.8655571  43.8699347  19.9003594
  36.4559318  44.7897181  10.5460437  37.0933265  44.5508928  11.0912230
  36.8814390  44.9934340   9.8113597  36.6135485  44.7848191  10.5177594
  31.1471961  47.0285517  14.4294741  31.1876106  47.3000368  13.6014520
  31.7066485  47.5527425  14.8452528  31.2355307  47.1461272  14.3686629
  37.0962133  40.0099470   4.8835326  37.4807286  39.7907177   5.6351871
  36.8473754  40.8362416   5.0136402  37.1164206  40.0997617   5.0136403
  47.8297321  43.7846108  15.8945995  47.5243138  44.5174165  16.2559310
  47.1103537  43.3784038  15.6138781  47.6784663  43.8327841  15.9059132
  38.8380790  45.2669603  12.2254223  38.9119799  45.1044775  13.0796073
  39.6550297  45.4559793  11.9814705  38.9697149  45.2706346  12.3152249
  53.5299113  40.4239109  15.2214339  53.4623613  40.4435068  14.3516926
  53.5154775  41.2669436  15.4470010  53.5177869  40.5512843  15.1266816
  32.5986547  45.6127466   9.2548666  31.7724665  45.8589203   9.1282945
  32.6598538  45.5339547  10.1210725  32.4860714  45.6372415   9.3637611
  34.8162571  31.6796407  10.2144107  33.9484996  31.7519007  10.2801716
  35.1037775  32.4818486  10.4032082  34.7302319  31.8090554  10.2518873
  43.9395460  31.8274267  18.5455428  44.6849052  31.6384077  18.1318854
  43.5232764  32.3532504  17.9869285  43.9880434  31.8776412  18.4020002
  37.3785376  48.2304346   6.9567696  37.6683674  47.8393328   6.2326923
  38.1088857  48.4121051   7.3972972  37.5292260  48.1998160   6.9150503
  51.3157730  39.1983495  13.4960933  51.8665652  38.5651564  13.7358026
  51.3001846  39.7298888  14.1876438  51.3942927  39.1832443  13.6339792
  37.9680121  43.0322092  18.0420827  37.4691815  43.7437860  18.1205715
  38.7780346  43.3522759  18.0038989  38.0136228  43.1848941  18.0477395
  35.3191292  50.2071729  10.0227846  35.0991587  49.9169084  10.8154513
  35.0985814  49.5486684   9.4945758  35.2538886  50.0671437  10.0616755
  34.2308239  42.2945045  12.2883548  33.9421487  41.6682517  12.8229275
  35.0991587  42.2365333  12.3548228  34.3168491  42.1932590  12.3774502
  45.0186137  37.4379829  12.6065530  44.6750902  36.7170164  12.9572779
  45.1179179  37.2293680  11.7643888  44.9828179  37.3004032  12.5337210
  37.4859247  51.5801119   8.8058538  38.1383305  51.0477561   9.0349565
  36.7884856  51.2269771   9.1926413  37.4789965  51.4490642   8.8970706
  34.4340512  43.9340296   8.2125913  35.1886480  44.3153335   8.4261375
  33.8411125  44.3851440   8.6672609  34.4577226  44.0569124   8.3108791
  45.4799166  43.9005533   8.1489518  46.0457198  44.5598743   8.0648061
  44.8327069  44.2455231   8.6205920  45.4677922  44.0487474   8.2062274
  36.8947179  35.8903137  23.3383125  36.0846955  36.1960916  23.2272967
  37.3721866  36.6108719  23.4535709  36.8450658  36.0417738  23.3390196
  35.7538739  45.1048858  13.5866028  35.2319492  45.2449149  14.2717893
  36.1412759  44.3459522  13.7768146  35.7342440  45.0134382  13.7167105
  32.7429923  35.1554666   7.6560983  32.4554719  34.7855937   6.9192930
  33.4300391  35.6249522   7.3944688  32.8018820  35.1701636   7.5076059
  41.9505744  46.8444317   7.5726597  41.7092420  46.1112178   7.1653662
  42.1307077  47.3931174   6.9192930  41.9413368  46.8166708   7.4156820
  37.1805064  42.1352877   8.9847519  36.9847847  42.7427611   8.3907822
  37.4039410  41.4420821   8.5039193  37.1839705  42.1230402   8.8263600
  35.5783594  39.0207615   9.1028388  36.3006246  39.1848773   8.6432194
  35.0991587  39.7417279   8.9967727  35.6147325  39.1505844   9.0194002
  43.5377102  35.3571413  14.4825073  42.6988203  35.3832692  14.2463336
  43.6081469  36.0042149  15.0630419  43.4245495  35.4567539  14.5334189
  33.2291211  41.4265687  18.2082527  33.7412308  41.7049940  17.5591287
  32.9427554  42.1654981  18.5745341  33.2626074  41.5768041  18.1672406
  41.9846380  32.2556790   9.2152688  42.6872733  32.0564539   8.7372647
  41.7190569  31.4832733   9.5221532  42.0493013  32.1119756   9.1898130
  47.4134626  40.5639400  11.7686314  47.3268600  40.7194826  12.6221093
  46.9585106  41.2077476  11.3945719  47.3337882  40.6815155  11.8393421
  30.3158117  35.9335879   8.5046264  30.4174254  36.7362040   8.8327239
  31.1114004  35.7323215   8.2069345  30.4486023  36.0221778   8.5081619
  36.7474937  33.5192076  18.2683569  36.5558134  33.5347210  19.1182993
  37.5973532  33.7155750  18.2450224  36.8450658  33.5506427  18.3906864
  31.1321850  36.0483057  16.2467386  30.9907341  35.1966998  16.3711893
  31.4162413  36.0911718  15.4229592  31.1529696  35.9282807  16.1435010
  41.2860442  37.8850147  10.3911874  41.0395156  37.8045898  11.2248663
  41.6145565  37.1003615  10.1974401  41.2981685  37.7576413  10.4859397
  45.1808491  44.5933507  14.1798655  45.0422850  45.2914552  14.6847397
  44.4008489  44.4382163  13.8234837  45.0451718  44.6733673  14.2024929
  43.5186576  40.8929882  20.4321037  43.5134614  40.0209699  20.4363463
  44.2247570  41.0918051  19.9590492  43.6231580  40.7933756  20.3628072
  37.2457469  40.6206866  19.8034857  37.3900845  41.2008074  19.1677967
  37.5933118  40.9983163  20.5084711  37.3184931  40.7627570  19.8133852
  39.4177387  39.8197034  17.5859988  38.6700701  40.0128049  17.1808267
  39.5718912  38.9942254  17.3484110  39.3299814  39.7262146  17.4905394
  36.3185224  48.8109638  16.6695884  36.4674788  48.2512554  16.0169288
  37.0985226  48.8901639  17.0528403  36.4559318  48.7395203  16.6292833
  46.6761864  43.9511760   4.9415154  46.2968672  43.1648898   4.9344444
  46.0128109  44.4998617   4.7986798  46.5220338  43.9156584   4.9195951
  38.8438525  48.9824281  17.9480375  38.7682196  48.3133091  18.5031163
  38.7728384  49.6842069  18.4621041  38.8219132  48.9869188  18.1057223
  39.6579164  33.7147585  18.4755392  40.1151778  34.4471559  18.6028184
  39.7335492  33.2914050  19.2342648  39.7370133  33.7604823  18.6056469
  31.9012155  33.9613405  19.5644836  31.3654344  33.3493763  19.8805603
  31.9629920  34.5361541  20.2178503  31.8307787  33.9560332  19.7080263
  44.1306489  26.8937460  12.3449235  44.2490058  27.3513924  11.6116538
  43.9568665  26.0882721  12.0585453  44.1225660  26.8431232  12.1950169
  39.5008772  47.5025279   8.7803981  40.2658663  47.2334923   8.4586645
  39.3986862  47.0175290   9.4974043  39.5990267  47.3914844   8.8383808
  37.5361541  35.7049689  15.3197216  36.7457616  35.5241149  15.6414552
  37.9322164  34.9276641  15.3027511  37.4778418  35.5637150  15.3649765
  42.0227432  44.5337463   0.7603930  42.7900417  44.5937588   0.3509782
  41.5758741  43.9617905   0.2760248  42.0700859  44.4574039   0.6281640
  42.9205228  43.3392119  13.0456662  42.2450230  43.1077351  13.5470049
  42.9297604  42.7313302  12.4198767  42.8223732  43.2151044  13.0272814
  40.0499372  38.1809948  19.8020715  39.9858513  39.0419905  19.6740852
  40.1896559  37.8641941  19.0016266  40.0614842  38.2610115  19.6648928
  44.9221962  46.1957251   5.2766840  45.0041800  47.0024238   4.9528291
  45.4071705  46.2153211   6.0007614  45.0059120  46.3177914   5.3353739
  38.7318466  40.8742087  13.9436918  38.3080715  41.0746586  13.2075936
  38.5563321  40.0270935  14.0561218  38.6429346  40.7790869  13.8510608
  34.0200911  41.3694139   9.3764891  34.1765530  41.3040942  10.2320883
  34.3601504  42.1442691   9.1643570  34.0934145  41.4743337   9.4719485
  40.5580055  40.7452022   8.2458254  41.0995601  40.2422404   8.7096874
  40.8726614  40.6917217   7.4347739  40.6844452  40.6631443   8.1942066
  38.7266505  46.1369374   5.5298282  38.7959325  45.2783912   5.6691282
  39.5054960  46.3541255   5.2017306  38.8519355  46.0422238   5.5015439
  41.7069325  35.6388327  18.2980554  41.9211294  34.9999241  17.7443908
  41.0903224  36.0834151  17.8688416  41.6474654  35.6098471  18.1530985
  43.1173993  48.5607075   9.7434775  42.7253784  48.2573790   9.0257641
  43.2727065  49.3976165   9.5539729  43.0827582  48.6390912   9.6091272
  30.5935172  38.5529089   9.6925658  30.9734137  38.9713634   9.0285925
  30.0190537  39.1342545   9.9994501  30.5646497  38.7006948   9.6402399
  43.8708413  37.2477392  19.2363861  43.0585094  36.9403282  19.3177034
  44.3298347  36.7676392  19.8006574  43.8188797  37.1313884  19.3318456
  43.2813667  45.1257064   9.6840806  42.9228322  45.2971707  10.4604838
  42.7952378  45.5870270   9.1268804  43.1572364  45.2196035   9.7166075
  41.0984053  28.7488263  13.2867897  40.2277611  28.7226984  13.2401207
  41.3524395  28.5765455  12.4693743  41.0077613  28.7198406  13.1588034
  38.0702033  40.8056229   2.2241040  38.3594558  41.5821112   2.4984614
  38.1573832  40.2944961   2.9255539  38.1256289  40.8448148   2.3683538
  38.1233194  30.7594491  14.7441367  37.6071682  30.0674682  14.8692946
  37.5627123  31.4265268  14.6903966  37.9639707  30.7557749  14.7547433
  40.1925427  31.2987451  16.5734220  39.8057180  31.3236483  17.3547750
  39.7058365  30.7329130  16.1208737  40.0637936  31.2183202  16.6222124
  46.1675407  37.8650106  15.1973922  45.7403015  37.7776455  14.4422022
  45.5301460  37.9727882  15.7828766  46.0105014  37.8682766  15.1719364
  39.8582569  28.1854437  18.8644480  40.4875687  28.7214737  18.5865550
  40.0268432  28.0931795  19.7158046  39.9760363  28.2515799  18.9493008
  39.6596484  32.9725631  21.1370892  40.4869913  32.7010780  21.1929506
  39.6804330  33.7686473  21.4934710  39.7849334  33.0505385  21.1986074
  44.4972663  46.7080768  17.2713363  45.2865041  46.3569833  17.3915445
  44.6716261  47.5217157  17.0089997  44.6392945  46.7766625  17.2501231
  34.2365974  40.1189494  14.3241152  33.3953980  40.0193368  14.5320046
  34.4455982  40.8884974  14.6755473  34.1430666  40.2181537  14.4068467
  31.7141541  37.7409031  12.1525903  31.3198238  37.8152043  11.3776012
  31.1581657  38.1266977  12.7034265  31.5744353  37.8090806  12.1193563
  43.3506487  30.7190325  11.8329782  43.5556081  30.6512633  12.6786779
  43.0232911  31.5249146  11.7650959  43.3321735  30.8276265  11.9489437
  38.0482639  38.0470893  13.5738750  37.7445776  37.4926882  14.1749157
  37.3462059  38.2263103  13.0866784  37.8998848  37.9915676  13.5908455
  37.1048736  35.3571413   8.1383452  37.3808470  34.6390326   7.7261019
  37.7047405  35.9556333   7.9304558  37.2342000  35.3391784   8.0464213
  36.1100990  45.2620614  18.2810847  36.0021344  45.2722676  19.1472906
  36.3196771  46.0875394  18.0915801  36.1251101  45.3861689  18.3814939
  46.6040175  31.2722089  11.3132547  45.9914489  31.7592491  11.6986279
  46.7004350  30.5965580  11.8570198  46.5278073  31.2440398  11.4511405
  40.6059256  33.0284930   6.4130047  41.0603003  33.1995491   7.1377891
  41.0799302  32.4153041   6.0127822  40.7427576  32.9635816   6.4603808
  34.1274782  42.5133256  15.7432785  33.5362715  43.1542755  15.7135800
  34.8895805  42.9370874  15.7164085  34.1523042  42.6709095  15.7347932
  34.5235404  33.6735254  16.4100803  34.9836886  33.7474184  17.1475926
  34.5691511  34.4716508  16.0600624  34.5985960  33.8029401  16.4673559
  36.1718754  34.3401949  20.9772830  35.7804319  33.6935296  21.4128608
  36.3404617  34.9313384  21.5967085  36.1389664  34.3316217  21.1335536
  50.2465203  42.3439026  16.7410063  50.3048327  42.7925675  17.4870040
  49.6131671  42.7537839  16.3040143  50.1616498  42.4712761  16.7862612
  37.9472276  39.7327465   7.5175054  38.6914321  40.1201741   7.7558004
  38.0932972  38.8884890   7.6815542  38.0782861  39.6657938   7.5769023
  39.8651852  31.5277724  12.5506915  39.0187897  31.7000531  12.4248265
  39.8622984  30.7227067  12.8872744  39.7399001  31.4338753  12.5818042
  40.9350152  35.3052938  13.4168973  40.4610106  34.7794700  13.9274284
  41.3068288  34.7582411  12.8483835  40.9200041  35.1468935  13.4084120
  31.3123182  37.3024445  18.7852519  32.1748795  37.2020154  18.6989849
  30.9814965  36.7219154  18.2238091  31.3908378  37.2016072  18.6897925
  47.1986883  40.3655314  14.8275754  46.9585105  39.5261729  14.8318180
  47.6778890  40.4455480  15.5516527  47.2339066  40.2536713  14.9350556
  42.8633652  36.1989493   6.4794727  42.3356670  36.2818237   5.7900436
  43.3229360  36.9407364   6.4759372  42.8535502  36.3210155   6.3769422
  49.1992070  37.1456771  12.7805013  48.9601840  37.1052605  11.9425797
  49.3625971  37.9927923  12.9070734  49.1882373  37.2648856  12.6758495
  45.8038100  41.5306720  18.7110058  46.5272299  41.0779247  18.5321078
  45.5388062  41.8111386  17.9282386  45.8719373  41.5057689  18.5688773
  34.6724968  36.1266894  15.4462937  34.0478038  36.1385286  14.8388890
  34.3370563  36.6027069  16.0954177  34.5310460  36.1985411  15.4519506
  34.8566717  34.4692012   1.5035622  34.5079521  35.1211738   1.9667171
  34.3763163  34.4549125   0.7759493  34.7336961  34.5635066   1.4646713
  31.3850644  44.1867354  16.8866701  30.8550568  43.4959793  16.9361676
  31.6575737  44.1777539  16.0579410  31.3475366  44.0834486  16.7714117
  42.4170734  44.7693056   5.6104384  43.1404933  45.2351169   5.4668957
  41.9771325  44.8366666   4.8601981  42.4586426  44.8476893   5.4789165
  41.5856889  41.6290598  16.8605073  40.9713882  41.0848649  17.1553708
  42.1024174  41.1154835  16.3810889  41.5712552  41.4727008  16.8329301
  40.8253186  42.6994869  14.5949372  40.3980794  42.0744587  14.1614807
  40.8178131  42.4169790  15.4208379  40.7612328  42.5647649  14.6529199
  33.9415713  37.7360042  17.6637806  34.1009200  36.9803366  18.0689527
  33.7608607  38.2850981  18.3178543  33.9381072  37.7053855  17.8200512
  41.8836016  29.9021277  18.2188595  41.3876578  30.0984951  17.5280162
  42.6405079  30.3013945  18.0477397  41.9222841  29.9899011  18.0908732
  39.1538896  33.5763623  14.8091906  39.1781383  33.0423735  14.1204686
  39.4050370  33.0680932  15.4717496  39.1948815  33.4224527  14.8056550
  26.6646486  40.8595118  14.2435050  26.5589935  40.8141962  13.3787134
  25.9146706  41.2048899  14.5249335  26.5382089  40.9036026  14.1572379
  35.4340218  32.3034441  14.1897650  35.4738590  32.8043648  14.9032357
  34.6089883  32.3944835  13.9203573  35.3179744  32.3916258  14.2548188
  37.6169831  41.8695181  22.2917944  36.7665462  42.0066896  22.4275589
  37.7797959  41.1358960  22.7365646  37.5153695  41.7809282  22.3773544
  36.8554582  38.8194951  16.4871549  36.0246511  38.9868769  16.2806797
  36.8006099  38.4430902  17.2720434  36.7243997  38.7884682  16.5720077
  35.2290625  37.0950543   7.0161667  35.3693587  37.5923007   7.7190308
  35.7273158  36.3936837   7.1575880  35.3231706  37.0652521   7.1413246
  35.2590848  37.9617654   4.3454243  35.8935927  38.5578079   4.2803705
  35.3416459  37.6621111   5.1600114  35.3647399  38.0058562   4.4557330
  48.2373414  40.4933131  17.2140608  48.8291254  41.1330382  17.2458806
  48.6732408  39.7956168  17.5032674  48.3891845  40.4851481  17.2621440
  36.8369831  33.8931629   4.3199685  37.1585672  33.4134712   3.6658948
  37.0996774  34.7031275   4.1290497  36.9235856  33.9421527   4.1955177
  40.0666804  44.9150503  17.8398502  39.5591895  45.4686350  18.2839132
  39.7693450  44.9758793  17.0217276  39.9471688  45.0056815  17.7846958
  42.2328986  33.2803823  16.6823165  42.6584057  32.8276349  16.0706691
  41.6185979  32.7263894  16.9587952  42.2057631  33.1317799  16.6328190
  31.7643836  40.1585494   7.6143789  32.2736065  40.7550002   7.9955095
  32.2378108  39.8911468   6.9320209  31.9087211  40.2071310   7.5698312
  42.6774584  48.8313761   5.7702445  41.9603894  48.6574623   5.3049682
  43.3281321  48.5966333   5.2377931  42.6676434  48.7709554   5.6231663
  40.6723209  29.7518923  10.0913742  40.0291527  29.6016569  10.6598880
  40.3322616  29.5061268   9.3262846  40.5268286  29.6931045  10.0616757
  45.2622555  37.7078350   9.5143750  44.5913745  38.2508052   9.3856816
  45.9562305  38.1773205   9.2725445  45.2651423  37.8576621   9.4599278
  39.3109289  49.8475062  14.7455508  39.0874943  49.0893891  15.1139535
  38.8219132  49.8773083  14.0235948  39.2052738  49.7397286  14.6932249
  45.4250683  34.1634233  12.4234123  45.7778293  33.7363956  13.0979922
  44.5665484  34.0785077  12.5535200  45.3500127  34.0878974  12.5429134
  34.1234368  36.7941753  10.4816970  33.4046357  37.2105886  10.7489833
  34.4946730  37.3595992   9.9308608  34.0726299  36.9391034  10.4399777
  43.4233948  37.4269602  16.3718966  43.4031876  37.2452897  17.2253744
  43.4713149  38.2981620  16.3478549  43.4268589  37.5286140  16.4942260
  41.3680278  44.0156794  22.2967442  41.3276133  43.3706471  21.7112598
  42.1803596  43.9593411  22.6092854  41.4823432  43.9115761  22.2564391
  37.9587746  50.0675520  12.1992593  37.5448144  49.4049650  11.8096435
  38.6435120  50.2153379  11.6788287  37.9986117  49.9916178  12.0649090
  41.3253040  49.2265605  12.9516210  40.9269323  49.3367875  12.1837030
  40.7104259  49.4347671  13.5342769  41.1751929  49.2739173  12.9247509
  39.8980942  35.8339753   5.8190349  39.3045781  36.1556749   5.2674916
  39.9356220  34.9880848   5.6111455  39.8155331  35.7564081   5.7073121
  46.8574743  29.2852645  13.3518436  46.3505607  28.5781785  13.2839613
  47.6542176  28.9545834  13.4819512  46.9001982  29.1325797  13.3617431
  42.7738758  35.7919257   9.2492100  42.5452451  35.8151959   8.4070458
  43.0336835  34.9676724   9.3687110  42.7784946  35.6735337   9.1417297
  37.0557987  37.6453730  18.8517200  36.5436890  37.0374913  19.2102231
  36.8837483  38.3610323  19.3191176  36.9547624  37.6617030  18.9733423
  35.8283521  34.3295804  10.5446295  36.3040887  34.6912884   9.9096476
  35.3272121  34.9852271  10.8246438  35.8248880  34.4789992  10.4923036
  49.0594883  43.8017572   6.3359300  49.4428488  44.5508928   6.5657397
  48.2638996  44.0483391   6.0771289  48.9988665  43.9487266   6.3316874
  40.9327057  35.5677975  21.2919455  41.4898487  35.3391785  20.6597921
  40.6088122  36.3283641  21.0154668  40.9673467  35.6461812  21.1575952
  28.8025766  38.9938171  16.7608051  28.2552486  38.3238817  16.8788920
  29.5918144  38.6268019  16.8251519  28.8377950  38.8403158  16.7876752
  38.6510175  38.6545628  22.2571462  39.4021501  38.9697305  22.5711017
  38.8432751  38.4524799  21.4305384  38.7901589  38.6713010  22.1814858
  37.8710174  36.4737003   3.9119679  38.2509139  36.4916633   3.1270794
  37.1302770  36.9190992   3.7910527  37.8179012  36.5418778   3.7783247
  45.4995465  34.7819195   9.4995258  45.4989691  34.6267851  10.3579534
  45.2951645  35.6282182   9.4436643  45.4695242  34.8839815   9.6183197
  27.5612736  38.2058979  13.9154074  27.3834497  37.7535588  14.6408990
  27.2731758  39.0085141  14.0992552  27.4925689  38.2581537  14.0497577
  43.2236317  39.4616696  13.1531465  43.7189982  38.7439692  13.1135485
  42.4136092  39.1587494  13.0385952  43.1780210  39.3114343  13.1305191
  38.6694928  43.3114510   5.3028469  37.8606251  42.9881183   5.2561779
  39.1769837  42.6047732   5.2356718  38.6244595  43.1595826   5.2858764
  29.2985205  40.7386703  11.0275834  28.4330725  40.7272393  10.9158605
  29.3984021  40.5516926  11.8746973  29.1859372  40.7092764  11.1364778
  45.2888136  42.2120384  15.8408594  45.7143207  41.6894806  15.2879019
  44.9245055  42.8101221  15.3197216  45.2974738  42.2230611  15.6817603
  34.9242215  50.5084602  14.6005939  35.2388774  51.3220990  14.6083721
  35.3335629  50.1234820  15.2688098  35.0310313  50.5713304  14.7010031
  41.8766735  45.9254648  12.1709751  42.3477913  46.6394911  12.3399736
  42.2126914  45.3253398  12.7069620  41.9961850  45.9426113  12.2742127
  38.7936230  30.6982119  19.1267846  38.9264136  29.9013112  19.4548821
  39.1781383  31.2248522  19.7066121  38.8692559  30.6582036  19.2611349
  42.5140681  45.7172582  18.9337444  41.9661627  45.0930466  18.6657509
  42.9753710  45.9066854  18.2181523  42.5007891  45.6531633  18.7887875
  41.8668585  27.6212445  15.7248939  41.0614549  27.5110175  16.0416777
  41.7375321  27.7224901  14.8678805  41.7288718  27.6196115  15.6456979
  45.3234546  33.7857937  16.3188636  44.7397534  34.2867143  15.9066203
  45.6438840  33.2787493  15.6852959  45.2847721  33.7849772  16.1647143
  37.8629345  32.6998532   6.5947311  38.6845039  32.8696845   6.3529006
  37.3998996  32.8545793   5.8713608  37.9160507  32.7480265   6.4518955
  36.4524677  30.6941294  17.3745740  36.9969090  30.3532421  17.9650081
  36.5061612  31.5526755  17.5167024  36.5413796  30.7696553  17.4827613
  32.2655235  44.4557710  14.2484547  32.8700093  44.4153544  13.6198368
  32.0582548  45.3028862  14.2788603  32.3244133  44.5745712  14.1600664
  42.0799008  46.7223655  15.4646785  42.8997381  46.5786621  15.7263080
  41.7993085  47.3469854  16.0063223  42.1595751  46.7934007  15.5834724
  27.5006518  43.4392327  14.1183471  27.4030796  42.6288599  14.4273527
  28.2835387  43.4184121  13.7329739  27.6022654  43.3159418  14.1070333
  58.5512658  54.3788507   8.4289661  58.5206662  55.2333144   8.6007931
  59.1494007  54.0783799   8.9875805  58.6349816  54.4605003   8.5364463
  51.7512343  53.4664158  13.1842592  50.8950238  53.6272656  13.2351708
  51.7979997  52.5956222  13.2047653  51.6311454  53.3614960  13.1948658
  46.1353483  63.0026876   8.9479823  45.3836382  62.6242414   8.7195868
  46.5839494  63.0345309   8.1998633  46.0903149  62.9512483   8.8037325
  55.0606059  59.7350683  22.7903048  55.7672827  59.2402714  22.9189982
  55.2493995  60.1759765  22.0605706  55.1933965  59.7269034  22.7012093
  54.5964164  55.5256202  15.8274243  55.1420124  56.2041288  15.8868213
  54.5381040  55.3843663  14.9675825  54.6680078  55.6048203  15.7086304
  47.7138239  63.0145268  11.2142596  47.8148602  62.2045622  11.5239723
  47.1179984  62.9202214  10.5842274  47.6410777  62.8810296  11.1668834
  47.5538978  67.9322857  12.6157452  48.1976434  68.3736021  13.0053610
  47.8795234  67.1276283  12.5287710  47.6970807  67.8788052  12.6602929
  40.9103283  59.0365554  10.8394929  40.6753467  58.2033207  10.7327198
  41.0488924  59.3170220  10.0256130  40.8958945  58.9549058  10.7037284
  43.2093370  51.2051285  13.7379237  42.5898402  50.6143932  13.5689252
  43.1077234  51.7962720  13.1043560  43.1031046  51.2055368  13.6184227
  50.3061266  52.9450827   8.0711700  51.0041431  53.1238954   8.5633163
  50.6213599  52.4221166   7.4482089  50.4556603  52.8944599   8.0513710
  42.9362503  54.7503567  15.9822806  42.8121200  55.3366012  16.6172625
  43.5880788  54.2563762  16.2835081  43.0136153  54.7642371  16.1208735
  50.4949201  59.3321272   8.0591492  50.9342837  58.7238372   8.5046264
  50.3453864  58.9528645   7.2876957  50.5370667  59.1859743   8.0110659
  47.9620844  57.9265284  15.2610317  48.6069847  57.4337727  14.9421266
  48.2022622  58.0690070  16.0876395  48.0931430  57.8742726  15.3359850
  50.5006936  60.7720190  14.9117210  50.7830179  59.9771595  14.6903966
  51.2293096  61.2500777  14.9322271  50.6496500  60.7254786  14.8820225
  48.4788130  48.3143223  12.1532975  48.1491460  48.7654367  11.4836673
  47.8033131  48.2359387  12.7005981  48.3298566  48.3694359  12.1356198
  55.6864537  44.3028746  10.3982585  55.3717978  44.9932225  10.8303008
  55.1691479  44.2473529   9.6968086  55.5629008  44.3963635  10.3579535
  60.4825024  59.8779552  11.8853040  59.6522727  60.0890195  12.0486457
  60.4334276  59.0516606  11.6095324  60.3531760  59.7869158  11.8690406
  42.4720608  63.9151225  12.1151135  41.9888186  64.6401715  12.0910719
  43.2843926  64.2127355  12.2261293  42.5211355  64.0653579  12.1278415
  48.5434762  62.7083406  14.7200950  48.0261703  62.3490821  14.1162258
  49.2409153  62.1845580  14.7307016  48.5700343  62.5781094  14.6331209
  52.1998354  63.1578220  20.6817123  52.2881700  62.9704360  21.5295333
  52.6288066  62.5115650  20.2821970  52.2760456  63.0341228  20.7488874
  49.7668813  62.4409380  19.6634785  49.2039648  62.0281990  20.1874446
  50.5289837  62.3662286  20.0827928  49.7963262  62.3686780  19.8027786
  46.6844084  46.3755512   7.6355922  47.4390052  46.7433829   7.3972973
  46.5071618  46.7495066   8.4035102  46.7698562  46.4853700   7.7140811
  45.3264805  64.4307401  12.2671415  46.0285384  63.9159390  12.3244172
  45.2462288  64.7581552  13.0718290  45.4188565  64.4021627  12.3944208
  59.9778982  52.5249952  15.6803462  59.1407404  52.5952139  15.9151056
  59.9467213  52.5274447  14.8077764  59.8497265  52.5360179  15.5863010
  45.0401148  48.7825831   4.3334035  44.8576722  48.9997712   3.5075028
  45.9026761  48.8964844   4.3892650  45.1405738  48.8315729   4.2188523
  44.6515580  60.6213753  11.7757023  45.4904480  60.8536686  11.8230785
  44.6827350  59.7518065  11.7064059  44.7797298  60.5270700  11.7721668
  45.2768283  61.0414628  16.0770329  45.8166508  60.8985759  16.7473701
  44.5938230  61.4411379  16.4454355  45.2560437  61.0794299  16.2304751
  50.7200868  45.7852242   7.3683059  51.4487028  45.6068197   6.9221216
  50.8095760  46.6270321   7.5790237  50.8407530  45.8836120   7.3336577
  54.7009168  56.7205629  11.2715353  55.4566683  57.1537143  11.3104262
  54.8071493  56.0710399  11.8449989  54.8279339  56.6883113  11.3613379
  57.7389339  60.5478906  12.0217756  57.3024571  60.5515649  12.7776728
  57.4052255  61.2284405  11.5897334  57.6251959  60.6491362  12.0698589
  40.6805428  57.2614919  16.2304750  40.4143844  56.4454036  16.3895741
  40.6943993  57.3068075  15.3600266  40.6430151  57.1471824  16.1258232
  57.6586822  47.5892734  14.2647184  58.3012731  47.6590839  14.8509099
  57.9109843  46.9221957  13.7626726  57.7908954  47.5019083  14.2774463
  44.5863175  52.0600004   2.8456509  43.8721353  51.7738183   3.2578941
  45.0707144  52.3996629   3.4862896  44.5522539  52.0681653   3.0012143
  52.4688806  64.4997341  16.9927362  51.6704052  64.2596841  17.2501231
  52.9174818  64.5511734  17.7394410  52.4163418  64.4719732  17.1412286
  60.8733686  57.2659826  10.9137393  61.5350120  56.7050495  10.8133302
  60.2325098  56.7711857  11.2390085  60.8762553  57.1096235  10.9469734
  41.0898842  58.0473699  13.5116495  40.9074415  58.0220585  12.6588787
  41.8248511  58.5172636  13.5505403  41.1712906  58.1135061  13.3914413
  57.1598516  58.2825208  10.6549382  57.3954105  58.4270407   9.8276233
  57.3088080  59.0467616  11.0480896  57.2164320  58.4164263  10.5912986
  54.2020862  54.9691777   9.1742566  54.2967717  55.7081071   9.6282192
  53.5779706  54.5409253   9.6077131  54.1229892  55.0153098   9.3050714
  52.4573336  58.1477990  19.8232847  53.0312198  57.5105234  19.9781411
  52.3788140  58.1482072  18.9542505  52.5306571  58.0543101  19.7179258
  41.0569752  54.9267199  13.6615561  41.6343255  54.7903650  14.3007807
  40.3583814  54.4702983  13.9161146  41.0390774  54.8389465  13.7937851
  47.8137055  56.5801255  11.8754045  47.5556299  55.7472990  11.8485344
  47.8685537  56.8058868  11.0346545  47.7836832  56.4899026  11.7474181
  52.8938105  48.6829706  11.9758137  52.1894432  48.1938891  12.1342056
  52.9423079  48.6952180  11.1046582  52.7968156  48.6119354  11.8697477
  46.7871767  54.1339017  12.3618939  46.2121358  54.2931186  12.9982900
  46.4107443  53.4974426  11.8987390  46.6474579  54.0636830  12.3873498
  50.4545055  52.6062367  17.2211318  50.0659488  52.1816584  16.5663509
  49.7899754  52.8544516  17.7288344  50.2991983  52.5801088  17.1999186
  60.0968325  52.3637371   9.9959148  59.8404889  51.5517313   9.8057030
  60.9397639  52.3714938   9.7689335  60.1834350  52.2449369   9.9343965
  36.5328586  53.7779092  10.3763380  36.6188837  53.4010960  11.1576910
  37.1604383  53.4039538   9.8983338  36.6385137  53.6664574  10.4208857
  54.2771417  46.3036995  14.7335302  54.6581929  45.6215166  15.1203176
  53.4734701  46.0146597  14.5510966  54.2147879  46.1604044  14.7639358
  57.7793484  59.5186967  19.8317700  57.5432121  58.6875032  19.7129761
  58.4236713  59.4672575  20.4172544  57.8388155  59.3884655  19.9003594
  47.4291902  60.3082489  10.5460437  48.0665849  60.0694236  11.0912230
  47.8546974  60.5119648   9.8113597  47.5868068  60.3033499  10.5177594
  42.1204544  62.5470825  14.4294741  42.1608690  62.8185676  13.6014520
  42.6799068  63.0712733  14.8452528  42.2087890  62.6646580  14.3686629
  48.0694717  55.5284778   4.8835326  48.4539870  55.3092485   5.6351871
  47.8206337  56.3547724   5.0136402  48.0896790  55.6182925   5.0136403
  58.8029904  59.3031416  15.8945995  58.4975722  60.0359473  16.2559310
  58.0836120  58.8969346  15.6138781  58.6517247  59.3513149  15.9059132
  49.8113374  60.7854911  12.2254223  49.8852382  60.6230083  13.0796073
  50.6282880  60.9745101  11.9814705  49.9429733  60.7891654  12.3152249
  64.5031697  55.9424417  15.2214339  64.4356197  55.9620376  14.3516926
  64.4887359  56.7854744  15.4470010  64.4910453  56.0698151  15.1266816
  43.5719131  61.1312774   9.2548666  42.7457248  61.3774511   9.1282945
  43.6331122  61.0524855  10.1210725  43.4593298  61.1557723   9.3637611
  45.7895154  47.1981715  10.2144107  44.9217580  47.2704315  10.2801716
  46.0770359  48.0003794  10.4032082  45.7034902  47.3275862  10.2518873
  54.9128043  47.3459574  18.5455428  55.6581635  47.1569385  18.1318854
  54.4965348  47.8717812  17.9869285  54.9613017  47.3961720  18.4020002
  62.2890314  54.7168803  13.4960933  62.8398236  54.0836872  13.7358026
  62.2734429  55.2484196  14.1876438  62.3675510  54.7017751  13.6339792
  48.9412705  58.5507400  18.0420827  48.4424398  59.2623168  18.1205715
  49.7512929  58.8708067  18.0038989  48.9868812  58.7034249  18.0477395
  46.2923875  65.7257037  10.0227846  46.0724171  65.4354391  10.8154513
  46.0718397  65.0671992   9.4945758  46.2271469  65.5856745  10.0616755
  45.2040822  57.8130353  12.2883548  44.9154071  57.1867825  12.8229275
  46.0724170  57.7550641  12.3548228  45.2901074  57.7117897  12.3774502
  55.9918720  52.9565137  12.6065530  55.6483486  52.2355472  12.9572779
  56.0911763  52.7478988  11.7643888  55.9560763  52.8189340  12.5337210
  45.4073096  59.4525604   8.2125913  46.1619064  59.8338643   8.4261375
  44.8143708  59.9036748   8.6672609  45.4309809  59.5754432   8.3108791
  46.7271322  60.6234166  13.5866028  46.2052076  60.7634457  14.2717893
  47.1145343  59.8644830  13.7768146  46.7075023  60.5319689  13.7167105
  43.7162506  50.6739974   7.6560983  43.4287302  50.3041245   6.9192930
  44.4032975  51.1434830   7.3944688  43.7751404  50.6886944   7.5076059
  48.1537648  57.6538185   8.9847519  47.9580431  58.2612919   8.3907822
  48.3771994  56.9606129   8.5039193  48.1572289  57.6415710   8.8263600
  46.5516178  54.5392923   9.1028388  47.2738830  54.7034081   8.6432194
  46.0724171  55.2602587   8.9967727  46.5879909  54.6691152   9.0194002
  54.5109686  50.8756721  14.4825073  53.6720786  50.9018000  14.2463336
  54.5814053  51.5227457  15.0630419  54.3978079  50.9752847  14.5334189
  52.9578964  47.7742098   9.2152688  53.6605317  47.5749847   8.7372647
  52.6923153  47.0018041   9.5221532  53.0225596  47.6305064   9.1898130
  58.3867209  56.0824708  11.7686314  58.3001184  56.2380134  12.6221093
  57.9317689  56.7262784  11.3945719  58.3070466  56.2000463  11.8393421
  41.2890701  51.4521187   8.5046264  41.3906837  52.2547348   8.8327239
  42.0846588  51.2508523   8.2069345  41.4218607  51.5407086   8.5081619
  42.1054433  51.5668365  16.2467386  41.9639925  50.7152306  16.3711893
  42.3894996  51.6097026  15.4229592  42.1262279  51.4468115  16.1435010
  52.2593025  53.4035455  10.3911874  52.0127740  53.3231206  11.2248663
  52.5878149  52.6188923  10.1974401  52.2714269  53.2761721  10.4859397
  56.1541074  60.1118815  14.1798655  56.0155434  60.8099860  14.6847397
  55.3741072  59.9567471  13.8234837  56.0184301  60.1918981  14.2024929
  54.4919159  56.4115190  20.4321037  54.4867198  55.5395006  20.4363463
  55.1980153  56.6103359  19.9590492  54.5964163  56.3119064  20.3628072
  50.3909970  55.3382342  17.5859988  49.6433284  55.5313357  17.1808267
  50.5451495  54.5127562  17.3484110  50.3032398  55.2447454  17.4905394
  47.2917808  64.3294946  16.6695884  47.4407371  63.7697862  16.0169288
  48.0717810  64.4086947  17.0528403  47.4291901  64.2580511  16.6292833
  49.8171108  64.5009589  17.9480375  49.7414779  63.8318399  18.5031163
  49.7460968  65.2027377  18.4621041  49.7951715  64.5054496  18.1057223
  50.6311747  49.2332893  18.4755392  51.0884361  49.9656867  18.6028184
  50.7068076  48.8099358  19.2342648  50.7102717  49.2790131  18.6056469
  55.1039073  42.4122768  12.3449235  55.2222641  42.8699231  11.6116538
  54.9301249  41.6068029  12.0585453  55.0958244  42.3616540  12.1950169
  48.5094125  51.2234997  15.3197216  47.7190200  51.0426457  15.6414552
  48.9054748  50.4461949  15.3027511  48.4511001  51.0822458  15.3649765
  53.8937811  58.8577427  13.0456662  53.2182813  58.6262659  13.5470049
  53.9030187  58.2498610  12.4198767  53.7956316  58.7336352  13.0272814
  51.0231955  53.6995256  19.8020715  50.9591097  54.5605212  19.6740852
  51.1629143  53.3827249  19.0016266  51.0347425  53.7795423  19.6648928
  49.7051049  56.3927395  13.9436918  49.2813298  56.5931894  13.2075936
  49.5295904  55.5456243  14.0561218  49.6161930  56.2976177  13.8510608
  49.2062743  67.9077908  16.4058375  49.6958673  67.2088698  16.2234040
  48.6346975  67.6101778  16.9934433  49.1947273  67.7604132  16.4659416
  44.9933494  56.8879447   9.3764891  45.1498113  56.8226250  10.2320883
  45.3334087  57.6627999   9.1643570  45.0666729  56.9928645   9.4719485
  51.5312639  56.2637330   8.2458254  52.0728184  55.7607711   8.7096874
  51.8459198  56.2102525   7.4347739  51.6577036  56.1816751   8.1942066
  52.6801908  51.1573635  18.2980554  52.8943878  50.5184549  17.7443908
  52.0635807  51.6019459  17.8688416  52.6207237  51.1283779  18.1530985
  41.5667756  54.0714397   9.6925658  41.9466721  54.4898942   9.0285925
  40.9923120  54.6527853   9.9994501  41.5379081  54.2192256   9.6402399
  54.8440996  52.7662700  19.2363861  54.0317678  52.4588590  19.3177034
  55.3030931  52.2861700  19.8006574  54.7921381  52.6499192  19.3318456
  52.0716637  44.2673571  13.2867897  51.2010195  44.2412292  13.2401207
  52.3256978  44.0950763  12.4693743  51.9810197  44.2383714  13.1588034
  49.0965777  46.2779799  14.7441367  48.5804266  45.5859990  14.8692946
  48.5359706  46.9450576  14.6903966  48.9372291  46.2743057  14.7547433
  51.1658011  46.8172759  16.5734220  50.7789764  46.8421790  17.3547750
  50.6790948  46.2514438  16.1208737  51.0370520  46.7368510  16.6222124
  55.4150990  61.5346268  20.6308007  56.0530711  61.0406464  20.2970463
  54.7725082  61.4623668  20.0460233  55.4145217  61.4505276  20.4950362
  57.1407990  53.3835414  15.1973922  56.7135598  53.2961763  14.4422022
  56.5034043  53.4913189  15.7828766  56.9837598  53.3868074  15.1719364
  50.8315153  43.7039744  18.8644480  51.4608270  44.2400045  18.5865550
  51.0001015  43.6117103  19.7158046  50.9492947  43.7701107  18.9493008
  55.4705247  62.2266076  17.2713363  56.2597625  61.8755141  17.3915445
  55.6448845  63.0402465  17.0089997  55.6125528  62.2951933  17.2501231
  45.2098557  55.6374802  14.3241152  44.3686564  55.5378676  14.5320046
  45.4188565  56.4070282  14.6755473  45.1163250  55.7366845  14.4068467
  42.6874124  53.2594339  12.1525903  42.2930822  53.3337351  11.3776012
  42.1314241  53.6452285  12.7034265  42.5476937  53.3276114  12.1193563
  54.3239071  46.2375633  11.8329782  54.5288664  46.1697941  12.6786779
  53.9965495  47.0434454  11.7650959  54.3054319  46.3461573  11.9489437
  49.0215222  53.5656201  13.5738750  48.7178360  53.0112189  14.1749157
  48.3194643  53.7448411  13.0866784  48.8731432  53.5100984  13.5908455
  48.0781319  50.8756721   8.1383452  48.3541054  50.1575634   7.7261019
  48.6779989  51.4741641   7.9304558  48.2074584  50.8577092   8.0464213
  47.0833573  60.7805922  18.2810847  46.9753928  60.7907984  19.1472906
  47.2929355  61.6060702  18.0915801  47.0983684  60.9046997  18.3814939
  57.5772759  46.7907397  11.3132547  56.9647072  47.2777799  11.6986279
  57.6736934  46.1150888  11.8570198  57.5010656  46.7625706  11.4511405
  51.5791840  48.5470238   6.4130047  52.0335586  48.7180799   7.1377891
  52.0531885  47.9338349   6.0127822  51.7160160  48.4821124   6.4603808
  45.1007365  58.0318564  15.7432785  44.5095298  58.6728062  15.7135800
  45.8628389  58.4556182  15.7164085  45.1255626  58.1894403  15.7347932
  45.4967988  49.1920562  16.4100803  45.9569469  49.2659491  17.1475926
  45.5424095  49.9901816  16.0600624  45.5718543  49.3214709  16.4673559
  61.2197787  57.8624334  16.7410063  61.2780910  58.3110983  17.4870040
  60.5864254  58.2723147  16.3040143  61.1349082  57.9898069  16.7862612
  54.8596881  63.4827876  13.1764809  54.6616570  63.9718690  12.4821021
  54.2384592  63.6869117  13.7548943  54.7384446  63.5844414  13.1588033
  48.9204860  55.2512773   7.5175054  49.6646905  55.6387049   7.7558004
  49.0665556  54.4070198   7.6815542  49.0515445  55.1843246   7.5769023
  50.8384435  47.0463032  12.5506915  49.9920480  47.2185839  12.4248265
  50.8355568  46.2412375  12.8872744  50.7131585  46.9524061  12.5818042
  51.9082736  50.8238246  13.4168973  51.4342690  50.2980008  13.9274284
  52.2800871  50.2767719  12.8483835  51.8932624  50.6654243  13.4084120
  58.1719466  55.8840622  14.8275754  57.9317689  55.0447037  14.8318180
  58.6511473  55.9640788  15.5516527  58.2071650  55.7722021  14.9350556
  53.8366235  51.7174801   6.4794727  53.3089254  51.8003545   5.7900436
  54.2961943  52.4592672   6.4759372  53.8268086  51.8395463   6.3769422
  60.1724653  52.6642079  12.7805013  59.9334423  52.6237913  11.9425797
  60.3358554  53.5113231  12.9070734  60.1614957  52.7834164  12.6758495
  56.7770683  57.0492028  18.7110058  57.5004882  56.5964555  18.5321078
  56.5120646  57.3296694  17.9282386  56.8451957  57.0242997  18.5688773
  45.6457552  51.6452202  15.4462937  45.0210622  51.6570594  14.8388890
  45.3103147  52.1212377  16.0954177  45.5043044  51.7170719  15.4519506
  45.8299300  49.9877320   1.5035622  45.4812105  50.6397045   1.9667171
  45.3495746  49.9734433   0.7759493  45.7069544  50.0820374   1.4646713
  42.3583227  59.7052662  16.8866701  41.8283152  59.0145101  16.9361676
  42.6308321  59.6962847  16.0579410  42.3207950  59.6019794  16.7714117
  52.5589473  57.1475906  16.8605073  51.9446466  56.6033957  17.1553708
  53.0756758  56.6340143  16.3810889  52.5445135  56.9912315  16.8329301
  51.7985770  58.2180176  14.5949372  51.3713378  57.5929895  14.1614807
  51.7910714  57.9355098  15.4208379  51.7344911  58.0832957  14.6529199
  44.9148297  53.2545349  17.6637806  45.0741784  52.4988674  18.0689527
  44.7341191  53.8036289  18.3178543  44.9113656  53.2239163  17.8200512
  52.8568600  45.4206585  18.2188595  52.3609161  45.6170259  17.5280162
  53.6137662  45.8199253  18.0477397  52.8955425  45.5084319  18.0908732
  50.1271480  49.0948931  14.8091906  50.1513967  48.5609043  14.1204686
  50.3782953  48.5866240  15.4717496  50.1681398  48.9409835  14.8056550
  37.6379069  56.3780426  14.2435050  37.5322519  56.3327270  13.3787134
  36.8879289  56.7234207  14.5249335  37.5114672  56.4221334  14.1572379
  46.4072802  47.8219749  14.1897650  46.4471173  48.3228956  14.9032357
  45.5822467  47.9130143  13.9203573  46.2912328  47.9101566  14.2548188
  47.8287165  54.3380259  16.4871549  46.9979095  54.5054077  16.2806797
  47.7738682  53.9616210  17.2720434  47.6976580  54.3069990  16.5720077
  46.2023209  52.6135851   7.0161667  46.3426170  53.1108315   7.7190308
  46.7005742  51.9122145   7.1575880  46.2964290  52.5837829   7.1413246
  46.2323431  53.4802962   4.3454243  46.8668511  54.0763387   4.2803705
  46.3149042  53.1806419   5.1600114  46.3379982  53.5243870   4.4557330
  59.2105997  56.0118439  17.2140608  59.8023838  56.6515690  17.2458806
  59.6464992  55.3141476  17.5032674  59.3624428  56.0036789  17.2621440
  47.8102414  49.4116937   4.3199685  48.1318255  48.9320020   3.6658948
  48.0729358  50.2216583   4.1290497  47.8968440  49.4606835   4.1955177
  51.0399387  60.4335811  17.8398502  50.5324478  60.9871658  18.2839132
  50.7426033  60.4944101  17.0217276  50.9204272  60.5242123  17.7846958
  53.2061569  48.7989131  16.6823165  53.6316641  48.3461657  16.0706691
  52.5918562  48.2449202  16.9587952  53.1790215  48.6503107  16.6328190
  42.7376419  55.6770802   7.6143789  43.2468649  56.2735310   7.9955095
  43.2110692  55.4096776   6.9320209  42.8819795  55.7256618   7.5698312
  51.6455792  45.2704231  10.0913742  51.0024110  45.1201877  10.6598880
  51.3055199  45.0246576   9.3262846  51.5000869  45.2116353  10.0616757
  56.2355139  53.2263658   9.5143750  55.5646328  53.7693360   9.3856816
  56.9294889  53.6958513   9.2725445  56.2384006  53.3761929   9.4599278
  50.2841872  65.3660370  14.7455508  50.0607527  64.6079199  15.1139535
  49.7951716  65.3958391  14.0235948  50.1785321  65.2582594  14.6932249
  56.3983266  49.6819541  12.4234123  56.7510876  49.2549264  13.0979922
  55.5398068  49.5970385  12.5535200  56.3232711  49.6064282  12.5429134
  45.0966951  52.3127061  10.4816970  44.3778940  52.7291194  10.7489833
  45.4679313  52.8781300   9.9308608  45.0458883  52.4576342  10.4399777
  54.3966532  52.9454910  16.3718966  54.3764459  52.7638205  17.2253744
  54.4445733  53.8166928  16.3478549  54.4001173  53.0471448  16.4942260
  52.3412862  59.5342102  22.2967442  52.3008717  58.8891779  21.7112598
  53.1536180  59.4778719  22.6092854  52.4556015  59.4301069  22.2564391
  52.2985623  64.7450913  12.9516210  51.9001907  64.8553183  12.1837030
  51.6836843  64.9532979  13.5342769  52.1484513  64.7924481  12.9247509
  50.8713525  51.3525061   5.8190349  50.2778365  51.6742057   5.2674916
  50.9088803  50.5066156   5.6111455  50.7887915  51.2749389   5.7073121
  57.8307326  44.8037953  13.3518436  57.3238191  44.0967093  13.2839613
  58.6274760  44.4731142  13.4819512  57.8734565  44.6511104  13.3617431
  53.7471342  51.3104565   9.2492100  53.5185035  51.3337267   8.4070458
  54.0069418  50.4862032   9.3687110  53.7517530  51.1920645   9.1417297
  46.8016105  49.8481112  10.5446295  47.2773471  50.2098191   9.9096476
  46.3004704  50.5037579  10.8246438  46.7981464  49.9975300  10.4923036
  51.9059641  51.0863283  21.2919455  52.4631071  50.8577093  20.6597921
  51.5820706  51.8468949  21.0154668  51.9406051  51.1647120  21.1575952
  48.8442758  51.9922311   3.9119679  49.2241723  52.0101941   3.1270794
  48.1035354  52.4376300   3.7910527  48.7911595  52.0604086   3.7783247
  56.4728048  50.3004503   9.4995258  56.4722275  50.1453159  10.3579534
  56.2684228  51.1467490   9.4436643  56.4427826  50.4025123   9.6183197
  38.5345319  53.7244287  13.9154074  38.3567080  53.2720896  14.6408990
  38.2464341  54.5270448  14.0992552  38.4658272  53.7766845  14.0497577
  54.1968900  54.9802004  13.1531465  54.6922566  54.2624999  13.1135485
  53.3868676  54.6772802  13.0385952  54.1512794  54.8299651  13.1305191
  40.2717789  56.2572011  11.0275834  39.4063309  56.2457701  10.9158605
  40.3716605  56.0702234  11.8746973  40.1591956  56.2278072  11.1364778
  56.2620719  57.7305692  15.8408594  56.6875791  57.2080114  15.2879019
  55.8977639  58.3286529  15.3197216  56.2707322  57.7415919  15.6817603
  45.8974799  66.0269909  14.6005939  46.2121358  66.8406298  14.6083721
  46.3068212  65.6420128  15.2688098  46.0042897  66.0898612  14.7010031
  52.8499319  61.4439956  12.1709751  53.3210497  62.1580219  12.3399736
  53.1859497  60.8438706  12.7069620  52.9694434  61.4611420  12.2742127
  54.9376303  63.0541270  24.3501823  55.0473269  62.2649830  24.7058570
  55.2667200  62.9647206  23.5476161  55.0028709  62.9247122  24.2844214
  53.4873265  61.2357890  18.9337444  52.9394211  60.6115774  18.6657509
  53.9486294  61.4252162  18.2181523  53.4740474  61.1716941  18.7887875
  52.8401169  43.1397753  15.7248939  52.0347132  43.0295483  16.0416777
  52.7107904  43.2410209  14.8678805  52.7021302  43.1381423  15.6456979
  56.2967129  49.3043245  16.3188636  55.7130118  49.8052451  15.9066203
  56.6171423  48.7972801  15.6852959  56.2580305  49.3035080  16.1647143
  48.8361928  48.2183840   6.5947311  49.6577623  48.3882153   6.3529006
  48.3731579  48.3731101   5.8713608  48.8893091  48.2665573   6.4518955
  47.4257260  46.2126602  17.3745740  47.9701673  45.8717729  17.9650081
  47.4794196  47.0712063  17.5167024  47.5146380  46.2881861  17.4827613
  43.2387819  59.9743018  14.2484547  43.8432676  59.9338852  13.6198368
  43.0315132  60.8214170  14.2788603  43.2976716  60.0931020  14.1600664
  53.0531591  62.2408963  15.4646785  53.8729965  62.0971929  15.7263080
  52.7725669  62.8655162  16.0063223  53.1328335  62.3119315  15.5834724
  38.4739101  58.9577635  14.1183471  38.3763379  58.1473907  14.4273527
  39.2567971  58.9369429  13.7329739  38.5755238  58.8344726  14.1070333
  53.9095087  70.2688875  15.9822806  53.7853784  70.8551320  16.6172625
  54.5613372  69.7749070  16.2835081  53.9868736  70.2827679  16.1208735
  57.3476295  70.1868296  21.3951830  57.5196799  70.0774191  22.2437112
  57.8845653  70.8322701  21.1583023  57.4521299  70.2660298  21.4856927
  56.4036618  66.3178605  18.8771758  55.7108415  65.8475585  19.1232490
  57.0196946  66.0916910  19.4513465  56.3921148  66.2145737  18.9980911
  55.1277177  70.2844009  20.0198603  55.8517150  70.2697040  20.5063498
  55.2293314  70.9939365  19.5220572  55.2495386  70.3868712  20.0177390
  62.5022127  73.7643094  24.8847550  61.7095108  74.0786606  25.0700170
  62.6171054  73.9794562  24.0468335  62.4017537  73.8426931  24.7885885
  61.4277639  68.1247675  17.2211318  61.0392072  67.7001892  16.5663509
  60.7632337  68.3729824  17.7288344  61.2724567  68.0986396  17.1999186
  59.2095841  64.3276502  24.5997910  58.8949282  65.0976064  24.3367473
  58.8885774  63.7646758  24.0150137  59.1154760  64.3586770  24.4739260
  65.8860627  62.8644882  18.5455428  66.6314219  62.6754693  18.1318854
  65.4697931  63.3903120  17.9869285  65.9345601  62.9147028  18.4020002
  58.8412346  66.9273753  23.3383125  58.0312122  67.2331532  23.2272967
  59.3187033  67.6479335  23.4535709  58.7915825  67.0788354  23.3390196
  55.1756378  72.4636303  18.2082527  55.6877475  72.7420556  17.5591287
  54.8892721  73.2025597  18.5745341  55.2091241  72.6138657  18.1672406
  58.6940104  64.5562692  18.2683569  58.5023301  64.5717826  19.1182993
  59.5438700  64.7526366  18.2450224  58.7915826  64.5877043  18.3906864
  53.0787017  67.0853673  16.2467386  52.9372508  66.2337614  16.3711893
  53.3627580  67.1282334  15.4229592  53.0994863  66.9653423  16.1435010
  59.1922636  71.6577482  19.8034857  59.3366012  72.2378690  19.1677967
  59.5398285  72.0353778  20.5084711  59.2650098  71.7998186  19.8133852
  61.6044331  64.7518201  18.4755392  62.0616945  65.4842175  18.6028184
  61.6800659  64.3284666  19.2342648  61.6835301  64.7975439  18.6056469
  53.8477322  64.9984021  19.5644836  53.3119511  64.3864379  19.8805603
  53.9095087  65.5732157  20.2178503  53.7772955  64.9930948  19.7080263
  59.4826709  66.7420305  15.3197216  58.6922783  66.5611765  15.6414552
  59.8787331  65.9647257  15.3027511  59.4243585  66.6007766  15.3649765
  61.9964539  69.2180564  19.8020715  61.9323680  70.0790520  19.6740852
  62.1361727  68.9012557  19.0016266  62.0080009  69.2980731  19.6648928
  63.6534492  66.6758943  18.2980554  63.8676461  66.0369857  17.7443908
  63.0368391  67.1204767  17.8688416  63.5939821  66.6469086  18.1530985
  65.8173580  68.2848008  19.2363861  65.0050261  67.9773898  19.3177034
  66.2763514  67.8047008  19.8006574  65.7653965  68.1684500  19.3318456
  62.9127087  69.6908079  24.0192564  63.3826718  70.3150196  24.4060438
  62.9588967  69.0225055  24.5785778  62.9894963  69.6842760  24.1592635
  60.0698361  61.7965107  14.7441367  59.5536849  61.1045298  14.8692946
  59.5092290  62.4635884  14.6903966  59.9104874  61.7928365  14.7547433
  62.1390594  62.3358067  16.5734220  61.7522348  62.3607098  17.3547750
  61.6523532  61.7699746  16.1208737  62.0103103  62.2553818  16.6222124
  61.8047736  59.2225052  18.8644480  62.4340854  59.7585352  18.5865550
  61.9733599  59.1302411  19.7158046  61.9225531  59.2886415  18.9493008
  61.6061651  64.0096247  21.1370892  62.4335080  63.7381396  21.1929506
  61.6269497  64.8057089  21.4934710  61.7314501  64.0876001  21.1986074
  56.4700571  64.7105870  16.4100803  56.9302053  64.7844799  17.1475926
  56.5156678  65.5087124  16.0600624  56.5451127  64.8400017  16.4673559
  58.1183921  65.3772565  20.9772830  57.7269486  64.7305912  21.4128608
  58.2869784  65.9684000  21.5967085  58.0854832  65.3686833  21.1335536
  53.2588349  68.3395061  18.7852519  54.1213962  68.2390770  18.6989849
  52.9280132  67.7589770  18.2238091  53.3373546  68.2386687  18.6897925
  56.6190135  67.1637510  15.4462937  55.9943205  67.1755902  14.8388890
  56.2835730  67.6397685  16.0954177  56.4775627  67.2356027  15.4519506
  55.8880881  68.7730657  17.6637806  56.0474367  68.0173982  18.0689527
  55.7073774  69.3221597  18.3178543  55.8846240  68.7424471  17.8200512
  63.8301184  60.9391893  18.2188595  63.3341745  61.1355567  17.5280162
  64.5870246  61.3384561  18.0477397  63.8688008  61.0269627  18.0908732
  57.3805385  63.3405057  14.1897650  57.4203757  63.8414264  14.9032357
  56.5555050  63.4315451  13.9203573  57.2644911  63.4286873  14.2548188
  59.5634998  72.9065797  22.2917944  58.7130629  73.0437511  22.4275589
  59.7263126  72.1729575  22.7365646  59.4618862  72.8179898  22.3773544
  56.6103532  63.3474460  22.1227960  57.2356235  62.8036593  22.3957392
  56.1554012  62.8669377  21.5535750  56.6351793  63.1963941  22.0789553
  64.1794153  64.3174439  16.6823165  64.6049224  63.8646965  16.0706691
  63.5651146  63.7634510  16.9587952  64.1522798  64.1688415  16.6328190
  63.3145445  75.0527410  22.2967442  63.2741300  74.4077087  21.7112598
  64.1268764  74.9964027  22.6092854  63.4288599  74.9486377  22.2564391
  59.0023154  68.6824346  18.8517200  58.4902057  68.0745529  19.2102231
  58.8302650  69.3980939  19.3191176  58.9012791  68.6987646  18.9733423
  53.8488869  67.1261922  21.5019562  53.6791459  67.7863296  20.9567768
  53.4054819  67.3368483  22.2232051  53.7588202  67.2547904  21.5281191
  62.8792224  66.6048591  21.2919455  63.4363655  66.3762400  20.6597921
  62.5553289  67.3654257  21.0154668  62.9138635  66.6832428  21.1575952
  50.7490933  70.0308787  16.7608051  50.2017653  69.3609433  16.8788920
  51.5383311  69.6638635  16.8251519  50.7843117  69.8773774  16.7876752
  60.5975342  69.6916244  22.2571462  61.3486669  70.0067921  22.5711017
  60.7897918  69.4895415  21.4305384  60.7366756  69.7083626  22.1814858
  49.5077903  69.2429595  13.9154074  49.3299664  68.7906204  14.6408990
  49.2196925  70.0455756  14.0992552  49.4390856  69.2952153  14.0497577
  60.7401397  61.7352735  19.1267846  60.8729303  60.9383728  19.4548821
  61.1246550  62.2619138  19.7066121  60.8157726  61.6952651  19.2611349
  63.8133752  58.6583061  15.7248939  63.0079716  58.5480790  16.0416777
  63.6840488  58.7595517  14.8678805  63.6753885  58.6566731  15.6456979
  58.3989844  61.7311910  17.3745740  58.9434257  61.3903037  17.9650081
  58.4526780  62.5897371  17.5167024  58.4878963  61.8067169  17.4827613
  43.7824300  21.1543507   9.7243095  44.4891067  20.6595537   9.8530029
  43.9712235  21.5952588   8.9945753  43.9152205  21.1461857   9.6352140
  36.2757219  29.3515680  -0.4502501  36.9194674  29.7928844  -0.0606343
  36.6013474  28.5469106  -0.5372243  36.4189047  29.2980875  -0.4057024
  40.9216594  24.5771043   7.6157170  41.0099940  24.3897184   8.4635380
  41.3506307  23.9308473   7.2162017  40.9978696  24.4534051   7.6828921
  38.4887054  23.8602203   6.5974832  37.9257889  23.4474813   7.1214493
  39.2508077  23.7855109   7.0167975  38.5181502  23.7879604   6.7367832
  35.0961952  16.0875811   8.3291877  35.2682456  15.9781706   9.1777159
  35.6331309  16.7330217   8.0923070  35.2006956  16.1667813   8.4196974
  41.0336653  24.0080062  10.2800953  41.8177070  24.1210910  10.6456696
  40.8333248  23.1821199  10.4759639  41.1202679  23.9026782  10.3635339
  41.1907047  25.9190164   3.9267409  40.3922292  25.6789664   4.1841278
  41.6393058  25.9704557   4.6734457  41.1381658  25.8912555   4.0752333
  40.2507784  19.6650609  11.8187597  39.4580764  19.9794121  12.0040217
  40.3656711  19.8802078  10.9808382  40.1503194  19.7434446  11.7225932
  41.1791576  19.5670813   6.7572894  41.7530438  18.9298057   6.9121458
  41.1006380  19.5674895   5.8882552  41.2524811  19.4735924   6.6519305
  46.5011724  20.9379791   6.7657747  46.2650362  20.1067855   6.6469808
  47.1454953  20.8865398   7.3512591  46.5606395  20.8077479   6.8343641
  36.9581498  10.2284017  11.5337957  36.6434939  10.9983580  11.2707520
  36.6371430   9.6654273  10.9490184  36.8640417  10.2594286  11.4079307
  47.5248145  20.7224239   2.8286042  47.2193962  21.4552296   3.1899357
  46.8054361  20.3162169   2.5478828  47.3735487  20.7705972   2.8399179
  53.2249937  17.3617240   2.1554386  53.1574437  17.3813199   1.2856972
  53.2105599  18.2047567   2.3810056  53.2128693  17.4890975   2.0606863
  37.6630945  19.9700223   4.9760874  37.1642639  20.6815991   5.0545762
  38.4731169  20.2900890   4.9379036  37.7087052  20.1227072   4.9817442
  36.5898003  12.8281268  10.2723172  35.7797779  13.1339048  10.1613014
  37.0672690  13.5486850  10.3875756  36.5401482  12.9795869  10.2730243
  44.8759315  21.5311638   1.1138702  44.7373674  22.2292684   1.6187444
  44.0959313  21.3760294   0.7574884  44.7402542  21.6111805   1.1364976
  43.2137400  17.8308013   7.3661084  43.2085438  16.9587830   7.3703510
  43.9198394  18.0296182   6.8930539  43.3182404  17.7311887   7.2968119
  36.9408293  17.5584997   6.7374904  37.0851669  18.1386205   6.1018014
  37.2883942  17.9361294   7.4424758  37.0135754  17.7005701   6.7473899
  36.0136048  25.7487769   3.6035931  36.1625612  25.1890685   2.9509335
  36.7936050  25.8279771   3.9868449  36.1510142  25.6773334   3.5632880
  38.5389349  25.9202412   4.8820421  38.4633020  25.2511222   5.4371210
  38.4679208  26.6220200   5.3961088  38.5169956  25.9247319   5.0397269
  39.7450196  15.1188079   6.7360762  39.6809337  15.9798036   6.6080899
  39.8847383  14.8020072   5.9356313  39.7565666  15.1988246   6.5988975
  37.9280983  29.3270732   3.3398422  38.4176913  28.6281521   3.1574087
  37.3565215  29.0294602   3.9274479  37.9165513  29.1796955   3.3999463
  44.1247987  21.8932801  12.2925213  44.9382852  21.6217950  12.4530345
  43.9642953  21.5940341  11.4885409  44.2217935  21.8087727  12.1970619
  43.5659237  14.1855523   6.1703908  42.7535918  13.8781414   6.2517081
  44.0249171  13.7054523   6.7346620  43.5139621  14.0692016   6.2658502
  40.6612744  15.5915595  10.9532610  41.1312375  16.2157711  11.3400485
  40.7074624  14.9232570  11.5125825  40.7380620  15.5850275  11.0932682
  44.1369231  22.9539091   7.5648053  44.7748951  22.4599287   7.2310509
  43.4943322  22.8816492   6.9800280  44.1363457  22.8698100   7.4290408
  44.1923487  23.6458900   4.2053410  44.9815865  23.2947964   4.3255492
  44.3667085  24.4595288   3.9430044  44.3343769  23.7144757   4.1841278
  35.8051813  22.1998745   5.2150894  35.6972168  22.2100807   6.0812952
  36.0147595  23.0253526   5.0255848  35.8201925  22.3239820   5.3154986
  49.9416027  19.2817157   3.6750110  49.9999151  19.7303806   4.4210087
  49.3082495  19.6915970   3.2380190  49.8567322  19.4090892   3.7202658
  43.5815122  24.9020699   0.1104856  43.3834810  25.3911514  -0.5838932
  42.9602833  25.1061941   0.6888990  43.4602686  25.0037237   0.0928080
  45.4988924  18.4684851   5.6450105  46.2223123  18.0157378   5.4661125
  45.2338886  18.7489517   4.8622433  45.5670197  18.4435820   5.5028820
  41.2807713  18.5668730   3.7945120  40.6664706  18.0226780   4.0893755
  41.7974998  18.0532966   3.3150936  41.2663376  18.4105139   3.7669348
  37.3120655  18.8073312   9.2257991  36.4616286  18.9445027   9.3615636
  37.4748783  18.0737091   9.6705693  37.2104519  18.7187414   9.3113590
  47.9324238  17.4311262   4.1480654  48.5242078  18.0708513   4.1798852
  48.3683232  16.7334299   4.4372721  48.0842669  17.4229613   4.1961487
  39.7617627  21.8528635   4.7738548  39.2542719  22.4064481   5.2179179
  39.4644274  21.9136925   3.9557323  39.6422512  21.9434946   4.7187005
  39.0060113  26.7853193   1.6795555  38.7825767  26.0272022   2.0479582
  38.5169956  26.8151214   0.9575995  38.9003562  26.6775417   1.6272296
  41.0631102  20.9534925   9.2307489  41.0226957  20.3084602   8.6452645
  41.8754420  20.8971542   9.5432901  41.1774256  20.8493892   9.1904438
  41.0203864  26.1643736  -0.1143744  40.6220147  26.2746007  -0.8822923
  40.4055083  26.3725803   0.4682816  40.8702753  26.2117304  -0.1412444
  40.6277881  12.5056106   8.2259502  41.1849311  12.2769916   7.5937968
  40.3038946  13.2661772   7.9494715  40.6624291  12.5839943   8.0915999
  38.3460998  15.5923760   9.1911509  39.0972325  15.9075436   9.5051063
  38.5383575  15.3902930   8.3645431  38.4852413  15.6091141   9.1154905
  44.9838960  19.1498515   2.7748640  45.4094031  18.6272937   2.2219065
  44.6195879  19.7479353   2.2537263  44.9925562  19.1608742   2.6157650
  34.6193039  27.4462733   1.5345986  34.9339598  28.2599121   1.5423768
  35.0286453  27.0612951   2.2028145  34.7261137  27.5091435   1.6350077
  43.6594544  24.4734093  11.2841870  43.7691509  23.6842653  11.6398617
  43.9885440  24.3840029  10.4816208  43.7246949  24.3439946  11.2184261
  42.2091505  22.6550714   5.8677490  41.6612451  22.0308597   5.5997556
  42.6704534  22.8444986   5.1521570  42.1958715  22.5909764   5.7227922
  41.7749832  23.6601786   2.3986832  42.5948205  23.5164752   2.6603127
  41.4943909  24.2847985   2.9403270  41.8546575  23.7312138   2.5174771
  51.4463167  30.4042289   0.1182638  50.5901062  30.5650787   0.1691755
  51.4930821  29.5334353   0.1387699  51.3262278  30.2993091   0.1288704
  45.8304307  39.9405007  -4.1180130  45.0787206  39.5620545  -4.3464085
  46.2790318  39.9723440  -4.8661320  45.7853973  39.8890614  -4.2622628
  54.7556883  36.6728815   9.7243095  55.4623651  36.1780845   9.8530029
  54.9444819  37.1137896   8.9945753  54.8884789  36.6647165   9.6352140
  54.2914988  32.4634333   2.7614290  54.8370948  33.1419420   2.8208260
  54.2331864  32.3221794   1.9015872  54.3630902  32.5426335   2.6426351
  47.4089063  39.9523399  -1.8517358  47.5099426  39.1423753  -1.5420230
  46.8130808  39.8580345  -2.4817679  47.3361601  39.8188427  -1.8991119
  47.2489802  44.8700988  -0.4502501  47.8927258  45.3114152  -0.0606343
  47.5746058  44.0654414  -0.5372243  47.3921631  44.8166183  -0.4057024
  40.6054107  35.9743686  -2.2265024  40.3704291  35.1411338  -2.3332755
  40.7439748  36.2548351  -3.0403823  40.5909769  35.8927189  -2.3622669
  42.9044194  28.1429416   0.6719284  42.2849226  27.5522063   0.5029299
  42.8028058  28.7340851   0.0383607  42.7981870  28.1433499   0.5524273
  50.0012090  29.8828958  -4.9948253  50.6992255  30.0617086  -4.5026790
  50.3164423  29.3599297  -5.6177864  50.1507427  29.8322730  -5.0146243
  42.6313327  31.6881698   2.9162853  42.5072024  32.2744143   3.5512672
  43.2831612  31.1941894   3.2175128  42.7086977  31.7020502   3.0548782
  50.1900025  36.2699403  -5.0068462  50.6293661  35.6616504  -4.5613689
  50.0404688  35.8906776  -5.7782997  50.2321491  36.1237874  -5.0549294
  47.6571668  34.8643415   2.1950364  48.3020671  34.3715858   1.8761312
  47.8973445  35.0068201   3.0216442  47.7882254  34.8120857   2.2699897
  50.1957760  37.7098321   1.8457256  50.4781003  36.9149726   1.6244012
  50.9243920  38.1878908   1.8662317  50.3447324  37.6632918   1.8160272
  48.1738954  25.2521355  -0.9126978  47.8442284  25.7032498  -1.5823280
  47.4983955  25.1737518  -0.3653972  48.0249390  25.3072490  -0.9303755
  60.1775848  36.8157683  -1.1806913  59.3473551  37.0268327  -1.0173496
  60.1285100  35.9894738  -1.4564629  60.0482584  36.7247289  -1.1969547
  42.1671432  40.8529356  -0.9508818  41.6839010  41.5779846  -0.9749234
  42.9794750  41.1505486  -0.8398660  42.2162179  41.0031710  -0.9381538
  48.2385586  39.6461537   1.6540997  47.7212527  39.2868952   1.0502305
  48.9359977  39.1223712   1.6647063  48.2651167  39.5159225   1.5671255
  51.8949178  40.0956351   7.6157170  51.9832524  39.9082492   8.4635380
  52.3238890  39.4493781   7.2162017  51.9711280  39.9719359   7.6828921
  49.4619637  39.3787511   6.5974832  48.8990472  38.9660121   7.1214493
  50.2240661  39.3040417   7.0167975  49.4914086  39.3064912   6.7367832
  45.0215629  41.3685532  -0.7988538  45.7236208  40.8537521  -0.7415781
  44.9413112  41.6959684   0.0058337  45.1139389  41.3399759  -0.6715746
  59.6729806  29.4628084   2.6143509  58.8358227  29.5330271   2.8491103
  59.6418037  29.4652578   1.7417811  59.5448089  29.4738311   2.5203057
  46.0694535  31.6061119   8.3291877  46.2415039  31.4967014   9.1777159
  46.6063893  32.2515525   8.0923070  46.1739539  31.6853121   8.4196974
  44.3466404  37.5591884  -1.2902930  45.1855304  37.7914817  -1.2429168
  44.3778173  36.6896196  -1.3595894  44.4748122  37.4648831  -1.2938285
  44.9719107  37.9792759   3.0110376  45.5117332  37.8363891   3.6813748
  44.2889054  38.3789510   3.3794402  44.9511261  38.0172430   3.1644797
  54.3959992  33.6583760  -1.7944600  55.1517507  34.0915274  -1.7555691
  54.5022317  33.0088530  -1.2209964  54.5230163  33.6261244  -1.7046574
  57.4340163  37.4857037  -1.0442197  56.9975395  37.4893780  -0.2883226
  57.1003079  38.1662536  -1.4762619  57.3202783  37.5869493  -0.9961364
  52.0069237  39.5265370  10.2800953  52.7909654  39.6396218  10.6456696
  51.8065831  38.7006507  10.4759639  52.0935262  39.4212090  10.3635339
  40.3756252  34.1993050   3.1644797  40.1094668  33.3832167   3.3235788
  40.3894817  34.2446206   2.2940313  40.3380975  34.0849955   3.0598279
  57.3537646  24.5270865   1.1987231  57.9963555  24.5968970   1.7849146
  57.6060667  23.8600088   0.6966773  57.4859778  24.4397214   1.2114510
  45.1254859  27.7371429   5.8111805  44.4326656  27.2668408   6.0572537
  45.7415186  27.5109733   6.3853512  45.1139389  27.6338560   5.9320958
  52.1639630  41.4375472   3.9267409  51.3654876  41.1974972   4.1841278
  52.6125642  41.4889865   4.6734457  52.1114242  41.4097863   4.0752333
  60.5684510  34.2037957  -2.1522560  61.2300944  33.6428626  -2.2526651
  59.9275922  33.7089988  -1.8269869  60.5713377  34.0474366  -2.1190220
  40.7849666  34.9851830   0.4456542  40.6025239  34.9598716  -0.4071166
  41.5199335  35.4550768   0.4845450  40.8663730  35.0513192   0.3254460
  56.8549340  35.2203340  -2.4110571  57.0904929  35.3648539  -3.2383720
  57.0038904  35.9845748  -2.0179057  56.9115144  35.3542394  -2.4746967
  43.8495418  31.7036833   6.9538650  44.5735390  31.6889863   7.4403545
  43.9511554  32.4132188   6.4560618  43.9713627  31.8061536   6.9517437
  51.2240367  35.1835917  11.8187597  50.4313348  35.4979429  12.0040217
  51.3389294  35.3987386  10.9808382  51.1235778  35.2619754  11.7225932
  53.8971686  31.9069908  -3.8917387  53.9918541  32.6459202  -3.4377762
  53.2730530  31.4787384  -3.4582822  53.8180716  31.9531229  -3.7609239
  52.1524160  35.0856121   6.7572894  52.7263022  34.4483365   6.9121458
  52.0738964  35.0860203   5.8882552  52.2257395  34.9921232   6.6519305
  40.7520576  31.8645330   0.5955608  41.3294079  31.7281781   1.2347853
  40.0534638  31.4081115   0.8501192  40.7341598  31.7767597   0.7277898
  47.5087879  33.5179386  -1.1905909  47.2507123  32.6851121  -1.2174609
  47.5636361  33.7436999  -2.0313408  47.4787656  33.4277157  -1.3185772
  52.5888929  25.6207837  -1.0901816  51.8845255  25.1317022  -0.9317897
  52.6373903  25.6330311  -1.9613372  52.4918980  25.5497485  -1.1962476
  46.4822591  31.0717148  -0.7041014  45.9072182  31.2309317  -0.0677053
  46.1058267  30.4352558  -1.1672563  46.3425403  31.0014961  -0.6786456
  50.1495879  29.5440498   4.1551364  49.7610312  29.1194716   3.5003556
  49.4850578  29.7922647   4.6628391  49.9942807  29.5179219   4.1339232
  53.9722241  23.2415127   1.6675349  54.3532753  22.5593298   2.0543223
  53.1685525  22.9524729   1.4851013  53.9098703  23.0982175   1.6979405
  57.4744308  36.4565098   6.7657747  57.2382945  35.6253163   6.6469808
  58.1187537  36.4050706   7.3512591  57.5338979  36.3262786   6.8343641
  47.1242726  37.2460620  -2.5199516  47.7616673  37.0072367  -1.9747723
  47.5497797  37.4497779  -3.2546356  47.2818892  37.2411630  -2.5482359
  41.8155368  39.4848956   1.3634787  41.8559514  39.7563807   0.5354567
  42.3749892  40.0090864   1.7792575  41.9038714  39.6024711   1.3026675
  47.9314081  25.7469325  11.5337957  47.6167522  26.5168888  11.2707520
  47.6104014  25.1839581  10.9490184  47.8373000  25.7779593  11.4079307
  58.4980728  36.2409547   2.8286042  58.1926545  36.9737604   3.1899357
  57.7786944  35.8347477   2.5478828  58.3468071  36.2891280   2.8399179
  49.5064198  37.7233042  -0.8405730  49.5803206  37.5608214   0.0136120
  50.3233704  37.9123232  -1.0845249  49.6380556  37.7269785  -0.7507705
  64.1982521  32.8802548   2.1554386  64.1307021  32.8998507   1.2856972
  64.1838183  33.7232875   2.3810056  64.1861277  33.0076283   2.0606863
  43.2669955  38.0690905  -3.8111287  42.4408072  38.3152642  -3.9377008
  43.3281946  37.9902986  -2.9449229  43.1544121  38.0935854  -3.7022342
  54.6078867  24.2837706   5.4795475  55.3532459  24.0947516   5.0658901
  54.1916172  24.8095944   4.9209332  54.6563841  24.3339851   5.3360049
  61.9841138  31.6546934   0.4300980  62.5349059  31.0215003   0.6698072
  61.9685253  32.1862327   1.1216485  62.0626334  31.6395882   0.5679838
  48.6363529  35.4885531   4.9760874  48.1375222  36.2001299   5.0545762
  49.4463753  35.8086198   4.9379036  48.6819635  35.6412380   4.9817442
  45.9874699  42.6635168  -3.0432107  45.7674995  42.3732523  -2.2505440
  45.7669221  42.0050123  -3.5714195  45.9222293  42.5234876  -3.0043198
  44.8991646  34.7508484  -0.7776405  44.6104895  34.1245956  -0.2430678
  45.7674994  34.6928772  -0.7111725  44.9851898  34.6496029  -0.6885451
  55.6869544  29.8943268  -0.4594424  55.3434310  29.1733603  -0.1087174
  55.7862587  29.6857119  -1.3016065  55.6511587  29.7567471  -0.5322744
  45.1023920  36.3903735  -4.8534040  45.8569888  36.7716775  -4.6398578
  44.5094532  36.8414879  -4.3987344  45.1260633  36.5132563  -4.7551162
  47.5630587  28.3466576  10.2723172  46.7530362  28.6524356  10.1613014
  48.0405273  29.0672158  10.3875756  47.5134065  28.4981177  10.2730243
  46.4222146  37.5612297   0.5206075  45.9002900  37.7012589   1.2057940
  46.8096167  36.8022961   0.7108192  46.4025847  37.4697821   0.6507152
  47.8488472  34.5916316  -4.0812434  47.6531255  35.1991050  -4.6752131
  48.0722818  33.8984260  -4.5620760  47.8523113  34.5793841  -4.2396353
  46.2467002  31.4771054  -3.9631566  46.9689654  31.6412212  -4.4227760
  45.7674995  32.1980719  -4.0692226  46.2830733  31.6069283  -4.0465952
  54.2060510  27.8134853   1.4165119  53.3671610  27.8396131   1.1803383
  54.2764877  28.4605588   1.9970466  54.0928903  27.9130978   1.4674236
  43.8974619  33.8829126   5.1422574  44.4095716  34.1613379   4.4931334
  43.6110961  34.6218420   5.5085387  43.9309482  34.0331480   5.1012452
  58.0818033  33.0202839  -1.2973639  57.9952008  33.1758265  -0.4438860
  57.6268513  33.6640915  -1.6714234  58.0021290  33.1378594  -1.2266532
  47.4158344  25.9755515   5.2023616  47.2241541  25.9910649   6.0523039
  48.2656940  26.1719189   5.1790271  47.5134066  26.0069866   5.3246911
  41.8005257  28.5046496   3.1807432  41.6590749  27.6530437   3.3051940
  42.0845820  28.5475157   2.3569638  41.8213103  28.3846246   3.0775056
  51.9543849  30.3413586  -2.6748079  51.7078564  30.2609337  -1.8411290
  52.2828972  29.5567054  -2.8685552  51.9665093  30.2139852  -2.5800556
  55.8491898  37.0496946   1.1138702  55.7106258  37.7477992   1.6187444
  55.0691896  36.8945602   0.7574884  55.7135125  37.1297112   1.1364976
  54.1869983  33.3493321   7.3661084  54.1818022  32.4773138   7.3703510
  54.8930977  33.5481490   6.8930539  54.2914987  33.2497195   7.2968119
  47.9140877  33.0770305   6.7374904  48.0584252  33.6571513   6.1018014
  48.2616525  33.4546602   7.4424758  47.9868338  33.2191009   6.7473899
  50.0860794  32.2760473   4.5200035  49.3384108  32.4691488   4.1148313
  50.2402319  31.4505693   4.2824157  49.9983222  32.1825585   4.4245441
  46.9868632  41.2673077   3.6035931  47.1358195  40.7075993   2.9509335
  47.7668634  41.3465079   3.9868449  47.1242725  41.1958642   3.5632880
  49.5121932  41.4387720   4.8820421  49.4365603  40.7696530   5.4371210
  49.4411791  42.1405508   5.3961088  49.4902539  41.4432627   5.0397269
  50.3262571  26.1711024   5.4095439  50.7835185  26.9034998   5.5368231
  50.4018900  25.7477489   6.1682695  50.4053541  26.2168262   5.5396516
  42.5695562  26.4176844   6.4984883  42.0337752  25.8057202   6.8145650
  42.6313327  26.9924980   7.1518549  42.4991195  26.4123772   6.6420309
  48.2044949  28.1613128   2.2537263  47.4141024  27.9804588   2.5754599
  48.6005572  27.3840081   2.2367558  48.1461825  28.0200589   2.2989811
  53.5888635  35.7955558  -0.0203291  52.9133637  35.5640790   0.4810096
  53.5981011  35.1876741  -0.6461186  53.4907140  35.6714483  -0.0387139
  50.7182779  30.6373387   6.7360762  50.6541920  31.4983344   6.6080899
  50.8579967  30.3205380   5.9356313  50.7298249  30.7173554   6.5988975
  49.4001873  33.3305527   0.8776965  48.9764122  33.5310026   0.1415983
  49.2246728  32.4834374   0.9901265  49.3112754  33.2354308   0.7850655
  48.9013567  44.8456039   3.3398422  49.3909497  44.1466829   3.1574087
  48.3297799  44.5479909   3.9274479  48.8898097  44.6982263   3.3999463
  44.6884318  33.8257578  -3.6895063  44.8448937  33.7604381  -2.8339071
  45.0284911  34.6006130  -3.9016383  44.7617553  33.9306776  -3.5940468
  51.2263463  33.2015462  -4.8201699  51.7679008  32.6985843  -4.3563079
  51.5410022  33.1480656  -5.6312214  51.3527860  33.1194882  -4.8717887
  55.0980570  37.4118109  12.2925213  55.9115435  37.1403258  12.4530345
  54.9375536  37.1125649  11.4885409  55.1950519  37.3273035  12.1970619
  52.3752732  28.0951766   5.2320601  52.5894702  27.4562680   4.6783955
  51.7586631  28.5397590   4.8028463  52.3158061  28.0661910   5.0871032
  41.2618580  31.0092528  -3.3734295  41.6417544  31.4277073  -4.0374028
  40.6873944  31.5905984  -3.0665452  41.2329905  31.1570387  -3.4257554
  54.5391820  29.7040831   6.1703908  53.7268502  29.3966722   6.2517081
  54.9981755  29.2239831   6.7346620  54.4872205  29.5877324   6.2658502
  51.7667461  21.2051702   0.2207944  50.8961019  21.1790423   0.1741253
  52.0207802  21.0328894  -0.5966210  51.6761021  21.1761845   0.0928081
  51.6345328  31.1100903  10.9532610  52.1044959  31.7343019  11.3400485
  51.6807208  30.4417878  11.5125825  51.7113203  31.1035583  11.0932682
  48.7916601  23.2157930   1.6781414  48.2755090  22.5238122   1.8032993
  48.2310530  23.8828707   1.6244013  48.6323115  23.2121188   1.6887480
  50.8608835  23.7550890   3.5074267  50.4740588  23.7799922   4.2887797
  50.3741772  23.1892569   3.0548783  50.7321344  23.6746641   3.5562171
  55.1101814  38.4724399   7.5648053  55.7481535  37.9784595   7.2310509
  54.4675906  38.4001800   6.9800280  55.1096041  38.3883408   7.4290408
  56.8358814  30.3213545   2.1313969  56.4086422  30.2339894   1.3762069
  56.1984867  30.4291321   2.7168813  56.6788422  30.3246205   2.1059411
  50.5265976  20.6417876   5.7984527  51.1559094  21.1778176   5.5205597
  50.6951839  20.5495235   6.6498092  50.6443771  20.7079238   5.8833055
  50.3279891  25.4289070   8.0710938  51.1553321  25.1574219   8.1269553
  50.3487737  26.2249912   8.4274756  50.4532741  25.5068825   8.1326121
  55.1656071  39.1644207   4.2053410  55.9548449  38.8133272   4.3255492
  55.3399669  39.9780596   3.9430044  55.3076352  39.2330065   4.1841278
  44.9049381  32.5752933   1.2581199  44.0637388  32.4756807   1.4660093
  45.1139389  33.3448413   1.6095520  44.8114074  32.6744977   1.3408514
  42.3824948  30.1972470  -0.9134050  41.9881646  30.2715482  -1.6883941
  41.8265065  30.5830416  -0.3625689  42.2427760  30.2654245  -0.9466391
  54.0189895  23.1753764  -1.2330171  54.2239488  23.1076072  -0.3873174
  53.6916319  23.9812585  -1.3008994  54.0005143  23.2839705  -1.1170516
  48.7166046  30.5034332   0.5078797  48.4129184  29.9490321   1.1089204
  48.0145467  30.6826542   0.0206831  48.5682256  30.4479115   0.5248502
  46.7784397  37.7184053   5.2150894  46.6704752  37.7286115   6.0812952
  46.9880179  38.5438833   5.0255848  46.7934508  37.8425128   5.3154986
  44.7958189  34.9696695   2.6772832  44.2046122  35.6106194   2.6475847
  45.5579213  35.3934313   2.6504131  44.8206450  35.1272534   2.6687979
  45.1918812  26.1298693   3.3440849  45.6520293  26.2037623   4.0815973
  45.2374919  26.9279947   2.9940671  45.2669367  26.2592840   3.4013606
  46.8402162  26.7965388   7.9112877  46.4487727  26.1498735   8.3468654
  47.0088024  27.3876823   8.5307132  46.8073072  26.7879656   8.0675583
  60.9148611  34.8002465   3.6750110  60.9731734  35.2489114   4.4210087
  60.2815078  35.2101278   3.2380190  60.8299906  34.9276200   3.7202658
  54.5547705  40.4206007   0.1104856  54.3567394  40.9096822  -0.5838932
  53.9335416  40.6247249   0.6888990  54.4335270  40.5222545   0.0928080
  48.6155684  32.1890904  -5.5484899  49.3597729  32.5765180  -5.3101950
  48.7616380  31.3448329  -5.3844412  48.7466269  32.1221377  -5.4890930
  50.5335259  23.9841163  -0.5153038  49.6871304  24.1563971  -0.6411688
  50.5306392  23.1790507  -0.1787210  50.4082409  23.8902192  -0.4841911
  51.6033560  27.7616377   0.3509020  51.1293514  27.2358139   0.8614331
  51.9751695  27.2145850  -0.2176119  51.5883448  27.6032374   0.3424167
  41.9806590  29.7587884   5.7192566  42.8432203  29.6583593   5.6329896
  41.6498373  29.1782593   5.1578138  42.0591786  29.6579511   5.6237972
  57.8670290  32.8218753   1.7615800  57.6268513  31.9825168   1.7658227
  58.3462297  32.9018920   2.4856574  57.9022474  32.7100153   1.8690603
  59.8675477  29.6020210  -0.2854940  59.6285247  29.5616044  -1.1234156
  60.0309378  30.4491362  -0.1589219  59.8565781  29.7212295  -0.3901458
  56.4721507  33.9870159   5.6450105  57.1955706  33.5342686   5.4661125
  56.2071470  34.2674825   4.8622433  56.5402781  33.9621128   5.5028820
  45.3408376  28.5830333   2.3802984  44.7161446  28.5948725   1.7728937
  45.0053970  29.0590508   3.0294224  45.1993867  28.6548850   2.3859552
  42.0534051  36.6430793   3.8206748  41.5233976  35.9523232   3.8701723
  42.3259145  36.6340978   2.9919457  42.0158773  36.5397925   3.7054164
  52.2540297  34.0854038   3.7945120  51.6397290  33.5412088   4.0893755
  52.7707582  33.5718274   3.3150936  52.2395959  33.9290447   3.7669348
  51.4936594  35.1558308   1.5289418  51.0664202  34.5308026   1.0954854
  51.4861538  34.8733229   2.3548426  51.4295735  35.0211088   1.5869246
  44.6099121  30.1923481   4.5977852  44.7692608  29.4366805   5.0029574
  44.4292015  30.7414420   5.2518590  44.6064480  30.1617294   4.7540558
  52.5519424  22.3584716   5.1528642  52.0559985  22.5548390   4.4620209
  53.3088486  22.7577385   4.9817444  52.5906249  22.4462450   5.0248779
  49.8222304  26.0327062   1.7431952  49.8464791  25.4987174   1.0544732
  50.0733777  25.5244371   2.4057543  49.8632222  25.8787966   1.7396597
  37.3329893  33.3158557   1.1775096  37.2273342  33.2705401   0.3127181
  36.5830113  33.6612338   1.4589381  37.2065496  33.3599465   1.0912426
  46.1023626  24.7597880   1.1237697  46.1421997  25.2607087   1.8372404
  45.2773290  24.8508274   0.8543620  45.9863152  24.8479697   1.1888235
  48.2853239  34.3258620   9.2257991  47.4348869  34.4630335   9.3615636
  48.4481366  33.5922399   9.6705693  48.1837102  34.2372722   9.3113590
  47.5237989  31.2758390   3.4211596  46.6929919  31.4432208   3.2146844
  47.4689506  30.8994341   4.2060481  47.3927404  31.2448122   3.5060124
  45.3321772  24.7667283   9.0568006  45.9574476  24.2229416   9.3297439
  44.8772252  24.2862201   8.4875797  45.3570033  24.6156764   9.0129600
  58.9056821  32.9496570   4.1480654  59.4974661  33.5893821   4.1798852
  59.3415816  32.2519607   4.4372721  59.0575252  32.9414921   4.1961487
  50.7350211  37.3713943   4.7738548  50.2275302  37.9249789   5.2179179
  50.4376857  37.4322232   3.9557323  50.6155096  37.4620254   4.7187005
  52.9012393  25.7367262   3.6163211  53.3267465  25.2839789   3.0046738
  52.2869386  25.1827333   3.8927999  52.8741039  25.5881238   3.5668237
  55.9305963  30.1641789  -3.5516203  55.2597152  30.7071491  -3.6803138
  56.6245713  30.6336644  -3.7934508  55.9334830  30.3140060  -3.6060675
  49.9792696  42.3038501   1.6795555  49.7558351  41.5457330   2.0479582
  49.4902540  42.3336522   0.9575995  49.8736145  42.1960725   1.6272296
  56.0934090  26.6197672  -0.6425830  56.4461700  26.1927395   0.0319969
  55.2348892  26.5348516  -0.5124753  56.0183535  26.5442413  -0.5230819
  44.7917775  29.2505192  -2.5842983  44.0729764  29.6669325  -2.3170120
  45.1630137  29.8159431  -3.1351345  44.7409707  29.3954474  -2.6260176
  54.0917356  29.8833041   3.3059012  54.0715283  29.7016336   4.1593791
  54.1396557  30.7545060   3.2818596  54.0951997  29.9849579   3.4282307
  52.0363686  36.4720233   9.2307489  51.9959541  35.8269910   8.6452645
  52.8487004  36.4156850   9.5432901  52.1506839  36.3679200   9.1904438
  48.6271153  42.5238959  -0.8667360  48.2131552  41.8613089  -1.2563518
  49.3118527  42.6716818  -1.3871666  48.6669525  42.4479617  -1.0010863
  51.9936447  41.6829044  -0.1143744  51.5952731  41.7931315  -0.8822923
  51.3787667  41.8911111   0.4682816  51.8435337  41.7302612  -0.1412444
  53.4422166  28.2482697  -3.8167854  53.2135859  28.2715398  -4.6589495
  53.7020242  27.4240164  -3.6972843  53.4468354  28.1298776  -3.9242656
  47.7241394  30.1017170   5.7857247  47.2120297  29.4938353   6.1442278
  47.5520891  30.8173762   6.2531222  47.6231031  30.1180469   5.9073470
  42.5707109  28.5454745   8.4359608  42.4009699  29.2056120   7.8907815
  42.1273059  28.7561306   9.1572097  42.4806443  28.6740727   8.4621238
  46.4966928  26.7859243  -2.5213658  46.9724295  27.1476323  -3.1563477
  45.9955528  27.4415710  -2.2413515  46.4932287  26.9353432  -2.5736917
  51.6010465  28.0241414   8.2259502  52.1581895  27.7955224   7.5937968
  51.2771530  28.7847080   7.9494715  51.6356875  28.1025251   8.0915999
  39.4709174  31.4501610   3.6948098  38.9235893  30.7802256   3.8128967
  40.2601552  31.0831458   3.7591565  39.5061357  31.2966597   3.7216799
  49.3193582  31.1109068   9.1911509  50.0704909  31.4260744   9.5051063
  49.5116158  30.9088238   8.3645431  49.4584996  31.1276449   9.1154905
  56.1678872  27.2382634  -3.5664695  56.1673099  27.0831290  -2.7080419
  55.9635052  28.0845621  -3.6223310  56.1378650  27.3403255  -3.4476756
  38.2296143  30.6622418   0.8494121  38.0517904  30.2099027   1.5749037
  37.9415165  31.4648580   1.0332599  38.1609096  30.7144976   0.9837624
  53.8919724  31.9180136   0.0871512  54.3873390  31.2003131   0.0475532
  53.0819500  31.6150933  -0.0274001  53.8463617  31.7677782   0.0645237
  39.9668613  33.1950142  -2.0384120  39.1014132  33.1835832  -2.1501348
  40.0667429  33.0080365  -1.1912980  39.8542780  33.1656203  -1.9295175
  55.9571543  34.6683823   2.7748640  56.3826615  34.1458245   2.2219065
  55.5928463  35.2664661   2.2537263  55.9658146  34.6794050   2.6157650
  45.5925623  42.9648041   1.5345986  45.9072182  43.7784429   1.5423768
  46.0019036  42.5798259   2.2028145  45.6993721  43.0276743   1.6350077
  52.5450143  38.3818087  -0.8950202  53.0161321  39.0958350  -0.7260217
  52.8810321  37.7816838  -0.3590333  52.6645258  38.3989552  -0.7917826
  54.6327127  39.9919401  11.2841870  54.7424093  39.2027961  11.6398617
  54.9618024  39.9025337  10.4816208  54.6979533  39.8625254  11.2184261
  49.4619637  23.1545558   6.0607893  49.5947543  22.3576551   6.3888868
  49.8464790  23.6811961   6.6406168  49.5375966  23.1145475   6.1951396
  53.1824089  38.1736022   5.8677490  52.6345035  37.5493905   5.5997556
  53.6437118  38.3630294   5.1521570  53.1691298  38.1095072   5.7227922
  52.5351993  20.0775884   2.6588986  51.7297956  19.9673614   2.9756824
  52.4058728  20.1788340   1.8018852  52.3972125  20.0759554   2.5797026
  55.9917953  26.2421376   3.2528683  55.4080942  26.7430582   2.8406250
  56.3122247  25.7350932   2.6193006  55.9531129  26.2413211   3.0987190
  47.1208084  23.1504733   4.3085786  47.6652497  22.8095860   4.8990128
  47.1745020  24.0090195   4.4507071  47.2097204  23.2259992   4.4167660
  42.9338643  36.9121149   1.1824594  43.5383500  36.8716983   0.5538415
  42.7265956  37.7592301   1.2128650  42.9927540  37.0309152   1.0940711
  52.7482415  39.1787094   2.3986832  53.5680789  39.0350060   2.6603127
  52.4676493  39.8033293   2.9403270  52.8279159  39.2497446   2.5174771
  38.1689925  35.8955767   1.0523517  38.0714203  35.0852038   1.3613574
  38.9518795  35.8747560   0.6669785  38.2706062  35.7722857   1.0410380
  53.8776778  43.6614724   0.6719284  53.2581810  43.0707371   0.5029299
  53.7760642  44.2526159   0.0383607  53.7714454  43.6618807   0.5524273
  53.6045911  47.2067006   2.9162853  53.4804608  47.7929451   3.5512672
  54.2564196  46.7127202   3.2175128  53.6819560  47.2205810   3.0548782
  57.0427119  47.1246427   8.3291877  57.2147623  47.0152322   9.1777159
  57.5796477  47.7700833   8.0923070  57.1472123  47.2038429   8.4196974
  62.9801821  55.0450678  10.2800953  63.7642237  55.1581526  10.6456696
  62.7798415  54.2191815  10.4759639  63.0667846  54.9397398  10.3635339
  51.3488836  49.7178358   3.1644797  51.0827251  48.9017475   3.3235788
  51.3627400  49.7631514   2.2940313  51.3113558  49.6035263   3.0598279
  56.0987442  43.2556736   5.8111805  55.4059239  42.7853716   6.0572537
  56.7147770  43.0295041   6.3853512  56.0871972  43.1523868   5.9320958
  54.8228001  47.2222140   6.9538650  55.5467974  47.2075171   7.4403545
  54.9244138  47.9317496   6.4560618  54.9446210  47.3246844   6.9517437
  62.1972951  50.7021225  11.8187597  61.4045932  51.0164737  12.0040217
  62.3121878  50.9172694  10.9808382  62.0968361  50.7805062  11.7225932
  61.1228463  45.0625806   4.1551364  60.7342896  44.6380023   3.5003556
  60.4583161  45.3107955   4.6628391  60.9675391  45.0364527   4.1339232
  64.9454825  38.7600434   1.6675349  65.3265336  38.0778606   2.0543223
  64.1418109  38.4710037   1.4851013  64.8831286  38.6167483   1.6979405
  58.9046665  41.2654633  11.5337957  58.5900106  42.0354195  11.2707520
  58.5836597  40.7024889  10.9490184  58.8105584  41.2964901  11.4079307
  65.5811451  39.8023014   5.4795475  66.3265043  39.6132824   5.0658901
  65.1648755  40.3281252   4.9209332  65.6296425  39.8525159   5.3360049
  58.5363170  43.8651884  10.2723172  57.7262946  44.1709663  10.1613014
  59.0137857  44.5857466  10.3875756  58.4866649  44.0166485  10.2730243
  54.8707202  49.4014434   5.1422574  55.3828299  49.6798687   4.4931334
  54.5843545  50.1403728   5.5085387  54.9042065  49.5516788   5.1012452
  58.3890928  41.4940823   5.2023616  58.1974125  41.5095957   6.0523039
  59.2389524  41.6904497   5.1790271  58.4866650  41.5255174   5.3246911
  52.7737841  44.0231804   3.1807432  52.6323332  43.1715745   3.3051940
  53.0578404  44.0660465   2.3569638  52.7945687  43.9031554   3.0775056
  58.8873460  48.5955613   6.7374904  59.0316836  49.1756821   6.1018014
  59.2349109  48.9731910   7.4424758  58.9600922  48.7376317   6.7473899
  61.2995155  41.6896332   5.4095439  61.7567769  42.4220306   5.5368231
  61.3751483  41.2662797   6.1682695  61.3786125  41.7353570   5.5396516
  53.5428146  41.9362152   6.4984883  53.0070335  41.3242510   6.8145650
  53.6045911  42.5110288   7.1518549  53.4723779  41.9309080   6.6420309
  59.1777533  43.6798436   2.2537263  58.3873607  43.4989896   2.5754599
  59.5738155  42.9025389   2.2367558  59.1194409  43.5385897   2.2989811
  61.6915363  46.1558695   6.7360762  61.6274504  47.0168652   6.6080899
  61.8312551  45.8390688   5.9356313  61.7030833  46.2358862   6.5988975
  66.0713154  52.9303417  12.2925213  66.8848019  52.6588566  12.4530345
  65.9108120  52.6310957  11.4885409  66.1683102  52.8458343  12.1970619
  63.3485316  43.6137074   5.2320601  63.5627285  42.9747988   4.6783955
  62.7319215  44.0582898   4.8028463  63.2890645  43.5847218   5.0871032
  65.5124404  45.2226139   6.1703908  64.7001085  44.9152030   6.2517081
  65.9714338  44.7425139   6.7346620  65.4604788  45.1062632   6.2658502
  62.7400044  36.7237010   0.2207944  61.8693602  36.6975731   0.1741253
  62.9940386  36.5514202  -0.5966210  62.6493604  36.6947153   0.0928081
  62.6077911  46.6286211  10.9532610  63.0777542  47.2528327  11.3400485
  62.6539791  45.9603186  11.5125825  62.6845787  46.6220891  11.0932682
  59.7649185  38.7343238   1.6781414  59.2487673  38.0423430   1.8032993
  59.2043114  39.4014015   1.6244013  59.6055698  38.7306496   1.6887480
  61.8341418  39.2736198   3.5074267  61.4473171  39.2985230   4.2887797
  61.3474356  38.7077877   3.0548783  61.7053927  39.1931949   3.5562171
  61.4998560  36.1603184   5.7984527  62.1291678  36.6963484   5.5205597
  61.6684423  36.0680543   6.6498092  61.6176355  36.2264546   5.8833055
  61.3012475  40.9474378   8.0710938  62.1285904  40.6759527   8.1269553
  61.3220321  41.7435220   8.4274756  61.4265325  41.0254133   8.1326121
  56.1651395  41.6484001   3.3440849  56.6252877  41.7222931   4.0815973
  56.2107502  42.4465255   2.9940671  56.2401951  41.7778148   3.4013606
  57.8134745  42.3150696   7.9112877  57.4220310  41.6684043   8.3468654
  57.9820608  42.9062131   8.5307132  57.7805655  42.3064964   8.0675583
  52.9539173  45.2773192   5.7192566  53.8164786  45.1768901   5.6329896
  52.6230956  44.6967901   5.1578138  53.0324370  45.1764819   5.6237972
  56.3140959  44.1015641   2.3802984  55.6894029  44.1134033   1.7728937
  55.9786554  44.5775816   3.0294224  56.1726451  44.1734158   2.3859552
  55.5831705  45.7108789   4.5977852  55.7425191  44.9552113   5.0029574
  55.4024598  46.2599728   5.2518590  55.5797064  45.6802602   4.7540558
  63.5252008  37.8770024   5.1528642  63.0292569  38.0733698   4.4620209
  64.2821070  38.2762692   4.9817444  63.5638832  37.9647758   5.0248779
  60.7954887  41.5512370   1.7431952  60.8197374  41.0172482   1.0544732
  61.0466361  41.0429679   2.4057543  60.8364806  41.3973274   1.7396597
  48.3062477  48.8343865   1.1775096  48.2005926  48.7890709   0.3127181
  47.5562697  49.1797646   1.4589381  48.1798080  48.8784773   1.0912426
  57.0756209  40.2783188   1.1237697  57.1154581  40.7792395   1.8372404
  56.2505874  40.3693582   0.8543620  56.9595735  40.3665005   1.1888235
  59.2585822  49.8443928   9.2257991  58.4081453  49.9815643   9.3615636
  59.4213950  49.1107707   9.6705693  59.1569686  49.7558030   9.3113590
  58.4970573  46.7943698   3.4211596  57.6662502  46.9617516   3.2146844
  58.4422090  46.4179649   4.2060481  58.3659988  46.7633429   3.5060124
  56.3054356  40.2852591   9.0568006  56.9307059  39.7414724   9.3297439
  55.8504836  39.8047509   8.4875797  56.3302617  40.1342072   9.0129600
  63.8744977  41.2552570   3.6163211  64.3000048  40.8025097   3.0046738
  63.2601970  40.7012641   3.8927999  63.8473622  41.1066546   3.5668237
  63.0096269  51.9905541   9.2307489  62.9692124  51.3455218   8.6452645
  63.8219588  51.9342158   9.5432901  63.1239423  51.8864508   9.1904438
  58.6973978  45.6202477   5.7857247  58.1852881  45.0123660   6.1442278
  58.5253474  46.3359070   6.2531222  58.5963615  45.6365777   5.9073470
  53.5439693  44.0640053   8.4359608  53.3742283  44.7241428   7.8907815
  53.1005643  44.2746614   9.1572097  53.4539026  44.1926035   8.4621238
  62.5743048  43.5426722   8.2259502  63.1314478  43.3140532   7.5937968
  62.2504113  44.3032388   7.9494715  62.6089459  43.6210559   8.0915999
  50.4441757  46.9686918   3.6948098  49.8968477  46.2987564   3.8128967
  51.2334135  46.6016766   3.7591565  50.4793941  46.8151905   3.7216799
  60.2926166  46.6294375   9.1911509  61.0437493  46.9446052   9.5051063
  60.4848742  46.4273546   8.3645431  60.4317580  46.6461757   9.1154905
  49.2028727  46.1807726   0.8494121  49.0250488  45.7284335   1.5749037
  48.9147749  46.9833888   1.0332599  49.1341680  46.2330284   0.9837624
  60.4352221  38.6730866   6.0607893  60.5680127  37.8761859   6.3888868
  60.8197374  39.1997269   6.6406168  60.5108550  38.6330783   6.1951396
  63.5084576  35.5961192   2.6588986  62.7030540  35.4858922   2.9756824
  63.3791312  35.6973648   1.8018852  63.3704709  35.5944862   2.5797026
  58.0940668  38.6690041   4.3085786  58.6385081  38.3281168   4.8990128
  58.1477604  39.5275503   4.4507071  58.1829787  38.7445300   4.4167660
   1.8165505  59.1168523  36.2567852   1.5018946  59.8072002  36.6888275
   1.2992447  59.0613306  35.5553353   1.6929975  59.2103412  36.2164801
   6.1079950  67.3389729  41.5388729   5.2708371  67.4091916  41.7736323
   6.0768181  67.3414224  40.6663031   5.9798232  67.3499956  41.4448277
   3.7887790  62.4032511  40.1232451   4.4313698  62.4730616  40.7094366
   4.0410811  61.7361734  39.6211993   3.9209922  62.3158860  40.1359730
   6.2269292  67.1777148  35.8544415   5.9705857  66.3657090  35.6642297
   7.0698606  67.1854715  35.6274602   6.3135318  67.0589146  35.7929232
   1.0429011  62.1599351  44.4040695   1.7882603  61.9709162  43.9904121
   0.6266315  62.6857589  43.8454552   1.0913985  62.2101497  44.2605269
   8.4191281  69.5308580  39.3546200   8.9699203  68.8976649  39.5943292
   8.4035397  70.0623973  40.0461705   8.4976478  69.5157528  39.4925058
   2.1219688  67.7704914  38.4650796   1.7784454  67.0495249  38.8158046
   2.2212730  67.5618765  37.6229155   2.0861731  67.6329117  38.3922476
   1.2340041  57.2262545  38.2034502   1.3523609  57.6839008  37.4701805
   1.0602216  56.4207806  37.9170720   1.2259212  57.1756317  38.0535436
   3.2708958  68.1975191  41.0559189   2.8436566  68.1101540  40.3007289
   2.6335011  68.3052966  41.6414033   3.1138565  68.2007851  41.0304631
   3.7073726  61.6047174  37.1717814   3.0948040  62.0917576  37.5571546
   3.8037901  60.9290665  37.7155465   3.6311624  61.5765483  37.3096672
   6.3025621  67.4781856  38.6390280   6.0635391  67.4377690  37.8011064
   6.4659522  68.3253008  38.7656001   6.2915924  67.5973941  38.5343762
   2.5284234  64.4959318  38.2819390   2.8811844  64.0689041  38.9565189
   1.6699035  64.4110162  38.4120467   2.4533678  64.4204059  38.4014401
   3.9608294  59.6177730  39.2103703   3.4539158  58.9106870  39.1424880
   4.7575727  59.2870919  39.3404779   4.0035533  59.4650881  39.2202698
   2.6029016  65.1144280  35.3580525   2.6023242  64.9592936  36.2164801
   2.3985196  65.9607267  35.3021910   2.5728794  65.2164900  35.4768464
   2.4268097  64.1183022  42.1773903   1.8431086  64.6192228  41.7651470
   2.7472391  63.6112578  41.5438226   2.3881272  64.1174857  42.0232410
   4.3764449  46.1306415  21.2214975   4.3458454  46.9851052  21.3933244
   4.9745798  45.8301708  21.7801118   4.4601607  46.2122912  21.3289777
   0.8857851  51.4868592  35.5828361   1.5924618  50.9920622  35.7115296
   1.0745786  51.9277673  34.8531019   1.0185756  51.4786942  35.4937407
   2.1981024  48.7058717  19.4933285   2.0820550  49.4566403  19.9225423
   2.9936911  48.4482670  19.7429372   2.2985613  48.7793564  19.5937376
   1.5116329  36.0546655  23.1907899   1.1969770  36.7450133  23.6228321
   0.9943271  35.9991437  22.4893400   1.3880799  36.1481543  23.1504848
   6.3076816  51.6297460  24.6778354   5.4774519  51.8408104  24.8411771
   6.2586068  50.8034514  24.4020638   6.1783551  51.5387066  24.6615720
   5.8030774  44.2767861  28.4728775   4.9659195  44.3470048  28.7076370
   5.7719005  44.2792355  27.6003078   5.6749056  44.2878088  28.3788323
   0.5260960  48.4723537  24.0640667   1.2818475  48.9055051  24.1029576
   0.6323284  47.8228307  24.6375303   0.6531130  48.4401021  24.1538693
   3.5641131  52.2996814  24.8143070   3.1276363  52.3033557  25.5702041
   3.2304046  52.9802313  24.3822647   3.4503751  52.4009270  24.8623902
   3.4838614  39.3410642  27.0572498   4.1264522  39.4108747  27.6434413
   3.7361634  38.6739865  26.5552040   3.6160746  39.2536991  27.0699777
   6.6985477  49.0177734  23.7062707   7.3601911  48.4568403  23.6058616
   6.0576889  48.5229765  24.0315398   6.7014345  48.8614143  23.7395047
   2.9850308  50.0343117  23.4474696   3.2205897  50.1788316  22.6201547
   3.1339871  50.7985525  23.8406210   3.0416111  50.1682171  23.3838300
   4.8140765  48.8744783  21.2844300   5.1448982  49.4072423  20.6784395
   5.3873853  48.9283670  21.9406251   4.9474444  48.9614351  21.2922081
   5.9220116  44.1155279  22.7884461   5.6656681  43.3035221  22.5982344
   6.7649430  44.1232847  22.5614649   6.0086141  43.9967277  22.7269278
   3.6045275  51.2704875  32.6243014   3.3683913  50.4392940  32.5055075
   4.2488504  51.2190483  33.2097858   3.6639946  51.1402563  32.6928908
   4.6281696  51.0549324  28.6871308   4.3227513  51.7877381  29.0484624
   3.9087912  50.6487254  28.4064094   4.4769038  51.1031057  28.6984446
  10.3283488  47.6942325  28.0139653  10.2607988  47.7138284  27.1442239
  10.3139150  48.5372652  28.2395323  10.3162245  47.8216060  27.9192130
   8.1142105  46.4686711  26.2886247   8.6650027  45.8354780  26.5283339
   8.0986221  47.0002104  26.9801751   8.1927302  46.4535659  26.4265105
   1.8170512  44.7083045  25.3990843   1.4735278  43.9873380  25.7498093
   1.9163554  44.4996896  24.5569202   1.7812554  44.5707248  25.3262523
   2.2783541  51.1708749  20.9414831   2.8441573  51.8301959  20.8573374
   1.6311444  51.5158447  21.4131234   2.2662297  51.3190690  20.9987588
   4.2119001  47.8342616  24.5611628   4.1252975  47.9898042  25.4146407
   3.7569481  48.4780692  24.1871033   4.1322258  47.9518371  24.6318735
   1.9792866  51.8636723  26.9723969   1.8407225  52.5617769  27.4772711
   1.1992864  51.7085379  26.6160150   1.8436093  51.9436889  26.9950243
   3.4746239  51.2214977  17.7340468   3.0953047  50.4352114  17.7269757
   2.8112484  51.7701834  17.5912112   3.3204713  51.1859801  17.7121265
   0.9290865  34.1640676  25.1374549   1.0474433  34.6217140  24.4041851
   0.7553040  33.3585938  24.8510766   0.9210036  34.1134448  24.9875482
   1.7206337  53.4660468  18.0692154   1.8026175  54.2727454  17.7453605
   2.2056080  53.4856427  18.7932927   1.8043495  53.5881130  18.1279052
   1.2281538  52.2257886  38.1510480   2.0416403  51.9543035  38.3115612
   1.0676504  51.9265426  37.3470676   1.3251486  52.1412812  38.0555886
   1.2402782  53.2864176  33.4233320   1.8782502  52.7924372  33.0895776
   0.5976873  53.2141577  32.8385547   1.2397008  53.2023185  33.2875675
   1.2957038  53.9783984  30.0638677   2.0849416  53.6273049  30.1840759
   1.4700636  54.7920373  29.8015311   1.4377320  54.0469842  30.0426545
   3.4024550  38.5425305  24.1057861   2.7898864  39.0295708  24.4911593
   3.4988725  37.8668796  24.6495512   3.3262448  38.5143614  24.2436719
   7.0449578  49.6142242  29.5335377   7.1032702  50.0628891  30.2795353
   6.4116046  50.0241055  29.0965457   6.9600873  49.7415977  29.5787925
   3.9971258  47.6358530  27.6201067   3.7569480  46.7964945  27.6243494
   4.4763265  47.7158697  28.3441841   4.0323441  47.5239930  27.7275870
   5.9976445  44.4159987  25.5730326   5.7586215  44.3755821  24.7351111
   6.1610346  45.2631139  25.6996047   5.9866748  44.5352072  25.4683808
   2.6022475  48.8009936  31.5035372   3.3256674  48.3482463  31.3246391
   2.3372437  49.0814602  30.7207699   2.6703748  48.7760905  31.3614087
   5.0357789  47.7636347  30.0065921   5.6275629  48.4033598  30.0384119
   5.4716783  47.0659384  30.2957988   5.1876220  47.7554698  30.0546754
   2.0606930  44.9781566  22.3069064   1.3898120  45.5211268  22.1782129
   2.7546680  45.4476421  22.0650759   2.0635798  45.1279837  22.2524592
   2.2235058  41.4337449  25.2159437   2.5762668  41.0067172  25.8905236
   1.3649859  41.3488293  25.3460513   2.1484502  41.3582190  25.3354447
   3.6559118  36.5555861  26.1443749   3.1489982  35.8485001  26.0764927
   4.4526551  36.2249050  26.2744826   3.6986357  36.4029013  26.1542744
   5.8579258  51.0720788  19.1284614   6.2412863  51.8212144  19.3582711
   5.0623371  51.3186608  18.8696603   5.7973040  51.2190482  19.1242187
   2.2979840  42.0522411  22.2920572   2.2974066  41.8971067  23.1504848
   2.0936020  42.8985398  22.2361957   2.2679618  42.1543032  22.4108511
   2.0872511  49.4823600  28.6333907   2.5127582  48.9598022  28.0804332
   1.7229430  50.0804438  28.1122530   2.0959113  49.4933827  28.4742917
   0.7628095  54.8059178  37.1427137   0.8725060  54.0167738  37.4983884
   1.0918991  54.7165114  36.3401475   0.8280500  54.6765031  37.0769527
   2.1218921  41.0561153  29.1113950   1.5381910  41.5570359  28.6991517
   2.4423215  40.5490709  28.4778273   2.0832096  41.0552988  28.9572457
  15.3497033  61.6491723  21.2214975  15.3191037  62.5036360  21.3933244
  15.9478382  61.3487016  21.7801118  15.4334191  61.7308219  21.3289777
   8.5496718  60.7367374  25.9767905   7.6934613  60.8975872  26.0277022
   8.5964372  59.8659438  25.9972966   8.4295829  60.6318176  25.9873971
  11.8590434  67.0053900  35.5828361  12.5657202  66.5105930  35.7115296
  12.0478370  67.4462981  34.8531019  11.9918340  66.9972250  35.4937407
  11.3948539  62.7959418  28.6199557  11.9404499  63.4744504  28.6793527
  11.3365415  62.6546879  27.7601138  11.4664453  62.8751420  28.5011617
  13.1713608  64.2244025  19.4933285  13.0553133  64.9751711  19.9225423
  13.9669494  63.9667978  19.7429372  13.2718197  64.2978872  19.5937376
   7.1045641  60.2154043  20.8637014   7.8025806  60.3942170  21.3558477
   7.4197974  59.6924382  20.2407403   7.2540978  60.1647815  20.8439024
   7.2933577  66.6024488  20.8516805   7.7327212  65.9941588  21.2971578
   7.1438239  66.2231861  20.0802270   7.3355042  66.4562959  20.8035973
   4.7605220  65.1968500  28.0535631   5.4054222  64.7040943  27.7346579
   5.0006997  65.3393286  28.8801709   4.8915805  65.1445942  28.1285164
   7.2991311  68.0423406  27.7042523   7.5814554  67.2474811  27.4829279
   8.0277471  68.5203993  27.7247584   7.4480875  67.9958003  27.6745538
   5.2772505  55.5846440  24.9458288   4.9475835  56.0357583  24.2761987
   4.6017507  55.5062603  25.4931295   5.1282941  55.6397575  24.9281512
  10.8942913  64.9551669  17.8047574  10.8094208  65.8112636  17.9497143
  11.3827296  64.6795993  18.4729734  10.9531810  65.0408991  17.9249656
  12.4848913  51.5731962  23.1907899  12.1702353  52.2635441  23.6228321
  11.9675854  51.5176745  22.4893400  12.3613383  51.6666851  23.1504848
  11.8261346  61.5736463  19.3045310  11.2972818  61.7896097  19.9642616
  12.3486366  62.2672602  19.2246279  11.8249799  61.7079600  19.3900909
  17.2809399  67.1482768  24.6778354  16.4507102  67.3593412  24.8411771
  17.2318652  66.3219822  24.4020638  17.1516135  67.0572374  24.6615720
   8.9982729  70.4281436  33.4742437   9.0866075  70.2407576  34.3220647
   9.4272441  69.7818866  33.0747283   9.0744831  70.3044444  33.5414188
   8.1738169  61.7165332  16.5821698   8.4134172  61.9243316  15.7697041
   8.4954010  60.9122841  16.6910643   8.2575326  61.6279433  16.4782251
   3.4828459  53.6458728  20.4281236   4.2374427  54.0137045  20.1898286
   3.3055993  54.0198282  21.1960416   3.5682937  53.7556916  20.5066125
  16.7763358  59.7953169  28.4728775  15.9391779  59.8655356  28.7076370
  16.7451588  59.7977663  27.6003078  16.6481640  59.8063396  28.3788323
   3.1728087  61.9386204  34.1877144   3.3448590  61.8292099  35.0362425
   3.7097444  62.5840610  33.9508336   3.2773091  62.0178206  34.2782241
   1.8385523  56.0529047  17.1259349   1.6561097  56.2700928  16.3000342
   2.7011136  56.1668060  17.1817964   1.9390113  56.1018945  17.0113836
   1.4499955  67.8916969  24.5682337   2.2888855  68.1239902  24.6156099
   1.4811725  67.0221281  24.4989372   1.5781673  67.7973916  24.5646982
   7.5185243  53.0555458  20.1608373   8.2471403  52.8771413  19.7146529
   7.6080136  53.8973537  20.3715551   7.6391905  53.1539336  20.1261891
  11.4993543  63.9908845  24.0640667  12.2551058  64.4240359  24.1029576
  11.6055868  63.3413615  24.6375303  11.6263714  63.9586329  24.1538693
  14.5373714  67.8182122  24.8143070  14.1008946  67.8218865  25.5702041
  14.2036630  68.4987621  24.3822647  14.4236334  67.9194578  24.8623902
   9.1102788  69.8590455  36.1386220   9.8943205  69.9721303  36.5041962
   8.9099383  69.0331592  36.3344906   9.1968813  69.7537175  36.2220606
  14.4571197  54.8595950  27.0572498  15.0997106  54.9294055  27.6434413
  14.7094218  54.1925173  26.5552040  14.5893329  54.7722299  27.0699777
   2.2288410  58.0696513  31.6697072   1.5360207  57.5993493  31.9157803
   2.8448737  57.8434818  32.2438779   2.2172940  57.9663645  31.7906224
  17.6718061  64.5363042  23.7062707  18.3334495  63.9753711  23.6058616
  17.0309473  64.0415073  24.0315398  17.6746928  64.3799451  23.7395047
  13.9582891  65.5528425  23.4474696  14.1938481  65.6973623  22.6201547
  14.1072455  66.3170833  23.8406210  14.0148695  65.6867479  23.3838300
   0.9528969  62.0361917  32.8123917   1.6768941  62.0214948  33.2988812
   1.0545105  62.7457273  32.3145885   1.0747178  62.1386621  32.8102704
  15.7873348  64.3930090  21.2844300  16.1181565  64.9257731  20.6784395
  16.3606436  64.4468978  21.9406251  15.9207027  64.4799659  21.2922081
   8.3273918  65.5161002  37.6772864   7.5346899  65.8304514  37.8625484
   8.4422845  65.7312470  36.8393649   8.2269329  65.5944839  37.5811199
  11.0005237  62.2394993  21.9667880  11.0952092  62.9784287  22.4207505
  10.3764081  61.8112469  22.4002444  10.9214267  62.2856314  22.0976027
   9.2557711  65.4181206  32.6158161   9.8296573  64.7808450  32.7706725
   9.1772515  65.4185288  31.7467818   9.3290946  65.3246317  32.5104572
  11.2528259  64.0843733  15.2004832  11.1708421  64.1545920  16.0659819
  11.8907979  64.6473477  15.0088572  11.3348096  64.1782704  15.2994781
   4.6121430  63.8504471  24.6679358   4.3540674  63.0176206  24.6410658
   4.6669912  64.0762084  23.8271859   4.5821208  63.7602242  24.5399495
   9.6922480  55.9532922  24.7683451   8.9878807  55.4642107  24.9267370
   9.7407454  55.9655396  23.8971895   9.5952531  55.8822570  24.6622791
   3.5856142  61.4042233  25.1544253   3.0105733  61.5634402  25.7908214
   3.2091818  60.7677643  24.6912703   3.4458954  61.3340046  25.1798811
   7.2529430  59.8765583  30.0136631   6.8643863  59.4519800  29.3588823
   6.5884129  60.1247732  30.5213658   7.0976358  59.8504304  29.9924499
  16.8952700  59.6340587  22.7884461  16.6389264  58.8220529  22.5982344
  17.7382014  59.6418155  22.5614649  16.9818725  59.5152585  22.7269278
  11.0755792  53.5740211  27.5260616  11.4566304  52.8918383  27.9128490
  10.2719076  53.2849814  27.3436280  11.0132254  53.4307260  27.5564671
   8.3568369  64.1064187  18.2113438   9.1709008  64.3979080  18.0996210
   8.2927510  63.4524050  17.6371731   8.4671108  64.0529382  18.1102276
  14.5777859  66.7890183  32.6243014  14.3416496  65.9578248  32.5055075
  15.2221088  66.7375791  33.2097858  14.6372530  66.6587871  32.6928908
   4.2276277  67.5785705  23.3385750   4.8650224  67.3397452  23.8837544
   4.6531349  67.7822864  22.6038911   4.3852443  67.5736715  23.3102908
   5.0347632  56.0794410  37.3923224   4.7201073  56.8493972  37.1292787
   4.7137565  55.5164666  36.8075451   4.9406551  56.1104678  37.2664574
  15.6014280  66.5734632  28.6871308  15.2960097  67.3062689  29.0484624
  14.8820495  66.1672562  28.4064094  15.4501622  66.6216365  28.6984446
   6.6097749  68.0558127  25.0179537   6.6836757  67.8933299  25.8721387
   7.4267255  68.2448317  24.7740018   6.7414108  68.0594870  25.1077562
  21.3016072  63.2127633  28.0139653  21.2340572  63.2323592  27.1442239
  21.2871734  64.0557960  28.2395323  21.2894828  63.3401368  27.9192130
   2.5879529  54.4684931  23.0069420   1.7201955  54.5407531  23.0727030
   2.8754734  55.2707010  23.1957395   2.5019277  54.5979078  23.0444187
  11.7112418  54.6162791  31.3380742  12.4566010  54.4272601  30.9244168
  11.2949723  55.1421029  30.7794598  11.7597392  54.6664936  31.1945315
  19.0874689  61.9872019  26.2886247  19.6382611  61.3540088  26.5283339
  19.0718804  62.5187412  26.9801751  19.1659885  61.9720967  26.4265105
   5.7397080  65.8210616  30.8346141   5.2408774  66.5326384  30.9131029
   6.5497304  66.1411283  30.7964303   5.7853187  65.9737465  30.8402709
   2.0025197  65.0833569  25.0808861   1.7138446  64.4571041  25.6154589
   2.8708545  65.0253857  25.1473542   2.0885449  64.9821114  25.1699816
  12.7903095  60.2268353  25.3990843  12.4467861  59.5058688  25.7498093
  12.8896138  60.0182204  24.5569202  12.7545138  60.0892556  25.3262523
  13.2516124  66.6894057  20.9414831  13.8174157  67.3487267  20.8573374
  12.6044028  67.0343755  21.4131234  13.2394881  66.8375998  20.9987588
   4.6664138  58.6791661  36.1308439   3.8563914  58.9849440  36.0198281
   5.1438825  59.3997243  36.2461023   4.6167617  58.8306262  36.1315510
   3.5255697  67.8937382  26.3791342   3.0036451  68.0337673  27.0643207
   3.9129718  67.1348046  26.5693459   3.5059398  67.8022906  26.5092418
   9.7222702  69.6332841  20.3651911   9.4809378  68.9000702  19.9578976
   9.9024035  70.1819698  19.7118244   9.7130326  69.6055232  20.2082134
   4.9522023  64.9241401  21.7772833   4.7564806  65.5316135  21.1833136
   5.1756369  64.2309345  21.2964507   4.9556664  64.9118926  21.6188914
   3.3500553  61.8096139  21.8953701   4.0723205  61.9737297  21.4357507
   2.8708546  62.5305804  21.7893041   3.3864284  61.9394368  21.8119315
  11.3094061  58.1459937  27.2750386  10.4705161  58.1721216  27.0388649
  11.3798428  58.7930673  27.8555733  11.1962454  58.2456063  27.3259503
   1.0008170  64.2154211  31.0007841   1.5129267  64.4938464  30.3516601
   0.7144512  64.9543505  31.3670654   1.0343033  64.3656565  30.9597719
   9.7563339  55.0445315  22.0078002  10.4589692  54.8453063  21.5297960
   9.4907528  54.2721257  22.3146846   9.8209971  54.9008281  21.9823444
  15.1851584  63.3527924  24.5611628  15.0985559  63.5083350  25.4146407
  14.7302064  63.9966000  24.1871033  15.1054841  63.4703679  24.6318735
   4.5191895  56.3080600  31.0608883   4.3275092  56.3235734  31.9108306
   5.3690491  56.5044274  31.0375538   4.6167617  56.3394951  31.1832177
   9.0577401  60.6738671  23.1837187   8.8112115  60.5934422  24.0173976
   9.3862524  59.8892139  22.9899715   9.0698644  60.5464937  23.2784711
  12.9525449  67.3822031  26.9723969  12.8139809  68.0803077  27.4772711
  12.1725447  67.2270687  26.6160150  12.8168676  67.4622197  26.9950243
  11.2903534  63.6818406  33.2246350  11.2851573  62.8098223  33.2288777
  11.9964528  63.8806575  32.7515806  11.3948538  63.5822280  33.1553386
   5.0174428  63.4095390  32.5960171   5.1617804  63.9896598  31.9603281
   5.3650076  63.7871687  33.3010025   5.0901889  63.5516094  32.6059165
   7.1894345  62.6085558  30.3785302   6.4417659  62.8016573  29.9733580
   7.3435870  61.7830778  30.1409423   7.1016773  62.5150670  30.2830708
  14.4478822  66.7400284  17.7340468  14.0685631  65.9537422  17.7269757
  13.7845068  67.2887141  17.5912112  14.2937297  66.7045108  17.7121265
   7.4296122  56.5036109  31.2680706   7.8868736  57.2360083  31.3953498
   7.5052451  56.0802574  32.0267962   7.5087092  56.5493347  31.3981782
  11.9023448  49.6825984  25.1374549  12.0207016  50.1402448  24.4041851
  11.7285624  48.8771245  24.8510766  11.8942619  49.6319756  24.9875482
   5.3078500  58.4938213  28.1122530   4.5174575  58.3129673  28.4339866
   5.7039123  57.7165166  28.0952824   5.2495376  58.3525674  28.1575078
  10.6922186  66.1280643  25.8381976  10.0167188  65.8965875  26.3395363
  10.7014563  65.5201826  25.2124081  10.5940691  66.0039568  25.8198128
   7.8216330  60.9698472  32.5946029   7.7575472  61.8308429  32.4666165
   7.9613518  60.6530465  31.7941580   7.8331800  61.0498639  32.4574242
  12.6938921  68.9845776  18.0692154  12.7758758  69.7912762  17.7453605
  13.1788663  69.0041735  18.7932927  12.7776079  69.1066438  18.1279052
   6.5035424  63.6630611  26.7362232   6.0797673  63.8635110  26.0001250
   6.3280279  62.8159459  26.8486532   6.4146305  63.5679393  26.6435922
   1.7917869  64.1582663  22.1690204   1.9482488  64.0929466  23.0246196
   2.1318462  64.9331215  21.9568884   1.8651104  64.2631861  22.2644798
   8.3297014  63.5340546  21.0383567   8.8712559  63.0310928  21.5022188
   8.6443573  63.4805741  20.2273053   8.4561411  63.4519967  20.9867380
  12.2014121  67.7443194  38.1510480  13.0148987  67.4728343  38.3115612
  12.0409088  67.4450734  37.3470676  12.2984070  67.6598120  38.0555886
   9.4786283  58.4276851  31.0905868   9.6928253  57.7887765  30.5369222
   8.8620182  58.8722675  30.6613730   9.4191612  58.3986995  30.9456299
  11.6425371  60.0365916  32.0289175  10.8302053  59.7291807  32.1102348
  12.1015306  59.5564916  32.5931887  11.5905756  59.9202409  32.1243769
  11.0530626  67.9145588  22.4766119  10.6945281  68.0860231  23.2530152
  10.5669337  68.3758794  21.9194118  10.9289323  68.0084559  22.5091388
   8.8701012  51.5376787  26.0793211   7.9994570  51.5115508  26.0326520
   9.1241353  51.3653979  25.2619056   8.7794572  51.5086930  25.9513347
   8.7378879  61.4425988  36.8117877   9.2078510  62.0668104  37.1985751
   8.7840759  60.7742963  37.3711092   8.8146755  61.4360668  36.9517949
   5.8950152  53.5483015  27.5366681   5.3788641  52.8563207  27.6618260
   5.3344081  54.2153792  27.4829280   5.7356666  53.5446273  27.5472747
   7.9642386  54.0875975  29.3659534   7.5774139  54.1125007  30.1473064
   7.4775323  53.5217654  28.9134050   7.8354895  54.0071726  29.4147437
  12.2135365  68.8049484  33.4233320  12.8515086  68.3109680  33.0895776
  11.5709457  68.7326885  32.8385547  12.2129592  68.7208493  33.2875675
  13.9392365  60.6538630  27.9899236  13.5119973  60.5664979  27.2347335
  13.3018418  60.7616406  28.5754080  13.7821973  60.6571290  27.9644677
   7.6299528  50.9742961  31.6569794   8.2592646  51.5103261  31.3790864
   7.7985390  50.8820320  32.5083359   7.7477322  51.0404323  31.7418322
   7.4313442  55.7614155  33.9296205   8.2586872  55.4899304  33.9854820
   7.4521288  56.5574997  34.2860023   7.5566293  55.8393910  33.9911388
  12.2689622  69.4969292  30.0638677  13.0582000  69.1458357  30.1840759
  12.4433220  70.3105681  29.8015311  12.4109904  69.5655149  30.0426545
   2.0082932  62.9078018  27.1166466   1.1670939  62.8081892  27.3245360
   2.2172940  63.6773498  27.4680786   1.9147625  63.0070061  27.1993781
  11.1223446  53.5078849  24.6255095  11.3273039  53.4401157  25.4712093
  10.7949870  54.3137670  24.5576273  11.1038694  53.6164789  24.7414751
   5.8199597  60.8359417  26.3664063   5.5162735  60.2815406  26.9674471
   5.1179018  61.0151627  25.8792098   5.6715807  60.7804200  26.3833769
   4.8765694  58.1459937  20.9308765   5.1525429  57.4278850  20.5186333
   5.4764364  58.7444857  20.7229871   5.0058959  58.1280308  20.8389526
  14.3757134  54.0610613  24.1057861  13.7631447  54.5481015  24.4911593
  14.4721309  53.3854104  24.6495512  14.2995031  54.0328922  24.2436719
   8.3776215  55.8173454  19.2055360   8.8319961  55.9884015  19.9303205
   8.8516260  55.2041565  18.8053136   8.5144535  55.7524340  19.2529122
   1.8991740  65.3021780  28.5358099   1.3079673  65.9431279  28.5061114
   2.6612764  65.7259398  28.5089398   1.9240001  65.4597619  28.5273246
   2.2952363  56.4623778  29.2026116   2.7553845  56.5362708  29.9401240
   2.3408470  57.2605032  28.8525938   2.3702918  56.5917925  29.2598873
   3.9435713  57.1290473  33.7698143   3.5521278  56.4823820  34.2053921
   4.1121575  57.7201908  34.3892399   3.9106623  57.1204741  33.9260849
  18.0182162  65.1327550  29.5335377  18.0765285  65.5814199  30.2795353
  17.3848629  65.5426363  29.0965457  17.9333457  65.2601285  29.5787925
  11.6581256  70.7531092  25.9690123  11.4600945  71.2421906  25.2746334
  11.0368967  70.9572333  26.5474257  11.5368821  70.8547630  25.9513346
   5.7189235  62.5215989  20.3100367   6.4631280  62.9090265  20.5483317
   5.8649931  61.6773414  20.4740855   5.8499820  62.4546462  20.3694337
   7.6368810  54.3166248  25.3432229   6.7904855  54.4889055  25.2173579
   7.6339943  53.5115591  25.6798057   7.5115960  54.2227277  25.3743356
   8.7067111  58.0941462  26.2094287   8.2327065  57.5683224  26.7199598
   9.0785246  57.5470935  25.6409148   8.6917000  57.9357459  26.2009434
  14.9703841  63.1543838  27.6201067  14.7302064  62.3150253  27.6243494
  15.4495848  63.2344004  28.3441841  15.0056025  63.0425237  27.7275870
  10.6350610  58.9878017  19.2720041  10.1073629  59.0706761  18.5825749
  11.0946318  59.7295888  19.2684685  10.6252461  59.1098679  19.1694736
  16.9709028  59.9345295  25.5730326  16.7318798  59.8941129  24.7351111
  17.1342929  60.7816447  25.6996047  16.9599332  60.0537380  25.4683808
  13.5755058  64.3195244  31.5035372  14.2989257  63.8667771  31.3246391
  13.3105021  64.5999910  30.7207699  13.6436332  64.2946213  31.3614087
   2.4441927  58.9155418  28.2388251   1.8194997  58.9273810  27.6314203
   2.1087522  59.3915593  28.8879491   2.3027419  58.9873935  28.2444819
  10.1887693  67.5581580  18.4029698  10.9121892  68.0239693  18.2594271
   9.7488284  67.6255190  17.6527295  10.2303385  67.6365417  18.2714479
   9.3573848  64.4179123  29.6530387   8.7430841  63.8737173  29.9479022
   9.8741133  63.9043359  29.1736203   9.3429510  64.2615532  29.6254615
   8.5970145  65.4883393  27.3874685   8.1697753  64.8633111  26.9540121
   8.5895089  65.2058314  28.2133692   8.5329286  65.3536173  27.4454513
   1.7132672  60.5248566  30.4563119   1.8726159  59.7691890  30.8614841
   1.5325566  61.0739505  31.1103857   1.7098031  60.4942379  30.6125825
   9.6552975  52.6909801  31.0113909   9.1593536  52.8873475  30.3205475
  10.4122037  53.0902469  30.8402710   9.6939800  52.7787535  30.8834045
   6.9255855  56.3652147  27.6017219   6.9498342  55.8312259  26.9129999
   7.1767328  55.8569456  28.2642810   6.9665773  56.2113051  27.5981864
   3.2057177  55.0922965  26.9822964   3.2455549  55.5932172  27.6957671
   2.3806842  55.1833359  26.7128887   3.0896703  55.1804782  27.0473502
   5.3886790  64.6583705  35.0843258   4.5382420  64.7955420  35.2200903
   5.5514918  63.9247484  35.5290960   5.2870653  64.5697807  35.1698857
   4.6271540  61.6083475  29.2796863   3.7963470  61.7757293  29.0732111
   4.5723057  61.2319426  30.0645748   4.4960955  61.5773206  29.3645391
   2.4355324  55.0992368  34.9153273   3.0608027  54.5554501  35.1882706
   1.9805803  54.6187286  34.3461064   2.4603584  54.9481849  34.8714867
   3.0007584  59.8839067  19.8086980   3.1410545  60.3811531  20.5115622
   3.4990117  59.1825361  19.9501194   3.0948665  59.8541045  19.9338559
  16.0090372  63.2821655  30.0065921  16.6008213  63.9218906  30.0384119
  16.4449367  62.5844692  30.2957988  16.1608803  63.2740005  30.0546754
   4.6086789  56.6820153  17.1124999   4.9302630  56.2023236  16.4584261
   4.8713733  57.4919799  16.9215811   4.6952815  56.7310051  16.9880491
   7.8383762  67.7039027  30.6323815   7.3308853  68.2574874  31.0764446
   7.5410408  67.7647317  29.8142590   7.7188647  67.7945339  30.5772272
  10.0045944  56.0692347  29.4748478  10.4301016  55.6164874  28.8632005
   9.3902937  55.5152418  29.7513266   9.9774590  55.9206323  29.4253503
   8.4440167  52.5407447  22.8839055   7.8008485  52.3905093  23.4524194
   8.1039574  52.2949792  22.1188160   8.2985245  52.4819569  22.8542070
  13.0339514  60.4966874  22.3069064  12.3630704  61.0396576  22.1782129
  13.7279264  60.9661729  22.0650759  13.0368381  60.6465145  22.2524592
  13.1967641  56.9522757  25.2159437  13.5495251  56.5252480  25.8905236
  12.3382443  56.8673601  25.3460513  13.1217086  56.8767498  25.3354447
   1.8951326  59.5830277  23.2742284   1.1763315  59.9994410  23.5415147
   2.2663688  60.1484516  22.7233922   1.8443258  59.7279558  23.2325091
  11.1950907  60.2158126  29.1644279  11.1748834  60.0341421  30.0179058
  11.2430108  61.0870144  29.1403863  11.1985548  60.3174664  29.2867574
   9.1397237  66.8045318  35.0892756   9.0993092  66.1594995  34.5037912
   9.9520555  66.7481935  35.4018168   9.2540390  66.7004285  35.0489705
   7.6697900  58.6228277  18.6115663   7.0762740  58.9445273  18.0600230
   7.7073178  57.7769372  18.4036769   7.5872290  58.5452605  18.4998434
  14.6291701  52.0741169  26.1443749  14.1222566  51.3670309  26.0764927
  15.4259135  51.7434358  26.2744826  14.6718940  51.9214321  26.1542744
  10.5455717  58.5807781  22.0417413  10.3169410  58.6040483  21.1995771
  10.8053793  57.7565248  22.1612424  10.5501905  58.4623861  21.9342611
   4.8274946  60.4342254  31.6442513   4.3153849  59.8263437  32.0027545
   4.6554442  61.1498847  32.1116489   4.7264583  60.4505554  31.7658737
   3.6000480  57.1184328  23.3371609   4.0757846  57.4801408  22.7021790
   3.0989079  57.7740795  23.6171752   3.5965839  57.2678516  23.2848350
  16.8311841  66.5906096  19.1284614  17.2145447  67.3397452  19.3582711
  16.0355954  66.8371915  18.8696603  16.7705623  66.7375790  19.1242187
   8.7044016  58.3566499  34.0844769   9.2615446  58.1280309  33.4523234
   8.3805081  59.1172165  33.8079981   8.7390426  58.4350336  33.9501266
   6.4227133  61.4434152  35.0496776   7.1738460  61.7585829  35.3636330
   6.6149710  61.2413323  34.2230698   6.5618547  61.4601534  34.9740172
   5.6427133  59.2625528  16.7044993   6.0226098  59.2805157  15.9196108
   4.9019729  59.7079516  16.5835840   5.5895970  59.3307302  16.5708561
  13.2712423  57.5707719  22.2920572  13.2706650  57.4156375  23.1504848
  13.0668603  58.4170706  22.2361957  13.2412201  57.6728339  22.4108511
  10.9953275  62.2505221  25.9456778  11.4906941  61.5328216  25.9060799
  10.1853051  61.9476018  25.8311265  10.9497169  62.1002867  25.9230504
  13.0605094  65.0008908  28.6333907  13.4860166  64.4783330  28.0804332
  12.6962014  65.5989745  28.1122530  13.0691697  65.0119135  28.4742917
   9.6483694  68.7143172  24.9635065  10.1194872  69.4283435  25.1325050
   9.9843872  68.1141922  25.4994934   9.7678809  68.7314637  25.0667441
  11.7360678  70.3244486  37.1427137  11.8457644  69.5353046  37.4983884
  12.0651575  70.2350422  36.3401475  11.8013084  70.1950339  37.0769527
   6.5653189  53.4870643  31.9193159   6.6981094  52.6901636  32.2474135
   6.9498341  54.0137046  32.4991435   6.6409517  53.4470560  32.0536662
  10.2857640  68.5061106  31.7262757   9.7378586  67.8818990  31.4582823
  10.7470669  68.6955378  31.0106837  10.2724849  68.4420157  31.5813188
   9.6385544  50.4100969  28.5174253   8.8331507  50.2998699  28.8342091
   9.5092279  50.5113425  27.6604118   9.5005677  50.4084639  28.4382293
  13.0951504  56.5746461  29.1113950  12.5114493  57.0755667  28.6991517
  13.4155798  56.0676017  28.4778273  13.0564680  56.5738296  28.9572457
   5.6346303  55.4887056  19.3872624   6.4561998  55.6585369  19.1454319
   5.1715954  55.6434317  18.6638922   5.6877466  55.5368789  19.2444269
   4.2241635  53.4829818  30.1671053   4.7686048  53.1420945  30.7575395
   4.2778571  54.3415280  30.3092338   4.3130755  53.5585077  30.2752927
   9.8515966  69.5112179  28.2572098  10.6714340  69.3675145  28.5188394
   9.5710044  70.1358378  28.7988536   9.9312710  69.5822531  28.3760038
  16.2505088  71.1031748  24.9458288  15.9208418  71.5542891  24.2761987
  15.5750090  71.0247911  25.4931295  16.1015525  71.1582883  24.9281512
  23.4581496  67.0917270  23.1907899  23.1434937  67.7820749  23.6228321
  22.9408438  67.0362053  22.4893400  23.3345967  67.1852159  23.1504848
  14.4561042  69.1644036  20.4281236  15.2107010  69.5322353  20.1898286
  14.2788577  69.5383590  21.1960416  14.5415521  69.2742224  20.5066125
  27.7495941  75.3138476  28.4728775  26.9124362  75.3840664  28.7076370
  27.7184172  75.3162971  27.6003078  27.6214224  75.3248703  28.3788323
  12.8118107  71.5714355  17.1259349  12.6293680  71.7886236  16.3000342
  13.6743720  71.6853368  17.1817964  12.9122696  71.6204253  17.0113836
  18.4917826  68.5740766  20.1608373  19.2203987  68.3956721  19.7146529
  18.5812719  69.4158845  20.3715551  18.6124488  68.6724644  20.1261891
  25.4303781  70.3781258  27.0572498  26.0729689  70.4479363  27.6434413
  25.6826802  69.7110481  26.5552040  25.5625913  70.2907607  27.0699777
  20.6655063  71.4718230  24.7683451  19.9611390  70.9827415  24.9267370
  20.7140038  71.4840704  23.8971895  20.5685115  71.4007878  24.6622791
  27.8685283  75.1525895  22.7884461  27.6121848  74.3405837  22.5982344
  28.7114597  75.1603462  22.5614649  27.9551309  75.0337893  22.7269278
  22.0488376  69.0925519  27.5260616  22.4298887  68.4103690  27.9128490
  21.2451660  68.8035121  27.3436280  21.9864837  68.9492568  27.5564671
  16.0080216  71.5979718  37.3923224  15.6933657  72.3679280  37.1292787
  15.6870149  71.0349974  36.8075451  15.9139135  71.6289986  37.2664574
  13.5612113  69.9870239  23.0069420  12.6934538  70.0592839  23.0727030
  13.8487317  70.7892318  23.1957395  13.4751861  70.1164386  23.0444187
  22.6845002  70.1348098  31.3380742  23.4298594  69.9457909  30.9244168
  22.2682306  70.6606336  30.7794598  22.7329976  70.1850244  31.1945315
  23.7635679  75.7453661  25.3990843  23.4200445  75.0243996  25.7498093
  23.8628721  75.5367512  24.5569202  23.7277722  75.6077864  25.3262523
  22.2826644  73.6645245  27.2750386  21.4437745  73.6906524  27.0388649
  22.3531011  74.3115981  27.8555733  22.1695038  73.7641371  27.3259503
  20.7295922  70.5630622  22.0078002  21.4322275  70.3638371  21.5297960
  20.4640111  69.7906565  22.3146846  20.7942555  70.4193588  21.9823444
  15.4924479  71.8265908  31.0608883  15.3007676  71.8421042  31.9108306
  16.3423075  72.0229582  31.0375538  15.5900201  71.8580259  31.1832177
  18.4028706  72.0221417  31.2680706  18.8601320  72.7545391  31.3953498
  18.4785035  71.5987882  32.0267962  18.4819676  72.0678655  31.3981782
  22.8756032  65.2011292  25.1374549  22.9939600  65.6587755  24.4041851
  22.7018207  64.3956553  24.8510766  22.8675203  65.1505064  24.9875482
  20.4518867  73.9462159  31.0905868  20.6660836  73.3073073  30.5369222
  19.8352766  74.3907983  30.6613730  20.3924196  73.9172303  30.9456299
  19.8433595  67.0562095  26.0793211  18.9727153  67.0300816  26.0326520
  20.0973937  66.8839287  25.2619056  19.7527156  67.0272238  25.9513347
  16.8682736  69.0668323  27.5366681  16.3521225  68.3748514  27.6618260
  16.3076665  69.7339100  27.4829280  16.7089249  69.0631581  27.5472747
  18.9374969  69.6061283  29.3659534  18.5506723  69.6310315  30.1473064
  18.4507907  69.0402962  28.9134050  18.8087478  69.5257034  29.4147437
  18.6032111  66.4928269  31.6569794  19.2325229  67.0288569  31.3790864
  18.7717974  66.4005627  32.5083359  18.7209906  66.5589631  31.7418322
  18.4046026  71.2799463  33.9296205  19.2319455  71.0084612  33.9854820
  18.4253872  72.0760305  34.2860023  18.5298876  71.3579217  33.9911388
  22.0956030  69.0264157  24.6255095  22.3005623  68.9586465  25.4712093
  21.7682454  69.8322978  24.5576273  22.0771277  69.1350097  24.7414751
  25.3489717  69.5795921  24.1057861  24.7364031  70.0666323  24.4911593
  25.4453892  68.9039412  24.6495512  25.2727615  69.5514230  24.2436719
  19.3508798  71.3358762  19.2055360  19.8052545  71.5069323  19.9303205
  19.8248844  70.7226873  18.8053136  19.4877118  71.2709648  19.2529122
  18.6101394  69.8351556  25.3432229  17.7637439  70.0074363  25.2173579
  18.6072526  69.0300899  25.6798057  18.4848544  69.7412585  25.3743356
  19.6799694  73.6126770  26.2094287  19.2059648  73.0868532  26.7199598
  20.0517830  73.0656243  25.6409148  19.6649583  73.4542767  26.2009434
  27.9441612  75.4530603  25.5730326  27.7051382  75.4126437  24.7351111
  28.1075513  76.3001755  25.6996047  27.9331915  75.5722688  25.4683808
  20.6285559  68.2095109  31.0113909  20.1326120  68.4058783  30.3205475
  21.3854621  68.6087777  30.8402710  20.6672383  68.2972843  30.8834045
  17.8988438  71.8837455  27.6017219  17.9230925  71.3497567  26.9129999
  18.1499912  71.3754764  28.2642810  17.9398357  71.7298359  27.5981864
  14.1789760  70.6108273  26.9822964  14.2188132  71.1117480  27.6957671
  13.3539425  70.7018667  26.7128887  14.0629286  70.6990090  27.0473502
  13.4087907  70.6177676  34.9153273  14.0340611  70.0739809  35.1882706
  12.9538387  70.1372594  34.3461064  13.4336168  70.4667157  34.8714867
  20.9778528  71.5877655  29.4748478  21.4033599  71.1350181  28.8632005
  20.3635521  71.0337726  29.7513266  20.9507173  71.4391631  29.4253503
  19.4172751  68.0592755  22.8839055  18.7741069  67.9090401  23.4524194
  19.0772158  67.8135100  22.1188160  19.2717828  68.0004877  22.8542070
  24.1700225  72.4708065  25.2159437  24.5227835  72.0437788  25.8905236
  23.3115026  72.3858909  25.3460513  24.0949669  72.3952806  25.3354447
  25.6024285  67.5926477  26.1443749  25.0955149  66.8855617  26.0764927
  26.3991719  67.2619666  26.2744826  25.6451524  67.4399628  26.1542744
  21.5188301  74.0993089  22.0417413  21.2901994  74.1225791  21.1995771
  21.7786377  73.2750556  22.1612424  21.5234489  73.9809169  21.9342611
  24.2445007  73.0893027  22.2920572  24.2439233  72.9341683  23.1504848
  24.0401187  73.9356014  22.2361957  24.2144785  73.1913647  22.4108511
  17.5385772  69.0055951  31.9193159  17.6713678  68.2086944  32.2474135
  17.9230925  69.5322354  32.4991435  17.6142101  68.9655868  32.0536662
  20.6118127  65.9286277  28.5174253  19.8064091  65.8184007  28.8342091
  20.4824863  66.0298733  27.6604118  20.4738260  65.9269947  28.4382293
  24.0684088  72.0931769  29.1113950  23.4847077  72.5940975  28.6991517
  24.3888382  71.5861325  28.4778273  24.0297263  72.0923604  28.9572457
  16.6078887  71.0072364  19.3872624  17.4294581  71.1770677  19.1454319
  16.1448538  71.1619625  18.6638922  16.6610049  71.0554097  19.2444269
  15.1974219  69.0015126  30.1671053  15.7418632  68.6606253  30.7575395
  15.2511155  69.8600587  30.3092338  15.2863338  69.0770385  30.2752927
   0.5808675  28.4246723  22.5168408   1.2875442  27.9298754  22.6455343
   0.7696610  28.8655804  21.7871066   0.7136580  28.4165073  22.4277454
   3.2996099  28.2083007  19.5583061   3.0634737  27.3771071  19.4395121
   3.9439328  28.1568614  20.1437905   3.3590770  28.0780695  19.6268954
   4.3232520  27.9927455  15.6211355   4.0178337  28.7255512  15.9824671
   3.6038736  27.5865385  15.3404141   4.1719862  28.0409188  15.6324492
  10.0234312  24.6320456  14.9479699   9.9558812  24.6516415  14.0782286
  10.0089974  25.4750783  15.1735370  10.0113068  24.7594191  14.8532176
   0.9232362  29.1636017  25.0850526   1.7367227  28.8921166  25.2455659
   0.7627328  28.8643557  24.2810722   1.0202310  29.0790943  24.9895932
   0.9907862  30.9162116  16.9978724   1.7800240  30.5651180  17.1180805
   1.1651460  31.7298504  16.7355358   1.1328144  30.9847973  16.9766592
   6.7400402  26.5520373  16.4675424   6.7983526  27.0007022  17.2135400
   6.1066870  26.9619186  16.0305504   6.6551697  26.6794108  16.5127972
   2.2973299  25.7388068  18.4375418   3.0207498  25.2860594  18.2586438
   2.0323261  26.0192733  17.6547746   2.3654572  25.7139036  18.2954134
   4.7308613  24.7014478  16.9405968   5.3226453  25.3411729  16.9724166
   5.1667607  24.0037515  17.2298035   4.8827044  24.6932829  16.9886801
   1.7823335  26.4201731  15.5673954   2.2078406  25.8976153  15.0144379
   1.4180254  27.0182569  15.0462577   1.7909937  26.4311958  15.4082964
   0.4578919  31.7437309  24.0767184   0.5675884  30.9545869  24.4323931
   0.7869815  31.6543245  23.2741522   0.5231324  31.6143162  24.0109574
  15.0447857  38.5869854   8.1555022  15.0141861  39.4414491   8.3273291
  15.6429206  38.2865147   8.7141165  15.1285015  38.6686351   8.2629824
   8.2447542  37.6745505  12.9107952   7.3885437  37.8354003  12.9617069
   8.2915196  36.8037569  12.9313013   8.1246653  37.5696307  12.9214018
  11.5541258  43.9432031  22.5168408  12.2608026  43.4484061  22.6455343
  11.7429194  44.3841112  21.7871066  11.6869164  43.9350381  22.4277454
   7.6217933  49.5847861  10.0441842   8.0057312  50.1534760   9.5046618
   7.5577074  48.8597371   9.5647658   7.6691360  49.5623325   9.8935705
  11.0899363  39.7337549  15.5539604  11.6355323  40.4122636  15.6133573
  11.0316239  39.5925010  14.6941185  11.1615277  39.8129551  15.4351664
   4.2073438  47.2226615  10.9407956   4.3083801  46.4126969  11.2505084
   3.6115183  47.1283562  10.3107635   4.1345976  47.0891643  10.8934195
  12.8664431  41.1622156   6.4273332  12.7503957  41.9129842   6.8565470
  13.6620318  40.9046109   6.6769419  12.9669021  41.2357003   6.5277423
   4.0474177  52.1404204  12.3422812   4.6911633  52.5817368  12.7318971
   4.3730433  51.3357630  12.2553071   4.1906006  52.0869399  12.3868289
   6.7996465  37.1532174   7.7977061   7.4976630  37.3320302   8.2898524
   7.1148798  36.6302513   7.1747450   6.9491802  37.1025946   7.7779071
   6.9884400  43.5402619   7.7856852   7.4278036  42.9319720   8.2311625
   6.8389063  43.1609992   7.0142317   7.0305866  43.3941090   7.7376019
   4.4556043  42.1346631  14.9875678   5.1005046  41.6419074  14.6686626
   4.6957821  42.2771418  15.8141756   4.5866629  42.0824073  15.0625211
   6.9942135  44.9801537  14.6382570   7.2765378  44.1852943  14.4169326
   7.7228295  45.4582124  14.6587631   7.1431699  44.9336134  14.6085585
   4.9723329  32.5224571  11.8798335   4.6426659  32.9735714  11.2102034
   4.2968330  32.4440734  12.4271342   4.8233765  32.5775706  11.8621559
  10.5893737  41.8929800   4.7387621  10.5045032  42.7490767   4.8837190
  11.0778120  41.6174124   5.4069780  10.6482634  41.9787122   4.8589703
  11.5212170  38.5114595   6.2385356  10.9923642  38.7274228   6.8982663
  12.0437190  39.2050733   6.1586326  11.5200623  38.6457731   6.3240956
  16.9760223  44.0860899  11.6118401  16.1457926  44.2971543  11.7751817
  16.9269475  43.2597954  11.3360684  16.8466959  43.9950505  11.5955766
   5.0369961  46.9164753  14.4466310   4.5196902  46.5572168  13.8427618
   5.7344352  46.3926928  14.4572377   5.0635542  46.7862441  14.3596569
   8.6933553  47.3659567  20.4082483   8.7816899  47.1785708  21.2560694
   9.1223265  46.7196997  20.0087330   8.7695655  47.2422575  20.4754235
   6.2604012  46.6490727  19.3900146   5.6974847  46.2363337  19.9139807
   7.0225036  46.5743633  19.8093289   6.2898461  46.5768128  19.5293146
   1.8200004  48.6388748  11.9936776   2.5220583  48.1240737  12.0509532
   1.7397487  48.9662900  12.7983651   1.9123764  48.6102975  12.1209568
  16.4714181  36.7331300  15.4068822  15.6342603  36.8033487  15.6416417
  16.4402412  36.7355795  14.5343125  16.3432464  36.7441527  15.3128370
   2.8678910  38.8764335  21.1217191   3.0399414  38.7670230  21.9702472
   3.4048268  39.5218741  20.8848383   2.9723914  38.9556337  21.2122288
   1.1450779  44.8295100  11.5022384   1.9839679  45.0618033  11.5496145
   1.1762549  43.9599412  11.4329419   1.2732497  44.7352047  11.4987029
   1.7703482  45.2495976  15.8035689   2.3101707  45.1067107  16.4739062
   1.0873429  45.6492726  16.1719716   1.7495636  45.2875646  15.9570111
  11.1944367  40.9286976  10.9980714  11.9501882  41.3618491  11.0369622
  11.3006692  40.2791746  11.5715350  11.3214538  40.8964460  11.0878739
  14.2324538  44.7560253  11.7483117  13.7959770  44.7596996  12.5042088
  13.8987454  45.4365752  11.3162694  14.1187158  44.8572709  11.7963949
   8.8053612  46.7968586  23.0726267   9.5894029  46.9099434  23.4382009
   8.6050207  45.9709723  23.2684953   8.8919637  46.6915306  23.1560653
  14.1522021  31.7974081  13.9912545  14.7947930  31.8672186  14.5774460
  14.4045042  31.1303304  13.4892087  14.2844153  31.7100430  14.0039824
   1.9239234  35.0074645  18.6037119   1.2311031  34.5371624  18.8497850
   2.5399561  34.7812949  19.1778826   1.9123764  34.9041776  18.7246271
   8.9624005  48.7078688  16.7192723   8.1639251  48.4678188  16.9766591
   9.4110017  48.7593081  17.4659770   8.9098617  48.6801079  16.8677647
  17.3668885  41.4741173  10.6402754  18.0285319  40.9131842  10.5398662
  16.7260297  40.9793204  10.9655445  17.3697752  41.3177582  10.6735094
  13.6533715  42.4906556  10.3814743  13.8889304  42.6351755   9.5541593
  13.8023279  43.2548964  10.7746256  13.7099519  42.6245610  10.3178347
   0.6479793  38.9740049  19.7463964   1.3719765  38.9593079  20.2328859
   0.7495929  39.6835404  19.2485932   0.7698002  39.0764752  19.7442751
  15.4824172  41.3308222   8.2184347  15.8132389  41.8635862   7.6124441
  16.0557260  41.3847109   8.8746297  15.6157851  41.4177791   8.2262128
   8.0224742  42.4539133  24.6112911   7.2297723  42.7682645  24.7965530
   8.1373669  42.6690602  23.7733695   7.9220153  42.5322970  24.5151246
  10.6956061  39.1773124   8.9007927  10.7902916  39.9162418   9.3547552
  10.0714905  38.7490600   9.3342491  10.6165091  39.2234445   9.0316074
   8.9508535  42.3559337  19.5498208   9.5247397  41.7186581  19.7046771
   8.8723339  42.3563419  18.6807865   9.0241770  42.2624448  19.4444618
   4.3072254  40.7882602  11.6019405   4.0491498  39.9554337  11.5750704
   4.3620736  41.0140215  10.7611905   4.2772031  40.6980373  11.4739542
   9.3873304  32.8911053  11.7023498   8.6829630  32.4020238  11.8607417
   9.4358278  32.9033527  10.8311942   9.2903355  32.8200701  11.5962837
   3.2806966  38.3420365  12.0884300   2.7056557  38.5012533  12.7248261
   2.9042642  37.7055774  11.6252750   3.1409778  38.2718178  12.1138858
   6.9480254  36.8143714  16.9476678   6.5594687  36.3897932  16.2928869
   6.2834953  37.0625864  17.4553705   6.7927182  36.7882435  16.9264546
  16.5903524  36.5718719   9.7224508  16.3340088  35.7598660   9.5322391
  17.4332838  36.5796286   9.4954695  16.6769549  36.4530716   9.6609325
  10.7706616  30.5118343  14.4600662  11.1517128  29.8296514  14.8468537
   9.9669900  30.2227945  14.2776327  10.7083078  30.3685391  14.4904718
   8.0519193  41.0442318   5.1453485   8.8659831  41.3357211   5.0336256
   7.9878334  40.3902181   4.5711778   8.1621932  40.9907513   5.0442322
  14.2728683  43.7268315  19.5583061  14.0367320  42.8956379  19.4395121
  14.9171912  43.6753922  20.1437905  14.3323354  43.5966003  19.6268954
   3.9227101  44.5163836  10.2725797   4.5601048  44.2775583  10.8177591
   4.3482172  44.7200995   9.5378958   4.0803267  44.5114846  10.2442954
   4.7298456  33.0172541  24.3263271   4.4151897  33.7872104  24.0632833
   4.4088389  32.4542797  23.7415498   4.6357375  33.0482810  24.2004621
  15.2965103  43.5112763  15.6211355  14.9910921  44.2440820  15.9824671
  14.5771319  43.1050693  15.3404141  15.1452446  43.5594496  15.6324492
   6.3048573  44.9936259  11.9519583   6.3787581  44.8311430  12.8061433
   7.1218079  45.1826448  11.7080065   6.4364931  44.9973001  12.0417609
  20.9966896  40.1505764  14.9479699  20.9291396  40.1701723  14.0782286
  20.9822558  40.9936091  15.1735370  20.9845652  40.2779499  14.8532176
  11.4063242  31.5540922  18.2720789  12.1516834  31.3650732  17.8584214
  10.9900547  32.0799160  17.7134645  11.4548216  31.6043067  18.1285362
  18.7825513  38.9250150  13.2226294  19.3333434  38.2918219  13.4623386
  18.7669628  39.4565543  13.9141798  18.8610709  38.9099098  13.3605152
   5.4347904  42.7588748  17.7686187   4.9359597  43.4704515  17.8471076
   6.2448128  43.0789414  17.7304350   5.4804010  42.9115596  17.7742756
   1.6976021  42.0211701  12.0148908   1.4089270  41.3949172  12.5494636
   2.5659369  41.9631988  12.0813589   1.7836273  41.9199245  12.1039863
  12.4853919  37.1646484  12.3330890  12.1418685  36.4436819  12.6838140
  12.5846962  36.9560335  11.4909248  12.4495962  37.0270687  12.2602570
  12.9466948  43.6272188   7.8754878  13.5124981  44.2865398   7.7913421
  12.2994852  43.9721886   8.3471280  12.9345705  43.7754129   7.9327635
   4.3614962  35.6169792  23.0648486   3.5514738  35.9227572  22.9538328
   4.8389648  36.3375374  23.1801070   4.3118441  35.7684393  23.0655557
   3.2206521  44.8315513  13.3131389   2.6987275  44.9715805  13.9983253
   3.6080542  44.0726177  13.5033506   3.2010222  44.7401037  13.4432465
   9.4173526  46.5710972   7.2991957   9.1760202  45.8378833   6.8919022
   9.5974859  47.1197829   6.6458291   9.4081150  46.5433363   7.1422180
   4.6472847  41.8619532   8.7112880   4.4515630  42.4694266   8.1173183
   4.8707193  41.1687476   8.2304554   4.6507488  41.8497057   8.5528961
   3.0451377  38.7474270   8.8293748   3.7674029  38.9115428   8.3697554
   2.5659370  39.4683935   8.7233088   3.0815108  38.8772499   8.7459362
  11.0044885  35.0838069  14.2090433  10.1655985  35.1099348  13.9728696
  11.0749252  35.7308804  14.7895780  10.8913278  35.1834194  14.2599550
   0.6958994  41.1532342  17.9347888   1.2080091  41.4316596  17.2856648
   0.4095336  41.8921636  18.3010701   0.7293857  41.3034696  17.8937766
   9.4514163  31.9823446   8.9418049  10.1540516  31.7831194   8.4638007
   9.1858352  31.2099388   9.2486892   9.5160795  31.8386412   8.9163491
  14.8802408  40.2906055  11.4951675  14.7936383  40.4461481  12.3486454
  14.4252888  40.9344131  11.1211080  14.8005665  40.4081811  11.5658782
   4.2142719  33.2458731  17.9948930   4.0225916  33.2613865  18.8448353
   5.0641315  33.4422405  17.9715584   4.3118441  33.2773082  18.1172224
   8.7528224  37.6116803  10.1177234   8.5062939  37.5312553  10.9514023
   9.0813348  36.8270270   9.9239762   8.7649468  37.4843068  10.2124757
  12.6476273  44.3200162  13.9064016  12.5090633  45.0181208  14.4112758
  11.8676271  44.1648818  13.5500197  12.5119500  44.4000329  13.9290290
  10.9854358  40.6196537  20.1586397  10.9802397  39.7476354  20.1628824
  11.6915352  40.8184706  19.6855853  11.0899362  40.5200411  20.0893433
   4.7125252  40.3473521  19.5300217   4.8568627  40.9274729  18.8943327
   5.0600900  40.7249818  20.2350072   4.7852713  40.4894225  19.5399212
   6.8845169  39.5463690  17.3125349   6.1368483  39.7394704  16.9073627
   7.0386694  38.7208909  17.0749470   6.7967597  39.4528801  17.2170755
   3.7853007  48.5376293  16.3961244   3.9342570  47.9779209  15.7434649
   4.5653009  48.6168295  16.7793763   3.9227100  48.4661858  16.3558193
  14.1429646  43.6778416   4.6680515  13.7636455  42.8915554   4.6609804
  13.4795892  44.2265273   4.5252159  13.9888121  43.6423240   4.6461312
   6.3106307  48.7090936  17.6745735   6.2349978  48.0399746  18.2296523
   6.2396166  49.4108724  18.1886401   6.2886914  48.7135843  17.8322583
   7.1246946  33.4414240  18.2020753   7.5819560  34.1738215  18.3293545
   7.2003275  33.0180705  18.9608008   7.2037916  33.4871478  18.3321829
  11.5974272  26.6204115  12.0714596  11.7157840  27.0780579  11.3381898
  11.4236448  25.8149377  11.7850813  11.5893443  26.5697888  11.9215529
   6.9676554  47.2291935   8.5069341   7.7326445  46.9601578   8.1852005
   6.8654644  46.7441945   9.2239404   7.0658050  47.1181499   8.5649169
   5.0029324  35.4316344  15.0462577   4.2125399  35.2507804  15.3679912
   5.3989947  34.6543297  15.0292871   4.9446200  35.2903805  15.0915125
  10.3873010  43.0658774  12.7722023   9.7118012  42.8344007  13.2735410
  10.3965386  42.4579957  12.1464128  10.2891515  42.9417700  12.7538175
   7.5167154  37.9076603  19.5286076   7.4526296  38.7686560  19.4006212
   7.6564342  37.5908596  18.7281627   7.5282624  37.9876770  19.3914288
  12.3889745  45.9223907   5.0032201  12.4709582  46.7290893   4.6793651
  12.8739487  45.9419866   5.7272974  12.4726903  46.0444569   5.0619099
   6.1986248  40.6008743  13.6702279   5.7748497  40.8013242  12.9341297
   6.0231103  39.7537591  13.7826578   6.1097129  40.5057524  13.5775969
   5.6997942  52.1159256  16.1323736   6.1893872  51.4170045  15.9499400
   5.1282174  51.8183126  16.7199793   5.6882472  51.9685479  16.1924777
   1.4868693  41.0960794   9.1030251   1.6433312  41.0307597   9.9586243
   1.8269286  41.8709347   8.8908931   1.5601928  41.2009992   9.1984845
   8.0247838  40.4718678   7.9723614   8.5663383  39.9689059   8.4362235
   8.3394397  40.4183872   7.1613100   8.1512235  40.3898099   7.9207426
  11.8964945  44.6821325  25.0850526  12.7099810  44.4106474  25.2455659
  11.7359912  44.3828865  24.2810722  11.9934894  44.5976251  24.9895932
   9.1737107  35.3654982  18.0245915   9.3879077  34.7265896  17.4709269
   8.5571006  35.8100806  17.5953776   9.1142436  35.3365126  17.8796346
  10.5841775  48.2873730   9.4700136  10.1921567  47.9840446   8.7523002
  10.7394847  49.1242820   9.2805089  10.5495365  48.3657567   9.3356633
  11.3376195  36.9744047  18.9629222  10.5252877  36.6669938  19.0442395
  11.7966130  36.4943047  19.5271934  11.2856580  36.8580540  19.0583816
  10.7481450  44.8523719   9.4106166  10.3896105  45.0238362  10.1870199
  10.2620161  45.3136925   8.8534165  10.6240147  44.9462690   9.4431435
   8.5651836  28.4754918  13.0133258   7.6945394  28.4493639  12.9666567
   8.8192177  28.3032110  12.1959103   8.4745396  28.4465062  12.8853394
   8.4329703  38.3804119  23.7457924   8.9029334  39.0046235  24.1325798
   8.4791583  37.7121094  24.3051139   8.5097579  38.3738799  23.8857996
   5.5900976  30.4861146  14.4706728   5.0739465  29.7941338  14.5958307
   5.0294905  31.1531923  14.4169327   5.4307490  30.4824404  14.4812794
   7.6593210  31.0254106  16.2999580   7.2724963  31.0503138  17.0813110
   7.1726147  30.4595785  15.8474097   7.5305719  30.9449857  16.3487484
  11.9086189  45.7427615  20.3573367  12.5465910  45.2487811  20.0235823
  11.2660281  45.6705016  19.7725594  11.9080416  45.6586624  20.2215722
  13.6343189  37.5916761  14.9239283  13.2070797  37.5043110  14.1687382
  12.9969242  37.6994537  15.5094127  13.4772797  37.5949421  14.8984724
   7.3250352  27.9121092  18.5909840   7.9543469  28.4481392  18.3130911
   7.4936214  27.8198451  19.4423406   7.4428146  27.9782454  18.6758369
   7.1264266  32.6992286  20.8636252   7.9537696  32.4277435  20.9194866
   7.1472112  33.4953128  21.2200070   7.2517116  32.7772041  20.9251435
  11.9640446  46.4347424  16.9978724  12.7532824  46.0836488  17.1180805
  12.1384044  47.2483812  16.7355358  12.1060727  46.5033281  16.9766592
   1.7033756  39.8456149  14.0506513   0.8621763  39.7460023  14.2585406
   1.9123764  40.6151630  14.4020833   1.6098449  39.9448193  14.1333828
  10.8174270  30.4456980  11.5595142  11.0223863  30.3779288  12.4052139
  10.4900694  31.2515801  11.4916320  10.7989518  30.5542921  11.6754797
   5.5150421  37.7737548  13.3004110   5.2113559  37.2193537  13.9014518
   4.8129842  37.9529758  12.8132144   5.3666631  37.7182331  13.3173816
   3.5768772  44.9887269  18.0076208   3.4689127  44.9989331  18.8738266
   3.7864554  45.8142050  17.8181162   3.5918883  45.1128344  18.1080300
  14.0707958  30.9988745  11.0397908  13.4582271  31.4859147  11.4251640
  14.1672133  30.3232235  11.5835559  13.9945855  30.9707053  11.1776766
   1.5942564  42.2399912  15.4698146   1.0030497  42.8809410  15.4401161
   2.3563588  42.6637529  15.4429445   1.6190825  42.3975750  15.4613293
   1.9903187  33.4001909  16.1366163   2.4504668  33.4740839  16.8741287
   2.0359294  34.1983163  15.7865985   2.0653742  33.5296056  16.1938920
   3.6386537  34.0668604  20.7038190   3.2472102  33.4201951  21.1393968
   3.8072399  34.6580039  21.3232446   3.6057447  34.0582872  20.8600896
  17.7132986  42.0705681  16.4675424  17.7716109  42.5192330  17.2135400
  17.0799453  42.4804494  16.0305504  17.6284281  42.1979416  16.5127972
  11.3532080  47.6909223  12.9030170  11.1551769  48.1800038  12.2086381
  10.7319791  47.8950465  13.4814303  11.2319645  47.7925761  12.8853393
   5.4140059  39.4594120   7.2440414   6.1582104  39.8468396   7.4823364
   5.5600755  38.6151545   7.4080902   5.5450644  39.3924593   7.3034384
   7.3319634  31.2544379  12.2772276   6.4855679  31.4267187  12.1513625
   7.3290767  30.4493723  12.6138104   7.2066784  31.1605408  12.3083403
   8.4017935  35.0319593  13.1434334   7.9277889  34.5061355  13.6539645
   8.7736070  34.4849066  12.5749195   8.3867823  34.8735590  13.1349481
  14.6654665  40.0921969  14.5541114  14.4252888  39.2528384  14.5583541
  15.1446672  40.1722136  15.2781888  14.7006849  39.9803369  14.6615916
  16.6659852  36.8723426  12.5070373  16.4269622  36.8319260  11.6691158
  16.8293753  37.7194578  12.6336094  16.6550156  36.9915511  12.4023855
  13.2705882  41.2573375  18.4375418  13.9940081  40.8045902  18.2586438
  13.0055845  41.5378041  17.6547746  13.3387156  41.2324344  18.2954134
   2.1392751  35.8533549  15.1728298   1.5145821  35.8651941  14.5654250
   1.8038346  36.3293724  15.8219538   1.9978242  35.9252066  15.1784866
   9.8838517  44.4959711   5.3369744  10.6072716  44.9617824   5.1934318
   9.4439108  44.5633321   4.5867341   9.9254209  44.5743548   5.2054526
   9.0524672  41.3557254  16.5870433   8.4381665  40.8115304  16.8819069
   9.5691957  40.8421490  16.1076250   9.0380334  41.1993663  16.5594662
   8.2920969  42.4261524  14.3214732   7.8648577  41.8011242  13.8880167
   8.2845913  42.1436446  15.1473739   8.2280110  42.2914304  14.3794560
   1.4083496  37.4626697  17.3903166   1.5676983  36.7070021  17.7954888
   1.2276390  38.0117636  18.0443904   1.4048855  37.4320511  17.5465872
   9.3503799  29.6287932  17.9453956   8.8544360  29.8251607  17.2545522
  10.1072861  30.0280601  17.7742757   9.3890624  29.7165666  17.8174092
   6.6206679  33.3030278  14.5357266   6.6449166  32.7690391  13.8470046
   6.8718152  32.7947587  15.1982857   6.6616597  33.1491182  14.5321911
   2.9008001  32.0301097  13.9163010   2.9406372  32.5310303  14.6297718
   2.0757666  32.1211490  13.6468933   2.7847527  32.1182913  13.9813549
   5.0837614  41.5961836  22.0183305   4.2333244  41.7333551  22.1540950
   5.2465741  40.8625615  22.4631007   4.9821477  41.5075938  22.1038904
   4.3222364  38.5461606  16.2136909   3.4914294  38.7135424  16.0072157
   4.2673881  38.1697557  16.9985795   4.1911779  38.5151338  16.2985438
   2.1306147  32.0370499  21.8493320   2.7558851  31.4932632  22.1222752
   1.6756627  31.5565417  21.2801110   2.1554408  31.8859981  21.8054914
  15.7041196  40.2199786  16.9405968  16.2959036  40.8597037  16.9724166
  16.1400191  39.5222823  17.2298035  15.8559627  40.2118137  16.9886801
   7.5334586  44.6417159  17.5663862   7.0259677  45.1953005  18.0104493
   7.2361232  44.7025449  16.7482637   7.4139471  44.7323470  17.5112319
   9.6996768  33.0070478  16.4088525  10.1251840  32.5543005  15.7972051
   9.0853761  32.4530549  16.6853312   9.6725414  32.8584454  16.3593550
  12.7290338  37.4345005   9.2409111  12.0581527  37.9774707   9.1122176
  13.4230088  37.9039860   8.9990805  12.7319205  37.5843276   9.1864638
   6.7777071  49.5741717  14.4720869   6.5542726  48.8160546  14.8404895
   6.2886915  49.6039738  13.7501309   6.6720520  49.4663941  14.4197610
  12.8918465  33.8900889  12.1499484  13.2446075  33.4630611  12.8245283
  12.0333267  33.8051732  12.2800560  12.8167910  33.8145629  12.2694494
   1.5902150  36.5208408  10.2082330   0.8714139  36.9372541  10.4755194
   1.9614512  37.0862647   9.6573969   1.5394082  36.6657690  10.1665137
  10.8901731  37.1536257  16.0984326  10.8699658  36.9719552  16.9519105
  10.9380932  38.0248276  16.0743910  10.8936372  37.2552795  16.2207621
   8.8348061  43.7423449  22.0232803   8.7943916  43.0973126  21.4377958
   9.6471379  43.6860066  22.3358215   8.9491214  43.6382416  21.9829752
   5.4255528  49.7942175  11.9257954   5.0115927  49.1316305  11.5361795
   6.1102903  49.9420034  11.4053648   5.4653900  49.7182833  11.7914451
   8.7920822  48.9532260  12.6781570   8.3937106  49.0634531  11.9102390
   8.1772042  49.1614327  13.2608130   8.6419712  49.0005828  12.6512869
  14.3242525  29.0119300  13.0783796  13.8173390  28.3048440  13.0104974
  15.1209959  28.6812489  13.2084873  14.3669764  28.8592452  13.0882791
  10.2406541  35.5185913   8.9757460  10.0120234  35.5418614   8.1335818
  10.5004617  34.6943380   9.0952471  10.2452729  35.4001993   8.8682658
   4.5225769  37.3720386  18.5782560   4.0104673  36.7641569  18.9367592
   4.3505266  38.0876978  19.0456536   4.4215406  37.3883685  18.6998784
   3.2951304  34.0562459  10.2711656   3.7708670  34.4179539   9.6361837
   2.7939903  34.7118926  10.5511798   3.2916662  34.2056648  10.2188397
  16.5262665  43.5284227   6.0624661  16.9096271  44.2775583   6.2922758
  15.7306778  43.7750047   5.8036650  16.4656447  43.6753921   6.0582234
   8.3994840  35.2944630  21.0184816   8.9566270  35.0658440  20.3863281
   8.0755905  36.0550296  20.7420028   8.4341250  35.3728467  20.8841313
   6.1177957  38.3812284  21.9836823   6.8689284  38.6963960  22.2976377
   6.3100534  38.1791455  21.1570745   6.2569371  38.3979665  21.9080219
  12.9663247  34.5085850   9.2260618  12.9657474  34.3534506  10.0844895
  12.7619427  35.3548837   9.1702004  12.9363025  34.6106471   9.3448558
  10.6904099  39.1883352  12.8796825  11.1857765  38.4706347  12.8400846
   9.8803875  38.8854149  12.7651312  10.6447993  39.0380998  12.8570551
  12.7555918  41.9387039  15.5673954  13.1810990  41.4161461  15.0144379
  12.3912838  42.5367877  15.0462577  12.7642521  41.9497266  15.4082964
   2.3909998  50.2351257  14.3271299   2.7056557  51.0487645  14.3349081
   2.8003411  49.8501475  14.9953459   2.4978096  50.2979959  14.4275391
   9.3434518  45.6521303  11.8975111   9.8145696  46.3661566  12.0665097
   9.6794696  45.0520054  12.4334981   9.4629633  45.6692768  12.0007487
  11.4311502  47.2622617  24.0767184  11.5408468  46.4731177  24.4323931
  11.7602399  47.1728553  23.2741522  11.4963908  47.1328470  24.0109574
   6.2604013  30.4248774  18.8533206   6.3931918  29.6279767  19.1814182
   6.6449165  30.9515177  19.4331482   6.3360341  30.3848691  18.9876709
   9.9808464  45.4439238  18.6602804   9.4329410  44.8197121  18.3922869
  10.4421493  45.6333510  17.9446883   9.9675673  45.3798288  18.5153235
   9.3336368  27.3479100  15.4514300   8.5282331  27.2376830  15.7682138
   9.2043103  27.4491556  14.5944165   9.1956501  27.3462770  15.3722340
  12.7902328  33.5124592  16.0453996  12.2065317  34.0133799  15.6331564
  13.1106622  33.0054148  15.4118320  12.7515504  33.5116427  15.8912504
   3.9192459  30.4207949  17.1011100   4.4636872  30.0799076  17.6915442
   3.9729395  31.2793411  17.2432385   4.0081579  30.4963208  17.2092973
   9.5466790  46.4490310  15.1912145  10.3665164  46.3053276  15.4528440
   9.2660868  47.0736509  15.7328583   9.6263534  46.5200662  15.3100085
  19.2180125  53.1930813  12.9107952  18.3618021  53.3539311  12.9617069
  19.2647779  52.3222877  12.9313013  19.0979237  53.0881615  12.9214018
  22.5273842  59.4617339  22.5168408  23.2340609  58.9669369  22.6455343
  22.7161777  59.9026420  21.7871066  22.6601748  59.4535689  22.4277454
  18.5950516  65.1033169  10.0441842  18.9789896  65.6720068   9.5046618
  18.5309658  64.3782679   9.5647658  18.6423944  65.0808633   9.8935705
  22.0631946  55.2522857  15.5539604  22.6087906  55.9307944  15.6133573
  22.0048823  55.1110318  14.6941185  22.1347861  55.3314859  15.4351664
  15.1806021  62.7411923  10.9407956  15.2816384  61.9312277  11.2505084
  14.5847767  62.6468869  10.3107635  15.1078560  62.6076951  10.8934195
  23.8397015  56.6807464   6.4273332  23.7236541  57.4315150   6.8565470
  24.6352902  56.4231417   6.6769419  23.9401605  56.7542311   6.5277423
  15.0206761  67.6589512  12.3422812  15.6644216  68.1002676  12.7318971
  15.3463016  66.8542938  12.2553071  15.1638590  67.6054707  12.3868289
  10.6761153  50.9317940  13.4644598  10.0566185  50.3410587  13.2954612
  10.5745017  51.5229375  12.8308921  10.5698829  50.9322023  13.3449587
  17.7729049  52.6717482   7.7977061  18.4709213  52.8505610   8.2898524
  18.0881381  52.1487821   7.1747450  17.9224386  52.6211254   7.7779071
  10.4030286  54.4770222  15.7088166  10.2788983  55.0632667  16.3437985
  11.0548571  53.9830418  16.0100441  10.4803935  54.4909026  15.8474096
  17.9616984  59.0587927   7.7856852  18.4010620  58.4505028   8.2311625
  17.8121647  58.6795300   7.0142317  18.0038450  58.9126398   7.7376019
  15.4288627  57.6531939  14.9875678  16.0737630  57.1604382  14.6686626
  15.6690404  57.7956725  15.8141756  15.5599212  57.6009381  15.0625211
  17.9674718  60.4986845  14.6382570  18.2497961  59.7038250  14.4169326
  18.6960879  60.9767432  14.6587631  18.1164282  60.4521442  14.6085585
  15.9455912  48.0409879  11.8798335  15.6159242  48.4921022  11.2102034
  15.2700914  47.9626042  12.4271342  15.7966349  48.0961014  11.8621559
  21.5626321  57.4115108   4.7387621  21.4777616  58.2676075   4.8837190
  22.0510704  57.1359432   5.4069780  21.6215218  57.4972430   4.8589703
  23.1532320  44.0295402  10.1247946  22.8385761  44.7198880  10.5568368
  22.6359262  43.9740184   9.4233447  23.0296790  44.1230290  10.0844895
  22.4944754  54.0299903   6.2385356  21.9656225  54.2459536   6.8982663
  23.0169774  54.7236041   6.1586326  22.4933207  54.1643039   6.3240956
  27.9492807  59.6046207  11.6118401  27.1190510  59.8156851  11.7751817
  27.9002059  58.7783262  11.3360684  27.8199542  59.5135813  11.5955766
  16.0102544  62.4350061  14.4466310  15.4929486  62.0757476  13.8427618
  16.7076936  61.9112236  14.4572377  16.0368125  62.3047749  14.3596569
  19.6666136  62.8844875  20.4082483  19.7549482  62.6971016  21.2560694
  20.0955849  62.2382305  20.0087330  19.7428239  62.7607883  20.4754235
  17.2336596  62.1676035  19.3900146  16.6707431  61.7548645  19.9139807
  17.9957620  62.0928941  19.8093289  17.2631045  62.0953436  19.5293146
  18.8421576  54.1728771   3.5161745  19.0817580  54.3806755   2.7037088
  19.1637417  53.3686280   3.6250690  18.9258734  54.0842873   3.4122298
  14.1511866  46.1022167   7.3621283  14.9057834  46.4700484   7.1238333
  13.9739401  46.4761721   8.1300463  14.2366345  46.2120355   7.4406171
  12.7932588  64.1574056  11.9936776  13.4953167  63.6426045  12.0509532
  12.7130071  64.4848208  12.7983651  12.8856348  64.1288283  12.1209568
  27.4446765  52.2516608  15.4068822  26.6075186  52.3218795  15.6416417
  27.4134996  52.2541102  14.5343125  27.3165047  52.2626835  15.3128370
  13.8411494  54.3949643  21.1217191  14.0131998  54.2855538  21.9702472
  14.3780852  55.0404049  20.8848383  13.9456498  54.4741645  21.2122288
  12.5068931  48.5092486   4.0599396  12.3244504  48.7264367   3.2340389
  13.3694544  48.6231499   4.1158010  12.6073520  48.5582384   3.9453883
  12.1183363  60.3480408  11.5022384  12.9572262  60.5803341  11.5496145
  12.1495132  59.4784720  11.4329419  12.2465081  60.2537355  11.4987029
  12.7436066  60.7681284  15.8035689  13.2834291  60.6252415  16.4739062
  12.0606012  61.1678034  16.1719716  12.7228220  60.8060954  15.9570111
  18.1868650  45.5118897   7.0948420  18.9154811  45.3334852   6.6486576
  18.2763543  46.3536977   7.3055598  18.3075312  45.6102775   7.0601937
  22.1676951  56.4472284  10.9980714  22.9234466  56.8803798  11.0369622
  22.2739275  55.7977054  11.5715350  22.2947121  56.4149768  11.0878739
  25.2057122  60.2745561  11.7483117  24.7692354  60.2782304  12.5042088
  24.8720037  60.9551060  11.3162694  25.0919742  60.3758017  11.7963949
  19.7786196  62.3153894  23.0726267  20.5626612  62.4284742  23.4382009
  19.5782790  61.4895031  23.2684953  19.8652221  62.2100614  23.1560653
   8.1473211  56.9881574  15.9570111   7.8811626  56.1720691  16.1161101
   8.1611775  57.0334730  15.0865626   8.1097933  56.8738479  15.8523593
  25.1254605  47.3159389  13.9912545  25.7680513  47.3857494  14.5774460
  25.3777626  46.6488612  13.4892087  25.2576737  47.2285738  14.0039824
  12.8971817  50.5259953  18.6037119  12.2043614  50.0556932  18.8497850
  13.5132145  50.2998257  19.1778826  12.8856347  50.4227084  18.7246271
  19.9356589  64.2263996  16.7192723  19.1371835  63.9863496  16.9766591
  20.3842600  64.2778389  17.4659770  19.8831200  64.1986387  16.8677647
  28.3401468  56.9926481  10.6402754  29.0017902  56.4317150  10.5398662
  27.6992880  56.4978512  10.9655445  28.3430336  56.8362890  10.6735094
   8.5566625  57.7740354  13.2381855   8.3742198  57.7487240  12.3854147
   9.2916294  58.2439292  13.2770764   8.6380689  57.8401716  13.1179774
  24.6266299  58.0091864  10.3814743  24.8621888  58.1537063   9.5541593
  24.7755863  58.7734272  10.7746256  24.6832102  58.1430918  10.3178347
  11.6212376  54.4925357  19.7463964  12.3452349  54.4778387  20.2328859
  11.7228513  55.2020712  19.2485932  11.7430585  54.5950060  19.7442751
  26.4556756  56.8493530   8.2184347  26.7864973  57.3821170   7.6124441
  27.0289844  56.9032417   8.8746297  26.5890435  56.9363098   8.2262128
  18.9957326  57.9724441  24.6112911  18.2030307  58.2867953  24.7965530
  19.1106253  58.1875910  23.7733695  18.8952736  58.0508278  24.5151246
  21.6688645  54.6958432   8.9007927  21.7635499  55.4347726   9.3547552
  21.0447488  54.2675908   9.3342491  21.5897675  54.7419753   9.0316074
  19.9241119  57.8744645  19.5498208  20.4979980  57.2371889  19.7046771
  19.8455922  57.8748727  18.6807865  19.9974353  57.7809756  19.4444618
   8.5237535  54.6533854  13.3880922   9.1011038  54.5170305  14.0273167
   7.8251597  54.1969639  13.6426506   8.5058556  54.5656121  13.5203211
  21.9211666  56.5407172   2.1344879  21.8391829  56.6109359   2.9999866
  22.5591387  57.1036916   1.9428619  22.0031503  56.6346143   2.2334828
  15.2804837  56.3067910  11.6019405  15.0224081  55.4739645  11.5750704
  15.3353320  56.5325523  10.7611905  15.2504615  56.2165681  11.4739542
  20.3605887  48.4096361  11.7023498  19.6562214  47.9205546  11.8607417
  20.4090862  48.4218835  10.8311942  20.2635939  48.3386009  11.5962837
  14.2539549  53.8605673  12.0884300  13.6789141  54.0197841  12.7248261
  13.8775226  53.2241082  11.6252750  14.1142362  53.7903485  12.1138858
  17.9212838  52.3329022  16.9476678  17.5327271  51.9083240  16.2928869
  17.2567536  52.5811171  17.4553705  17.7659766  52.3067743  16.9264546
  27.5636107  52.0904026   9.7224508  27.3072672  51.2783968   9.5322391
  28.4065421  52.0981594   9.4954695  27.6502133  51.9716024   9.6609325
  21.7439200  46.0303651  14.4600662  22.1249711  45.3481822  14.8468537
  20.9402484  45.7413253  14.2776327  21.6815661  45.8870699  14.4904718
  19.0251776  56.5627626   5.1453485  19.8392415  56.8542519   5.0336256
  18.9610918  55.9087489   4.5711778  19.1354515  56.5092821   5.0442322
  25.2461266  59.2453623  19.5583061  25.0099904  58.4141687  19.4395121
  25.8904495  59.1939230  20.1437905  25.3055937  59.1151310  19.6268954
  14.8959685  60.0349144  10.2725797  15.5333631  59.7960891  10.8177591
  15.3214756  60.2386303   9.5378958  15.0535851  60.0300154  10.2442954
   9.5872327  62.2737480  14.1560101   9.6276472  62.5452331  13.3279881
  10.1466851  62.7979388  14.5717889   9.6755673  62.3913235  14.0951989
  15.7031040  48.5357849  24.3263271  15.3884481  49.3057412  24.0632833
  15.3820973  47.9728105  23.7415498  15.6089959  48.5668117  24.2004621
  26.2697687  59.0298071  15.6211355  25.9643504  59.7626128  15.9824671
  25.5503903  58.6236001  15.3404141  26.1185029  59.0779804  15.6324492
  17.2781156  60.5121566  11.9519583  17.3520165  60.3496738  12.8061433
  18.0950663  60.7011756  11.7080065  17.4097515  60.5158309  12.0417609
  31.9699479  55.6691072  14.9479699  31.9023979  55.6887031  14.0782286
  31.9555142  56.5121399  15.1735370  31.9578236  55.7964807  14.8532176
  13.2562937  46.9248370   9.9409467  12.3885362  46.9970970  10.0067076
  13.5438141  47.7270449  10.1297442  13.1702685  47.0542517   9.9784234
  22.3795826  47.0726230  18.2720789  23.1249418  46.8836040  17.8584214
  21.9633130  47.5984468  17.7134645  22.4280800  47.1228375  18.1285362
  29.7558097  54.4435458  13.2226294  30.3066018  53.8103527  13.4623386
  29.7402212  54.9750851  13.9141798  29.8343293  54.4284406  13.3605152
  16.4080487  58.2774055  17.7686187  15.9092181  58.9889823  17.8471076
  17.2180712  58.5974722  17.7304350  16.4536594  58.4300904  17.7742756
  12.6708605  57.5397008  12.0148908  12.3821854  56.9134480  12.5494636
  13.5391953  57.4817296  12.0813589  12.7568857  57.4384553  12.1039863
  23.4586503  52.6831792  12.3330890  23.1151269  51.9622127  12.6838140
  23.5579545  52.4745643  11.4909248  23.4228546  52.5455995  12.2602570
  23.9199532  59.1457496   7.8754878  24.4857564  59.8050706   7.7913421
  23.2727435  59.4907194   8.3471280  23.9078288  59.2939437   7.9327635
  15.3347545  51.1355100  23.0648486  14.5247321  51.4412880  22.9538328
  15.8122232  51.8560682  23.1801070  15.2851024  51.2869701  23.0655557
  14.1939105  60.3500821  13.3131389  13.6719858  60.4901113  13.9983253
  14.5813125  59.5911485  13.5033506  14.1742806  60.2586345  13.4432465
  11.1830289  50.4006630   7.3826343  10.8955085  50.0307900   6.6458291
  11.8700757  50.8701485   7.1210048  11.2419186  50.4153599   7.2341419
  20.3906110  62.0896280   7.2991957  20.1492786  61.3564141   6.8919022
  20.5707443  62.6383137   6.6458291  20.3813734  62.0618671   7.1422180
  15.6205431  57.3804840   8.7112880  15.4248213  57.9879574   8.1173183
  15.8439776  56.6872784   8.2304554  15.6240072  57.3682365   8.5528961
  14.0183961  54.2659578   8.8293748  14.7406612  54.4300736   8.3697554
  13.5391953  54.9869243   8.7233088  14.0547691  54.3957807   8.7459362
  21.9777468  50.6023377  14.2090433  21.1388569  50.6284655  13.9728696
  22.0481835  51.2494112  14.7895780  21.8645862  50.7019502  14.2599550
  11.6691577  56.6717650  17.9347888  12.1812674  56.9501903  17.2856648
  11.3827920  57.4106944  18.3010701  11.7026440  56.8220004  17.8937766
  20.4246746  47.5008754   8.9418049  21.1273099  47.3016502   8.4638007
  20.1590935  46.7284696   9.2486892  20.4893379  47.3571720   8.9163491
  25.8534992  55.8091363  11.4951675  25.7668966  55.9646789  12.3486454
  25.3985472  56.4529439  11.1211080  25.7738249  55.9267118  11.5658782
   8.7558484  51.1787842   8.2311624   8.8574620  51.9814003   8.5592600
   9.5514370  50.9775178   7.9334705   8.8886389  51.2673741   8.2346980
  15.1875303  48.7644039  17.9948930  14.9958500  48.7799173  18.8448353
  16.0373899  48.9607713  17.9715584  15.2851025  48.7958390  18.1172224
   9.5722216  51.2935020  15.9732746   9.4307707  50.4418961  16.0977254
   9.8562779  51.3363681  15.1494952   9.5930062  51.1734770  15.8700370
  19.7260808  53.1302110  10.1177234  19.4795522  53.0497861  10.9514023
  20.0545931  52.3455578   9.9239762  19.7382052  53.0028376  10.2124757
  23.6208857  59.8385470  13.9064016  23.4823216  60.5366516  14.4112758
  22.8408855  59.6834126  13.5500197  23.4852084  59.9185636  13.9290290
  21.9586942  56.1381845  20.1586397  21.9534980  55.2661662  20.1628824
  22.6647936  56.3370014  19.6855853  22.0631946  56.0385719  20.0893433
  15.6857835  55.8658829  19.5300217  15.8301211  56.4460037  18.8943327
  16.0333484  56.2435126  20.2350072  15.7585297  56.0079533  19.5399212
  17.8577753  55.0648997  17.3125349  17.1101067  55.2580012  16.9073627
  18.0119278  54.2394217  17.0749470  17.7700180  54.9714109  17.2170755
  14.7585590  64.0561601  16.3961244  14.9075154  63.4964517  15.7434649
  15.5385592  64.1353603  16.7793763  14.8959684  63.9847166  16.3558193
  25.1162230  59.1963724   4.6680515  24.7369038  58.4100862   4.6609804
  24.4528475  59.7450581   4.5252159  24.9620704  59.1608548   4.6461312
  17.2838891  64.2276244  17.6745735  17.2082562  63.5585054  18.2296523
  17.2128750  64.9294032  18.1886401  17.2619498  64.2321151  17.8322583
  18.0979530  48.9599548  18.2020753  18.5552144  49.6923522  18.3293545
  18.1735858  48.5366013  18.9608008  18.1770500  49.0056786  18.3321829
  10.3412521  49.2065368  19.2910196   9.8054710  48.5945726  19.6070964
  10.4030286  49.7813504  19.9443863  10.2708154  49.2012296  19.4345623
  22.5706856  42.1389423  12.0714596  22.6890424  42.5965887  11.3381898
  22.3969031  41.3334685  11.7850813  22.5626027  42.0883195  11.9215529
  17.9409138  62.7477243   8.5069341  18.7059029  62.4786886   8.1852005
  17.8387228  62.2627253   9.2239404  18.0390633  62.6366807   8.5649169
  15.9761908  50.9501652  15.0462577  15.1857982  50.7693112  15.3679912
  16.3722530  50.1728605  15.0292871  15.9178784  50.8089113  15.0915125
  21.3605594  58.5844082  12.7722023  20.6850596  58.3529314  13.2735410
  21.3697970  57.9765265  12.1464128  21.2624098  58.4603007  12.7538175
  18.4899738  53.4261911  19.5286076  18.4258879  54.2871868  19.4006212
  18.6296926  53.1093904  18.7281627  18.5015208  53.5062078  19.3914288
  23.3622328  61.4409215   5.0032201  23.4442166  62.2476201   4.6793651
  23.8472071  61.4605174   5.7272974  23.4459486  61.5629877   5.0619099
  17.1718832  56.1194051  13.6702279  16.7481081  56.3198550  12.9341297
  16.9963687  55.2722899  13.7826578  17.0829712  56.0242832  13.5775969
  16.6730525  67.6344564  16.1323736  17.1626456  66.9355353  15.9499400
  16.1014758  67.3368434  16.7199793  16.6615055  67.4870787  16.1924777
  12.4601277  56.6146102   9.1030251  12.6165896  56.5492905   9.9586243
  12.8001870  57.3894655   8.8908931  12.5334512  56.7195300   9.1984845
  18.9980421  55.9903986   7.9723614  19.5395967  55.4874367   8.4362235
  19.3126980  55.9369180   7.1613100  19.1244818  55.9083406   7.9207426
  22.8697529  60.2006633  25.0850526  23.6832394  59.9291782  25.2455659
  22.7092495  59.9014173  24.2810722  22.9667477  60.1161559  24.9895932
  20.1469691  50.8840290  18.0245915  20.3611660  50.2451204  17.4709269
  19.5303590  51.3286114  17.5953776  20.0875020  50.8550434  17.8796346
  21.5574359  63.8059038   9.4700136  21.1654150  63.5025754   8.7523002
  21.7127431  64.6428128   9.2805089  21.5227948  63.8842875   9.3356633
   9.0335538  53.7981052   9.4191018   9.4134503  54.2165597   8.7551286
   8.4590903  54.3794508   9.7259862   9.0046863  53.9458911   9.3667759
  22.3108779  52.4929355  18.9629222  21.4985460  52.1855246  19.0442395
  22.7698713  52.0128355  19.5271934  22.2589164  52.3765848  19.0583816
  21.7214033  60.3709027   9.4106166  21.3628688  60.5423670  10.1870199
  21.2352744  60.8322233   8.8534165  21.5972730  60.4647998   9.4431435
  19.5384419  43.9940226  13.0133258  18.6677977  43.9678947  12.9666567
  19.7924761  43.8217418  12.1959103  19.4477979  43.9650369  12.8853394
  19.4062286  53.8989427  23.7457924  19.8761917  54.5231543  24.1325798
  19.4524166  53.2306402  24.3051139  19.4830162  53.8924107  23.8857996
  16.5633560  46.0046454  14.4706728  16.0472048  45.3126646  14.5958307
  16.0027489  46.6717231  14.4169327  16.4040073  46.0009712  14.4812794
  18.6325793  46.5439414  16.2999580  18.2457546  46.5688446  17.0813110
  18.1458731  45.9781093  15.8474097  18.5038302  46.4635165  16.3487484
  22.8818773  61.2612923  20.3573367  23.5198493  60.7673119  20.0235823
  22.2392864  61.1890324  19.7725594  22.8812999  61.1771932  20.2215722
  24.6075773  53.1102069  14.9239283  24.1803381  53.0228418  14.1687382
  23.9701826  53.2179845  15.5094127  24.4505380  53.1134729  14.8984724
  18.2982935  43.4306400  18.5909840  18.9276053  43.9666700  18.3130911
  18.4668798  43.3383759  19.4423406  18.4160730  43.4967762  18.6758369
  18.0996850  48.2177594  20.8636252  18.9270279  47.9462743  20.9194866
  18.1204696  49.0138436  21.2200070  18.2249700  48.2957349  20.9251435
  22.9373029  61.9532731  16.9978724  23.7265408  61.6021796  17.1180805
  23.1116627  62.7669120  16.7355358  23.0793311  62.0218589  16.9766592
  12.6766340  55.3641457  14.0506513  11.8354346  55.2645331  14.2585406
  12.8856348  56.1336937  14.4020833  12.5831032  55.4633501  14.1333828
  10.1541907  52.9860994  11.8791263   9.7598604  53.0604006  11.1041373
   9.5982024  53.3718940  12.4299625  10.0144719  53.0542769  11.8458923
  21.7906854  45.9642288  11.5595142  21.9956447  45.8964596  12.4052139
  21.4633278  46.7701109  11.4916320  21.7722101  46.0728229  11.6754797
  16.4883005  53.2922856  13.3004110  16.1846142  52.7378845  13.9014518
  15.7862425  53.4715066  12.8132144  16.3399214  53.2367639  13.3173816
  15.5449102  50.6023376   7.8648812  15.8208836  49.8842289   7.4526380
  16.1447771  51.2008296   7.6569918  15.6742366  50.5843747   7.7729573
  14.5501356  60.5072577  18.0076208  14.4421711  60.5174639  18.8738266
  14.7597137  61.3327357  17.8181162  14.5651467  60.6313652  18.1080300
  25.0440541  46.5174052  11.0397908  24.4314855  47.0044455  11.4251640
  25.1404716  45.8417543  11.5835559  24.9678439  46.4892361  11.1776766
  19.0459622  48.2736894   6.1395407  19.5003369  48.4447454   6.8643252
  19.5199668  47.6605004   5.7393183  19.1827942  48.2087779   6.1869169
  12.5675148  57.7585220  15.4698146  11.9763081  58.3994718  15.4401161
  13.3296171  58.1822837  15.4429445  12.5923408  57.9161058  15.4613293
  12.9635770  48.9187217  16.1366163  13.4237252  48.9926147  16.8741287
  13.0091877  49.7168471  15.7865985  13.0386326  49.0481364  16.1938920
  14.6119120  49.5853912  20.7038190  14.2204685  48.9387259  21.1393968
  14.7804983  50.1765347  21.3232446  14.5790031  49.5768180  20.8600896
  28.6865569  57.5890989  16.4675424  28.7448693  58.0377638  17.2135400
  28.0532037  57.9989802  16.0305504  28.6016864  57.7164724  16.5127972
  22.3264664  63.2094531  12.9030170  22.1284353  63.6985346  12.2086381
  21.7052375  63.4135773  13.4814303  22.2052228  63.3111069  12.8853393
  16.3872642  54.9779428   7.2440414  17.1314687  55.3653704   7.4823364
  16.5333338  54.1336853   7.4080902  16.5183227  54.9109901   7.3034384
  18.3052218  46.7729687  12.2772276  17.4588263  46.9452495  12.1513625
  18.3023350  45.9679031  12.6138104  18.1799368  46.6790716  12.3083403
  19.3750518  50.5504901  13.1434334  18.9010472  50.0246663  13.6539645
  19.7468654  50.0034374  12.5749195  19.3600407  50.3920898  13.1349481
   9.7523548  52.5476408  18.5117879  10.6149161  52.4472117  18.4255209
   9.4215331  51.9671117  17.9503452   9.8308745  52.4468035  18.4163285
  25.6387249  55.6107277  14.5541114  25.3985472  54.7713692  14.5583541
  26.1179256  55.6907444  15.2781888  25.6739432  55.4988677  14.6615916
  21.3034018  51.4441456   6.2060087  20.7757036  51.5270200   5.5165796
  21.7629726  52.1859327   6.2024732  21.2935868  51.5662118   6.1034783
  27.6392436  52.3908734  12.5070373  27.4002206  52.3504568  11.6691158
  27.8026337  53.2379886  12.6336094  27.6282739  52.5100819  12.4023855
  24.2438466  56.7758683  18.4375418  24.9672665  56.3231210  18.2586438
  23.9788428  57.0563349  17.6547746  24.3119739  56.7509652  18.2954134
  13.1125334  51.3718857  15.1728298  12.4878404  51.3837249  14.5654250
  12.7770929  51.8479032  15.8219538  12.9710826  51.4437374  15.1784866
   9.8251010  59.4319317  16.6132062   9.2950934  58.7411756  16.6627037
  10.0976103  59.4229502  15.7844770   9.7875732  59.3286449  16.4979478
  20.8571100  60.0145019   5.3369744  21.5805299  60.4803132   5.1934318
  20.4171691  60.0818629   4.5867341  20.8986792  60.0928856   5.2054526
  20.0257255  56.8742562  16.5870433  19.4114248  56.3300612  16.8819069
  20.5424540  56.3606798  16.1076250  20.0112918  56.7178971  16.5594662
  19.2653552  57.9446832  14.3214732  18.8381161  57.3196550  13.8880167
  19.2578497  57.6621754  15.1473739  19.2012694  57.8099612  14.3794560
  12.3816080  52.9812005  17.3903166  12.5409566  52.2255329  17.7954888
  12.2008973  53.5302944  18.0443904  12.3781439  52.9505818  17.5465872
  20.3236383  45.1473240  17.9453956  19.8276944  45.3436915  17.2545522
  21.0805445  45.5465909  17.7742757  20.3623207  45.2350974  17.8174092
  17.5939262  48.8215586  14.5357266  17.6181749  48.2875698  13.8470046
  17.8450736  48.3132895  15.1982857  17.6349181  48.6676490  14.5321911
  13.8740584  47.5486404  13.9163010  13.9138956  48.0495611  14.6297718
  13.0490249  47.6396798  13.6468933  13.7580110  47.6368221  13.9813549
  16.0570197  57.1147144  22.0183305  15.2065828  57.2518859  22.1540950
  16.2198325  56.3810923  22.4631007  15.9554061  57.0261246  22.1038904
  15.2954948  54.0646914  16.2136909  14.4646877  54.2320732  16.0072157
  15.2406465  53.6882865  16.9985795  15.1644363  54.0336646  16.2985438
  13.1038731  47.5555807  21.8493320  13.7291434  47.0117940  22.1222752
  12.6489211  47.0750725  21.2801110  13.1286992  47.4045289  21.8054914
  13.6690992  52.3402506   6.7427027  13.8093953  52.8374970   7.4455668
  14.1673524  51.6388800   6.8841241  13.7632073  52.3104485   6.8678606
  26.6773780  55.7385094  16.9405968  27.2691620  56.3782345  16.9724166
  27.1132774  55.0408131  17.2298035  26.8292211  55.7303445  16.9886801
  15.2770197  49.1383592   4.0465046  15.5986038  48.6586675   3.3924308
  15.5397141  49.9483238   3.8555858  15.3636222  49.1873490   3.9220538
  18.5067170  60.1602467  17.5663862  17.9992261  60.7138313  18.0104493
  18.2093816  60.2210756  16.7482637  18.3872055  60.2508778  17.5112319
  20.6729352  48.5255786  16.4088525  21.0984423  48.0728313  15.7972051
  20.0586345  47.9715857  16.6853312  20.6457997  48.3769762  16.3593550
  19.1123575  44.9970886   9.8179102  18.4691893  44.8468532  10.3864240
  18.7722982  44.7513231   9.0528207  18.9668652  44.9383008   9.7882117
  23.7022921  52.9530313   9.2409111  23.0314111  53.4960015   9.1122176
  24.3962671  53.4225168   8.9990805  23.7051789  53.1028584   9.1864638
  17.7509655  65.0927025  14.4720869  17.5275309  64.3345854  14.8404895
  17.2619498  65.1225046  13.7501309  17.6453104  64.9849249  14.4197610
  23.8651049  49.4086196  12.1499484  24.2178659  48.9815919  12.8245283
  23.0065850  49.3237040  12.2800560  23.7900493  49.3330937  12.2694494
  12.5634734  52.0393716  10.2082330  11.8446723  52.4557849  10.4755194
  12.9347096  52.6047955   9.6573969  12.5126665  52.1842998  10.1665137
  21.8634314  52.6721565  16.0984326  21.8432242  52.4904860  16.9519105
  21.9113515  53.5433584  16.0743910  21.8668955  52.7738103  16.2207621
  19.8080644  59.2608757  22.0232803  19.7676499  58.6158434  21.4377958
  20.6203963  59.2045374  22.3358215  19.9223798  59.1567724  21.9829752
  16.3988112  65.3127483  11.9257954  15.9848510  64.6501613  11.5361795
  17.0835486  65.4605342  11.4053648  16.4386484  65.2368141  11.7914451
  19.7653406  64.4717568  12.6781570  19.3669689  64.5819839  11.9102390
  19.1504626  64.6799635  13.2608130  19.6152295  64.5191136  12.6512869
  18.3381308  51.0791716   5.5455710  17.7446147  51.4008713   4.9940277
  18.3756586  50.2332811   5.3376816  18.2555697  51.0016044   5.4338481
  25.2975109  44.5304608  13.0783796  24.7905973  43.8233748  13.0104974
  26.0942542  44.1997797  13.2084873  25.3402348  44.3777760  13.0882791
  21.2139125  51.0371221   8.9757460  20.9852818  51.0603922   8.1335818
  21.4737201  50.2128688   9.0952471  21.2185313  50.9187300   8.8682658
  15.4958353  52.8905694  18.5782560  14.9837256  52.2826877  18.9367592
  15.3237849  53.6062286  19.0456536  15.3947990  52.9068993  18.6998784
  10.3424068  51.3343269  21.2284922  10.1726658  51.9944644  20.6833129
   9.8990018  51.5449830  21.9497411  10.2523401  51.4629251  21.2546552
  14.2683887  49.5747767  10.2711656  14.7441253  49.9364847   9.6361837
  13.7672487  50.2304234  10.5511798  14.2649246  49.7241956  10.2188397
  27.4995249  59.0469535   6.0624661  27.8828854  59.7960891   6.2922758
  26.7039362  59.2935355   5.8036650  27.4389031  59.1939229   6.0582234
  19.3727423  50.8129938  21.0184816  19.9298854  50.5843748  20.3863281
  19.0488488  51.5735604  20.7420028  19.4073834  50.8913775  20.8841313
   7.2426132  54.2390134  16.4873412   6.6952852  53.5690780  16.6054280
   8.0318510  53.8719982  16.5516879   7.2778316  54.0855121  16.5142112
  17.0910541  53.8997592  21.9836823  17.8421868  54.2149268  22.2976377
  17.2833117  53.6976762  21.1570745  17.2301955  53.9164973  21.9080219
  16.3110540  51.7188967   3.6385040  16.6909505  51.7368596   2.8536154
  15.5703136  52.1642955   3.5175887  16.2579378  51.7870741   3.5048608
  23.9395831  50.0271158   9.2260618  23.9390057  49.8719814  10.0844895
  23.7352011  50.8734145   9.1702004  23.9095609  50.1291779   9.3448558
   6.0013102  53.4510942  13.6419435   5.8234863  52.9987551  14.3674351
   5.7132124  54.2537104  13.8257912   5.9326055  53.5033500  13.7762938
  21.6636683  54.7068660  12.8796825  22.1590348  53.9891655  12.8400846
  20.8536459  54.4039457  12.7651312  21.6180576  54.5566306  12.8570551
  23.7288502  57.4572347  15.5673954  24.1543573  56.9346769  15.0144379
  23.3645422  58.0553185  15.0462577  23.7375104  57.4682574  15.4082964
  13.3642581  65.7536565  14.3271299  13.6789140  66.5672953  14.3349081
  13.7735995  65.3686783  14.9953459  13.4710679  65.8165267  14.4275391
  20.3167101  61.1706611  11.8975111  20.7878279  61.8846874  12.0665097
  20.6527280  60.5705362  12.4334981  20.4362216  61.1878076  12.0007487
  22.4044086  62.7807925  24.0767184  22.5141051  61.9916485  24.4323931
  22.7334982  62.6913861  23.2741522  22.4696492  62.6513778  24.0109574
  17.2336596  45.9434082  18.8533206  17.3664502  45.1465075  19.1814182
  17.6181749  46.4700485  19.4331482  17.3092925  45.9033999  18.9876709
  20.9541047  60.9624546  18.6602804  20.4061993  60.3382429  18.3922869
  21.4154076  61.1518818  17.9446883  20.9408257  60.8983596  18.5153235
  20.3068951  42.8664408  15.4514300  19.5014915  42.7562138  15.7682138
  20.1775687  42.9676864  14.5944165  20.1689084  42.8648078  15.3722340
  23.7634912  49.0309900  16.0453996  23.1797901  49.5319107  15.6331564
  24.0839206  48.5239456  15.4118320  23.7248087  49.0301735  15.8912504
  16.3029711  47.9450495   6.3212671  17.1245405  48.1148808   6.0794366
  15.8399362  48.0997756   5.5978969  16.3560873  47.9932228   6.1784316
  14.8925043  45.9393257  17.1011100  15.4369456  45.5984384  17.6915442
  14.9461979  46.7978719  17.2432385  14.9814162  46.0148516  17.2092973
  10.7055602  59.7009673  13.9749908  11.3100459  59.6605507  13.3463729
  10.4982914  60.5480825  14.0053964  10.7644499  59.8197676  13.8866024
  20.5199374  61.9675618  15.1912145  21.3397748  61.8238584  15.4528440
  20.2393451  62.5921817  15.7328583  20.5996117  62.0385970  15.3100085
  30.1912709  68.7116121  12.9107952  29.3350604  68.8724619  12.9617069
  30.2380363  67.8408185  12.9313013  30.0711820  68.6066923  12.9214018
  33.5006426  74.9802647  22.5168408  34.2073193  74.4854677  22.6455343
  33.6894361  75.4211728  21.7871066  33.6334331  74.9720997  22.4277454
  33.0364530  70.7708165  15.5539604  33.5820490  71.4493251  15.6133573
  32.9781406  70.6295626  14.6941185  33.1080444  70.8500167  15.4351664
  21.6493737  66.4503248  13.4644598  21.0298768  65.8595895  13.2954612
  21.5477600  67.0414683  12.8308921  21.5431412  66.4507331  13.3449587
  28.7461632  68.1902790   7.7977061  29.4441797  68.3690917   8.2898524
  29.0613965  67.6673129   7.1747450  28.8956969  68.1396562   7.7779071
  21.3762870  69.9955530  15.7088166  21.2521566  70.5817975  16.3437985
  22.0281154  69.5015726  16.0100441  21.4536519  70.0094334  15.8474096
  26.4021211  73.1717247  14.9875678  27.0470213  72.6789690  14.6686626
  26.6422988  73.3142033  15.8141756  26.5331796  73.1194689  15.0625211
  28.9407302  76.0172153  14.6382570  29.2230545  75.2223558  14.4169326
  29.6693462  76.4952740  14.6587631  29.0896866  75.9706750  14.6085585
  26.9188496  63.5595187  11.8798335  26.5891826  64.0106330  11.2102034
  26.2433498  63.4811350  12.4271342  26.7698932  63.6146322  11.8621559
  34.1264904  59.5480709  10.1247946  33.8118345  60.2384188  10.5568368
  33.6091845  59.4925492   9.4233447  34.0029374  59.6415598  10.0844895
  25.1244450  61.6207475   7.3621283  25.8790418  61.9885792   7.1238333
  24.9471984  61.9947029   8.1300463  25.2098928  61.7305663   7.4406171
  38.4179349  67.7701916  15.4068822  37.5807770  67.8404103  15.6416417
  38.3867580  67.7726410  14.5343125  38.2897631  67.7812143  15.3128370
  24.8144078  69.9134951  21.1217191  24.9864581  69.8040846  21.9702472
  25.3513435  70.5589357  20.8848383  24.9189082  69.9926953  21.2122288
  23.4801515  64.0277794   4.0599396  23.2977088  64.2449675   3.2340389
  24.3427128  64.1416807   4.1158010  23.5806104  64.0767692   3.9453883
  29.1601234  61.0304205   7.0948420  29.8887394  60.8520160   6.6486576
  29.2496127  61.8722284   7.3055598  29.2807896  61.1288083   7.0601937
  33.1409534  71.9657592  10.9980714  33.8967049  72.3989106  11.0369622
  33.2471859  71.3162362  11.5715350  33.2679705  71.9335076  11.0878739
  36.1789706  75.7930869  11.7483117  35.7424937  75.7967612  12.5042088
  35.8452621  76.4736368  11.3162694  36.0652325  75.8943325  11.7963949
  30.7518779  77.8339202  23.0726267  31.5359196  77.9470050  23.4382009
  30.5515374  77.0080339  23.2684953  30.8384805  77.7285922  23.1560653
  19.1205795  72.5066882  15.9570111  18.8544210  71.6905999  16.1161101
  19.1344359  72.5520038  15.0865626  19.0830517  72.3923787  15.8523593
  36.0987188  62.8344697  13.9912545  36.7413097  62.9042802  14.5774460
  36.3510209  62.1673920  13.4892087  36.2309321  62.7471046  14.0039824
  23.8704401  66.0445261  18.6037119  23.1776198  65.5742240  18.8497850
  24.4864728  65.8183565  19.1778826  23.8588931  65.9412392  18.7246271
  39.3134052  72.5111789  10.6402754  39.9750486  71.9502458  10.5398662
  38.6725464  72.0163820  10.9655445  39.3162919  72.3548198  10.6735094
  19.5299208  73.2925662  13.2381855  19.3474781  73.2672548  12.3854147
  20.2648877  73.7624599  13.2770764  19.6113272  73.3587024  13.1179774
  22.5944960  70.0110664  19.7463964  23.3184932  69.9963695  20.2328859
  22.6961096  70.7206020  19.2485932  22.7163169  70.1135368  19.7442751
  29.9689909  73.4909749  24.6112911  29.1762890  73.8053261  24.7965530
  30.0838836  73.7061218  23.7733695  29.8685320  73.5693586  24.5151246
  32.6421228  70.2143740   8.9007927  32.7368083  70.9533034   9.3547552
  32.0180072  69.7861216   9.3342491  32.5630258  70.2605061   9.0316074
  30.8973702  73.3929953  19.5498208  31.4712564  72.7557197  19.7046771
  30.8188506  73.3934035  18.6807865  30.9706937  73.2995064  19.4444618
  19.4970119  70.1719162  13.3880922  20.0743621  70.0355613  14.0273167
  18.7984180  69.7154946  13.6426506  19.4791140  70.0841429  13.5203211
  26.2537421  71.8253218  11.6019405  25.9956665  70.9924953  11.5750704
  26.3085904  72.0510831  10.7611905  26.2237199  71.7350989  11.4739542
  31.3338471  63.9281669  11.7023498  30.6294798  63.4390854  11.8607417
  31.3823445  63.9404143  10.8311942  31.2368522  63.8571317  11.5962837
  25.2272133  69.3790980  12.0884300  24.6521724  69.5383149  12.7248261
  24.8507809  68.7426390  11.6252750  25.0874945  69.3088793  12.1138858
  28.8945422  67.8514330  16.9476678  28.5059854  67.4268547  16.2928869
  28.2300120  68.0996479  17.4553705  28.7392349  67.8253051  16.9264546
  38.5368691  67.6089334   9.7224508  38.2805256  66.7969276   9.5322391
  39.3798005  67.6166902   9.4954695  38.6234716  67.4901332   9.6609325
  32.7171783  61.5488958  14.4600662  33.0982295  60.8667130  14.8468537
  31.9135067  61.2598561  14.2776327  32.6548245  61.4056007  14.4904718
  36.2193850  74.7638930  19.5583061  35.9832487  73.9326995  19.4395121
  36.8637079  74.7124538  20.1437905  36.2788521  74.6336618  19.6268954
  25.8692268  75.5534452  10.2725797  26.5066215  75.3146199  10.8177591
  26.2947340  75.7571611   9.5378958  26.0268434  75.5485462  10.2442954
  26.6763624  64.0543157  24.3263271  26.3617065  64.8242719  24.0632833
  26.3553556  63.4913413  23.7415498  26.5822543  64.0853425  24.2004621
  37.2430271  74.5483379  15.6211355  36.9376088  75.2811436  15.9824671
  36.5236486  74.1421309  15.3404141  37.0917613  74.5965112  15.6324492
  28.2513740  76.0306874  11.9519583  28.3252748  75.8682046  12.8061433
  29.0683246  76.2197064  11.7080065  28.3830099  76.0343617  12.0417609
  42.9432063  71.1876380  14.9479699  42.8756563  71.2072339  14.0782286
  42.9287725  72.0306707  15.1735370  42.9310819  71.3150115  14.8532176
  24.2295520  62.4433678   9.9409467  23.3617946  62.5156278  10.0067076
  24.5170725  63.2455757  10.1297442  24.1435269  62.5727825   9.9784234
  33.3528409  62.5911538  18.2720789  34.0982001  62.4021348  17.8584214
  32.9365714  63.1169776  17.7134645  33.4013383  62.6413683  18.1285362
  40.7290680  69.9620766  13.2226294  41.2798602  69.3288835  13.4623386
  40.7134795  70.4936159  13.9141798  40.8075876  69.9469714  13.3605152
  27.3813071  73.7959363  17.7686187  26.8824765  74.5075131  17.8471076
  28.1913295  74.1160030  17.7304350  27.4269178  73.9486212  17.7742756
  23.6441189  73.0582316  12.0148908  23.3554437  72.4319788  12.5494636
  24.5124537  73.0002604  12.0813589  23.7301440  72.9569861  12.1039863
  34.4319086  68.2017100  12.3330890  34.0883852  67.4807435  12.6838140
  34.5312129  67.9930951  11.4909248  34.3961129  68.0641303  12.2602570
  26.3080129  66.6540408  23.0648486  25.4979905  66.9598187  22.9538328
  26.7854816  67.3745990  23.1801070  26.2583608  66.8055009  23.0655557
  25.1671689  75.8686129  13.3131389  24.6452442  76.0086420  13.9983253
  25.5545709  75.1096793  13.5033506  25.1475389  75.7771653  13.4432465
  22.1562873  65.9191938   7.3826343  21.8687668  65.5493208   6.6458291
  22.8433341  66.3886793   7.1210048  22.2151770  65.9338907   7.2341419
  26.5938014  72.8990148   8.7112880  26.3980797  73.5064882   8.1173183
  26.8172360  72.2058092   8.2304554  26.5972655  72.8867673   8.5528961
  24.9916544  69.7844886   8.8293748  25.7139196  69.9486044   8.3697554
  24.5124537  70.5054551   8.7233088  25.0280275  69.9143115   8.7459362
  32.9510052  66.1208685  14.2090433  32.1121152  66.1469963  13.9728696
  33.0214419  66.7679420  14.7895780  32.8378445  66.2204810  14.2599550
  22.6424161  72.1902958  17.9347888  23.1545258  72.4687211  17.2856648
  22.3560503  72.9292252  18.3010701  22.6759024  72.3405312  17.8937766
  31.3979330  63.0194062   8.9418049  32.1005683  62.8201810   8.4638007
  31.1323519  62.2470004   9.2486892  31.4625962  62.8757028   8.9163491
  36.8267576  71.3276671  11.4951675  36.7401550  71.4832097  12.3486454
  36.3718055  71.9714747  11.1211080  36.7470832  71.4452426  11.5658782
  19.7291067  66.6973150   8.2311624  19.8307204  67.4999311   8.5592600
  20.5246954  66.4960486   7.9334705  19.8618973  66.7859049   8.2346980
  26.1607886  64.2829347  17.9948930  25.9691083  64.2984481  18.8448353
  27.0106482  64.4793021  17.9715584  26.2583608  64.3143698  18.1172224
  20.5454799  66.8120328  15.9732746  20.4040291  65.9604269  16.0977254
  20.8295363  66.8548989  15.1494952  20.5662645  66.6920078  15.8700370
  30.6993392  68.6487418  10.1177234  30.4528106  68.5683169  10.9514023
  31.0278515  67.8640886   9.9239762  30.7114635  68.5213684  10.2124757
  34.5941440  75.3570778  13.9064016  34.4555800  76.0551824  14.4112758
  33.8141438  75.2019434  13.5500197  34.4584667  75.4370944  13.9290290
  32.9319526  71.6567153  20.1586397  32.9267564  70.7846970  20.1628824
  33.6380519  71.8555322  19.6855853  33.0364530  71.5571027  20.0893433
  26.6590419  71.3844137  19.5300217  26.8033795  71.9645345  18.8943327
  27.0066067  71.7620434  20.2350072  26.7317880  71.5264841  19.5399212
  28.8310336  70.5834305  17.3125349  28.0833650  70.7765320  16.9073627
  28.9851861  69.7579525  17.0749470  28.7432764  70.4899417  17.2170755
  29.0712113  64.4784856  18.2020753  29.5284727  65.2108830  18.3293545
  29.1468442  64.0551321  18.9608008  29.1503083  64.5242094  18.3321829
  21.3145104  64.7250676  19.2910196  20.7787294  64.1131034  19.6070964
  21.3762869  65.2998812  19.9443863  21.2440737  64.7197604  19.4345623
  33.5439439  57.6574731  12.0714596  33.6623007  58.1151195  11.3381898
  33.3701615  56.8519992  11.7850813  33.5358610  57.6068503  11.9215529
  26.9494491  66.4686960  15.0462577  26.1590566  66.2878420  15.3679912
  27.3455114  65.6913913  15.0292871  26.8911367  66.3274421  15.0915125
  32.3338177  74.1029390  12.7722023  31.6583179  73.8714622  13.2735410
  32.3430554  73.4950573  12.1464128  32.2356682  73.9788315  12.7538175
  29.4632321  68.9447219  19.5286076  29.3991463  69.8057176  19.4006212
  29.6029509  68.6279212  18.7281627  29.4747792  69.0247386  19.3914288
  28.1451415  71.6379358  13.6702279  27.7213664  71.8383858  12.9341297
  27.9696271  70.7908206  13.7826578  28.0562296  71.5428140  13.5775969
  23.4333860  72.1331410   9.1030251  23.5898479  72.0678213   9.9586243
  23.7734453  72.9079962   8.8908931  23.5067095  72.2380608   9.1984845
  29.9713005  71.5089293   7.9723614  30.5128550  71.0059675   8.4362235
  30.2859564  71.4554488   7.1613100  30.0977402  71.4268714   7.9207426
  33.8430112  75.7191941  25.0850526  34.6564978  75.4477090  25.2455659
  33.6825079  75.4199481  24.2810722  33.9400061  75.6346867  24.9895932
  31.1202274  66.4025598  18.0245915  31.3344244  65.7636512  17.4709269
  30.5036174  66.8471422  17.5953776  31.0607604  66.3735742  17.8796346
  20.0068122  69.3166360   9.4191018  20.3867087  69.7350905   8.7551286
  19.4323487  69.8979816   9.7259862  19.9779447  69.4644219   9.3667759
  33.2841362  68.0114663  18.9629222  32.4718044  67.7040554  19.0442395
  33.7431297  67.5313663  19.5271934  33.2321747  67.8951156  19.0583816
  30.5117003  59.5125534  13.0133258  29.6410561  59.4864255  12.9666567
  30.7657344  59.3402726  12.1959103  30.4210563  59.4835677  12.8853394
  30.3794870  69.4174735  23.7457924  30.8494501  70.0416851  24.1325798
  30.4256750  68.7491710  24.3051139  30.4562746  69.4109415  23.8857996
  27.5366143  61.5231762  14.4706728  27.0204632  60.8311954  14.5958307
  26.9760072  62.1902539  14.4169327  27.3772657  61.5195020  14.4812794
  29.6058377  62.0624722  16.2999580  29.2190130  62.0873754  17.0813110
  29.1191314  61.4966401  15.8474097  29.4770886  61.9820473  16.3487484
  33.8551356  76.7798231  20.3573367  34.4931077  76.2858427  20.0235823
  33.2125448  76.7075632  19.7725594  33.8545583  76.6957240  20.2215722
  35.5808356  68.6287377  14.9239283  35.1535965  68.5413726  14.1687382
  34.9434409  68.7365153  15.5094127  35.4237964  68.6320037  14.8984724
  29.2715519  58.9491708  18.5909840  29.9008637  59.4852008  18.3130911
  29.4401381  58.8569067  19.4423406  29.3893313  59.0153070  18.6758369
  29.0729434  63.7362902  20.8636252  29.9002863  63.4648051  20.9194866
  29.0937280  64.5323744  21.2200070  29.1982284  63.8142657  20.9251435
  33.9105613  77.4718039  16.9978724  34.6997991  77.1207104  17.1180805
  34.0849211  78.2854428  16.7355358  34.0525895  77.5403897  16.9766592
  23.6498923  70.8826765  14.0506513  22.8086930  70.7830639  14.2585406
  23.8588931  71.6522245  14.4020833  23.5563616  70.9818808  14.1333828
  21.1274490  68.5046302  11.8791263  20.7331188  68.5789314  11.1041373
  20.5714607  68.8904248  12.4299625  20.9877303  68.5728077  11.8458923
  32.7639437  61.4827596  11.5595142  32.9689030  61.4149904  12.4052139
  32.4365861  62.2886417  11.4916320  32.7454685  61.5913537  11.6754797
  27.4615588  68.8108164  13.3004110  27.1578726  68.2564153  13.9014518
  26.7595009  68.9900374  12.8132144  27.3131798  68.7552947  13.3173816
  26.5181685  66.1208684   7.8648812  26.7941420  65.4027597   7.4526380
  27.1180355  66.7193604   7.6569918  26.6474950  66.1029055   7.7729573
  36.0173125  62.0359360  11.0397908  35.4047438  62.5229762  11.4251640
  36.1137300  61.3602851  11.5835559  35.9411022  62.0077669  11.1776766
  30.0192206  63.7922201   6.1395407  30.4735952  63.9632762   6.8643252
  30.4932252  63.1790312   5.7393183  30.1560526  63.7273087   6.1869169
  23.5407731  73.2770527  15.4698146  22.9495664  73.9180026  15.4401161
  24.3028755  73.7008145  15.4429445  23.5655992  73.4346366  15.4613293
  23.9368354  64.4372525  16.1366163  24.3969836  64.5111455  16.8741287
  23.9824461  65.2353779  15.7865985  24.0118909  64.5666672  16.1938920
  25.5851704  65.1039220  20.7038190  25.1937269  64.4572567  21.1393968
  25.7537567  65.6950655  21.3232446  25.5522614  65.0953488  20.8600896
  39.6598153  73.1076297  16.4675424  39.7181277  73.5562946  17.2135400
  39.0264620  73.5175110  16.0305504  39.5749448  73.2350032  16.5127972
  27.3605226  70.4964736   7.2440414  28.1047271  70.8839012   7.4823364
  27.5065922  69.6522161   7.4080902  27.4915811  70.4295209   7.3034384
  29.2784801  62.2914995  12.2772276  28.4320846  62.4637803  12.1513625
  29.2755934  61.4864338  12.6138104  29.1531951  62.1976024  12.3083403
  30.3483102  66.0690209  13.1434334  29.8743056  65.5431971  13.6539645
  30.7201237  65.5219682  12.5749195  30.3332991  65.9106206  13.1349481
  20.7256132  68.0661716  18.5117879  21.5881745  67.9657425  18.4255209
  20.3947915  67.4856425  17.9503452  20.8041328  67.9653343  18.4163285
  36.6119832  71.1292585  14.5541114  36.3718055  70.2899000  14.5583541
  37.0911839  71.2092752  15.2781888  36.6472016  71.0173985  14.6615916
  32.2766601  66.9626764   6.2060087  31.7489620  67.0455508   5.5165796
  32.7362309  67.7044635   6.2024732  32.2668452  67.0847426   6.1034783
  38.6125019  67.9094042  12.5070373  38.3734789  67.8689876  11.6691158
  38.7758921  68.7565194  12.6336094  38.6015323  68.0286127  12.4023855
  35.2171049  72.2943991  18.4375418  35.9405248  71.8416518  18.2586438
  34.9521012  72.5748657  17.6547746  35.2852323  72.2694960  18.2954134
  24.0857918  66.8904165  15.1728298  23.4610988  66.9022557  14.5654250
  23.7503513  67.3664340  15.8219538  23.9443410  66.9622682  15.1784866
  30.9989839  72.3927870  16.5870433  30.3846832  71.8485920  16.8819069
  31.5157124  71.8792106  16.1076250  30.9845501  72.2364279  16.5594662
  30.2386136  73.4632140  14.3214732  29.8113744  72.8381858  13.8880167
  30.2311080  73.1807061  15.1473739  30.1745277  73.3284920  14.3794560
  23.3548663  68.4997313  17.3903166  23.5142150  67.7440637  17.7954888
  23.1741557  69.0488252  18.0443904  23.3514022  68.4691126  17.5465872
  31.2968966  60.6658548  17.9453956  30.8009527  60.8622222  17.2545522
  32.0538028  61.0651216  17.7742757  31.3355791  60.7536282  17.8174092
  28.5671846  64.3400894  14.5357266  28.5914333  63.8061006  13.8470046
  28.8183319  63.8318203  15.1982857  28.6081764  64.1861798  14.5321911
  24.8473168  63.0671712  13.9163010  24.8871540  63.5680919  14.6297718
  24.0222833  63.1582106  13.6468933  24.7312694  63.1553529  13.9813549
  27.0302781  72.6332452  22.0183305  26.1798411  72.7704167  22.1540950
  27.1930909  71.8996231  22.4631007  26.9286644  72.5446554  22.1038904
  26.2687531  69.5832222  16.2136909  25.4379461  69.7506040  16.0072157
  26.2139049  69.2068173  16.9985795  26.1376946  69.5521953  16.2985438
  24.0771315  63.0741115  21.8493320  24.7024018  62.5303248  22.1222752
  23.6221795  62.5936033  21.2801110  24.1019575  62.9230596  21.8054914
  24.6423575  67.8587814   6.7427027  24.7826536  68.3560278   7.4455668
  25.1406108  67.1574108   6.8841241  24.7364656  67.8289793   6.8678606
  37.6506363  71.2570402  16.9405968  38.2424204  71.8967653  16.9724166
  38.0865358  70.5593439  17.2298035  37.8024795  71.2488752  16.9886801
  26.2502780  64.6568900   4.0465046  26.5718622  64.1771983   3.3924308
  26.5129724  65.4668546   3.8555858  26.3368806  64.7058798   3.9220538
  29.4799753  75.6787775  17.5663862  28.9724844  76.2323621  18.0104493
  29.1826399  75.7396064  16.7482637  29.3604638  75.7694086  17.5112319
  31.6461935  64.0441094  16.4088525  32.0717007  63.5913621  15.7972051
  31.0318929  63.4901165  16.6853312  31.6190581  63.8955070  16.3593550
  30.0856158  60.5156194   9.8179102  29.4424476  60.3653840  10.3864240
  29.7455565  60.2698539   9.0528207  29.9401236  60.4568316   9.7882117
  34.6755505  68.4715621   9.2409111  34.0046695  69.0145323   9.1122176
  35.3695255  68.9410476   8.9990805  34.6784372  68.6213892   9.1864638
  34.8383632  64.9271504  12.1499484  35.1911242  64.5001227  12.8245283
  33.9798434  64.8422348  12.2800560  34.7633077  64.8516245  12.2694494
  23.5367317  67.5579024  10.2082330  22.8179306  67.9743157  10.4755194
  23.9079680  68.1233263   9.6573969  23.4859249  67.7028306  10.1665137
  32.8366898  68.1906873  16.0984326  32.8164825  68.0090168  16.9519105
  32.8846099  69.0618891  16.0743910  32.8401539  68.2923411  16.2207621
  30.7813228  74.7794065  22.0232803  30.7409083  74.1343742  21.4377958
  31.5936546  74.7230682  22.3358215  30.8956381  74.6753032  21.9829752
  29.3113892  66.5977024   5.5455710  28.7178731  66.9194020   4.9940277
  29.3489169  65.7518119   5.3376816  29.2288281  66.5201352   5.4338481
  36.2707692  60.0489916  13.0783796  35.7638557  59.3419056  13.0104974
  37.0675126  59.7183105  13.2084873  36.3134932  59.8963068  13.0882791
  32.1871708  66.5556528   8.9757460  31.9585401  66.5789230   8.1335818
  32.4469784  65.7313995   9.0952471  32.1917896  66.4372608   8.8682658
  26.4690937  68.4091001  18.5782560  25.9569840  67.8012184  18.9367592
  26.2970433  69.1247594  19.0456536  26.3680574  68.4254301  18.6998784
  21.3156651  66.8528577  21.2284922  21.1459242  67.5129952  20.6833129
  20.8722601  67.0635138  21.9497411  21.2255985  66.9814559  21.2546552
  25.2416471  65.0933075  10.2711656  25.7173837  65.4550155   9.6361837
  24.7405070  65.7489542  10.5511798  25.2381830  65.2427264  10.2188397
  30.3460007  66.3315246  21.0184816  30.9031437  66.1029056  20.3863281
  30.0221072  67.0920912  20.7420028  30.3806417  66.4099083  20.8841313
  18.2158716  69.7575442  16.4873412  17.6685435  69.0876088  16.6054280
  19.0051094  69.3905290  16.5516879  18.2510899  69.6040429  16.5142112
  28.0643124  69.4182899  21.9836823  28.8154451  69.7334576  22.2976377
  28.2565701  69.2162070  21.1570745  28.2034538  69.4350281  21.9080219
  27.2843124  67.2374275   3.6385040  27.6642089  67.2553904   2.8536154
  26.5435720  67.6828263   3.5175887  27.2311962  67.3056049   3.5048608
  34.9128414  65.5456466   9.2260618  34.9122641  65.3905122  10.0844895
  34.7084594  66.3919453   9.1702004  34.8828192  65.6477087   9.3448558
  16.9745685  68.9696250  13.6419435  16.7967446  68.5172859  14.3674351
  16.6864707  69.7722412  13.8257912  16.9058638  69.0218808  13.7762938
  32.6369266  70.2253968  12.8796825  33.1322932  69.5076963  12.8400846
  31.8269042  69.9224765  12.7651312  32.5913160  70.0751614  12.8570551
  34.7021085  72.9757655  15.5673954  35.1276157  72.4532077  15.0144379
  34.3378005  73.5738492  15.0462577  34.7107688  72.9867882  15.4082964
  31.2899685  76.6891919  11.8975111  31.7610863  77.4032182  12.0665097
  31.6259863  76.0890669  12.4334981  31.4094800  76.7063384  12.0007487
  33.3776669  78.2993233  24.0767184  33.4873635  77.5101793  24.4323931
  33.7067566  78.2099169  23.2741522  33.4429075  78.1699086  24.0109574
  28.2069180  61.4619390  18.8533206  28.3397085  60.6650383  19.1814182
  28.5914332  61.9885793  19.4331482  28.2825509  61.4219307  18.9876709
  31.9273631  76.4809853  18.6602804  31.3794577  75.8567737  18.3922869
  32.3886660  76.6704126  17.9446883  31.9140840  76.4168904  18.5153235
  31.2801535  58.3849716  15.4514300  30.4747499  58.2747446  15.7682138
  31.1508270  58.4862172  14.5944165  31.1421668  58.3833386  15.3722340
  34.7367495  64.5495208  16.0453996  34.1530484  65.0504414  15.6331564
  35.0571789  64.0424764  15.4118320  34.6980671  64.5487043  15.8912504
  27.2762295  63.4635803   6.3212671  28.0977989  63.6334116   6.0794366
  26.8131945  63.6183064   5.5978969  27.3293457  63.5117536   6.1784316
  25.8657626  61.4578565  17.1011100  26.4102039  61.1169692  17.6915442
  25.9194562  62.3164027  17.2432385  25.9546746  61.5333824  17.2092973
  31.4931957  77.4860926  15.1912145  32.3130331  77.3423892  15.4528440
  31.2126035  78.1107125  15.7328583  31.5728701  77.5571278  15.3100085
  37.6496207  79.5728465  24.3263271  37.3349648  80.3428027  24.0632833
  37.3286140  79.0098721  23.7415498  37.5555126  79.6038733  24.2004621
  44.3260993  78.1096846  18.2720789  45.0714585  77.9206656  17.8584214
  43.9098297  78.6355083  17.7134645  44.3745967  78.1598991  18.1285362
  37.1340470  79.8014655  17.9948930  36.9423667  79.8169789  18.8448353
  37.9839066  79.9978329  17.9715584  37.2316192  79.8329006  18.1172224
  40.0444697  79.9970164  18.2020753  40.5017311  80.7294138  18.3293545
  40.1201026  79.5736629  18.9608008  40.1235667  80.0427402  18.3321829
  38.5098727  77.0417070  14.4706728  37.9937216  76.3497261  14.5958307
  37.9492656  77.7087847  14.4169327  38.3505240  77.0380328  14.4812794
  40.5790961  77.5810030  16.2999580  40.1922714  77.6059062  17.0813110
  40.0923898  77.0151709  15.8474097  40.4503469  77.5005781  16.3487484
  40.2448102  74.4677016  18.5909840  40.8741220  75.0037316  18.3130911
  40.4133965  74.3754374  19.4423406  40.3625897  74.5338378  18.6758369
  40.0462017  79.2548210  20.8636252  40.8735446  78.9833359  20.9194866
  40.0669863  80.0509052  21.2200070  40.1714867  79.3327964  20.9251435
  42.2701550  76.1843856  17.9453956  41.7742111  76.3807530  17.2545522
  43.0270612  76.5836524  17.7742757  42.3088374  76.2721590  17.8174092
  35.8205752  78.5857020  13.9163010  35.8604123  79.0866227  14.6297718
  34.9955416  78.6767414  13.6468933  35.7045278  78.6738837  13.9813549
  35.0503898  78.5926423  21.8493320  35.6756602  78.0488556  22.1222752
  34.5954378  78.1121341  21.2801110  35.0752159  78.4415904  21.8054914
  42.6194519  79.5626402  16.4088525  43.0449591  79.1098928  15.7972051
  42.0051512  79.0086473  16.6853312  42.5923164  79.4140378  16.3593550
  39.1801763  76.9804698  18.8533206  39.3129669  76.1835691  19.1814182
  39.5646916  77.5071101  19.4331482  39.2558092  76.9404615  18.9876709
  42.2534118  73.9035024  15.4514300  41.4480082  73.7932754  15.7682138
  42.1240854  74.0047480  14.5944165  42.1154251  73.9018694  15.3722340
  36.8390210  76.9763873  17.1011100  37.3834623  76.6355000  17.6915442
  36.8927146  77.8349334  17.2432385  36.9279329  77.0519132  17.2092973
  22.2224666  36.3995470   9.4508455  22.9291433  35.9047501   9.5795389
  22.4112601  36.8404551   8.7211113  22.3552572  36.3913820   9.3617500
  19.3616960  39.8223006   7.3422530  19.4500306  39.6349147   8.1900741
  19.7906673  39.1760436   6.9427377  19.4379063  39.6986014   7.4094282
  16.9287420  39.1054166   6.3240192  16.3658255  38.6926776   6.8479854
  17.6908444  39.0307072   6.7433336  16.9581869  39.0331567   6.4633193
  13.5362318  31.3327774   8.0557238  13.7082822  31.2233669   8.9042519
  14.0731676  31.9782180   7.8188430  13.6407322  31.4119776   8.1462334
  19.4737020  39.2532025  10.0066314  20.2577436  39.3662873  10.3722056
  19.2733614  38.4273162  10.2025000  19.5603045  39.1478745  10.0900700
  19.6307413  41.1642127   3.6532769  18.8322659  40.9241627   3.9106638
  20.0793424  41.2156520   4.3999817  19.5782024  41.1364519   3.8017694
  18.6908150  34.9102572  11.5452958  17.8981130  35.2246084  11.7305577
  18.8057077  35.1254041  10.7073742  18.5903560  34.9886409  11.4491292
  19.6191943  34.8122776   6.4838254  20.1930804  34.1750020   6.6386818
  19.5406746  34.8126859   5.6147912  19.6925177  34.7187888   6.3784665
  24.9412090  36.1831754   6.4923108  24.7050728  35.3519818   6.3735168
  25.5855319  36.1317361   7.0777952  25.0006761  36.0529442   6.5609001
  15.3981864  25.4735980  11.2603318  15.0835305  26.2435543  10.9972880
  15.0771796  24.9106236  10.6755545  15.3040783  25.5046249  11.1344668
  25.9648511  35.9676202   2.5551402  25.6594328  36.7004259   2.9164718
  25.2454727  35.5614132   2.2744188  25.8135853  36.0157935   2.5664539
  31.6650303  32.6069203   1.8819746  31.5974803  32.6265162   1.0122333
  31.6505966  33.4499530   2.1075417  31.6529060  32.7342938   1.7872223
  16.1031311  35.2152187   4.7026234  15.6043005  35.9267954   4.7811123
  16.9131536  35.5352853   4.6644397  16.1487418  35.3679035   4.7082803
  15.0298369  28.0733231   9.9988532  14.2198145  28.3791011   9.8878375
  15.5073056  28.7938813  10.1141116  14.9801848  28.2247832   9.9995603
  23.3159681  36.7763601   0.8404062  23.1774040  37.4744647   1.3452805
  22.5359679  36.6212257   0.4840244  23.1802908  36.8563768   0.8630336
  21.6537766  33.0759976   7.0926444  21.6485804  32.2039793   7.0968870
  22.3598760  33.2748145   6.6195900  21.7582770  32.9763851   7.0233479
  15.3808659  32.8036960   6.4640264  15.5252035  33.3838168   5.8283374
  15.7284308  33.1813257   7.1690119  15.4536121  32.9457664   6.4739259
  14.4536414  40.9939732   3.3301291  14.6025978  40.4342648   2.6774695
  15.2336416  41.0731734   3.7133810  14.5910508  40.9225298   3.2898240
  16.9789715  41.1654375   4.6085782  16.9033386  40.4963185   5.1636570
  16.9079574  41.8672163   5.1226448  16.9570322  41.1699282   4.7662630
  16.3681349  44.5722695   3.0663783  16.8577279  43.8733484   2.8839447
  15.7965581  44.2746565   3.6539840  16.3565879  44.4248918   3.1264823
  22.5648353  37.1384764  12.0190573  23.3783218  36.8669913  12.1795706
  22.4043319  36.8392304  11.2150769  22.6618301  37.0539690  11.9235979
  22.0059603  29.4307486   5.8969269  21.1936284  29.1233377   5.9782441
  22.4649537  28.9506487   6.4611981  21.9539987  29.3143979   5.9923863
  19.1013110  30.8367558  10.6797971  19.5712741  31.4609674  11.0665845
  19.1474990  30.1684533  11.2391186  19.1780986  30.8302238  10.8198042
  22.5769597  38.1991054   7.2913414  23.2149317  37.7051250   6.9575870
  21.9343688  38.1268455   6.7065641  22.5763823  38.1150063   7.1555769
  22.6323853  38.8910863   3.9318771  23.4216231  38.5399927   4.0520852
  22.8067451  39.7047251   3.6695404  22.7744135  38.9596720   3.9106639
  14.2452180  37.4450708   4.9416255  14.1372535  37.4552770   5.8078313
  14.4547961  38.2705489   4.7521209  14.2602291  37.5691783   5.0420346
  28.3816393  34.5269120   3.4015471  28.4399517  34.9755769   4.1475447
  27.7482861  34.9367933   2.9645551  28.2967688  34.6542855   3.4468019
  22.0215488  40.1472662  -0.1629783  21.8235176  40.6363477  -0.8573572
  21.4003199  40.3513904   0.4154350  21.9003052  40.2489201  -0.1806560
  23.9389290  33.7136815   5.3715465  24.6623489  33.2609341   5.1926485
  23.6739252  33.9941480   4.5887793  24.0070563  33.6887783   5.2294181
  15.7521021  34.0525276   8.9523352  14.9016652  34.1896990   9.0880997
  15.9149149  33.3189054   9.3971053  15.6504885  33.9639377   9.0378951
  26.3724604  32.6763225   3.8746015  26.9642444  33.3160476   3.9064213
  26.8083598  31.9786262   4.1638082  26.5243035  32.6681576   3.9226848
  18.2017994  37.0980598   4.5003909  17.6943085  37.6516445   4.9444539
  17.9044640  37.1588888   3.6822683  18.0822879  37.1886909   4.4452366
  17.4460479  42.0305156   1.4060916  17.2226133  41.2723985   1.7744942
  16.9570322  42.0603177   0.6841355  17.3403928  41.9227381   1.3537657
  19.5031468  36.1986888   8.9572849  19.4627323  35.5536565   8.3718005
  20.3154786  36.1423506   9.2698261  19.6174622  36.0945855   8.9169799
  19.0678247  27.7508069   7.9524863  19.6249677  27.5221879   7.3203328
  18.7439312  28.5113735   7.6760075  19.1024657  27.8291906   7.8181360
  16.7861365  30.8375723   8.9176870  17.5372692  31.1527400   9.2316424
  16.9783941  30.6354894   8.0910791  16.9252779  30.8543105   8.8420265
  23.4239326  34.3950478   2.5014001  23.8494397  33.8724900   1.9484426
  23.0596245  34.9931316   1.9802624  23.4325928  34.4060705   2.3423011
  13.0593405  42.6914696   1.2611346  13.3739964  43.5051084   1.2689128
  13.4686819  42.3064914   1.9293505  13.1661503  42.7543398   1.3615438
  22.0994910  39.7186056  11.0107230  22.2091875  38.9294617  11.3663978
  22.4285806  39.6291992  10.2081568  22.1647315  39.5891909  10.9449621
  20.6491871  37.9002677   5.5942851  20.1012817  37.2760560   5.3262916
  21.1104900  38.0896949   4.8786930  20.6359081  37.8361727   5.4493282
  20.2150198  38.9053749   2.1252192  21.0348572  38.7616715   2.3868487
  19.9344275  39.5299948   2.6668630  20.2946941  38.9764101   2.2440132
  36.6863848  46.5618601  -4.9104932  36.6557852  47.4163238  -4.7386662
  37.2845197  46.2613894  -4.3518788  36.7701006  46.6435098  -4.8030129
  29.8863533  45.6494252  -0.1552001  29.0301428  45.8102750  -0.1042884
  29.9331187  44.7786316  -0.1346940  29.7662644  45.5445054  -0.1445935
  33.1957249  51.9180778   9.4508455  33.9024017  51.4232808   9.5795389
  33.3845185  52.3589859   8.7211113  33.3285155  51.9099128   9.3617500
  32.7315354  47.7086296   2.4879650  33.2771314  48.3871383   2.5473620
  32.6732230  47.5673757   1.6281232  32.8031268  47.7878298   2.3691711
  25.8489429  55.1975362  -2.1251997  25.9499792  54.3875716  -1.8154869
  25.2531174  55.1032309  -2.7552319  25.7761967  55.0640390  -2.1725759
  25.6890168  60.1152951  -0.7237141  26.3327624  60.5566115  -0.3340983
  26.0146424  59.3106378  -0.8106882  25.8321997  60.0618146  -0.6791664
  21.3444561  43.3881379   0.3984644  20.7249592  42.7974027   0.2294659
  21.2428424  43.9792815  -0.2351032  21.2382236  43.3885462   0.2789634
  28.4412456  45.1280921  -5.2682893  29.1392621  45.3069049  -4.7761429
  28.7564789  44.6051260  -5.8912503  28.5907793  45.0774693  -5.2880882
  21.0713694  46.9333661   2.6428213  20.9472390  47.5196107   3.2778032
  21.7231978  46.4393857   2.9440488  21.1487343  46.9472465   2.7814143
  28.6300392  51.5151366  -5.2803101  29.0694027  50.9068467  -4.8348328
  28.4805054  51.1358739  -6.0517636  28.6721857  51.3689837  -5.3283934
  26.0972035  50.1095378   1.9215724  26.7421037  49.6167821   1.6026673
  26.3373812  50.2520165   2.7481803  26.2282620  50.0572820   1.9965258
  28.6358126  52.9550284   1.5722617  28.9181369  52.1601690   1.3509373
  29.3644286  53.4330871   1.5927678  28.7847690  52.9084881   1.5425632
  26.6139320  40.4973318  -1.1861618  26.2842650  40.9484461  -1.8557919
  25.9384322  40.4189481  -0.6388612  26.4649756  40.5524453  -1.2038395
  33.8215728  36.4858841  -2.9412007  33.5069169  37.1762319  -2.5091585
  33.3042669  36.4303623  -3.6426507  33.6980198  36.5793729  -2.9815058
  38.6176214  52.0609646  -1.4541552  37.7873917  52.2720290  -1.2908136
  38.5685467  51.2346701  -1.7299269  38.4882950  51.9699252  -1.4704187
  26.6785952  54.8913500   1.3806357  26.1612893  54.5320915   0.7767665
  27.3760343  54.3675675   1.3912423  26.7051533  54.7611188   1.2936616
  30.3349544  55.3408314   7.3422530  30.4232890  55.1534455   8.1900741
  30.7639256  54.6945744   6.9427377  30.4111646  55.2171322   7.4094282
  27.9020004  54.6239474   6.3240192  27.3390838  54.2112084   6.8479854
  28.6641027  54.5492380   6.7433336  27.9314452  54.5516875   6.4633193
  23.4615995  56.6137495  -1.0723177  24.1636574  56.0989484  -1.0150421
  23.3813478  56.9411647  -0.2676302  23.5539755  56.5851722  -0.9450385
  38.1130173  44.7080047   2.3408869  37.2758594  44.7782234   2.5756464
  38.0818403  44.7104542   1.4683171  37.9848455  44.7190274   2.2468417
  24.5094902  46.8513082   8.0557238  24.6815405  46.7418977   8.9042519
  25.0464259  47.4967488   7.8188430  24.6139906  46.9305084   8.1462334
  22.7866770  52.8043847  -1.5637569  23.6255670  53.0366780  -1.5163808
  22.8178540  51.9348159  -1.6330534  22.9148488  52.7100794  -1.5672925
  23.4119473  53.2244723   2.7375736  23.9517698  53.0815854   3.4079109
  22.7289420  53.6241473   3.1059762  23.3911627  53.2624394   2.8910158
  32.8360358  48.9035723  -2.0679239  33.5917873  49.3367238  -2.0290331
  32.9422683  48.2540493  -1.4944603  32.9630529  48.8713207  -1.9781214
  35.8740529  52.7309001  -1.3176837  35.4375761  52.7345743  -0.5617865
  35.5403445  53.4114499  -1.7497259  35.7603149  52.8321456  -1.2696004
  30.4469603  54.7717333  10.0066314  31.2310020  54.8848181  10.3722056
  30.2466198  53.9458470  10.2025000  30.5335628  54.6664053  10.0900700
  18.8156619  49.4445013   2.8910158  18.5495034  48.6284130   3.0501148
  18.8295183  49.4898169   2.0205673  18.7781341  49.3301918   2.7863640
  35.7938012  39.7722828   0.9252591  36.4363921  39.8420933   1.5114507
  36.0461033  39.1052051   0.4232133  35.9260144  39.6849177   0.9379871
  23.5655225  42.9823392   5.5377165  22.8727022  42.5120371   5.7837897
  24.1815552  42.7561696   6.1118873  23.5539755  42.8790524   5.6586318
  30.6039996  56.6827435   3.6532769  29.8055242  56.4426935   3.9106638
  31.0526008  56.7341828   4.3999817  30.5514608  56.6549827   3.8017694
  39.0084876  49.4489920  -2.4257199  39.6701310  48.8880589  -2.5261291
  38.3676288  48.9541951  -2.1004508  39.0113743  49.2926329  -2.3924859
  19.2250032  50.2303793   0.1721902  19.0425605  50.2050679  -0.6805806
  19.9599701  50.7002731   0.2110811  19.3064096  50.2965155   0.0519820
  35.2949706  50.4655303  -2.6845210  35.5305296  50.6100502  -3.5118360
  35.4439270  51.2297711  -2.2913697  35.3515510  50.5994357  -2.7481607
  22.2895784  46.9488796   6.6804011  23.0135756  46.9341826   7.1668905
  22.3911920  47.6584151   6.1825979  22.4113993  47.0513499   6.6782797
  29.6640733  50.4287880  11.5452958  28.8713714  50.7431392  11.7305577
  29.7789660  50.6439349  10.7073742  29.5636144  50.5071717  11.4491292
  32.3372052  47.1521871  -4.1652027  32.4318907  47.8911166  -3.7112401
  31.7130896  46.7239347  -3.7317462  32.2581082  47.1983192  -4.0343879
  30.5924526  50.3308084   6.4838254  31.1663388  49.6935328   6.6386818
  30.5139330  50.3312166   5.6147912  30.6657761  50.2373195   6.3784665
  19.1920943  47.1097294   0.3220969  19.7694445  46.9733744   0.9613214
  18.4935004  46.6533078   0.5766553  19.1741964  47.0219560   0.4543258
  25.9488245  48.7631349  -1.4640548  25.6907489  47.9303084  -1.4909249
  26.0036728  48.9888962  -2.3048048  25.9188023  48.6729120  -1.5920411
  31.0289295  40.8659800  -1.3636456  30.3245622  40.3768985  -1.2052536
  31.0774269  40.8782274  -2.2348011  30.9319346  40.7949448  -1.4697116
  24.9222957  46.3169112  -0.9775654  24.3472548  46.4761280  -0.3411693
  24.5458633  45.6804521  -1.4407203  24.7825769  46.2466925  -0.9521095
  28.5896246  44.7892461   3.8816725  28.2010678  44.3646679   3.2268916
  27.9250944  45.0374611   4.3893752  28.4343173  44.7631182   3.8604593
  38.2319515  44.5467466  -3.3435445  37.9756079  43.7347407  -3.5337562
  39.0748829  44.5545033  -3.5705258  38.3185540  44.4279463  -3.4050628
  32.4122607  38.4867090   1.3940709  32.7933119  37.8045261   1.7808583
  31.6085891  38.1976692   1.2116374  32.3499069  38.3434138   1.4244765
  35.9144674  51.7017062   6.4923108  35.6783311  50.8705126   6.3735168
  36.5587903  51.6502669   7.0777952  35.9739345  51.5714750   6.5609001
  25.5643092  52.4912583  -2.7934156  26.2017039  52.2524330  -2.2482363
  25.9898164  52.6949742  -3.5280995  25.7219258  52.4863593  -2.8216999
  20.2555734  54.7300919   1.0900148  20.2959880  55.0015771   0.2619927
  20.8150258  55.2542828   1.5057936  20.3439080  54.8476675   1.0292036
  26.3714447  40.9921288  11.2603318  26.0567889  41.7620851  10.9972880
  26.0504380  40.4291544  10.6755545  26.2773367  41.0231557  11.1344668
  36.9381095  51.4861510   2.5551402  36.6326912  52.2189567   2.9164718
  36.2187310  51.0799440   2.2744188  36.7868437  51.5343243   2.5664539
  42.6382887  48.1254511   1.8819746  42.5707387  48.1450470   1.0122333
  42.6238549  48.9684838   2.1075417  42.6261643  48.2528246   1.7872223
  33.0479233  39.5289669   5.2060836  33.7932825  39.3399479   4.7924261
  32.6316538  40.0547907   4.6474692  33.0964207  39.5791814   5.0625409
  40.4241504  46.8998897   0.1566341  40.9749426  46.2666966   0.3963433
  40.4085619  47.4314290   0.8481845  40.5026700  46.8847845   0.2945199
  27.0763895  50.7337495   4.7026234  26.5775589  51.4453262   4.7811123
  27.8864119  51.0538161   4.6644397  27.1220002  50.8864343   4.7082803
  23.3392012  49.9960448  -1.0511045  23.0505261  49.3697919  -0.5165318
  24.2075361  49.9380735  -0.9846364  23.4252264  49.8947992  -0.9620090
  34.1269910  45.1395231  -0.7329063  33.7834676  44.4185566  -0.3821813
  34.2262953  44.9309082  -1.5750705  34.0911953  45.0019434  -0.8057383
  26.0030953  43.5918539   9.9988532  25.1930729  43.8976319   9.8878375
  26.4805640  44.3124121  10.1141116  25.9534432  43.7433140   9.9995603
  24.8622512  52.8064260   0.2471436  24.3403266  52.9464552   0.9323300
  25.2496533  52.0474924   0.4373553  24.8426213  52.7149784   0.3772512
  26.2888838  49.8368279  -4.3547073  26.0931621  50.4443014  -4.9486770
  26.5123184  49.1436223  -4.8355400  26.2923479  49.8245804  -4.5130993
  24.6867368  46.7223017  -4.2366205  25.4090020  46.8864175  -4.6962399
  24.2075361  47.4432682  -4.3426865  24.7231099  46.8521246  -4.3200591
  32.6460876  43.0586816   1.1430480  31.8071976  43.0848095   0.9068743
  32.7165243  43.7057551   1.7235826  32.5329269  43.1582942   1.1939597
  22.3374985  49.1281089   4.8687935  22.8496082  49.4065343   4.2196695
  22.0511327  49.8670383   5.2350748  22.3709848  49.2783443   4.8277813
  31.0930154  39.9572193  -4.1241904  31.7956507  39.7579941  -4.6021946
  30.8274343  39.1848135  -3.8173061  31.1576786  39.8135159  -4.1496463
  36.5218400  48.2654802  -1.5708278  36.4352374  48.4210229  -0.7173500
  36.0668879  48.9092878  -1.9448873  36.4421656  48.3830558  -1.5001172
  25.8558710  41.2207478   4.9288976  25.6641907  41.2362612   5.7788400
  26.7057306  41.4171152   4.9055631  25.9534432  41.2521829   5.0512271
  20.2405623  43.7498459   2.9072793  20.0991115  42.8982400   3.0317301
  20.5246187  43.7927120   2.0834999  20.2613469  43.6298209   2.8040417
  30.3944216  45.5865550  -2.9482719  30.1478930  45.5061300  -2.1145930
  30.7229339  44.8019017  -3.1420191  30.4065459  45.4591815  -2.8535196
  34.2892264  52.2948909   0.8404062  34.1506624  52.9929955   1.3452805
  33.5092262  52.1397565   0.4840244  34.1535491  52.3749076   0.8630336
  32.6270350  48.5945284   7.0926444  32.6218388  47.7225101   7.0968870
  33.3331343  48.7933453   6.6195900  32.7315354  48.4949158   7.0233479
  26.3541243  48.3222268   6.4640264  26.4984619  48.9023476   5.8283374
  26.7016891  48.6998565   7.1690119  26.4268704  48.4642972   6.4739259
  28.5261160  47.5212437   4.2465396  27.7784474  47.7143451   3.8413674
  28.6802685  46.6957656   4.0089517  28.4383588  47.4277548   4.1510802
  25.4268998  56.5125040   3.3301291  25.5758562  55.9527956   2.6774695
  26.2069000  56.5917042   3.7133810  25.5643091  56.4410605   3.2898240
  27.9522298  56.6839683   4.6085782  27.8765970  56.0148493   5.1636570
  27.8812158  57.3857471   5.1226448  27.9302905  56.6884590   4.7662630
  28.7662937  41.4162987   5.1360799  29.2235551  42.1486962   5.2633592
  28.8419266  40.9929453   5.8948055  28.8453907  41.4620225   5.2661876
  21.0095928  41.6628807   6.2250243  20.4738118  41.0509165   6.5411010
  21.0713693  42.2376943   6.8783910  20.9391561  41.6575735   6.3685670
  33.2390263  34.5952862  -0.9945358  33.3573831  35.0529326  -1.7278055
  33.0652439  33.7898124  -1.2809140  33.2309434  34.5446635  -1.1444424
  26.6445315  43.4065091   1.9802624  25.8541390  43.2256551   2.3019959
  27.0405938  42.6292044   1.9632918  26.5862191  43.2652552   2.0255172
  32.0289001  51.0407521  -0.2937931  31.3534003  50.8092754   0.2075456
  32.0381378  50.4328704  -0.9195826  31.9307506  50.9166447  -0.3121778
  29.1583145  45.8825350   6.4626122  29.0942287  46.7435307   6.3346259
  29.2980333  45.5657344   5.6621674  29.1698615  45.9625517   6.3254335
  27.8402239  48.5757490   0.6042325  27.4164488  48.7761989  -0.1318656
  27.6647094  47.7286338   0.7166625  27.7513120  48.4806271   0.5116015
  27.3413933  60.0908003   3.0663783  27.8309863  59.3918792   2.8839447
  26.7698165  59.7931873   3.6539840  27.3298463  59.9434226   3.1264823
  23.1284684  49.0709541  -3.9629702  23.2849303  49.0056344  -3.1073710
  23.4685277  49.8458094  -4.1751023  23.2017919  49.1758739  -3.8675108
  29.6663829  48.4467425  -5.0936339  30.2079374  47.9437806  -4.6297718
  29.9810388  48.3932619  -5.9046854  29.7928226  48.3646846  -5.1452527
  33.5380936  52.6570072  12.0190573  34.3515802  52.3855221  12.1795706
  33.3775903  52.3577612  11.2150769  33.6350885  52.5724998  11.9235979
  30.8153098  43.3403729   4.9585962  31.0295068  42.7014643   4.4049316
  30.1986997  43.7849553   4.5293823  30.7558428  43.3113873   4.8136393
  19.7018946  46.2544492  -3.6468935  20.0817911  46.6729036  -4.3108668
  19.1274311  46.8357947  -3.3400092  19.6730271  46.4022350  -3.6992194
  32.9792186  44.9492794   5.8969269  32.1668868  44.6418685   5.9782441
  33.4382121  44.4691794   6.4611981  32.9272571  44.8329287   5.9923863
  30.2067827  36.4503665  -0.0526696  29.3361385  36.4242386  -0.0993386
  30.4608168  36.2780857  -0.8700850  30.1161387  36.4213809  -0.1806559
  30.0745694  46.3552866  10.6797971  30.5445325  46.9794982  11.0665845
  30.1207574  45.6869841  11.2391186  30.1513570  46.3487546  10.8198042
  27.2316967  38.4609893   1.4046775  26.7155456  37.7690085   1.5298354
  26.6710896  39.1280670   1.3509373  27.0723481  38.4573151   1.4152841
  29.3009201  39.0002853   3.2339627  28.9140954  39.0251885   4.0153157
  28.8142138  38.4344532   2.7814144  29.1721710  38.9198604   3.2827531
  33.5502180  53.7176362   7.2913414  34.1881901  53.2236558   6.9575870
  32.9076272  53.6453763   6.7065641  33.5496407  53.6335371   7.1555769
  35.2759180  45.5665508   1.8579329  34.8486788  45.4791857   1.1027429
  34.6385233  45.6743284   2.4434174  35.1188788  45.5698168   1.8324771
  28.9666343  35.8869839   5.5249887  29.5959461  36.4230139   5.2470958
  29.1352205  35.7947198   6.3763453  29.0844137  35.9531201   5.6098415
  28.7680257  40.6741033   7.7976299  29.5953687  40.4026182   7.8534913
  28.7888104  41.4701875   8.1540117  28.8933108  40.7520788   7.8591482
  33.6056437  54.4096171   3.9318771  34.3948815  54.0585235   4.0520852
  33.7800035  55.2232559   3.6695404  33.7476719  54.4782028   3.9106639
  23.3449747  47.8204896   0.9846559  22.5037754  47.7208770   1.1925453
  23.5539755  48.5900377   1.3360880  23.2514440  47.9196940   1.0673874
  20.8225314  45.4424433  -1.1868690  20.4282012  45.5167445  -1.9618580
  20.2665431  45.8282380  -0.6360328  20.6828127  45.5106208  -1.2201030
  32.4590261  38.4205727  -1.5064811  32.6639854  38.3528035  -0.6607814
  32.1316685  39.2264548  -1.5743634  32.4405509  38.5291668  -1.3905156
  27.1566412  45.7486295   0.2344157  26.8529550  45.1942284   0.8354565
  26.4545833  45.9278505  -0.2527809  27.0082622  45.6931078   0.2513863
  25.2184763  52.9636016   4.9416255  25.1105118  52.9738078   5.8078313
  25.4280545  53.7890797   4.7521209  25.2334874  53.0877091   5.0420346
  35.7123949  38.9737492  -2.0262046  35.0998262  39.4607894  -1.6408314
  35.8088124  38.2980982  -1.4824394  35.6361846  38.9455800  -1.8883187
  23.2358555  50.2148659   2.4038192  22.6446488  50.8558157   2.3741207
  23.9979579  50.6386276   2.3769492  23.2606816  50.3724497   2.3953340
  23.6319178  41.3750656   3.0706210  24.0920660  41.4489586   3.8081334
  23.6775285  42.1731910   2.7206031  23.7069733  41.5044803   3.1278966
  25.2802528  42.0417351   7.6378237  24.8888093  41.3950698   8.0734015
  25.4488390  42.6328787   8.2572492  25.2473438  42.0331619   7.7940943
  39.3548977  50.0454428   3.4015471  39.4132100  50.4941077   4.1475447
  38.7215444  50.4553241   2.9645551  39.2700272  50.1728163   3.4468019
  32.9948071  55.6657970  -0.1629783  32.7967760  56.1548785  -0.8573572
  32.3735782  55.8699212   0.4154350  32.8735636  55.7674508  -0.1806560
  27.0556050  47.4342867  -5.8219539  27.7998095  47.8217143  -5.5836589
  27.2016746  46.5900292  -5.6579051  27.1866635  47.3673340  -5.7625569
  28.9735625  39.2293126  -0.7887678  28.1271670  39.4015934  -0.9146328
  28.9706758  38.4242470  -0.4521849  28.8482775  39.1354155  -0.7576551
  30.0433926  43.0068340   0.0774380  29.5693880  42.4810102   0.5879691
  30.4152061  42.4597813  -0.4910758  30.0283815  42.8484337   0.0689528
  20.4206956  45.0039847   5.4457926  21.2832569  44.9035556   5.3595256
  20.0898739  44.4234556   4.8843498  20.4992152  44.9031474   5.3503332
  36.3070656  48.0670716   1.4881161  36.0668879  47.2277131   1.4923587
  36.7862663  48.1470883   2.2121934  36.3422840  47.9552116   1.5955963
  38.3075843  44.8472173  -0.5589580  38.0685613  44.8068007  -1.3968795
  38.4709744  45.6943325  -0.4323859  38.2966147  44.9664258  -0.6636098
  34.9121873  49.2322122   5.3715465  35.6356072  48.7794649   5.1926485
  34.6471836  49.5126788   4.5887793  34.9803147  49.2073091   5.2294181
  23.7808742  43.8282296   2.1068344  23.1561812  43.8400688   1.4994297
  23.4454337  44.3042471   2.7559585  23.6394234  43.9000813   2.1124913
  20.4934417  51.8882756   3.5472109  19.9634342  51.1975195   3.5967083
  20.7659511  51.8792941   2.7184817  20.4559140  51.7849888   3.4319525
  30.6940663  49.3306001   3.5210480  30.0797656  48.7864051   3.8159116
  31.2107948  48.8170237   3.0416296  30.6796325  49.1742410   3.4934709
  29.9336960  50.4010271   1.2554779  29.5064568  49.7759989   0.8220214
  29.9261904  50.1185193   2.0813786  29.8696101  50.2663051   1.3134606
  23.0499487  45.4375444   4.3243213  23.2092974  44.6818768   4.7294935
  22.8692381  45.9866383   4.9783951  23.0464846  45.4069258   4.4805919
  30.9919790  37.6036679   4.8794002  30.4960351  37.8000354   4.1885569
  31.7488852  38.0029348   4.7082804  31.0306615  37.6914413   4.7514139
  28.2622670  41.2779025   1.4697313  28.2865157  40.7439138   0.7810093
  28.5134143  40.7696334   2.1322903  28.3032588  41.1239929   1.4661958
  24.5423992  40.0049844   0.8503057  24.5822364  40.5059050   1.5637765
  23.7173657  40.0960237   0.5808980  24.4263518  40.0931660   0.9153595
  26.7253605  49.5710584   8.9523352  25.8749235  49.7082298   9.0880997
  26.8881733  48.8374362   9.3971053  26.6237468  49.4824685   9.0378951
  25.9638355  46.5210353   3.1476956  25.1330285  46.6884171   2.9412204
  25.9089872  46.1446304   3.9325841  25.8327770  46.4900085   3.2325484
  23.7722139  40.0119246   8.7833367  24.3974842  39.4681379   9.0562799
  23.3172619  39.5314164   8.2141157  23.7970399  39.8608728   8.7394961
  37.3457187  48.1948533   3.8746015  37.9375028  48.8345784   3.9064213
  37.7816182  47.4971570   4.1638082  37.4975619  48.1866884   3.9226848
  29.1750577  52.6165906   4.5003909  28.6675668  53.1701753   4.9444539
  28.8777223  52.6774196   3.6822683  29.0555462  52.7072217   4.4452366
  31.3412759  40.9819225   3.3428572  31.7667831  40.5291752   2.7312098
  30.7269752  40.4279296   3.6193359  31.3141405  40.8333202   3.2933597
  34.3706329  45.4093752  -3.8250843  33.6997519  45.9523454  -3.9537777
  35.0646079  45.8788607  -4.0669148  34.3735196  45.5592023  -3.8795315
  28.4193062  57.5490464   1.4060916  28.1958717  56.7909293   1.7744942
  27.9302906  57.5788485   0.6841355  28.3136511  57.4412688   1.3537657
  34.5334456  41.8649636  -0.9160469  34.8862066  41.4379358  -0.2414671
  33.6749258  41.7800479  -0.7859393  34.4583901  41.7894376  -0.7965459
  23.2318141  44.4957155  -2.8577623  22.5130130  44.9121288  -2.5904759
  23.6030503  45.0611394  -3.4085985  23.1810073  44.6406437  -2.8994816
  32.5317722  45.1285004   3.0324373  32.5115649  44.9468299   3.8859152
  32.5796923  45.9997023   3.0083957  32.5352363  45.2301542   3.1547668
  30.4764052  51.7172196   8.9572849  30.4359907  51.0721873   8.3718005
  31.2887370  51.6608814   9.2698261  30.5907205  51.6131163   8.9169799
  27.0671519  57.7690922  -1.1402000  26.6531918  57.1065052  -1.5298158
  27.7518894  57.9168781  -1.6606306  27.1069891  57.6931580  -1.2745503
  30.4336814  56.9281007  -0.3878383  30.0353097  57.0383278  -1.1557563
  29.8188033  57.1363074   0.1948177  30.2835703  56.9754575  -0.4147084
  35.9658516  36.9868047   0.0123843  35.4589381  36.2797187  -0.0554979
  36.7625950  36.6561236   0.1424920  36.0085755  36.8341199   0.0222838
  31.8822532  43.4934660  -4.0902493  31.6536225  43.5167361  -4.9324135
  32.1420608  42.6692127  -3.9707483  31.8868720  43.3750740  -4.1977295
  26.1641761  45.3469133   5.5122607  25.6520664  44.7390316   5.8707638
  25.9921257  46.0625725   5.9796583  26.0631398  45.3632432   5.6338831
  21.0107475  43.7906708   8.1624969  20.8410066  44.4508083   7.6173175
  20.5673425  44.0013269   8.8837458  20.9206809  43.9192690   8.1886598
  24.9367295  42.0311206  -2.7948297  25.4124661  42.3928286  -3.4298116
  24.4355894  42.6867674  -2.5148155  24.9332654  42.1805395  -2.8471557
  30.0410831  43.2693377   7.9524863  30.5982261  43.0407187   7.3203328
  29.7171896  44.0299043   7.6760075  30.0757241  43.3477214   7.8181360
  17.9109540  46.6953574   3.4213459  17.3636259  46.0254219   3.5394327
  18.7001918  46.3283421   3.4856926  17.9461723  46.5418560   3.4482159
  27.7593948  46.3561031   8.9176870  28.5105275  46.6712707   9.2316424
  27.9516525  46.1540202   8.0910791  27.8985362  46.3728412   8.8420265
  34.6079238  42.4834597  -3.8399335  34.6073465  42.3283254  -2.9815058
  34.4035418  43.3297584  -3.8957949  34.5779016  42.5855218  -3.7211395
  16.6696509  45.9074381   0.5759482  16.4918270  45.4550990   1.3014397
  16.3815531  46.7100543   0.7597959  16.6009462  45.9596939   0.7102985
  32.3320090  47.1632099  -0.1863128  32.8273756  46.4455094  -0.2259108
  31.5219866  46.8602896  -0.3008641  32.2863984  47.0129745  -0.2089402
  34.3971909  49.9135786   2.5014001  34.8226981  49.3910208   1.9484426
  34.0328829  50.5116624   1.9802624  34.4058512  49.9246013   2.3423011
  24.0325989  58.2100004   1.2611346  24.3472548  59.0236392   1.2689128
  24.4419402  57.8250222   1.9293505  24.1394087  58.2728706   1.3615438
  30.9850509  53.6270050  -1.1684842  31.4561687  54.3410313  -0.9994857
  31.3210687  53.0268801  -0.6324972  31.1045624  53.6441515  -1.0652466
  33.0727493  55.2371364  11.0107230  33.1824459  54.4479924  11.3663978
  33.4018390  55.1477300  10.2081568  33.1379899  55.1077217  10.9449621
  27.9020004  38.3997521   5.7873253  28.0347909  37.6028514   6.1154229
  28.2865156  38.9263924   6.3671529  27.9776332  38.3597438   5.9216756
  31.6224455  53.4187985   5.5942851  31.0745401  52.7945868   5.3262916
  32.0837484  53.6082257   4.8786930  31.6091664  53.3547035   5.4493282
  30.9752359  35.3227847   2.3854346  30.1698322  35.2125577   2.7022185
  30.8459094  35.4240303   1.5284212  30.8372492  35.3211517   2.3062387
  34.4318319  41.4873339   2.9794043  33.8481308  41.9882546   2.5671611
  34.7522613  40.9802895   2.3458367  34.3931495  41.4865174   2.8252550
  25.5608450  38.3956696   4.0351147  26.1052863  38.0547823   4.6255489
  25.6145386  39.2542158   4.1772431  25.6497570  38.4711955   4.1433020
  21.3739009  52.1573112   0.9089955  21.9783867  52.1168946   0.2803775
  21.1666322  53.0044264   0.9394011  21.4327906  52.2761115   0.8206071
  31.1882781  54.4239057   2.1252192  32.0081155  54.2802023   2.3868487
  30.9076859  55.0485256   2.6668630  31.2679525  54.4949409   2.2440132
  32.0446277  62.4518969   2.6428213  31.9204974  63.0381414   3.2778032
  32.6964562  61.9579165   2.9440488  32.1219926  62.4657773   2.7814143
  35.4827485  62.3698390   8.0557238  35.6547989  62.2604285   8.9042519
  36.0196843  63.0152796   7.8188430  35.5872489  62.4490392   8.1462334
  41.4202187  70.2902641  10.0066314  42.2042603  70.4033489  10.3722056
  41.2198781  69.4643778  10.2025000  41.5068212  70.1849361  10.0900700
  34.5387808  58.5008700   5.5377165  33.8459605  58.0305679   5.7837897
  35.1548136  58.2747004   6.1118873  34.5272338  58.3975831   5.6586318
  33.2628367  62.4674104   6.6804011  33.9868340  62.4527134   7.1668905
  33.3644504  63.1769459   6.1825979  33.3846577  62.5698807   6.6782797
  39.5628829  60.3077769   3.8816725  39.1743262  59.8831987   3.2268916
  38.8983527  60.5559918   4.3893752  39.4075757  60.2816490   3.8604593
  43.3855191  54.0052398   1.3940709  43.7665702  53.3230569   1.7808583
  42.5818475  53.7162000   1.2116374  43.3231652  53.8619446   1.4244765
  37.3447031  56.5106596  11.2603318  37.0300472  57.2806159  10.9972880
  37.0236964  55.9476852  10.6755545  37.2505950  56.5416865  11.1344668
  44.0211817  55.0474977   5.2060836  44.7665409  54.8584787   4.7924261
  43.6049121  55.5733215   4.6474692  44.0696791  55.0977122   5.0625409
  36.9763536  59.1103847   9.9988532  36.1663312  59.4161627   9.8878375
  37.4538223  59.8309429  10.1141116  36.9267015  59.2618448   9.9995603
  33.3107568  64.6466397   4.8687935  33.8228665  64.9250651   4.2196695
  33.0243911  65.3855691   5.2350748  33.3442431  64.7968751   4.8277813
  36.8291294  56.7392786   4.9288976  36.6374491  56.7547920   5.7788400
  37.6789890  56.9356460   4.9055631  36.9267016  56.7707137   5.0512271
  31.2138207  59.2683767   2.9072793  31.0723699  58.4167708   3.0317301
  31.4978770  59.3112428   2.0834999  31.2346053  59.1483517   2.8040417
  37.3273826  63.8407576   6.4640264  37.4717202  64.4208784   5.8283374
  37.6749475  64.2183873   7.1690119  37.4001288  63.9828280   6.4739259
  39.7395521  56.9348295   5.1360799  40.1968135  57.6672270   5.2633592
  39.8151850  56.5114760   5.8948055  39.8186491  56.9805533   5.2661876
  31.9828512  57.1814115   6.2250243  31.4470701  56.5694473   6.5411010
  32.0446277  57.7562251   6.8783910  31.9124145  57.1761043   6.3685670
  37.6177899  58.9250399   1.9802624  36.8273973  58.7441859   2.3019959
  38.0138522  58.1477352   1.9632918  37.5594775  58.7837860   2.0255172
  40.1315729  61.4010658   6.4626122  40.0674870  62.2620615   6.3346259
  40.2712917  61.0842651   5.6621674  40.1431199  61.4810825   6.3254335
  44.5113520  68.1755380  12.0190573  45.3248385  67.9040529  12.1795706
  44.3508486  67.8762920  11.2150769  44.6083468  68.0910306  11.9235979
  41.7885682  58.8589037   4.9585962  42.0027651  58.2199951   4.4049316
  41.1719581  59.3034861   4.5293823  41.7291011  58.8299181   4.8136393
  43.9524770  60.4678102   5.8969269  43.1401452  60.1603993   5.9782441
  44.4114704  59.9877102   6.4611981  43.9005155  60.3514595   5.9923863
  41.0478277  61.8738174  10.6797971  41.5177909  62.4980290  11.0665845
  41.0940158  61.2055149  11.2391186  41.1246153  61.8672854  10.8198042
  38.2049551  53.9795201   1.4046775  37.6888040  53.2875393   1.5298354
  37.6443480  54.6465978   1.3509373  38.0456064  53.9758459   1.4152841
  40.2741784  54.5188161   3.2339627  39.8873538  54.5437193   4.0153157
  39.7874722  53.9529840   2.7814144  40.1454293  54.4383912   3.2827531
  39.9398926  51.4055147   5.5249887  40.5692044  51.9415447   5.2470958
  40.1084789  51.3132506   6.3763453  40.0576721  51.4716509   5.6098415
  39.7412841  56.1926341   7.7976299  40.5686270  55.9211490   7.8534913
  39.7620687  56.9887183   8.1540117  39.8665691  56.2706096   7.8591482
  34.6051762  56.8935964   3.0706210  35.0653243  56.9674894   3.8081334
  34.6507868  57.6917218   2.7206031  34.6802317  57.0230111   3.1278966
  36.2535111  57.5602659   7.6378237  35.8620676  56.9136006   8.0734015
  36.4220974  58.1514094   8.2572492  36.2206022  57.5516927   7.7940943
  31.3939539  60.5225155   5.4457926  32.2565152  60.4220864   5.3595256
  31.0631322  59.9419864   4.8843498  31.4724736  60.4216782   5.3503332
  34.7541325  59.3467604   2.1068344  34.1294395  59.3585996   1.4994297
  34.4186920  59.8227779   2.7559585  34.6126817  59.4186121   2.1124913
  34.0232071  60.9560752   4.3243213  34.1825557  60.2004076   4.7294935
  33.8424964  61.5051691   4.9783951  34.0197430  60.9254566   4.4805919
  41.9652374  53.1221987   4.8794002  41.4692935  53.3185662   4.1885569
  42.7221436  53.5214656   4.7082804  42.0039198  53.2099721   4.7514139
  35.5156575  55.5235151   0.8503057  35.5554947  56.0244358   1.5637765
  34.6906240  55.6145545   0.5808980  35.3996101  55.6116968   0.9153595
  37.6986188  65.0895891   8.9523352  36.8481819  65.2267606   9.0880997
  37.8614316  64.3559670   9.3971053  37.5970052  65.0009993   9.0378951
  34.7454722  55.5304554   8.7833367  35.3707426  54.9866687   9.0562799
  34.2905202  55.0499472   8.2141157  34.7702983  55.3794036   8.7394961
  42.3145343  56.5004533   3.3428572  42.7400414  56.0477060   2.7312098
  41.7002336  55.9464604   3.6193359  42.2873988  56.3518509   3.2933597
  41.4496635  67.2357504   8.9572849  41.4092490  66.5907181   8.3718005
  42.2619954  67.1794121   9.2698261  41.5639789  67.1316471   8.9169799
  37.1374344  60.8654441   5.5122607  36.6253247  60.2575624   5.8707638
  36.9653840  61.5811033   5.9796583  37.0363981  60.8817740   5.6338831
  31.9840059  59.3092016   8.1624969  31.8142649  59.9693391   7.6173175
  31.5406009  59.5198577   8.8837458  31.8939392  59.4377998   8.1886598
  41.0143414  58.7878685   7.9524863  41.5714845  58.5592495   7.3203328
  40.6904479  59.5484351   7.6760075  41.0489825  58.8662522   7.8181360
  28.8842123  62.2138881   3.4213459  28.3368843  61.5439527   3.5394327
  29.6734502  61.8468729   3.4856926  28.9194307  62.0603868   3.4482159
  38.7326532  61.8746339   8.9176870  39.4837859  62.1898015   9.2316424
  38.9249108  61.6725509   8.0910791  38.8717946  61.8913720   8.8420265
  27.6429093  61.4259689   0.5759482  27.4650854  60.9736298   1.3014397
  27.3548115  62.2285851   0.7597959  27.5742046  61.4782247   0.7102985
  38.8752587  53.9182829   5.7873253  39.0080493  53.1213822   6.1154229
  39.2597740  54.4449232   6.3671529  38.9508916  53.8782746   5.9216756
  41.9484942  50.8413155   2.3854346  41.1430906  50.7310885   2.7022185
  41.8191678  50.9425611   1.5284212  41.8105075  50.8396825   2.3062387
  36.5341034  53.9142004   4.0351147  37.0785447  53.5733131   4.6255489
  36.5877970  54.7727466   4.1772431  36.6230153  53.9897263   4.1433020
  35.1778309  39.3076521  -5.0102715  35.3498813  39.1982416  -4.1617434
  35.7147667  39.9530927  -5.2471523  35.2823313  39.3868523  -4.9197619
  41.1153011  47.2280772  -3.0593639  41.8993427  47.3411620  -2.6937897
  40.9149605  46.4021910  -2.8634954  41.2019036  47.1227492  -2.9759253
  40.3324141  42.8851319  -1.5206996  39.5397122  43.1994831  -1.3354376
  40.4473068  43.1002788  -2.3586211  40.2319551  42.9635156  -1.6168661
  37.0397855  33.4484727  -1.8056636  36.7251296  34.2184290  -2.0687073
  36.7187788  32.8854983  -2.3904409  36.9456774  33.4794996  -1.9315286
  36.6714360  36.0481978  -3.0671421  35.8614136  36.3539758  -3.1781579
  37.1489047  36.7687560  -2.9518837  36.6217839  36.1996579  -3.0664350
  37.0224650  40.7785707  -6.6019689  37.1668026  41.3586915  -7.2376579
  37.3700299  41.1562004  -5.8969834  37.0952112  40.9206411  -6.5920694
  39.8266553  38.3388789  -6.6033831  39.7625694  39.1998746  -6.7313694
  39.9663741  38.0220783  -7.4038279  39.8382023  38.4188956  -6.7405618
  44.2064344  45.1133511  -1.0469380  45.0199209  44.8418660  -0.8864247
  44.0459310  44.8141051  -1.8509184  44.3034292  45.0288437  -1.1423974
  43.6475594  37.4056233  -7.1690685  42.8352275  37.0982124  -7.0877512
  44.1065528  36.9255234  -6.6047972  43.5955979  37.2892726  -7.0736090
  40.7429101  38.8116305  -2.3861982  41.2128732  39.4358421  -1.9994108
  40.7890981  38.1433280  -1.8268768  40.8196977  38.8050985  -2.2461911
  37.3937012  42.0274023  -4.1136601  36.5432643  42.1645737  -3.9778957
  37.5565140  41.2937801  -3.6688900  37.2920876  41.9388124  -4.0281002
  41.1447459  44.1735635  -4.1087104  41.1043314  43.5285312  -4.6941948
  41.9570778  44.1172253  -3.7961692  41.2590613  44.0694602  -4.1490155
  40.7094238  35.7256816  -5.1135091  41.2665669  35.4970626  -5.7456625
  40.3855303  36.4862482  -5.3899878  40.7440649  35.8040653  -5.2478593
  38.4277356  38.8124470  -4.1483083  39.1788683  39.1276147  -3.8343529
  38.6199932  38.6103641  -4.9749162  38.5668770  38.8291852  -4.2239688
  79.2289249  79.2289249  79.2289249 109.4712190 109.4712190 109.4712190
