default_name
 43994
  38.4499051  30.1806765  23.9442918  38.9387346  30.6241797  24.7087861
  38.1665191  30.8909967  23.2845661  38.9898598  29.3868080  23.6307294
  37.1578149  29.5980310  24.4857271  36.3161781  30.0593710  23.9690916
  37.0827782  28.0823404  24.2863968  36.9996359  27.9057109  23.2140216
  38.0219258  27.6661328  24.6509142  35.9018329  27.4016002  25.0130893
  36.1665131  27.3809746  26.0702647  35.0395112  28.0522432  24.8676002
  35.4680097  25.6740810  24.4554031  34.5508363  26.0238554  22.9472630
  35.1921538  26.5595094  22.2473447  34.2229653  25.0876800  22.4954035
  33.6810294  26.6365517  23.1842027  37.0239661  29.8893778  26.0040714
  35.9192657  30.1019993  26.5077112  37.8280161  32.3615960  27.5345255
  38.6119459  31.9687598  28.0357572  37.5087662  33.7819295  27.7422276
  37.6609209  34.0523507  28.7871297  38.4390903  34.6655439  26.8588025
  38.4750364  34.2596240  25.8478445  38.0521610  35.6840680  26.8272680
  39.7082817  34.6730335  27.3958965  40.2825803  35.2173190  26.8522659
  36.0924797  34.1340477  27.3411311  35.6723245  35.2921652  27.4359797
  35.3691953  33.1526576  26.7876203  35.7079339  32.2014944  26.8129945
  34.0687616  33.4098334  26.1669491  33.9049199  34.4841534  26.0827376
  34.0145260  32.7880395  24.7487545  34.7619287  33.3299344  24.1692389
  34.3343311  31.7538822  24.8765960  32.6529493  32.8202143  23.9973694
  32.7528741  32.1895115  23.1140066  31.9042066  32.3937002  24.6648791
  32.2225574  34.2088840  23.5790164  33.0066522  35.1582645  23.7645483
  31.0919661  34.3173873  23.0650880  32.9860029  32.7366635  27.0411104
  32.8961369  31.4743640  27.1059563  32.2147665  33.5361885  27.7581796
  32.4123996  34.5233469  27.8391663  31.0444343  32.9833697  28.5081416
  31.3905380  32.2710081  29.2570424  30.2717041  34.1146256  29.2226905
  29.9717123  34.8107765  28.4394422  29.3834297  33.6899097  29.6903282
  31.1034654  34.8632806  30.2847012  31.9657876  35.3274994  29.8061594
  30.2263141  35.9681406  30.9637890  29.3639826  35.5046052  31.4429738
  30.8186800  36.4936316  31.7128301  29.8847417  36.6764773  30.2090123
  31.6368444  33.9024075  31.3385065  32.2711595  33.1551072  30.8617612
  32.2193565  34.4564666  32.0745768  30.8023990  33.4067940  31.8346588
  30.0713150  32.2197523  27.6047185  29.7820165  32.6577360  26.4881409
  29.5768351  31.0838588  28.1199899  30.0061728  30.6802065  28.9402540
  28.4415436  30.3650148  27.4955014  28.5664655  30.3368253  26.4130509
  28.3040656  28.9056831  28.0184133  27.5164846  28.4041184  27.4560529
  29.6424270  28.1251062  27.8467029  30.4304350  28.6258487  28.4091973
  29.5208440  27.1080372  28.2193788  29.9131646  28.0948507  26.7912948
  27.9232264  28.9020786  29.3996648  27.8426453  27.9961824  29.7070065
  27.1390855  31.1109768  27.7447796  27.0771832  31.9806184  28.6373302
  26.1002432  30.8372060  26.9292245  26.0267272  30.0782486  25.6604001
  25.8625091  29.0210212  25.8687336  26.9548217  30.1980095  25.1014753
  24.8350221  30.7304681  24.9583129  24.3789997  30.0440871  24.2448539
  25.1375948  31.6417765  24.4424950  23.8861839  31.0467712  26.1124933
  23.3177056  30.1725361  26.4297384  23.1989107  31.8530889  25.8563546
  24.8277504  31.4986003  27.2453711  24.9842046  32.5736752  27.1568599
  24.3049133  31.1696750  28.6624002  23.8005178  32.0801300  29.3212674
  24.5177106  29.9486996  29.1705984  24.9287030  29.2220745  28.6020911
  24.1197522  29.6155626  30.5500432  23.0773397  29.9001635  30.6931436
  24.2655286  28.1290993  30.8568999  25.2266880  27.8005368  30.4615287
  24.2594243  28.0109802  31.9404638  23.1419075  27.2791883  30.2429585
  22.2074798  27.5132655  30.7530110  23.0736239  27.5892447  29.2002210
  23.3956052  25.7738931  30.3108166  24.2373036  25.3261466  31.1243447
  22.7079352  25.0227972  29.5563327  24.9320638  30.3984541  31.5860044
  24.3989368  30.8566074  32.6112753  26.2322587  30.5326021  31.3355697
  26.6831216  30.1063621  30.5386121  27.0519227  31.2901591  32.2678676
  26.8772912  30.9312988  33.2821764  28.5459901  31.1324103  31.9413360
  28.6582258  31.3047180  30.8709097  29.0762887  31.9097084  32.4915098
  29.1308190  29.7620098  32.3020568  29.2490239  29.6987292  33.3837795
  28.4271100  28.9992551  31.9687428  30.4907343  29.5347406  31.6245037
  30.8696271  30.3118180  30.7097819  31.1942459  28.5997902  32.0003084
  26.6291417  32.7679754  32.1932471  26.5194409  33.4153689  33.2254047
  26.3672213  33.3143539  31.0001058  26.3729331  32.7783705  30.1440751
  26.0347109  34.7386429  30.9252808  26.8511560  35.2918396  31.3894899
  25.8202420  35.2824033  29.4954911  25.0216296  34.6935871  29.0442560
  25.4971278  36.3190120  29.5910926  27.0183536  35.2188964  28.6424515
  27.8037110  35.8361016  29.0787683  27.3611566  34.1860887  28.5800303
  26.6852148  35.7351575  27.2300755  25.7970699  35.2467247  26.8291627
  26.5376060  36.8151139  27.2277792  27.8232068  35.4163102  26.3704852
  27.8029543  34.5285242  25.8893144  28.8727701  36.2156305  26.1857664
  28.9346977  37.4378129  26.7830052  28.1766241  37.7462544  27.3748568
  29.7384244  38.0303958  26.6314516  29.8663920  35.7855564  25.3961180
  29.8038552  34.8763310  24.9608038  30.6732818  36.3725986  25.2398836
  24.7556146  35.0258762  31.6461766  24.6373961  36.0632611  32.2914386
  23.7836757  34.1103585  31.5419462  23.8844318  33.3089294  30.9355973
  22.5174527  34.2955962  32.2365326  22.1057266  35.2775117  32.0032456
  21.5127841  33.2274772  31.7987461  21.2808831  33.3410997  30.7397791
  21.9208631  32.2324244  31.9760636  20.3329721  33.3952429  32.5599421
  19.6878674  32.7333870  32.3003529  22.6699655  34.2933780  33.7587050
  22.1075204  35.1467441  34.4598582  23.4081315  33.3179505  34.2514484
  23.7268018  32.5946350  33.6226692  23.7412797  33.2052049  35.6430086
  22.8346254  33.1412463  36.2446616  24.5507919  31.9658352  35.8646095
  23.9003231  31.1203567  35.6406548  25.3709236  31.9926586  35.1471386
  25.1037633  31.8171439  37.2495610  25.9672769  31.1549328  37.1869393
  25.4283913  32.8074414  37.5689772  24.1144978  31.2625538  38.2530277
  22.9405856  30.9426784  37.8876021  24.5466478  31.1475265  39.4248644
  24.5126575  34.4144925  36.1948689  24.3132892  34.7382843  37.3600440
  25.3886044  35.0213890  35.3814177  25.5042724  34.6611430  34.4449653
  26.2615448  36.1209137  35.8180255  26.3267683  36.1211370  36.9060720
  27.6929148  35.9703887  35.2351644  27.4744066  35.9056080  34.1692578
  28.3406999  36.8270212  35.4213233  28.4062492  34.6741539  35.6955334
  27.7001799  33.8470556  35.6215375  29.6341364  34.3736095  34.8368716
  30.3409168  35.2001114  34.9107291  30.1088766  33.4577031  35.1887779
  29.3296727  34.2483415  33.7977806  28.7061720  34.6728312  37.1974204
  27.7734078  34.7587220  37.7548011  29.2060744  33.7427289  37.4678063
  29.3527922  35.5161004  37.4400689  25.7648648  37.5389592  35.5206352
  26.4371978  38.5079913  35.9228144  24.5982426  37.6543052  34.8804493
  24.0550069  36.8238071  34.6926536  24.0581190  38.9459052  34.4588689
  24.6504382  39.3685501  33.6473097  22.6279400  38.7284854  33.9587392
  22.5841244  37.7523309  33.4757259  21.9635317  38.7358866  34.8228033
  22.1957288  39.7870799  32.9866995  22.0227390  40.7327265  33.5004387
  22.9492645  39.9277199  32.2117761  20.8961028  39.3100538  32.3502818
  21.1048575  38.9478727  31.3436312  20.4834010  38.4984772  32.9495480
  19.8823636  40.4601307  32.2798202  18.9856415  40.0927267  31.7808170
  19.6344914  40.7576540  33.2987110  20.4196117  41.6379989  31.5341882
  20.6489556  41.3626228  30.5899060  19.7227674  42.3687612  31.5119506
  21.2502966  41.9788610  31.9966542  24.0152286  39.9292501  35.6301597
  24.4886118  41.0658929  35.5378912  23.4533028  39.4543599  36.7612303
  22.9478164  38.5799935  36.7693715  23.3534745  40.3275549  37.9384439
  23.0536582  41.3222941  37.6087420  22.3261185  39.8209209  38.9789825
  22.5542189  38.7871874  39.2387221  22.4041578  40.4444807  39.8695907
  20.8977735  39.8882327  38.4624045  20.5922506  40.6167779  37.5142512
  19.9912186  39.0998488  39.0876684  19.0276810  39.1053924  38.7849072
  20.2828035  38.5099408  39.8538848  24.6778883  40.7038572  38.5557233
  24.8474608  41.8617374  38.9431245  25.6155458  39.7555693  38.6596331
  25.3928493  38.7925159  38.4521873  26.9548437  40.0665933  39.1388139
  26.8877415  40.5396034  40.1185373  27.8113503  38.7995367  39.2636783
  27.9296478  38.3357029  38.2844117  28.7920740  39.0547498  39.6651097
  27.1623913  37.8915809  40.1418886  27.6912679  37.0948760  40.2264502
  27.6858087  41.0723017  38.2669648  28.4411667  41.8811641  38.7531590
  27.4695171  40.9900269  36.9568023  26.9138863  40.2420677  36.5670193
  28.1214786  41.9114764  36.0431814  29.1809210  42.0230176  36.2739184
  27.9607093  41.4059576  34.5869785  26.9451379  41.0308377  34.4604867
  28.2298795  42.5663820  33.5389147  29.2454844  42.9417184  33.6644933
  28.1089170  42.1784464  32.5274925  27.5204164  43.3773045  33.7037352
  28.9246130  40.2201185  34.3618449  29.9362699  40.6258362  34.3552022
  28.8091806  39.5471241  35.2114645  28.6747775  39.4454101  33.0570161
  28.7904959  40.1176868  32.2068673  29.3931051  38.6297096  32.9749339
  27.6634050  39.0389765  33.0631287  27.5806944  43.3427973  36.2452384
  28.3634003  44.3176130  36.2846568  26.2675714  43.4461279  36.4339012
  25.6811389  42.6305299  36.3290385  25.6185752  44.7458793  36.6907087
  25.9400962  45.4644193  35.9367699  24.0731695  44.5878075  36.5999159
  23.7350312  43.8780934  37.3549446  23.5979393  45.5536826  36.7712101
  23.8025027  44.2207651  35.6099064  26.0851164  45.3045540  38.0388745
  26.3632157  46.5098864  38.1855326  26.2620409  44.4151851  39.0203171
  26.1944311  43.4203457  38.8596224  26.5454420  44.8761842  40.3643352
  25.8973011  45.7130531  40.6244564  26.2868833  43.7181013  41.3663240
  25.2394266  43.4305833  41.2754005  26.9197965  42.8804812  41.0732137
  26.5887259  44.1028146  42.8282165  27.6320625  44.4126423  42.8878513
  25.9448522  44.9474139  43.0735282  26.3349848  42.9545965  43.8295155
  26.1644647  41.7715693  43.4005965  26.3215004  43.2452097  45.0573673
  28.0123920  45.3452249  40.4865459  28.2655323  46.4056065  41.0722864
  28.9606756  44.5209067  39.9860514  28.6751854  43.7328703  39.4224972
  30.4092621  44.6973790  40.2683292  30.5547701  45.4641549  41.0292373
  30.9941922  43.3839965  40.7812272  30.6664588  42.5432171  40.1698516
  32.0829039  43.4362651  40.7725814  30.5933425  43.0738850  42.1827280
  31.0853997  43.8447240  43.2509058  31.7685387  44.6696652  43.0486854
  30.7058163  43.5603892  44.5592330  31.0893060  44.1671525  45.3795224
  29.8413160  42.5073682  44.8206046  29.5485851  42.2884987  45.8474953
  29.3471477  41.7299531  43.7741131  28.6783549  40.8924616  43.9726686
  29.7198634  42.0353853  42.4498883  29.3188462  41.4504704  41.6221446
  31.2380844  45.1551528  39.0937234  32.3242017  45.7145043  39.2741700
  30.7178778  44.9706938  37.8963708  29.7661804  44.6543230  37.7768686
  31.5658292  45.1326523  36.6826192  32.5339999  45.5615037  36.9411366
  31.7940213  43.7424234  36.0577767  30.8653727  43.2783392  35.7256069
  32.4703992  43.8482074  35.2095888  32.4454428  42.7706842  37.0108155
  33.7585332  42.8913273  37.4010790  34.0580268  41.9125236  38.2581864
  35.0374410  41.8780817  38.7353243  33.0089768  41.1077329  38.3653499
  32.9613171  40.2510900  38.8982583  31.9705026  41.6368294  37.6177876
  31.0007135  41.1394308  37.6034753  31.0085371  46.0945916  35.6742125
  31.4425904  46.0830584  34.4785981  30.1419629  46.9961694  36.1280215
  29.8377045  46.9909050  37.0910887  29.5899350  48.0548733  35.2108447
  30.0513858  47.9083759  34.2342686  28.0478143  47.9055795  35.0597679
  27.5806034  48.1355091  36.0173412  27.4863574  48.8771516  33.9556122
  27.9527955  48.6475072  32.9975941  26.4069698  48.7495880  33.8734599
  27.7100136  49.9080160  34.2301973  27.7837795  46.5756261  34.6208140
  26.8369543  46.4544065  34.5186958  29.9208562  49.3904643  35.8264661
  29.9015044  49.5150576  37.0296411  30.1834737  50.4063523  35.0040133
  29.9814538  50.3519829  34.0159185  30.7623086  51.6511625  35.5295034
  30.6865188  51.6695511  36.6167094  32.2530974  51.7448463  35.1370560
  32.4061268  51.7349000  34.0578978  32.5813739  52.7024315  35.5412406
  33.0539513  50.6306556  35.7691873  33.5090249  50.7534065  37.0716152
  33.3118010  51.6850269  37.6019790  34.1972989  49.7325713  37.7002075
  34.5890144  49.8555016  38.7099347  34.4347470  48.5373521  36.9931909
  35.1040284  47.5299048  37.6458050  35.3448456  47.7612286  38.5458584
  33.9663564  48.3676091  35.7114610  34.1381727  47.4343700  35.1751360
  33.2584396  49.4149327  35.0925394  32.8656879  49.2858823  34.0839799
  30.0804310  52.8651324  34.9763768  29.7342778  52.8967746  33.7867500
  29.9267955  53.8587852  35.8405158  30.0149106  53.7149064  36.8363240
  29.6266195  55.2077697  35.3581559  28.9400356  55.1531466  34.5133375
  28.9802257  56.0350133  36.4563786  28.1619880  55.4440804  36.8679424
  29.7343543  56.1964965  37.2266468  28.4434528  57.3847718  35.9780588
  28.0424953  57.2892209  34.9689979  27.6478104  57.6912902  36.6571035
  29.5124346  58.4524047  35.9737044  30.3485428  58.5209224  36.8856909
  29.5123323  59.2825127  34.9332191  30.2039959  60.0163270  34.8764780
  28.8205932  59.1747736  34.2052146  30.9659214  55.7808884  34.9623890
  31.9021001  55.8245896  35.7950658  31.0930347  56.1693125  33.6968314
  30.3300351  56.0660496  33.0431743  32.3668733  56.6984199  33.2002353
  33.1042188  56.6614386  34.0021412  32.8967373  55.8949072  32.0116817
  32.0942447  56.0097420  31.2830406  33.7982104  56.3806114  31.6381342
  33.1760864  54.3973975  32.2352299  32.3320392  53.9672519  32.7743588
  33.3653504  53.6638625  30.9298355  34.2095710  54.0931733  30.3903147
  33.5603314  52.6101953  31.1295064  32.4630284  53.7577109  30.3255940
  34.3762741  54.1972521  33.1496992  34.1800248  54.6639004  34.1150100
  34.5520229  53.1308679  33.2912563  35.2574753  54.6534565  32.6986326
  32.2289057  58.1593959  32.8110169  31.3410631  58.5482770  32.0583788
  33.1316877  58.9455936  33.3619605  33.5779693  58.6589209  34.2214667
  33.4072038  60.2599873  32.8582442  32.4868681  60.7582587  32.5536018
  34.0644521  61.0837216  33.9780940  34.9679269  60.5667440  34.3014619
  34.3314476  62.0554394  33.5626690  33.1251900  61.2817373  35.1862874
  31.8764318  61.2549813  35.0151119  33.6349356  61.4579457  36.3216037
  34.2336742  60.2568345  31.5411494  34.8705416  59.2375799  31.1663401
  34.1966768  61.3972085  30.7978304  33.2566376  62.5312908  30.9626505
  33.5733895  63.1389040  31.8103384  32.2554413  62.1426431  31.1488170
  33.3510074  63.2662784  29.6608911  33.1964507  64.3329713  29.8233027
  32.5985292  62.8922061  28.9666665  34.7470758  62.9815732  29.1494616
  35.5112601  63.6128097  29.6029612  34.7951601  63.0762267  28.0646445
  34.9696405  61.5141605  29.5590736  34.5069253  60.8331152  28.8448116
  36.4744775  61.1929791  29.6742475  37.0627734  60.7484939  28.7151172
  37.1237535  61.3934643  30.8047776  36.7354424  61.7645958  31.6600993
  38.5589788  61.0291574  30.7854175  38.9251287  61.3184217  29.8003492
  39.0329155  61.6503190  31.5454449  38.9253543  59.5524940  31.0436330
  40.0980827  59.2480900  31.2189933  37.9514672  58.6451740  31.0633421
  36.9838050  58.8920159  30.9123510  38.2612124  57.2768866  31.5263932
  39.3114681  57.0569954  31.3347944  37.9977393  57.1303239  33.0195427
  38.2157282  56.1050681  33.3185923  38.6505733  57.8133733  33.5630049
  36.6601060  57.4285573  33.3149066  36.5114050  57.3314314  34.2583335
  37.6182028  56.1746763  30.6972225  36.8185407  56.4342932  29.7991059
  38.0272774  54.9253996  30.9508480  38.6656183  54.7295479  31.7086490
  37.5736345  53.8183790  30.1301681  36.5620412  54.0260188  29.7813647
  38.4842016  53.5956850  28.9006772  38.0806394  52.7888306  28.2889398
  38.5302071  54.5106258  28.3100277  40.2291873  53.1355878  29.2660752
  40.6188218  53.0493940  27.9973539  37.5757645  52.5641242  31.0164573
  38.2001845  52.5647628  32.0858114  36.8636079  51.5484713  30.5682282
  36.3364927  51.6316062  29.7107100  36.7426601  50.2977238  31.3467186
  37.6506584  50.1503474  31.9314566  35.5359044  50.3389434  32.3106660
  35.5521270  49.4345456  32.9188607  35.6418516  51.2115553  32.9551997
  34.2884561  50.4164384  31.6011950  33.5635734  50.4401790  32.2301476
  36.6549005  49.1030908  30.4338730  36.3107092  49.2211783  29.2242620
  36.9551328  47.9289598  30.9976653  37.2198441  47.8892481  31.9715495
  36.8153258  46.6538424  30.2548736  36.0684270  46.7687845  29.4693612
  38.1453925  46.2461943  29.6103733  38.9279056  46.4634029  30.3374173
  38.0968489  45.1706874  29.4399954  38.4414991  46.9109674  28.3785724
  39.2858468  46.6012803  28.0427589  36.4907292  45.5866522  31.2836676
  36.8834156  45.7239074  32.4534626  35.7918432  44.5540114  30.8170998
  35.4403755  44.6145951  29.8721663  35.4704303  43.3794945  31.5930128
  35.8964958  43.4620862  32.5928857  33.9369594  43.2390190  31.7198180
  33.7369105  43.9861251  32.4878753  33.4557336  43.5381082  30.7886534
  33.3813228  41.8838702  32.1690592  33.7322314  41.1075610  31.4891268
  33.8721411  41.5611405  33.6333368  33.5212023  42.3368230  34.3139671
  33.4733618  40.5962127  33.9463704  34.9614369  41.5271037  33.6527453
  31.8447256  41.7983689  32.0178517  31.5733813  41.9434761  30.9721866
  31.5004348  40.8187747  32.3494546  31.3757191  42.5725031  32.6251803
  36.0880378  42.1304284  30.9226756  35.9438606  41.9478735  29.6983175
  36.7387999  41.2737454  31.7232328  36.9050989  41.5025105  32.6928257
  37.2603891  39.9856193  31.2052695  36.9392075  39.8396013  30.1739498
  38.7945436  39.9876154  31.2455180  39.0831664  40.2003408  32.2748595
  39.2675498  39.0610518  30.9201796  39.3725221  41.0818136  30.4039623
  39.4274838  40.9909157  29.0339894  39.8831527  42.1369613  28.5436105
  39.9738893  42.2820059  27.4671218  40.1593421  42.9425788  29.5524881
  40.5482184  43.8722800  29.4851777  39.8297299  42.3083687  30.7278597
  39.9642203  42.8212797  31.6801915  36.7526296  38.7792975  31.9949448
  36.5814088  38.8994818  33.1819528  36.4680783  37.6672648  31.2832737
  36.5653157  37.6774120  30.2780169  36.0237570  36.4195412  31.9297097
  35.8436466  36.5467827  32.9971688  34.7339645  35.9124002  31.2719753
  34.9011810  35.7714172  30.2041446  34.4448544  34.9628640  31.7224158
  33.9381210  36.6420688  31.4213610  37.1026869  35.3923779  31.7632442
  37.8437755  35.3703552  30.7571589  37.1884480  34.4831254  32.7296908
  36.6465115  34.5253572  33.5809373  38.1084142  33.3980883  32.5635864
  38.2779276  33.1988832  31.5054363  39.4703116  33.7812649  33.2234888
  39.9023389  34.5882311  32.6316634  39.2536868  34.1440623  34.2282533
  40.4933057  32.5852656  33.3063797  41.2838376  32.8575780  34.0056694
  39.9720468  31.7014987  33.6742753  41.1167510  32.2574423  31.9821528
  41.6435257  33.1476003  31.2703614  41.0721663  30.9604021  31.6025320
  41.4764562  30.6815222  30.7199919  40.6347777  30.2763344  32.2032348
  37.5235435  32.1504849  33.2202629  37.3054584  32.1533337  34.4228317
  37.3328949  31.0797298  32.4311553  37.5165612  31.1628877  31.4414832
  36.8462928  29.7770904  32.9493821  36.0890400  29.9410305  33.7160574
  36.2155333  28.9440070  31.7981964  35.5952787  29.6134514  31.2021866
  37.0272004  28.5568834  31.1822161  35.3299412  27.7337542  32.3297147
  36.0001546  26.9848435  32.7516715  34.6727575  28.1142523  33.1116565
  34.4806502  27.0920937  31.2111985  35.1374875  26.6910384  30.4393058
  33.8770364  26.2861754  31.6286259  33.5918492  28.0747798  30.6037623
  32.7291570  28.2764846  31.0887127  33.8194961  28.6731643  29.4390495
  34.9221730  28.3825065  28.7417651  35.5809195  27.7073465  29.1027529
  35.0916024  28.8393665  27.8570775  32.9713448  29.5934249  29.0172276
  32.1664763  29.8298040  29.5797325  33.1315023  30.0565668  28.1340810
  38.0343295  29.0431242  33.5512995  39.1474421  29.0412128  32.9724700
  37.8228892  28.4331969  34.7250183  36.9147361  28.4903898  35.1632948
  38.8687861  27.6858272  35.4023190  39.6875427  27.4980550  34.7077123
  39.4100868  28.4588493  36.6485033  38.6017929  28.5824768  37.3692512
  40.5560719  27.6853229  37.2970433  41.3649904  27.5616940  36.5769965
  40.9224810  28.2361292  38.1633328  40.1998467  26.7052615  37.6143480
  39.8906517  29.8598206  36.1722336  40.5778659  29.7212653  35.3375840
  39.0211370  30.4248123  35.8363346  40.6231587  30.6572156  37.3337532
  41.4931069  30.0930236  37.6698742  40.9435179  31.6301845  36.9611934
  39.9363782  30.7965685  38.1686263  38.2741113  26.3534875  35.8471142
  37.2197225  26.3094106  36.5074948  38.9769895  25.2726162  35.4870679
  39.8258336  25.3899030  34.9524588  38.4952863  23.8994805  35.7445663
  37.4104519  23.8980894  35.8505459  38.8771645  22.9758750  34.5681332
  39.9336962  23.1901701  34.4071434  38.7381938  21.9007245  34.6814399
  38.1610436  23.3715445  33.3069799  36.8099057  23.1764967  33.1569774
  36.4042758  23.7065402  32.0109715  35.3618060  23.6435380  31.6989035
  37.4526403  24.2568998  31.4250457  37.4530111  24.7313721  30.5334315
  38.5570349  24.0820286  32.2261709  39.5198297  24.4946608  31.9247377
  39.0559013  23.4725075  37.0985364  39.9300597  22.6227689  37.1868613
  38.5592035  24.1419022  38.1301269  37.8799601  24.8638399  37.9363904
  38.9781834  23.9368204  39.5197035  39.1105261  22.8739425  39.7218795
  40.2789421  24.6507899  39.8151953  40.1595312  25.7176093  39.6261516
  40.5501737  24.4954904  40.8594250  41.0655769  24.2543773  39.1731968
  37.8576330  24.4227045  40.4254184  37.0004579  25.1827100  39.9813288
  37.8219690  23.9460286  41.7011068  38.7768106  23.0054364  42.3395870
  39.6083598  23.5523588  42.7839992  39.1597666  22.2968995  41.6051355
  37.9047888  22.3481633  43.3675511  38.5011568  21.9202569  44.1733677
  37.2883989  21.5689722  42.9191917  37.0246538  23.5299641  43.8764707
  37.6523358  24.0958736  44.5648461  36.0817750  23.2832511  44.3645403
  36.7582778  24.3595585  42.6099677  35.7906957  24.2010230  42.1337852
  36.9223302  25.8379128  42.9463607  38.0679149  26.3066301  43.0708514
  35.7947354  26.5401713  43.1337452  34.4004750  26.1359951  42.8536015
  34.2069993  25.1635775  43.3064497  34.2516743  26.0703621  41.7758030
  33.6048503  27.2129662  43.4654908  33.4198099  26.9885267  44.5159602
  32.6535524  27.3156948  42.9433984  34.4536887  28.4732177  43.3053675
  34.2531023  29.1366909  44.1465972  34.2659226  29.0038736  42.3719609
  35.9062752  27.9988476  43.3525406  36.4956670  28.4242388  42.5402858
  36.5745637  28.3204728  44.6883964  37.2294190  29.3587035  44.7983256
  36.4474164  27.4309319  45.6964894  35.8034452  26.6534308  45.6666154
  37.1529160  27.6948791  46.9414245  36.9481759  28.7166776  47.2609689
  36.7029547  26.7159505  48.0770950  37.2649617  26.9709779  48.9755427
  35.6403235  26.8814331  48.2546633  36.9425971  25.2190338  47.7229564
  37.8402771  25.1953017  47.1051310  37.1311340  24.6903047  48.6573002
  35.7771992  24.5317470  46.9669090  34.9712434  25.2122785  46.2861499
  35.6667216  23.2705449  47.0789138  38.6566262  27.7016888  46.7131809
  39.3836167  28.5021614  47.3379388  39.1612265  26.8243102  45.8488365
  38.5973337  26.0961020  45.4343042  40.5903775  26.8537173  45.5418893
  41.1685183  26.8900203  46.4652172  40.9890303  25.5985917  44.7647994
  40.7048756  24.7944152  45.4435154  40.3282637  25.5922194  43.8979390
  42.4204157  25.3934624  44.3101270  42.5843430  26.0218882  43.4347358
  43.4540778  25.7498517  45.3997886  43.2910656  25.1214719  46.2753825
  44.4602663  25.5826266  45.0154435  43.3418305  26.7974696  45.6790692
  42.5715744  23.9270116  43.9157581  41.8786182  23.6943922  43.1071795
  43.5929511  23.7433092  43.5823751  42.3512731  23.2944186  44.7756374
  41.0100135  28.1248989  44.7584155  42.0205875  28.7802144  45.0805454
  40.2502643  28.4645903  43.7272124  39.4937783  27.8813148  43.3991608
  40.5462638  29.7191603  42.9850437  41.5389931  29.6996066  42.5353710
  39.5029926  29.9609873  41.8692665  38.5031781  29.8858558  42.2968476
  39.6919591  31.3625112  41.2445646  40.6914532  31.4382448  40.8163392
  38.9492320  31.5149796  40.4614872  39.5686099  32.1238316  42.0148099
  39.5901579  28.8651631  40.7686095  39.4027259  27.8875854  41.2128090
  38.8444532  29.0627797  39.9985629  40.5844609  28.8761887  40.3221336
  40.5775403  30.9142874  43.9555297  41.5031430  31.7574290  43.9144719
  39.5577279  30.9988978  44.8015686  38.7734089  30.3734893  44.6840641
  39.4421722  32.0936448  45.7987034  39.5054765  33.0558059  45.2904340
  38.0846345  32.0210949  46.5600593  37.2274999  32.1398827  45.8972555
  38.0193620  31.0592893  47.0687532  37.9570456  33.0823796  47.6252344
  37.8961236  32.8792976  48.9752489  37.9099637  31.8399543  49.3033855
  37.8283529  34.0706657  49.6481370  37.7863577  34.1815946  50.6511478
  37.8336964  35.0952799  48.7308900  37.7743243  36.4664170  48.9468507
  37.7162274  36.8300277  49.9727701  37.7932651  37.2999026  47.8194634
  37.7525889  38.3817244  47.9463765  37.8654390  36.7576775  46.4939591
  37.8720338  37.4030722  45.6155960  37.9304014  35.3608140  46.2912611
  37.9602888  34.9791084  45.2707180  37.9214548  34.5149587  47.4347763
  40.6723949  32.1834621  46.7539464  41.1921332  33.2550929  47.0502324
  41.1169395  31.0180503  47.2514295  40.6139495  30.1646225  47.0545505
  42.2963174  30.9457481  48.1236962  42.1179665  31.4766884  49.0587858
  42.5810769  29.4606683  48.4453781  43.0949124  29.3912963  49.4041585
  41.6384859  28.9158892  48.4986505  43.4045063  28.8908484  47.4201312
  43.5782180  27.9691141  47.6246549  43.5327126  31.5999315  47.4900308
  44.4078808  32.0922385  48.1900104  43.6116530  31.6371006  46.1517738
  42.8932267  31.2101820  45.5845846  44.7292761  32.2687645  45.4827946
  45.6460351  32.2524341  46.0721888  44.9921863  31.6001866  44.0898169
  44.0643274  31.6138853  43.5179859  46.0920149  32.3496870  43.3044207
  47.0203663  32.3360099  43.8754525  46.2500820  31.8606781  42.3431789
  45.7824383  33.3817670  43.1398838  45.3146719  30.1081039  44.2863321
  46.3707233  30.0466803  44.5491690  44.7111394  29.7639951  45.1262352
  45.0362904  29.2110634  43.0463030  45.6398567  29.5542978  42.2060663
  45.2934011  28.1778293  43.2795854  43.9802725  29.2716146  42.7831310
  44.4774747  33.7698225  45.2631885  45.3475023  34.6247982  45.5584941
  43.3169900  34.0596254  44.6759946  42.7118974  33.2989761  44.4014497
  42.8859616  35.4585014  44.3614753  43.5678619  36.0056379  43.7105123
  41.4992121  35.4370047  43.7105178  40.9264029  34.6384004  44.1819200
  40.7247845  36.7934819  43.8590194  41.2967973  37.5925405  43.3874182
  39.7508072  36.7110976  43.3766487  40.5879883  37.0204971  44.9163049
  41.6595494  35.0209869  42.2628662  42.1090481  34.0290450  42.2169940
  40.6824900  34.9992373  41.7801846  42.3026552  35.7348896  41.7482220
  42.8610196  36.3432021  45.6275352  43.1364820  37.5548783  45.5608865
  42.5358754  35.7540044  46.7732770  42.2642812  34.7814256  46.7939270
  42.3936252  36.5531084  48.0211439  41.9482266  37.5212422  47.7921549
  41.4904252  35.8226732  49.0231036  41.1697576  36.5253295  49.7922236
  40.6169079  35.4349333  48.4989610  42.2566961  34.6534983  49.6813071
  42.5456988  33.9391189  48.9104372  43.1506207  35.0435417  50.1679969
  41.3608845  33.9437868  50.7355060  40.4570927  33.5619556  50.2606752
  41.9062624  33.1187511  51.1937403  40.9759871  34.8907781  51.7831215
  40.0918607  35.3614447  51.6531484  41.6914937  35.1750906  52.8629320
  42.8751277  34.5757777  53.0634081  43.2197931  33.9072304  52.3893530
  43.4160326  34.7959292  53.8874559  41.2179817  36.0509055  53.7422788
  40.3226136  36.4896811  53.5813688  41.7554976  36.2740203  54.5677454
  43.7026959  37.0081608  48.6760266  43.7015589  37.8924595  49.5429698
  44.8064150  36.3828335  48.2724465  44.7079955  35.6464025  47.5882810
  46.1306474  36.6407281  48.8245677  46.0750914  36.7609147  49.9064956
  47.0453443  35.4574323  48.5110304  47.0051257  35.2682723  47.4383234
  48.0629271  35.7267332  48.7940536  46.6274033  34.2096078  49.2590983
  45.5624468  34.0312248  49.1102765  47.1934835  33.3537491  48.8914557
  46.9053259  34.4017599  50.7357559  46.4469834  35.3253125  51.0894105
  46.5129653  33.5602135  51.3066782  48.3514331  34.4825338  50.9528058
  48.9460905  34.2582368  50.1678390  48.9213601  34.8333877  52.0993980
  48.1589589  35.1558028  53.1440984  47.1529426  35.1314707  53.0578485
  48.5907614  35.4229684  54.0171785  50.2512802  34.8554234  52.2030794
  50.8209814  34.6047128  51.4076645  50.6822946  35.1227130  53.0765103
  46.7050390  37.9743731  48.2973595  47.6013478  38.0074214  47.4479549
  46.2110668  39.0553542  48.8785466  45.4635659  38.9572338  49.5506434
  46.6457236  40.4085173  48.5142225  46.4904028  40.5862182  47.4500811
  45.8241945  41.4248899  49.3035879  44.7632506  41.3156009  49.0787477
  45.9865926  41.2719401  50.3705149  46.1806778  42.8611292  49.0145318
  45.7171433  43.4758677  47.8461028  45.0989943  42.9136400  47.1461801
  46.0493504  44.8255451  47.5717337  45.6821259  45.2947835  46.6590113
  46.8381095  45.5509449  48.4574719  47.1001858  46.5864045  48.2401257
  47.2938037  44.9481434  49.6273280  47.9077830  45.5058949  50.3344651
  46.9513830  43.5910317  49.8965578  47.2993129  43.1124660  50.8119919
  48.1538188  40.6159277  48.7224021  48.7929603  41.3117563  47.9487415
  48.7469425  39.9408932  49.7175913  48.1957981  39.3964615  50.3656139
  50.1878424  40.0406394  49.9463430  50.5105069  41.0708014  49.7955014
  50.5520404  39.6141485  51.3909009  51.6410245  39.6201265  51.4375590
  50.1540882  40.3285484  52.1115719  50.0406151  38.2273053  51.7202930
  48.9038769  37.8479069  51.2952929  50.7509714  37.5235307  52.4563557
  51.0687793  39.2626661  48.9901978  52.2840563  39.4606525  49.0103728
  50.4918137  38.3917418  48.1693912  49.4863644  38.2961361  48.1638543
  51.2728738  37.5665503  47.2451850  52.2961198  37.9358339  47.1766530
  51.3063707  36.1214696  47.7641615  50.2746705  35.8003776  47.9076671
  51.7738155  35.5072033  46.9945692  52.0622982  35.9688057  49.0542760
  51.9236002  36.8577672  49.6695899  51.6979717  35.0941410  49.5930987
  53.5542892  35.7915125  48.7410749  53.8433031  36.5033530  47.9678653
  54.1333687  35.9822753  49.6446102  53.8314026  34.3502218  48.2452300
  54.1274684  33.7641046  49.1152371  52.8930198  33.9624596  47.8487740
  54.9005833  34.2544146  47.1880717  55.7702984  34.6132763  47.5553774
  55.0219211  33.2886357  46.9185380  54.6262408  34.7971092  46.3816488
  50.6996790  37.5131533  45.8341504  50.4292172  36.4360388  45.3317524
  50.4941631  38.6785854  45.1956912  50.9935516  40.0005156  45.6052297
  52.0089443  39.9052772  45.9899472  50.3483411  40.4111734  46.3818652
  50.9310484  40.7992536  44.3210417  51.9166860  40.7896345  43.8557192
  50.6532134  41.8255238  44.5612052  49.9385766  40.1815720  43.4689336
  50.2118464  40.3204042  42.4229181  48.9371736  40.5774629  43.6379362
  49.9789174  38.6768491  43.8278664  48.9941095  38.2103702  43.8533473
  50.8725046  37.9292646  42.8292773  50.3728867  37.3975584  41.8460192
  52.1680516  37.8671847  43.0875389  52.5488027  38.3757594  43.8727011
  53.1012275  37.2423231  42.1460185  52.8996493  37.5981907  41.1356604
  54.5637167  37.5983210  42.5137846  55.1946830  37.2957772  41.6780526
  54.6169232  38.6801960  42.6355038  55.0522906  36.9161830  43.7949404
  54.5303863  35.9627466  43.8766459  56.1235830  36.7367648  43.7041450
  54.7997749  37.7180995  45.0609623  53.7800865  38.3923984  45.2208610
  55.7577253  37.6533290  45.9745951  55.6590443  38.1609067  46.8421943
  56.5820001  37.0966898  45.7990238  52.8360765  35.7229146  41.9675864
  53.3059235  35.1111690  40.9915802  52.0257952  35.1220571  42.8418286
  51.6339632  35.5992832  43.6410922  51.6882979  33.6962770  42.6417691
  52.6118944  33.1177665  42.6219132  50.7771992  33.1116779  43.6866294
  50.5207734  32.0941818  43.3915908  51.4351330  33.0905642  45.0428784
  51.6914465  34.1078270  45.3388166  50.7490226  32.6621327  45.7734932
  52.3413101  32.4864466  44.9983189  49.5749334  33.8975820  43.7325160
  48.9819376  33.5368135  44.3956920  50.9882689  33.5104607  41.2925910
  51.0883541  32.4339437  40.7047560  50.3293922  34.5492311  40.7749903
  50.0825584  35.3449556  41.3459499  49.7924463  34.4807526  39.3956506
  50.3324998  33.7214513  38.8300512  48.3173887  34.1200662  39.4065851
  48.0425418  33.7440347  38.4211112  48.2278857  33.3177663  40.1389813
  47.4076452  35.2391033  39.7824143  46.7608894  35.9725152  38.8009975
  46.9472610  35.7348270  37.7536822  45.9037985  36.9766930  39.1284012
  45.3794825  37.5312772  38.3501782  45.6875295  37.2891310  40.4799911
  44.8570592  38.3236039  40.8046475  44.4823106  38.7593077  40.0356707
  46.3065747  36.5786989  41.4834318  46.1408918  36.8233891  42.5326106
  47.1424530  35.5493091  41.1445657  47.6164204  34.9529258  41.9241694
  50.0116262  35.6820558  38.4366423  49.7787376  35.5839556  37.2090152
  50.4495111  36.7990923  38.9657380  50.5192877  36.9289302  39.9649240
  50.7759772  37.9148086  38.1047019  50.2602474  37.8275296  37.1484047
  50.3232936  39.2127985  38.7897901  51.0051946  39.3884397  39.6218119
  50.4302115  40.0133808  38.0578498  48.8892765  39.1847739  39.3058005
  48.1912659  39.0235943  38.4842756  48.7658598  38.3951282  40.0469684
  48.6060542  40.5507633  39.9592981  49.1234347  40.5457153  40.9186682
  49.0548868  41.3015872  39.3089812  47.1775069  40.8728755  40.1713886
  46.5921711  40.5653547  39.3048360  46.8067345  40.3614661  41.0596946
  47.0444832  42.4317526  40.3687715  47.3875974  42.9058119  39.5455826
  46.0742067  42.6709645  40.5151996  47.5864520  42.7168532  41.1719443
  52.2660829  37.9444008  37.7709128  53.1250226  38.3918014  38.6214216
  52.5851487  37.6267896  36.5095175  51.8739565  37.5533583  35.7961362
  53.9873121  37.3003428  36.1424815  54.4890104  36.8535996  37.0008628
  54.0490328  36.2991242  34.9543696  53.2366902  36.4001272  34.2346495
  54.9967358  36.5259966  34.4660173  54.1018084  34.8478422  35.3424306
  54.9039039  34.3657525  36.3580927  54.7793047  33.0514966  36.4361729
  55.3191603  32.4862247  37.1958588  53.9474729  32.6552854  35.4879000
  53.6542558  31.7050655  35.3112486  53.5363728  33.7572110  34.7669176
  52.8747734  33.6318627  33.9097856  54.8774301  38.5146610  35.7819134
  56.1067903  38.3296136  35.4893509  54.2662353  39.7106509  35.8060612
  53.2713595  39.7521132  35.9751830  54.9909304  40.9658107  35.6266373
  55.8089463  40.8323917  34.9187189  54.0388049  42.0309131  35.0785608
  53.1026543  42.1277102  35.6284259  54.5776358  42.9778936  35.1100126
  53.6648959  41.7897340  33.6191932  54.6742989  41.8185824  32.6225131
  55.7028905  42.0379255  32.9088484  54.3570780  41.5669196  31.2728796
  55.1245069  41.6297402  30.5013829  53.0527745  41.2363392  30.9295109
  52.8136942  41.0285806  29.8865455  52.0318469  41.1670339  31.9223924
  51.0097037  40.9058656  31.6483222  52.3528248  41.4392713  33.2663188
  51.5815336  41.3778751  34.0340690  55.5299587  41.4632316  36.9660517
  56.1214498  42.5156002  37.0139237  55.2469446  40.7443997  38.0583706
  54.6620954  39.9223951  38.0097983  55.7313088  41.1811533  39.3820906
  56.0528970  42.2225455  39.3955986  54.6391443  40.9631634  40.4635000
  54.2920277  39.9317979  40.4010857  55.2073148  41.2485365  41.9400546
  55.5542179  42.2799183  42.0033832  54.4161098  41.0862764  42.6720157
  56.0373952  40.5731796  42.1473195  53.4296773  41.8293137  40.1062071
  53.7664428  42.8656656  40.1319856  53.1440598  41.5658619  39.0878185
  52.2107726  41.6601884  41.0432760  52.4955140  41.9239222  42.0618370
  51.4034834  42.3131703  40.7116166  51.8731324  40.6241173  41.0176715
  57.0117609  40.4641988  39.7825434  57.0600313  39.2145179  39.8778047
  58.0308958  41.2429186  40.1011960  57.9574253  42.2458708  40.0074497
  59.2807520  40.6887554  40.5618223  59.4850656  39.7411500  40.0634259
  60.4010950  41.6576090  40.2385045  60.3665445  41.8733995  39.1706375
  60.2292153  42.5759298  40.7999706  61.8012427  41.0782976  40.6063028
  61.8470816  41.0384180  41.6946085  61.8360950  40.0657154  40.2043516
  62.9954922  41.8811502  40.0734699  63.8960881  41.3589975  40.3965527
  62.9322412  41.8563083  38.9855905  63.0502830  43.3081565  40.5390073
  62.2470835  43.8490400  40.0385913  62.8742354  43.3107827  41.6146929
  64.3758112  43.9836229  40.2422415  64.5389287  43.9816782  39.2455025
  64.3508044  44.9360439  40.5774563  65.1201594  43.4828322  40.7061957
  59.2362554  40.4199448  42.0781827  59.6539783  39.3568362  42.5451920
  58.7318062  41.3786036  42.8345711  58.4657940  42.2670310  42.4345290
  58.5918009  41.1968151  44.3035580  58.3546215  40.1579588  44.5329543
  59.9243321  41.5681701  45.0068178  59.8747372  41.2620117  46.0517611
  60.7457392  41.0473460  44.5147482  60.1441463  42.9847690  44.9335343
  60.9701738  43.2034626  45.3710860  57.4418310  42.0518780  44.8136624
  56.9671453  42.9869880  44.1478653  56.9547977  41.7333822  46.0094082
  57.3211048  40.9705311  46.5607490  55.8619061  42.5077923  46.5519347
  55.8707188  43.5168329  46.1397957  54.5343238  41.8399806  46.1826598
  54.3757206  41.8557310  45.1043759  54.5024931  40.8103853  46.5390591
  53.0998220  42.6687775  46.9132994  52.1880815  41.8495985  46.3969921
  56.0396760  42.5378213  48.0636573  56.3381536  41.5052760  48.6611749
  55.9458711  43.7000251  48.6580745  55.9405822  44.5883319  48.1774681
  56.0247249  43.7022674  50.1166509  55.9022369  42.6884742  50.4978584
  57.3685060  44.2269069  50.5637480  57.5523457  43.9189519  51.5930516
  58.1477365  43.8207175  49.9188370  57.3804521  45.6279169  50.4857915
  58.2360894  45.9569657  50.7707679  54.8494350  44.4239327  50.7675033
  54.2653823  45.3776437  50.2127640  54.4923991  43.9277144  51.9532295
  54.9673738  43.1052359  52.2967809  53.4548784  44.5062629  52.7663356
  53.1121188  45.4379089  52.3161679  52.2667565  43.5352322  52.8504061
  52.6154802  42.5591769  53.1877592  51.2951884  44.0500750  53.7886274
  50.9456338  45.0259744  53.4516811  50.4505927  43.3638862  53.8511057
  51.7556367  44.1491622  54.7716182  51.5791016  43.3831031  51.4808305
  52.2948449  42.9966570  50.7552459  50.7419781  42.6905983  51.5689265
  51.2130897  44.3542307  51.1475928  54.0372077  44.7667822  54.1718985
  55.1270195  44.3160723  54.4911665  53.2872790  45.4726644  54.9960940
  52.5122704  45.9865121  54.6018585  53.5661975  45.6224808  56.4483445
  54.4543063  46.2312458  56.6179531  52.3659076  46.3232001  57.0816965
  51.4644355  45.8488376  56.6938466  52.4232883  46.1670666  58.1589290
  52.3197672  47.8265155  56.7853606  52.9610234  48.0475519  55.9321114
  51.2879303  48.0759535  56.5379894  52.7657181  48.6481594  57.9783065
  52.0654381  49.6411792  58.3236783  53.8081186  48.2757829  58.5822253
  53.8899132  44.3263557  57.2219152  53.1918885  43.3105097  57.0624650
  50.7343587  42.2039444  59.8887613  51.0321202  41.4392509  60.4775577
  49.3097392  42.5616619  59.8792579  48.9144803  42.4678357  60.8907253
  49.0740993  44.0095373  59.3888541  49.5517797  44.1370621  58.4174335
  48.0070437  44.2125645  59.2979019  49.6450952  45.0843193  60.2984718
  49.9098976  44.8279962  61.6543199  49.7017590  43.8395448  62.0638833
  50.4429895  45.8417262  62.4872764  50.6518349  45.6285334  63.5356242
  50.7037619  47.1252814  61.9629055  51.1134391  47.9051642  62.6048146
  50.4348142  47.3972738  60.6122814  50.6326923  48.3839724  60.1935091
  49.9004374  46.3729253  59.7910125  49.6783695  46.5747311  58.7431288
  48.5200504  41.5940344  58.9978599  49.0324715  41.1376000  57.9670830
  47.2840565  41.2777226  59.4009531  46.9685053  41.5083464  60.3322637
  46.3803492  40.5199457  58.5280073  46.9282341  39.7318697  58.0114249
  45.2269650  39.8783102  59.3221773  45.6332718  39.1794564  60.0533526
  44.6634205  40.6559489  59.8377309  44.3129854  39.1394950  58.3740773
  43.9059031  39.8378299  57.6428365  44.8757528  38.3613364  57.8584599
  43.1696007  38.5034251  59.1613601  42.1276190  39.1932820  59.3225211
  43.3490725  37.3337503  59.5940852  45.8715000  41.4870272  57.4400151
  45.5887252  42.6564750  57.7155548  45.7772652  41.0177982  56.2020648
  46.0914235  40.0921391  55.9479801  45.4042569  41.9374837  55.1356571
  45.8841985  42.9011048  55.3065068  45.8423363  41.4053675  53.7485902
  45.5039345  40.3712670  53.6836322  45.3237223  42.0045205  53.0001549
  47.4133589  41.4677539  53.4834377  47.8617353  40.8499544  54.2615014
  47.5609921  40.9932373  52.5133138  48.2257388  43.1193016  53.4790454
  49.0529457  43.2322195  55.1045306  49.7784068  42.4243860  55.2005004
  49.5647301  44.1911026  55.1865102  48.3098213  43.1486200  55.8975492
  43.9157707  42.3074497  55.2684423  43.0311366  41.4374927  55.3223260
  43.6670178  43.6094201  55.4051069  44.4449716  44.2514671  55.3535032
  42.3322544  44.1563600  55.6196632  41.5331215  43.4328021  55.4585738
  42.2285205  44.6912038  57.0584570  42.3386280  43.8661173  57.7621671
  43.0167754  45.4237492  57.2320410  40.8684734  45.3514137  57.2585046
  40.7578153  46.1769468  56.5554038  40.0796672  44.6193156  57.0855328
  40.7656489  45.8815704  58.6846834  40.8757581  45.0564851  59.3883944
  41.5539029  46.6141168  58.8582656  39.4558365  46.5305916  58.9161227
  38.7918882  46.5608228  58.1556241  39.1131422  47.0758435  60.0798071
  39.9330313  47.0753075  61.1270330  40.8463626  46.6511925  61.0492347
  39.6385545  47.4990158  61.9952809  37.9095517  47.6332125  60.1778401
  37.2893602  47.6319156  59.3806821  37.6212694  48.0552149  61.0489922
  42.1295122  45.3067307  54.6024780  43.1049231  45.8799092  54.1291135
  40.8781400  45.6278531  54.2749445  40.1319267  44.9711161  54.4537227
  40.5707922  46.8400800  53.4886390  40.9697747  46.7697913  52.4767242
  39.0260165  47.1253361  53.4012908  38.6268749  47.1109466  54.4154793
  38.7064873  48.4711292  52.7468022  39.1049405  48.4860994  51.7323507
  37.6261925  48.6126015  52.7144119  39.1604035  49.2746745  53.3267821
  38.3148567  46.0024984  52.6463364  38.4708152  45.0579687  53.1675300
  37.2473871  46.2171396  52.5959617  38.7185254  45.9305565  51.6363974
  41.3803889  48.0366204  53.9787027  41.4059171  48.3692098  55.2008089
  42.0611370  48.6718501  53.0218546  42.0558625  48.2683388  52.0959766
  42.8096920  49.9104156  53.2342551  42.6812288  50.5703578  52.3763083
  42.4485000  50.4097015  54.1333398  44.2872876  49.5988790  53.4014856
  45.0968095  50.5186960  53.3461409  44.6723506  48.3290998  53.6204110
  44.0048869  47.5810682  53.7430494  46.1186029  47.9916853  53.6349951
  46.6180303  48.6072897  54.3831279  46.3619501  46.5410572  53.9644300
  45.7361945  45.8905766  53.3533619  47.4095773  46.2771914  53.8196813
  45.9702679  46.1308136  55.7101044  46.2913541  44.8429194  55.6256627
  46.7093620  48.2208183  52.2423198  45.9819319  48.1478964  51.2333813
  48.0099133  48.4572109  52.1939071  48.5611652  48.5612169  53.0337901
  48.6697710  48.6936378  50.8851018  47.9904369  48.4818496  50.0594202
  49.1884497  50.1678316  50.7422205  49.7514391  50.2427004  49.8118777
  48.0203859  51.1972592  50.7258854  47.4571805  51.1232994  51.6561699
  48.4245362  52.2045787  50.6255407  47.3605753  50.9855717  49.8844943
  50.0948659  50.4485574  51.8196534  50.4173810  51.3492493  51.7400394
  49.8038180  47.6915697  50.6216346  50.3854276  47.0840706  51.5758678
  50.1405234  47.4808329  49.3388921  49.6088085  47.8817638  48.5795285
  51.2916178  46.6318127  49.0100587  51.8258380  46.3661898  49.9222826
  50.8340147  45.3500265  48.3226130  51.7228556  44.7340634  48.1860465
  50.1504257  44.8530219  49.0109389  50.1397226  45.5521538  46.9699889
  49.3157282  46.2560643  47.0867969  50.8560140  45.9482727  46.2501844
  49.5856844  44.1815654  46.4541923  50.4109545  43.5296444  46.1677884
  48.9967772  43.6997916  47.2346933  48.7273914  44.3965386  45.2822466
  48.8285468  45.2721075  44.7890468  47.8161689  43.5190372  44.8453267
  47.6397409  42.3477897  45.4787802  48.1984485  42.1271196  46.2907226
  46.9491764  41.6930917  45.1402676  47.0754740  43.8030965  43.7401777
  47.2159798  44.6763792  43.2525963  46.3883794  43.1394341  43.4122267
  52.2441267  47.3931754  48.0945810  51.7721347  48.2546857  47.3199453
  53.5472309  47.1362960  48.2074947  53.9018525  46.5471118  48.9472277
  54.4981903  47.7618943  47.3126718  53.9830347  48.5242203  46.7282293
  55.6629923  48.4243659  48.0663008  56.0856156  47.6183377  48.6661402
  56.4147428  48.7877383  47.3656356  55.2281102  49.5646215  48.9815476
  54.3366092  50.3710146  48.6566843  55.8672129  49.6945482  50.0409511
  55.0168196  46.7476416  46.3256013  55.7750701  45.8667006  46.6687923
  54.6613684  46.9401002  45.0556898  54.1445483  47.7659462  44.7892789
  55.0243019  45.9755993  44.0058373  55.3099927  44.9936849  44.3830960
  53.8232738  45.8028802  43.0257152  53.4431370  46.7946821  42.7809207
  54.2241453  45.0683981  41.7233868  54.6039728  44.0762737  41.9673564
  53.3524603  44.9740453  41.0758042  54.9986797  45.6369564  41.2086641
  52.6134699  45.0752512  43.7022716  52.2721556  45.6564290  44.5589156
  51.8000269  44.9765604  42.9834739  52.9246892  44.0854219  44.0361600
  56.2258575  46.5502981  43.2577106  56.2703335  47.7860946  42.9984057
  57.1963534  45.6954770  42.9473035  57.1843162  44.7653324  43.3407312
  58.3037032  46.0606650  42.0648693  58.2209720  47.0985268  41.7422275
  59.6968369  45.8260135  42.6924951  59.7426115  44.8092310  43.0825697
  60.8298822  46.0267103  41.6159543  60.7850344  47.0434765  41.2257289
  61.8032824  45.8573734  42.0762997  60.6862078  45.3183083  40.8000968
  59.9106522  46.7361930  43.9289781  60.0723609  47.7454471  43.5503526
  58.9840388  46.7078993  44.5022901  61.1100843  46.3264853  44.8536982
  62.0371719  46.3549964  44.2811639  61.1787000  47.0219676  45.6901762
  60.9488507  45.3174471  45.2330997  58.1277215  45.1887656  40.8050353
  57.9589889  43.9808829  40.8986715  58.1012477  45.8166301  39.6324095
  58.1337132  46.8193016  39.5153831  57.8345076  44.9877117  38.4534120
  57.3718515  44.0430891  38.7393082  56.9441778  45.6725507  37.3956973
  56.8396067  45.0277204  36.5231390  55.5205137  45.9339709  38.0308737
  55.6242281  46.5791509  38.9032767  54.8775293  46.4181991  37.2958943
  55.0766720  44.9850847  38.3320731  57.5760587  46.9175857  36.9059623
  58.5405276  46.6832735  36.4554075  56.9314064  47.3841688  36.1610977
  57.7224046  47.6038176  37.7400902  59.1212996  44.4388721  37.8244125
  60.2165462  44.9037732  38.1212068  58.9535438  43.4712604  36.9450919
  58.0326820  43.0964066  36.7673352  60.0766612  42.9074618  36.2217058
  60.9028894  42.6870415  36.8976207  59.6876418  41.6075458  35.4292430
  60.5574047  41.2395883  34.8849819  59.2024448  40.5203002  36.4238714
  58.3323601  40.8873792  36.9682117  58.9326074  39.6186085  35.8741072
  60.0009827  40.2899312  37.1291136  58.6155820  41.8843726  34.3418425
  57.7190895  42.2662812  34.8302559  59.0048234  42.6380229  33.6572974
  58.2450128  40.5290337  33.5061028  57.8552440  39.7750306  34.1899591
  57.4913969  40.7603688  32.7533436  59.1409791  40.1467708  33.0170023
  60.6186363  43.9201103  35.2338237  59.9241007  44.8951606  34.9012559
  61.8311672  43.6787804  34.7625014  62.3697107  42.8876350  35.0852383
  62.4465865  44.5889358  33.7699178  62.4262899  45.6137630  34.1406149
  63.9031286  44.1874184  33.5209341  64.3434424  44.8954588  32.8188645
  64.4422881  44.2318814  34.4672058  63.9925566  42.8672600  32.9841123
  64.9145229  42.6428308  32.8384777  61.7301979  44.6186172  32.4265774
  61.0306498  43.6609681  32.0536517  61.9604499  45.7008447  31.6744420
  62.4478618  46.5066077  32.0395106  61.5030171  45.7377034  30.2866900
  62.2585950  46.2674290  29.7065245  61.4333647  44.7076347  29.9371095
  60.1654019  46.4161618  30.0889991  59.7157930  46.5915209  28.9346339
  59.5189104  46.8109914  31.1928104  59.9336860  46.6791080  32.1042199
  58.1926225  47.4230673  31.1165034  57.7201746  47.1916519  30.1618626
  57.3080347  46.8602869  32.2555450  57.8904570  46.9778246  33.1693657
  56.4565771  47.5404463  32.2779737  56.8052514  45.4160983  32.1527822
  57.6393649  44.7507197  31.9300111  56.1610389  45.0047050  33.5143133
  55.3264995  45.6693907  33.7375525  55.8002499  43.9781169  33.4506837
  56.9060136  45.0790129  34.3065200  55.7719299  45.2756744  31.1154545
  56.1845782  45.5657990  30.1491996  55.4392734  44.2386160  31.0712881
  54.9251091  45.9184000  31.3560731  58.2789356  48.9503258  31.2410806
  59.3092214  49.4688782  31.7195412  57.1995946  49.6636144  30.8634280
  56.0410328  49.1677384  30.0945694  55.5576580  48.3575825  30.6405514
  56.3742659  48.8024146  29.1231821  55.1244579  50.4503512  29.9741544
  54.4161254  50.4954142  30.8013988  54.5798080  50.4456221  29.0299958
  56.1013667  51.5929419  30.0246988  55.5601195  52.4625504  30.3974341
  56.5870742  51.8445850  29.0819032  57.1413352  51.1560691  31.0433360
  58.1271366  51.5804692  30.8531297  56.7065294  51.4943452  32.4805357
  55.8299328  52.3475579  32.7148422  57.3956273  50.8505061  33.4309389
  58.1521454  50.2341358  33.1704251  57.0608327  50.9771802  34.8513361
  56.9941378  52.0257248  35.1415174  55.7438222  50.3064869  35.1598775
  55.7980687  49.2535927  34.8831625  55.5334140  50.3910497  36.2260285
  54.9478259  50.7899265  34.5935073  58.1776363  50.3634439  35.6545905
  58.8958433  49.4918919  35.1694825  58.3271155  50.8574377  36.8844934
  57.8272490  51.6944887  37.1482706  59.2385861  50.2651692  37.8509242
  59.7249276  49.4008338  37.3987125  60.3376221  51.2724876  38.3087871
  59.8833175  52.1243945  38.8147132  60.9770086  50.7338783  39.0082047
  61.2027268  51.7923422  37.1547862  61.5099587  52.9926164  37.0889715
  61.6293289  50.9095907  36.2936699  62.2026889  51.2034492  35.5158491
  61.3841647  49.9366103  36.4090151  58.5371506  49.7306769  39.0833734
  58.9178099  48.6867690  39.5820626  57.5496261  50.4695006  39.5788850
  57.1751904  51.2401699  39.0441270  56.9347130  50.1594477  40.8836651
  57.1237571  49.1143515  41.1288905  57.5123886  51.0427878  42.0102468
  56.9897295  50.7980323  42.9349210  59.0256395  50.8243713  42.2026838
  59.5490506  51.0693849  41.2785038  59.3868267  51.4670661  43.0055451
  59.2129395  49.7819476  42.4603119  57.2960805  52.4242061  41.6830231
  57.6536809  52.9781205  42.3808061  55.4619286  50.4644816  40.8063711
  55.0206162  51.2881121  39.9782762  54.6952211  49.8938159  41.7165130
  55.0761842  49.1703711  42.3094667  53.3099813  50.2392372  41.8685523
  53.1563303  51.2717874  41.5549753  52.4056731  49.3191630  41.0058640
  52.6474681  49.4721957  39.9540963  52.5991897  48.2808638  41.2752822
  50.9958346  49.6251961  41.2303014  50.4528697  49.0471998  40.6892753
  52.9175987  50.1328740  43.3493999  53.3424744  49.1901385  44.0337664
  52.1477821  51.1099157  43.8374020  51.8788394  51.8895315  43.2543339
  51.6080807  51.0434874  45.2098227  52.0949001  50.2265159  45.7424235
  51.8503391  52.3604513  45.9937680  51.2797031  53.1658905  45.5314449
  51.3933710  52.1842893  47.4793951  51.9639312  51.3792744  47.9425491
  51.5655965  53.1117851  48.0254619  50.3317113  51.9388799  47.5068474
  53.2459491  52.6548631  45.9472559  53.4176073  53.4680779  46.4276885
  50.1363659  50.8813059  45.0950766  49.4693489  51.6810264  44.4203171
  49.6092607  49.8550721  45.7576414  50.1810283  49.3301839  46.4039180
  48.2309998  49.4476986  45.5725230  47.6817024  50.1955916  45.0006597
  48.2099990  48.1333937  44.8018846  48.7316524  47.3594227  45.3648640
  47.1817082  47.8200670  44.6214836  48.9311909  48.3588163  43.4378887
  48.3128189  49.0716357  42.8923564  49.8893585  48.8193802  43.6785024
  49.1649000  47.1181650  42.5711099  48.9331155  45.9522468  43.0072128
  49.6010601  47.3761630  41.4190212  47.5042873  49.2604863  46.9138143
  48.0914804  48.7572293  47.8886731  46.2539899  49.6787113  46.9256567
  45.8749538  50.0666531  46.0736401  45.3770054  49.6248364  48.1283173
  45.9667910  49.4064709  49.0185806  44.6897143  50.9825036  48.3167417
  45.4837905  51.6911495  48.5520355  44.2528683  51.2347766  47.3504995
  43.5942631  51.0512888  49.4128573  42.8919371  50.2348493  49.2447335
  44.0741840  50.9230352  50.3830784  42.8248017  52.4146928  49.3877491
  43.5313670  53.2438307  49.3504022  42.1674606  52.4587822  48.5193839
  42.0033724  52.5466060  50.6113005  42.4345091  53.0553982  51.3698195
  40.7686882  52.0757687  50.7823394  40.1453055  51.3843866  49.8318060
  40.6110655  51.2059758  48.9535479  39.2091774  51.0411231  49.9928465
  40.1364617  52.2885463  51.9569288  40.6026103  52.8003466  52.6923648
  39.2004538  51.9348778  52.0944301  44.3190722  48.5326898  47.9737755
  43.6206083  48.4412031  46.9625345  44.2234964  47.6609253  48.9694898
  44.9240184  47.6314434  49.6964693  43.1503690  46.6783963  49.0051035
  43.0484259  46.1732259  48.0446298  43.5095899  45.6201096  50.0879011
  44.4325625  45.1390963  49.7641000  43.6859311  46.1508141  51.0235060
  42.4226906  44.5522306  50.3013988  41.5008567  45.0568924  50.5906037
  42.1765209  43.7262822  49.0388906  43.0978532  43.2209200  48.7493138
  41.4020006  42.9846967  49.2345176  41.8539272  44.3834457  48.2313203
  42.9417369  43.6426324  51.4607051  43.0865316  44.2441054  52.3581259
  42.2116408  42.8589767  51.6630532  43.8896878  43.1892943  51.1709245
  41.7680353  47.3289004  49.2797725  41.6026711  47.9638448  50.3148639
  40.8311580  47.2653937  48.3300305  41.0084142  46.6802512  47.5261102
  39.5446849  47.9904467  48.3991607  39.6612131  48.8797569  49.0185537
  39.0754205  48.4258024  46.9941435  39.1717420  47.5311705  46.3789564
  38.0340724  48.7476011  47.0059644  39.9415184  49.5339358  46.4157892
  40.5089543  50.3432842  47.2157972  40.0105878  49.6688094  45.1562303
  38.4329152  47.1272298  48.9840151  37.5315385  47.6154902  49.7075564
  38.5055138  45.8362443  48.7077403  39.2218586  45.4665216  48.0992549
  37.4676109  44.8804387  49.2585211  37.2060529  45.1241285  50.2882307
  36.1681732  44.8663690  48.3783486  35.6916274  45.8429778  48.4634349
  36.4635900  44.5746113  46.9228262  36.9397577  43.5978926  46.8368874
  35.5329599  44.5757391  46.3553519  37.1310989  45.3397940  46.5265607
  35.1417266  43.8765084  48.9048392  35.5637480  42.8811216  48.7662612
  35.0278003  44.0771964  49.9701301  33.8390963  43.9460511  48.2558307
  33.9521602  43.7449989  47.1905165  33.1730258  43.2041809  48.6963737
  33.4162134  44.9410752  48.3943836  38.0654512  43.5099717  49.3409116
  38.8328214  43.1455649  48.4393127  37.7640361  42.7583841  50.4393519
  37.2600823  43.1589863  51.2175857  38.1992615  41.3754776  50.5389378
  38.3662459  40.9826326  49.5359980  39.5209849  41.2342733  51.3562112
  40.1979921  41.9753602  50.9312987  39.2795012  41.5098430  52.3827817
  40.1972086  39.8566026  51.3422786  39.4781652  39.1201377  51.7010221
  40.6786813  39.4594178  49.9191489  41.3981505  40.1952179  49.5598980
  41.1511273  38.4778049  49.9556409  39.8249617  39.4262408  49.2422718
  41.4210028  39.8504717  52.2953757  41.0930684  40.0762155  53.3100668
  41.8919654  38.8676497  52.2764936  42.1391565  40.6032359  51.9702599
  37.0517709  40.6061368  51.1948014  37.0414472  40.3945050  52.4381402
  36.0641819  40.2353384  50.3905039  36.1629044  40.3413117  49.3909425
  34.8237235  39.6833751  50.9049991  34.6880373  39.9997686  51.9392058
  33.6219368  40.1595306  50.0863363  33.7297799  41.2434656  50.0469147
  33.6668839  39.7534620  49.0757978  32.2751591  39.8040905  50.7189200
  32.1644158  38.7011837  51.3097698  31.2964223  40.6038054  50.5634684
  34.9424835  38.1705023  50.8295554  34.6514226  37.5811013  49.7964445
  35.3268121  37.5479278  51.9416015  35.6661053  38.0591303  52.7438804
  35.4262699  36.0824342  51.9566212  35.9537174  35.7502109  51.0624590
  36.1940334  35.5712480  53.2036352  35.7912256  36.0965132  54.0696268
  36.0110460  34.5020333  53.3103855  37.6739163  35.8192675  53.1112337
  38.2737970  35.5991134  52.0343650  38.2756609  36.2272246  54.1238563
  34.1060698  35.3317594  51.7919758  34.1177945  34.1197329  51.4296438
  32.9720689  35.9870222  52.0149323  32.9516143  36.9568142  52.2963295
  31.7157106  35.2813876  51.8950599  31.8564203  34.2388952  52.1805587
  30.6483524  35.8953747  52.7992858  31.0205315  35.7996214  53.8192923
  30.5914386  36.9504049  52.5313826  29.2568383  35.2701536  52.7042439
  28.5917228  35.8120437  53.3766109  28.9271657  35.4126472  51.6751129
  29.2245220  33.7571225  53.0530312  30.1227127  33.2631616  53.8046009
  28.2852807  33.1080897  52.5839383  31.2263890  35.2871697  50.4722313
  30.7657798  34.2548151  49.9473275  31.3453769  36.4203980  49.8187985
  31.7215275  37.2455206  50.2635262  30.8492698  36.5366799  48.4385467
  30.0867207  35.7825547  48.2438331  30.2387753  37.9004552  48.2431026
  31.0358693  38.6356391  48.3537599  29.8458353  37.9414751  47.2272209
  29.0963197  38.2171162  49.2548254  28.4391763  37.3496974  49.3168573
  29.5418723  38.4053393  50.2316350  28.2955133  39.4262109  48.8248579
  27.6682757  39.7409509  49.6588907  28.9884464  40.2278552  48.5693005
  27.4327014  39.1583031  47.6597360  26.9847184  38.2546963  47.6058350
  27.2010580  40.0455866  46.6838162  27.8068428  41.2250664  46.7139845
  28.4376562  41.4461348  47.4711525  27.6345539  41.8967607  45.9796530
  26.3763605  39.7682673  45.6575637  25.9151945  38.8708239  45.6126057
  26.2221896  40.4587907  44.9367951  31.9494875  36.2659495  47.3711611
  31.6181147  36.0967800  46.1920314  33.1995464  36.1821365  47.8156712
  33.3393300  36.3591269  48.8001682  34.3873038  35.9118488  46.9760654
  35.2736013  35.9072037  47.6105371  34.2950187  34.5518812  46.2462006
  33.3591100  34.5248945  45.6881273  35.1329817  34.4769557  45.5531607
  34.3374022  33.3911251  47.2155298  35.2861862  33.4037152  47.7519543
  33.5170576  33.4853367  47.9270500  34.2027356  32.0890169  46.4618721
  33.2570593  32.0806007  45.9199086  35.0268803  31.9930105  45.7550003
  34.2310640  30.9423421  47.3749414  34.9046591  30.9441693  48.1275141
  33.4375291  29.8804716  47.2341070  32.5116833  29.8350634  46.2650582
  32.4106021  30.6143120  45.6305078  31.9196695  29.0218233  46.1741739
  33.5388393  28.8767168  48.0884264  34.2139950  28.9219620  48.8382381
  32.9406182  28.0692410  47.9873661  34.5196725  37.0514689  45.9986170
  34.4635328  36.8594038  44.7558748  34.6822479  38.2394510  46.5820946
  34.7189319  38.2990074  47.5896692  34.8780816  39.4810681  45.7973812
  35.0363646  39.3020614  44.7338953  33.7007246  40.4421624  45.9610217
  33.5765816  40.6849650  47.0163580  33.9724491  41.7535651  45.1531661
  34.0962495  41.5116039  44.0975956  33.1306495  42.4356015  45.2727500
  34.8800883  42.2287211  45.5253483  32.3835780  39.7676339  45.5700217
  32.2164841  38.8990509  46.2070031  31.5621999  40.4730812  45.6956475
  32.4327262  39.4497250  44.5285711  36.1089964  40.1613111  46.3738683
  36.2450151  40.3454142  47.6112279  37.0366755  40.5604746  45.4835548
  37.0154603  40.2165453  44.5341541  38.1631623  41.3517567  45.8966096
  37.8768327  41.8899488  46.8001935  39.4738557  40.5159822  46.1992806
  39.2078352  39.6701949  46.8332974  40.1230899  39.9978249  44.8948260
  40.3898237  40.8431208  44.2604542  41.0204033  39.4281026  45.1363717
  39.4172901  39.3565214  44.3669273  40.4392160  41.3190309  46.8773973
  41.2250055  40.7958338  47.0517534  38.4056936  42.4757894  44.8741586
  37.7481726  42.5301579  43.8369377  39.2723773  43.4071473  45.2164172
  39.8091086  43.3558526  46.0704591  39.4769408  44.5772815  44.3257087
  39.8020451  44.2519800  43.3374854  38.5553623  45.1519943  44.2335260
  40.5413833  45.4526075  44.9274858  40.7744194  45.4250112  46.1576360
  41.2489254  46.2024479  44.0876355  41.0934343  46.1318956  43.0921737
  42.2777719  47.1123527  44.5612790  42.0346936  47.4458415  45.5701385
  43.6692337  46.4116115  44.5902066  44.4040286  47.0185037  45.1192222
  43.5635952  45.4500353  45.0925131  44.2481754  46.1246464  43.2248819
  45.1834096  47.0055122  42.6612104  45.4746292  47.8903699  43.2271767
  45.7454667  46.7650296  41.3875115  46.4744201  47.4468543  40.9495129
  45.3416571  45.6066718  40.6765136  45.7462639  45.4156246  39.6825849
  44.4115388  44.6941358  41.2550117  44.1060973  43.7923880  40.7242985
  43.8837281  44.9731172  42.5370785  43.1805542  44.2804395  42.9995112
  42.3585200  48.3395710  43.6830672  41.8305604  48.3451647  42.5400548
  43.0251665  49.3614094  44.2324475  43.4033134  49.2857083  45.1659214
  43.2416438  50.6051314  43.4958944  42.8168490  50.5409429  42.4941318
  42.5439432  51.7463122  44.2530351  42.7258550  51.6218297  45.3205141
  42.9643941  52.6957840  43.9216375  41.1363431  51.7367591  44.0056735
  40.7219087  52.4563152  44.4874233  44.7331474  50.8693791  43.4296961
  45.4443615  50.6966343  44.4291003  45.2146984  51.3741761  42.2823938
  44.6267770  51.4916162  41.4695865  46.5948885  51.7259833  42.1762998
  47.1242080  51.0476342  42.8454504  47.0959866  51.5090428  40.7120261
  46.4818849  52.0976434  40.0304625  48.5272980  51.9399186  40.5932921
  49.1421293  51.3514026  41.2742708  48.8699576  51.7859058  39.5700790
  48.6117442  52.9961067  40.8490944  47.0738575  50.0006206  40.4048164
  47.7856983  49.4988007  41.0602248  46.0714591  49.6182206  40.5973448
  47.4809582  49.7120698  38.8227104  48.4834857  50.0938050  38.6295354
  47.4580072  48.6393181  38.6309390  46.7692472  50.2132272  38.1666551
  46.7095540  53.1784839  42.6040740  46.1379585  54.0647651  41.9215065
  47.3659457  53.4148932  43.7268694  47.8025869  52.6570465  44.2319556
  47.3834564  54.7688603  44.3357681  46.6373746  55.4023006  43.8559614
  47.1053911  54.7036932  45.8429107  47.0652583  55.7112582  46.2567978
  45.7347302  53.9952102  46.0669857  45.7742455  52.9873558  45.6537441
  45.5232337  53.9414310  47.1349173  44.9471044  54.5608296  45.5691710
  48.1901541  53.9673123  46.6095908  48.1629691  52.9201072  46.3083880
  49.1511929  54.3999763  46.3315513  47.9943184  54.0728760  48.2202241
  47.0336326  53.6399623  48.4990942  48.7959937  53.5297047  48.7206048
  48.0218541  55.1198323  48.5222573  48.6568208  55.5593543  44.0830997
  48.7222161  56.7359880  44.4315086  49.6765011  54.8837112  43.5574016
  49.5877043  53.8891667  43.4054289  50.9113705  55.5204276  43.1939021
  50.6936406  56.3214898  42.4875083  51.3619451  55.9416888  44.0925793
  51.8921664  54.5528719  42.5565792  51.5414710  53.4226869  42.1715188
  53.1174520  55.0327915  42.4120955  53.3223964  55.9822839  42.6887926
  54.2088282  54.2175339  41.8532539  55.0090355  54.1407316  42.5893713
  53.8288193  53.2216973  41.6252145  54.7615591  54.8350314  40.5880616
  54.1959099  55.7978608  40.0588597  55.8585449  54.2542752  40.0934976
  56.2922845  53.4810092  40.5772629  56.4975880  54.7558605  38.8621958
  56.2752743  55.8150462  38.7325750  58.0038851  54.5829070  38.9458681
  58.2076410  53.5249538  39.1111493  58.4265604  54.8885945  37.9887888
  58.6473884  55.4176852  40.0856202  58.5114531  56.4727092  39.8478245
  58.0817947  55.1725887  40.9845811  60.1313620  55.1365629  40.3249915
  60.8341204  54.5543133  39.4723192  60.6203725  55.5418119  41.4031023
  55.9338347  54.0242473  37.6585225  56.4252034  52.9659217  37.3135894
  54.8781914  54.5793804  37.0648346  54.5403283  55.4575086  37.4320386
  54.1957972  54.0037613  35.9065066  54.9392223  53.7605259  35.1473920
  53.4098513  52.7204268  36.2569787  52.8749724  52.2874303  35.4116871
  54.1325973  51.9985438  36.6372723  52.4117661  52.9251074  37.3294025
  51.1628960  53.4780701  37.1049702  50.5300777  53.5803672  38.2712696
  49.5088038  53.9588440  38.3143258  51.3429248  53.1640075  39.2292430
  51.1453336  53.1704854  40.2197054  52.5083322  52.7172596  38.6630532
  53.2914136  52.2922959  39.2909789  53.2125890  55.0615736  35.4140153
  53.0297152  56.1142130  36.0592691  52.5480321  54.7897089  34.2997784
  52.7274544  53.9383924  33.7867802  51.6812665  55.7994473  33.6880269
  51.9147548  56.7843995  34.0923182  51.8990162  55.8305857  32.1355513
  51.5166784  54.9001863  31.7157013  51.3382042  56.6708279  31.7261823
  53.3278431  55.9766611  31.7885115  53.7415530  56.8245471  32.3344366
  53.8578445  55.0679310  32.0738362  53.4919111  56.2134721  30.2654645
  54.5569680  56.3319034  30.0661489  53.1240390  55.3234269  29.7549853
  52.7838119  57.3816760  29.7401749  52.9952571  58.2620985  30.1876640
  51.9003943  57.3704911  28.7522951  51.5232944  56.2328462  28.1703460
  51.9142954  55.3555758  28.4827798  50.8481568  56.2529207  27.4194226
  51.3730215  58.5338174  28.3119184  51.6544901  59.4054639  28.7374860
  50.6996959  58.5265624  27.5591377  50.1818787  55.7859666  34.0105350
  49.4334409  56.6721181  33.5494349  49.7091950  54.8239593  34.8090493
  50.3508138  54.1505893  35.2027466  48.2777691  54.6579102  35.0755391
  47.7209568  54.9845315  34.1972580  47.8908312  53.2010963  35.3896990
  48.4460066  53.0235522  36.3107622  46.8220887  53.1245446  35.5897727
  48.2943135  52.1452544  34.3330189  49.3549275  52.2569019  34.1077774
  48.0243163  50.6980545  34.8707797  46.9637574  50.5854920  35.0958203
  48.3140694  49.9688234  34.1142311  48.6070833  50.5319506  35.7768110
  47.6206210  52.3978572  32.9936943  47.9088232  53.3808135  32.6210874
  47.9309708  51.6341968  32.2805274  46.5383843  52.3599208  33.1178860
  47.7750172  55.5348023  36.1937622  48.3456028  55.5727040  37.2765071
  46.6934572  56.2300971  35.9376139  46.3070913  56.2911069  35.0064326
  46.1011339  57.0489194  36.9857022  46.6075961  56.8147139  37.9220478
  46.2222464  58.6407981  36.7160875  45.7716615  59.1675343  37.5572906
  47.6658452  59.0735213  36.5646182  48.1169966  58.5475146  35.7232627
  47.7067230  60.1478305  36.3849297  48.2141625  58.8370634  37.4765044
  45.5359223  58.9488312  35.5318305  45.6003105  59.8912320  35.3605552
  44.6671260  56.6384092  37.2289953  43.8881093  56.3475352  36.2917065
  44.3263244  56.5815621  38.5082653  45.0434575  56.7219239  39.2054869
  42.9943082  56.1730163  38.9556143  42.9979628  55.9792416  40.0282453
  41.9762052  57.3131957  38.6594671  42.0479362  57.5316944  37.5940037
  40.9510237  57.0357996  38.9047311  42.3401005  58.5688288  39.4390533
  42.7384553  59.6174980  38.8533910  42.2851627  58.4693614  40.7498733
  42.5151003  59.2679129  41.3239326  42.0133070  57.5949176  41.1759521
  42.5319434  54.8330416  38.4190142  41.3289913  54.6255483  38.1662737
  43.4923855  53.9145413  38.3092407  44.4595531  54.1663130  38.4551760
  43.1755359  52.5102047  38.0019066  42.5026929  52.4498815  37.1464871
  44.4861114  51.7564441  37.6557405  44.9945496  52.3053524  36.8630933
  45.1135394  51.7417280  38.5469293  44.2256477  50.3374515  37.1991722
  44.1120411  50.0259064  35.8237645  44.2265857  50.8232269  35.0894219
  43.8513112  48.6901017  35.3923499  43.7858411  48.4514687  34.3308087
  43.7288994  47.6722547  36.3483937  43.4680383  46.3455443  35.9431950
  43.3929895  46.2521258  34.9907034  43.8160878  47.9746189  37.7269303
  43.6689574  47.1840852  38.4628037  44.0903353  49.2839340  38.1493687
  44.2016071  49.5018570  39.2115496  42.5337234  51.8141098  39.2214055
  43.0504642  51.8788197  40.3404692  41.4137378  51.1385767  38.9753175
  41.0038983  51.1538688  38.0523348  40.7298853  50.3691632  40.0312620
  41.4427168  50.0927495  40.8081570  39.5989326  51.2183689  40.6745206
  40.0565468  52.1398008  41.0345923  38.8858450  51.4522365  39.8840068
  38.8843554  50.5381174  41.8080934  38.5243077  49.5728949  41.4519864
  39.5995151  50.3830238  42.6159266  37.6710335  51.3866990  42.3382859
  37.9875165  52.4213117  42.4706268  36.8597521  51.3455958  41.6114899
  37.1665044  50.8059456  43.7277218  38.0650001  50.6504858  44.3249138
  36.5653010  51.5969805  44.1759599  36.3567446  49.5159961  43.6838551
  36.9138050  48.7827676  43.2689341  36.0957766  49.2502457  44.6226695
  35.5239190  49.6599566  43.1308849  40.1680315  49.1305132  39.3891713
  39.5260142  49.2214140  38.3375621  40.3732460  47.9637300  40.0134501
  40.9809043  47.8816701  40.8160190  39.7970728  46.7425066  39.4524413
  39.0597186  47.0230444  38.7003067  40.8592282  45.8104868  38.7868723
  40.3472772  44.9809823  38.2990940  41.4155800  46.3811325  38.0432755
  41.7509494  45.3072491  39.7563825  42.3964716  44.7372151  39.3321631
  38.9951424  45.9866396  40.5080543  39.2328441  46.1418491  41.7335933
  38.0695358  45.1614925  40.0278777  37.8762876  45.1196580  39.0374211
  37.3050015  44.3009674  40.9163674  37.7450312  44.2285976  41.9109706
  35.8578478  44.8470381  41.0525805  35.5097935  45.0922284  40.0491667
  34.8635561  43.8463681  41.7172131  35.2107232  43.6010475  42.7209032
  33.8747421  44.3011721  41.7763807  34.8092127  42.9364262  41.1195894
  35.8691995  46.1370410  41.8417475  36.4850101  46.8737590  41.3258734
  34.8513601  46.5158877  41.9343629  36.2794258  45.9525843  42.8346175
  37.3181566  42.9045481  40.2711587  37.1006966  42.7624489  39.0772961
  37.5439461  41.8839498  41.1030685  37.6048671  42.0700318  42.0939073
  37.6343292  40.5077087  40.6552064  37.4776321  40.4337229  39.5790692
  39.0210947  39.9576647  40.9856639  39.2087040  40.0842889  42.0519047
  39.1100175  38.4050931  40.6095680  38.9229640  38.2777157  39.5433196
  40.1040013  38.0285677  40.8510715  38.3637516  37.8497675  41.1777240
  39.9740478  40.7038945  40.2468605  40.8556573  40.3757665  40.4384252
  36.5857102  39.6711008  41.4716488  36.5869044  39.7170835  42.7263042
  35.7256280  38.9424366  40.7833603  35.7378831  38.9961733  39.7748656
  34.6912821  38.1397440  41.4190514  34.8590568  38.1487823  42.4960236
  33.2891145  38.6586239  41.1413250  32.5702547  38.0115458  41.6439489
  33.1252124  40.0952473  41.6493114  33.8434781  40.7430446  41.1467653
  32.1137923  40.4425870  41.4383999  33.3016328  40.1233179  42.7245735
  33.0142291  38.6546050  39.7277760  32.1261411  38.9849346  39.5735606
  34.8203397  36.6943978  41.0112237  35.1454917  36.4088680  39.8582753
  34.5845105  35.7841896  41.9678859  34.3374865  36.0765928  42.9025403
  34.7587030  34.3201200  41.7046725  35.0947497  34.1363793  40.6841770
  35.7988524  33.7268576  42.6814376  35.4428877  33.8917640  43.6983910
  36.0121973  32.2425128  42.4553591  36.3686314  32.0768464  41.4386928
  36.7511344  31.8690020  43.1642753  35.0703815  31.7133134  42.6003851
  37.1364992  34.4630708  42.5233331  36.9974748  35.5215510  42.7433192
  37.8673971  34.0419738  43.2136702  37.4958205  34.3492086  41.5005798
  33.4078850  33.5989161  41.8071151  32.6778530  33.7899926  42.8087763
  33.0503478  32.8243931  40.7849457  33.7059442  32.6753699  40.0312317
  31.7317482  32.2084335  40.6864838  31.1475268  32.3960386  41.5873661
  30.9965223  32.8277263  39.4861632  31.5633203  32.5603025  38.5943539
  29.9603648  32.5114754  39.3659007  30.9829810  34.3154173  39.5521783
  30.0163718  35.0056061  40.2695033  29.2390677  34.5827066  40.7563852
  30.2849787  36.3049801  40.2073384  29.6389109  37.0260783  40.7080506
  31.3881317  36.4769086  39.4804972  31.8552307  35.2508514  39.0738545
  32.7681909  35.1843536  38.4820920  31.7679108  30.7105049  40.5276654
  32.5124696  30.1757631  39.6866438  30.9538256  30.0251228  41.3480548
  30.4799858  30.5309489  42.0827079  30.7159841  28.5527968  41.2334540
  31.6439086  28.0326031  40.9958542  30.1886920  28.0268376  42.5748540
  30.8792885  28.3591828  43.3499169  29.2112425  28.4795500  42.7414195
  30.0624473  26.5316113  42.6251494  29.2928089  26.1996161  41.9283447
  31.0137515  26.0689139  42.3624071  29.6795792  26.1306131  44.0223747
  30.3459944  26.6173753  44.7344507  28.6522522  26.4374619  44.2186969
  29.7782179  24.6883507  44.2015548  30.6463827  24.3337974  44.5766297
  28.8147185  23.8257459  43.9141114  27.6574290  24.2475270  43.4100411
  27.5113562  25.2331610  43.2448489  26.9305689  23.5800393  43.1950196
  29.0155476  22.5277966  44.1280023  29.8971957  22.2119250  44.5061845
  28.2854082  21.8644843  43.9111798  29.7102442  28.1591396  40.1653668
  28.6274626  28.7911638  40.0092051  30.0712539  27.1231779  39.3964745
  31.0247303  26.7919561  39.4321700  29.1466262  26.4744799  38.4688008
  28.1342322  26.8324882  38.6558506  29.5119239  26.7811176  37.0215617
  30.5788842  26.6764385  36.8247439  28.9556475  26.1000764  36.3774814
  29.1320466  28.1751650  36.6038085  27.9025891  28.4115163  36.0259241
  27.2230506  27.5764340  35.8557328  27.5242785  29.7064928  35.6592539
  26.5636610  29.8983626  35.1812365  28.4113629  30.7766513  35.9181806
  28.1092503  31.7947565  35.6726413  29.6624380  30.5383059  36.4822555
  30.3715012  31.3523536  36.6327744  29.9996307  29.2524766  36.8520313
  30.9522786  29.0593095  37.3452334  29.1557951  24.9617311  38.7039883
  30.1917580  24.3974361  39.0132211  27.9951941  24.3413878  38.5677478
  27.1578236  24.8713153  38.3725891  27.8797173  22.8853600  38.7101981
  28.8294524  22.4213137  38.4441842  27.5255622  22.4870339  40.1461199
  28.3596742  22.8051142  40.7715649  26.6339342  23.0535073  40.4148341
  27.2579918  20.9490635  40.3696375  26.2945728  20.6998058  39.9248957
  28.0475903  20.4010560  39.8555159  27.2508134  20.5600027  41.8635877
  27.0332242  21.4543416  42.7221882  27.4529495  19.3526084  42.1841935
  26.8084503  22.4085392  37.7710294  25.7348765  23.0207618  37.6888415
  27.1099106  21.3353588  37.0542682  28.0132551  20.9056274  37.1935486
  26.2133743  20.7574355  36.0504971  25.1868900  20.7640616  36.4170830
  26.2775950  21.5826091  34.7536913  26.0454138  22.6070631  35.0446984
  27.3136540  21.5262474  34.4197674  25.3568505  21.1567564  33.6216334
  25.6085418  20.1434066  33.3087844  24.3221830  21.1845190  33.9633856
  25.5288242  22.1120380  32.4402494  25.1939780  23.0991576  32.7589530
  26.5902146  22.1505774  32.1951688  24.7407696  21.6816176  31.2127897
  25.1593191  20.7531406  30.8243990  23.6994958  21.5212322  31.4922974
  24.8165720  22.7427076  30.1582035  25.7813229  22.8911731  29.8987551
  24.2911076  22.4493375  29.3470801  24.4283941  23.6030239  30.5177488
  26.7054774  19.3232046  35.8596958  27.8659993  19.1081793  35.5013563
  25.8226072  18.3485454  36.1319744  24.8538650  18.6208680  36.2184523
  26.1693196  16.9233479  36.3176528  25.2470849  16.3433202  36.2837379
  27.1333740  16.3748226  35.2555120  28.0395961  16.9773582  35.3172507
  27.3602236  15.3479326  35.5421064  26.6036604  16.3980661  33.8234868
  25.5854355  16.0093268  33.8376490  26.5920573  17.4333500  33.4826762
  27.4610294  15.5535033  32.8667120  28.7187699  15.5110867  33.0449923
  26.8653625  14.9381728  31.9361281  26.8168148  16.7966304  37.6709276
  26.3774201  17.4141372  38.6448206  27.8669711  15.9965872  37.7464032
  28.0996627  15.3319687  37.0223616  28.6636514  16.0042805  38.9498530
  28.1172027  16.5230432  39.7374941  28.9657711  14.5686728  39.4232885
  28.0297926  14.0460252  39.6204757  29.5206985  14.0393191  38.6487303
  29.7968545  14.5757050  40.6983325  30.1381302  15.6375103  41.2146090
  30.1225037  13.3847931  41.2061764  30.6731135  13.3330739  42.0513117
  29.8167731  12.5409739  40.7429284  29.9456781  16.8156918  38.6987451
  30.9645876  16.5931551  39.3707607  29.8866263  17.7737898  37.7591632
  29.0893863  17.8358200  37.1421867  31.0941937  18.5570213  37.4243851
  31.9185424  18.2286232  38.0573962  31.5033583  18.3809198  35.9557068
  32.5870153  18.4983359  35.9553009  31.2503592  17.3470008  35.7209669
  30.8934893  19.3018433  34.9097318  29.9065584  18.9408848  34.6202889
  30.8082218  20.3144803  35.3039372  31.8317032  19.3067777  33.6624082
  31.8823190  18.3135541  33.2162647  31.4779003  20.0209226  32.9188222
  33.1833249  19.7012768  34.0891577  33.6618623  19.0682699  34.7139805
  33.8074644  20.8231636  33.7166771  33.2093022  21.6487305  32.8515365
  32.2952817  21.4189139  32.4884237  33.6742247  22.4983789  32.5651026
  35.0289809  21.1091404  34.2081533  35.4700608  20.4737829  34.8576680
  35.4980119  21.9575699  33.9248232  31.0496690  20.0233617  37.9255210
  30.0932562  20.7361409  37.7047486  32.0838060  20.4184128  38.6551519
  32.8841825  19.8115283  38.7609256  32.1151259  21.7264384  39.3065675
  31.1826195  22.2842990  39.2209967  32.4677052  21.5452571  40.7873073
  33.3690077  20.9370778  40.8639374  32.7096379  22.9020779  41.4547007
  31.8085579  23.5106877  41.3788749  32.9585066  22.7516291  42.5051912
  33.5343030  23.4110900  40.9557686  31.3618469  20.7124702  41.4934633
  30.4728141  21.3387678  41.5674407  31.1459379  19.8488453  40.8644681
  31.7815264  20.2213526  42.9362289  31.9971578  21.0844971  43.5659785
  30.9669331  19.6458642  43.3759450  32.6702836  19.5945761  42.8630059
  33.1971973  22.5600210  38.6109258  34.3058587  22.0889199  38.4657404
  32.8905241  23.7798774  38.1646311  31.9452940  24.1296310  38.0989666
  33.9875131  24.6207288  37.6380030  34.9380461  24.2721527  38.0418359
  34.0515900  24.5536267  36.1022451  34.9673627  25.0096001  35.7260167
  34.0357220  23.4971723  35.8343786  32.9056280  25.2062524  35.3586681
  32.9033400  26.4632781  34.7776809  33.8073768  27.0582763  34.9072739
  31.7067661  26.6987482  34.1341620  31.4580722  27.5458851  33.6436419
  30.9030773  25.6061910  34.2867270  29.5946901  25.3850235  33.8297796
  29.1006077  26.1695799  33.2566718  29.0118953  24.1719278  34.1405386
  27.9972842  23.9595615  33.8035450  29.7004954  23.1984250  34.8858380
  29.2252880  22.2475716  35.1269919  31.0036618  23.4133265  35.3384865
  31.5009708  22.6096264  35.8814881  31.6213646  24.6415794  35.0562878
  33.8070723  26.0539337  38.1657072  32.8453371  26.3510837  38.9138176
  34.7591589  26.9114834  37.8139775  35.5042155  26.6078643  37.2033996
  34.7511153  28.2999596  38.2565961  33.8632957  28.5062331  38.8543643
  35.9969177  28.5733639  39.1163033  36.8802903  28.3444381  38.5201941
  36.0585164  29.9875917  39.5698672  35.1756389  30.2171403  40.1664696
  36.9534804  30.1373609  40.1737776  36.0916616  30.6467850  38.7024191
  36.0020287  27.7282407  40.2930877  36.7855215  27.9128449  40.8162135
  34.7989924  29.2446947  37.0275170  35.4418883  28.9445429  36.0145472
  34.1161257  30.3824672  37.1609893  33.4178821  30.4671536  37.8858227
  34.3140932  31.5201078  36.2451679  35.0849306  31.2583800  35.5203180
  33.0315944  31.8943928  35.4848229  32.2258950  32.0376990  36.2048306
  33.2359571  33.2177614  34.6559625  34.0412466  33.0750673  33.9353738
  32.3146916  33.4616666  34.1269250  33.4935840  34.0338117  35.3310862
  32.6518750  30.7485823  34.5097129  32.4835910  29.8313459  35.0740353
  31.7424281  31.0153715  33.9713547  33.4625007  30.5930234  33.7978223
  34.8075738  32.6679736  37.1091332  34.2426562  32.9806611  38.1863855
  35.9110213  33.2592182  36.6793492  36.4458468  32.8813797  35.9103894
  36.3672264  34.4761721  37.2938783  35.8827792  34.6213709  38.2594494
  37.8785010  34.4415951  37.5066404  38.3592149  34.2219371  36.5533494
  38.4108714  35.8255149  38.0588620  37.9309188  36.0456473  39.0124280
  39.4902314  35.7698908  38.2002425  38.1787239  36.6157212  37.3448710
  38.2530126  33.3188669  38.5096415  37.9262959  32.3560800  38.1167041
  39.3334592  33.3045045  38.6529187  37.7627850  33.5060642  39.4650132
  36.0207518  35.6513556  36.3452957  36.2504214  35.5521233  35.1079413
  35.5162938  36.7400728  36.9232889  35.3010946  36.7300220  37.9100450
  35.2972131  38.0040325  36.1653671  35.5173480  37.8364257  35.1110675
  33.8642218  38.4809162  36.2910168  33.7503281  38.6169005  37.3664868
  33.7519619  39.4423362  35.7898486  32.7986866  37.5184119  35.7860009
  32.9429323  36.5486237  36.2622412  31.3761951  38.0540700  36.1209836
  31.2310295  39.0236858  35.6446740  30.6273034  37.3530446  35.7524384
  31.2726663  38.1611347  37.2007610  32.9929081  37.2660940  34.2616670
  33.9786560  36.8349732  34.0869235  32.2271501  36.5764509  33.9065497
  32.9090591  38.2099948  33.7230395  36.1939547  39.0510686  36.7786794
  36.2423707  39.1645627  37.9992419  36.9218744  39.8064490  35.9385732
  36.9528044  39.5914860  34.9521992  37.7301041  40.9132867  36.4293847
  37.4120891  41.1637991  37.4414169  39.2351036  40.5656071  36.4566734
  39.3833738  39.7257786  37.1354984  39.5414209  40.2777017  35.4509994
  40.0648472  41.7374584  36.9184784  40.0931791  42.4911694  36.1315744
  39.5642740  42.1474058  37.7956721  41.4952095  41.3330822  37.2895588
  41.6489388  40.2744595  37.8789579  42.4524374  42.0454077  36.9699621
  37.4550795  42.1046035  35.5407905  37.5021130  41.9789296  34.3067359
  37.0944182  43.2414656  36.1459055  36.8634801  43.2850067  37.1281840
  36.9609609  44.4702633  35.3410661  37.3113935  44.2955224  34.3238337
  35.4830194  44.8907875  35.2861636  35.3952534  45.7623350  34.6374716
  34.9044014  44.0672809  34.8676685  34.9895488  45.2076763  36.5673440
  34.0672922  45.4656261  36.5002292  37.8386208  45.5712534  35.9272887
  38.2398610  45.4919796  37.0843172  38.1175722  46.6137188  35.1481469
  37.8274483  46.6327792  34.1809012  38.8287991  47.7698264  35.6791322
  38.7181934  47.7721668  36.7635031  40.3584552  47.7740504  35.3312638
  40.7653220  48.6918968  35.7556654  40.8356209  46.9142322  35.8015035
  40.6283163  47.7457718  33.8207168  40.6435436  48.9371778  33.0614818
  40.4971682  49.8880950  33.5737613  40.8376114  48.9123623  31.7060907
  40.8073550  49.8419894  31.1377776  41.0238941  47.7174292  31.0575380
  41.2391485  47.7441902  29.6961477  41.2354092  48.6329249  29.3331929
  41.0416273  46.5155128  31.7676391  41.2190981  45.5681569  31.2585995
  40.8294935  46.5373174  33.1393565  40.8174971  45.6049650  33.7038698
  38.2274120  49.0303833  35.0685171  37.5395874  48.9607008  34.0244373
  38.5299088  50.1443104  35.7339997  38.8518112  50.0737813  36.6887268
  38.3474476  51.4793397  35.1594959  38.1814424  51.4376036  34.0830204
  37.1461254  52.2383041  35.8227214  36.2271748  51.6806314  35.6420832
  37.3755908  52.3720030  37.3413090  38.2941850  52.9300034  37.5227509
  36.5351388  52.9005781  37.7911418  37.4599227  51.3800908  37.7852682
  36.9455293  53.6421465  35.1531918  36.7385578  53.5123968  34.0909160
  36.1076960  54.1544444  35.6261463  37.8507121  54.2367419  35.2764848
  39.6585780  52.2008239  35.3376933  40.3777273  51.9741887  36.3220356
  40.0264280  53.0572632  34.3746729  39.4562681  53.2195058  33.5569356
  41.2953219  53.7833162  34.4928271  41.5051989  54.1710543  35.4896771
  42.4989918  52.8675165  34.0444182  42.5304790  51.9924275  34.6935154
  42.3409679  52.4129588  32.5736403  42.3098663  53.2875475  31.9238493
  43.1859416  51.7834849  32.2945657  41.4156293  51.8472170  32.4650761
  43.8310351  53.5227010  34.2845511  43.9454956  53.7355326  35.3474262
  44.6288784  52.8545405  33.9603486  43.8856410  54.4536223  33.7201889
  41.2009025  55.0174374  33.5902498  40.4343474  55.0152375  32.6380972
  41.9686418  56.0404151  33.9181963  42.5029407  56.0122543  34.7748356
  42.1079824  57.2101034  33.0526822  41.1251215  57.5772882  32.7572858
  42.8410880  58.3236882  33.7995892  43.8332363  57.9452006  34.0455327
  42.9340874  59.1704233  33.1195224  42.1388375  58.7715694  35.0740682
  40.9224528  58.5335122  35.2197187  42.8571870  59.3797816  35.9246562
  42.9475081  56.8997369  31.7983592  43.8724481  56.0874801  31.8220208
  42.6813832  57.5779290  30.6777956  41.8818650  58.1889525  30.5910765
  43.5858464  57.4558664  29.5386322  43.8959612  56.4165178  29.4305465
  42.8917765  57.9083217  28.2186393  42.4034377  58.8593974  28.4309586
  43.6830304  58.0625660  27.4850004  41.8614965  56.9184803  27.6587804
  41.7900312  57.1376721  26.5934408  42.2971763  55.9289694  27.7971759
  40.2030879  56.9453655  28.3844796  39.5442857  58.4932971  27.6452397
  39.5477450  58.4077581  26.5586073  38.5243501  58.6572301  27.9930297
  40.1694190  59.3344152  27.9449562  44.7619840  58.3700754  29.8296839
  44.5311955  59.5750027  30.1087771  46.0110068  57.8438317  29.7732959
  46.4426386  56.4390738  29.6294899  46.0119345  56.0165263  28.7217191
  46.1062174  55.8642423  30.4923274  47.9460349  56.5477553  29.5613589
  48.2432022  56.4102799  28.5216998  48.3663991  55.7456173  30.1679641
  48.3629486  57.8649906  30.0699926  49.1345455  58.2332995  29.3939115
  48.7514348  57.8465170  31.0882445  47.1354777  58.7684596  29.9974596
  46.9425654  59.3371849  30.9070939  47.3048506  59.7376927  28.8133207
  46.7492013  59.5048823  27.7366990  48.0762036  60.7902924  29.0464806
  48.5647788  60.8395010  29.9290747  48.2379853  61.9184948  28.0850796
  47.2717781  62.3662591  27.8525928  49.1375406  62.9934666  28.7261350
  48.7046027  63.1985879  29.7052107  50.1147756  62.5273431  28.8519947
  49.2979007  64.3372427  27.9339940  49.2000666  64.1360617  26.8671971
  48.4925355  64.9984278  28.2538693  50.6623312  65.0163723  28.2078272
  51.0541980  65.1946734  29.3920641  51.3591272  65.3548636  27.2278538
  48.8453143  61.3739802  26.8199218  49.8180328  60.6270436  26.8806305
  48.2534443  61.7018211  25.6609644  47.4338384  62.2916438  25.6396408
  48.7820987  61.2120646  24.4003720  48.5698005  61.9674383  23.6437749
  49.8608660  61.1099046  24.5183712  48.2089563  59.8877796  23.9479870
  48.4804859  59.4582530  22.8402219  47.3987435  59.2329127  24.7838629
  47.1839047  59.6096266  25.6960198  46.8545234  57.9309670  24.4296484
  47.2011053  57.6371333  23.4388699  47.3172904  56.8805606  25.4408072
  47.0999142  57.2653981  26.4371741  46.7853303  55.9411002  25.2906983
  48.7663644  56.6229585  25.3407484  49.5131687  57.0378450  26.2101381
  49.2012395  55.9615185  24.2477275  50.1857991  55.7641685  24.1391213
  48.5401671  55.6668462  23.5432757  45.3413212  57.9177803  24.3423492
  44.6308512  58.5752785  25.1314590  44.8475132  57.1363086  23.3969389
  45.4838974  56.6463577  22.7845153  43.4414393  56.9726353  23.1858079
  42.9170412  57.9160942  23.3374360  43.2133434  56.5148527  21.7550489
  42.1412534  56.4906484  21.5597636  43.6894913  57.2242699  21.0782104
  43.7690682  55.2034251  21.5438605  43.6147804  54.9329579  20.6357621
  42.8103024  55.9559877  24.1461369  43.5515228  55.2190032  24.8663724
  41.4691771  55.9038240  24.1509210  40.9178272  56.6212933  23.7022000
  40.7575713  54.7966500  24.8405643  41.0144828  54.8486231  25.8985787
  39.2343565  54.8281872  24.7053534  38.9841217  54.8749916  23.6454991
  38.8321050  53.9097667  25.1329016  38.6399528  56.0103574  25.4117534
  39.0142897  55.9983862  26.4353887  39.0178978  56.8940090  24.8975390
  37.1243512  56.0454659  25.4286454  36.4720769  54.9619957  25.4436311
  36.5968269  57.1923314  25.4404622  41.2205308  53.4563536  24.3079444
  41.5075728  52.5510592  25.0927998  41.3105490  53.3317578  22.9835949
  40.9951411  54.0572444  22.3556726  41.7838053  52.0750686  22.4080239
  41.1552446  51.2498859  22.7428135  41.7244218  52.1467191  20.8678769
  42.0967418  53.1344739  20.5961830  42.3784454  51.3837165  20.4457629
  40.2832200  51.9630478  20.3065872  39.3617353  51.4375600  21.0108554
  40.0841044  52.3260424  19.1011632  43.1916804  51.6866190  22.8846205
  43.4434958  50.4855966  23.2272576  44.1097211  52.6536314  22.9066726
  43.8656115  53.6113305  22.6985328  45.4912776  52.3618776  23.3457029
  45.9422923  51.6508638  22.6535004  46.3463341  53.6066356  23.3843792
  45.7516389  54.3527327  23.9114238  47.2520656  53.3966460  23.9532859
  46.7299147  54.1473336  21.9850413  46.6390434  53.4052177  20.9649038
  47.1627840  55.3342164  21.9934284  45.4465465  51.8736759  24.7948213
  46.1698369  50.9149849  25.1765575  44.6127368  52.5528400  25.5904836
  44.0069852  53.2671063  25.2123462  44.6043087  52.3249190  27.0736912
  45.6374193  52.3442924  27.4206876  43.8329600  53.4706673  27.7586926
  42.7827823  53.4288766  27.4697623  43.9520421  53.3179157  29.2996557
  45.0019773  53.3600764  29.5894110  43.4080136  54.1260874  29.7885223
  43.5298308  52.3602234  29.6040629  44.4818586  54.7191221  27.3772936
  44.0244422  55.4561535  27.7885784  44.0112368  50.9929505  27.4001552
  44.6222616  50.1909211  28.1930357  42.8574643  50.7164165  26.7905454
  42.2989947  51.4290416  26.3429110  42.2925586  49.3688123  26.9190341
  42.2370090  49.1096031  27.9763061  40.8853548  49.2641855  26.3135959
  40.9370373  49.6069921  25.2801977  40.5872272  48.2159402  26.3336407
  39.8433589  50.1124466  27.0877009  39.7625245  49.6903320  28.0893924
  40.2360183  51.1272168  27.1522147  38.4475824  50.1419699  26.4277726
  37.8307186  50.9012435  26.9084823  38.5481361  50.3740731  25.3675290
  37.7914937  48.8585163  26.5613967  38.2252124  48.1902492  27.1822079
  36.6758441  48.5062444  25.9293497  36.0836022  49.3446534  25.0790087
  36.4845711  50.2564726  24.9119465  35.2365966  49.0642678  24.6056536
  36.1475296  47.3078142  26.1518714  36.5955854  46.6738424  26.7979565
  35.3002464  47.0361726  25.6739375  43.2204176  48.2799295  26.3876943
  43.3148463  47.2100958  26.9868270  43.9150060  48.5075821  25.2786284
  43.8368295  49.3627760  24.7469977  44.8103547  47.4585768  24.7802866
  44.2383129  46.5424755  24.6332298  45.4681146  47.8496539  23.4402897
  45.8393834  48.8694822  23.5413295  46.3065843  47.1729535  23.2755318
  44.5121478  47.7721737  22.2544919  43.9351732  46.8474983  22.2677812
  43.8321820  48.6238535  22.2347426  45.5523954  47.8048415  20.7681599
  47.2197354  48.1153563  21.4421716  47.4912801  47.3112358  22.1260961
  47.9405435  48.1560087  20.6255421  47.2246184  49.0645457  21.9780044
  45.9220649  47.1233893  25.7608420  46.2767842  45.9567739  25.9297525
  46.5389394  48.1675200  26.3190999  46.2874641  49.0981444  26.0177732
  47.5992500  48.0240127  27.3290287  48.4300885  47.4562567  26.9101496
  48.1291374  49.4260020  27.7816294  48.5643526  49.9056965  26.9049423
  47.3536716  50.0682080  28.1991510  49.2317636  49.3422269  28.8236122
  50.5504393  49.2085035  28.4347708  50.7817537  49.2040632  27.3696071
  51.5924265  49.0788167  29.3867923  52.6274566  48.9853624  29.0580377
  51.2939193  49.0711398  30.7295878  52.0949936  48.9926571  31.4645845
  49.9589952  49.1642681  31.1536006  49.7222355  49.1177638  32.2165598
  48.9254985  49.3176860  30.2073883  47.8923140  49.4172691  30.5401239
  47.0618634  47.2376346  28.5593518  47.5919548  46.1620119  28.8913880
  45.9993101  47.7432961  29.2048337  45.5837723  48.6199000  28.9237764
  45.4710827  47.0711822  30.4182222  46.3059122  46.9524840  31.1089244
  44.3733918  47.9422127  31.1072119  43.5268367  48.0623845  30.4311917
  44.0405173  47.4515302  32.0218296  44.7854980  48.9216027  31.3502404
  44.9376612  45.6550732  30.1014528  45.1672485  44.6894326  30.9093580
  44.2571222  45.5032689  28.9616602  44.0572123  46.2970159  28.3699668
  43.7360947  44.1624529  28.5498680  43.0695501  43.7767357  29.3212561
  42.9492974  44.2596434  27.2192226  43.5672000  44.8050007  26.5058636
  42.8046266  43.2381829  26.8673860  41.5946385  44.9489646  27.3492702
  41.1245100  45.3112046  28.4620273  41.0092454  45.1308326  26.2500619
  44.8470566  43.1160168  28.3793392  44.7103783  41.9331986  28.8248324
  45.9840827  43.5238244  27.7932627  46.0734430  44.4575880  27.4188304
  47.1037146  42.6121503  27.6432774  46.8208892  41.7552498  27.0318606
  48.2879871  43.3359918  26.9618420  48.5357318  44.2184771  27.5517085
  49.5290015  42.4255859  26.8528773  49.2821434  41.5430505  26.2627146
  50.3389780  42.9709985  26.3685611  49.8438052  42.1186638  27.8502729
  47.8460744  43.7242317  25.6597422  48.5573628  44.1791183  25.2028536
  47.5252971  42.0665797  29.0005021  47.7243859  40.8246879  29.1717840
  47.6442124  42.9647076  29.9845872  47.5066095  43.9518094  29.8208957
  48.0831644  42.5278926  31.3396841  48.9435104  41.8643222  31.2526308
  48.4769228  43.7452399  32.2616304  47.6536651  44.4596249  32.2619735
  48.7679826  43.2778113  33.7406979  49.5914873  42.5637099  33.7412143
  49.0363171  44.1414976  34.3490916  47.8774463  42.8049383  34.1547486
  49.7083625  44.4207360  31.6908475  49.4935566  44.7779266  30.6836855
  49.9869094  45.2638104  32.3230950  50.5312312  43.7068109  31.6548080
  47.0064864  41.6667481  32.0166107  47.3125838  40.5640710  32.5545006
  45.7761907  42.1830093  32.0624801  45.5795462  43.0903330  31.6647441
  44.6897973  41.4845889  32.7922316  45.0382306  41.2937764  33.8072607
  43.3750370  42.3395129  32.8655270  43.0683183  42.6173099  31.8571364
  42.2483383  41.5131037  33.5390794  42.5541601  41.2353142  34.5477453
  41.3380672  42.1107277  33.5875828  42.0599263  40.6117194  32.9558908
  43.6149627  43.6049352  33.7195224  44.4069441  44.2031714  33.2689882
  42.6979103  44.1923257  33.7652034  43.9095060  43.3131225  34.7275851
  44.4169679  40.1118886  32.1734101  44.2657785  39.0953130  32.8857344
  44.4287413  40.0298423  30.8501963  44.5832332  40.8152261  30.2342386
  44.1113533  38.7284793  30.2517589  43.2092899  38.3315949  30.7174451
  43.8717852  38.8396057  28.7193685  44.7228904  39.3785549  28.3031317
  43.8580766  37.8233285  28.3255505  42.5680287  39.5589415  28.3279288
  41.7427440  38.9892560  28.7550874  42.5966882  40.5504428  28.7798202
  42.3590760  39.6980696  26.7603447  42.0660167  38.7238830  26.3689679
  41.5566116  40.4150707  26.5869675  43.6174984  40.1679530  26.0556911
  43.7354362  41.2337510  26.2513079  44.4631694  39.6256905  26.4786463
  43.5639407  39.9323525  24.5606316  42.7806444  40.4350871  24.1684524
  44.4203724  40.2600827  24.1372907  43.4550884  38.9447733  24.3791442
  45.1977204  37.6808958  30.5324139  44.8772033  36.5062665  30.7402808
  46.4723947  38.0890418  30.4965363  46.7179802  39.0376451  30.2517121
  47.5351369  37.1649432  30.7994253  47.4661400  36.2834175  30.1620470
  48.8875070  37.8491170  30.5464624  48.7754839  38.2347260  29.5331235
  49.0341703  38.6799130  31.2366565  50.1149072  36.9050914  30.6067826
  50.1463769  36.4474585  31.5955609  50.0442395  35.8122542  29.5424824
  50.0132057  36.2691377  28.5533448  50.9232844  35.1723281  29.6191336
  49.1457146  35.2141493  29.6942188  51.4057560  37.7196256  30.5083586
  51.4549255  38.4251581  31.3377594  52.2636140  37.0485684  30.5515245
  51.4199472  38.2664460  29.5655516  47.4244315  36.7327666  32.2758489
  47.6489735  35.5485048  32.6227580  47.1301587  37.6872931  33.1493858
  46.9580552  38.6403325  32.8626881  47.0610174  37.3610017  34.6124396
  48.0059652  36.9297410  34.9428743  46.7942246  38.6243659  35.4192968
  45.9943349  39.1661777  34.9146030  46.4749043  38.3627415  36.4281017
  48.0377134  39.5517535  35.5167635  49.1287047  39.1523910  35.2245022
  47.8243066  40.7782640  35.9707882  48.5965278  41.4237791  36.0549582
  46.8904144  41.0619158  36.2305723  45.9343546  36.3460382  34.8410636
  46.0992833  35.4015346  35.6431817  44.7812681  36.5591944  34.1879564
  44.6017600  37.3941855  33.6488218  43.6722309  35.5874463  34.3719624
  43.5568150  35.4125696  35.4416336  42.3176113  36.0484953  33.7993076
  42.5106003  36.2802721  32.7518659  41.5888368  35.2405174  33.8637996
  41.7589225  37.3051485  34.5112504  42.5131699  38.0908948  34.5538487
  40.5679976  37.7889271  33.6948038  39.8130774  37.0038320  33.6521432
  40.1423582  38.6764918  34.1629499  40.8948981  38.0332312  32.6840852
  41.3798429  36.9870438  35.9765883  42.2634230  36.6437744  36.5146884
  40.9900897  37.8856218  36.4548676  40.6184794  36.2072309  35.9943772
  44.0528432  34.2186072  33.8113737  43.6857832  33.1525920  34.3994337
  44.7864044  34.2070982  32.6914033  45.0120934  35.0583565  32.1969106
  45.2279752  32.9197509  32.1099069  44.3668859  32.2609387  31.9976981
  45.8751755  33.1169181  30.7369186  46.4229461  34.0592495  30.7445454
  46.5692211  32.2952353  30.5601759  44.8507128  33.1455828  29.6498658
  44.6790034  32.1020471  29.3859530  43.9131051  33.5966858  29.9746733
  45.3475810  33.8906062  28.4048103  46.5472511  34.2137240  28.2889980
  44.4156581  34.2401493  27.5225171  44.6802229  34.7333736  26.6817813
  43.4477142  34.0107453  27.6973306  46.1896777  32.2297204  33.0685055
  46.1050800  30.9888383  33.2662444  47.0721489  33.0006120  33.7066683
  47.1759275  33.9809501  33.4869719  48.0227371  32.3907187  34.6710553
  48.4078816  31.4621854  34.2496422  49.2200781  33.3270914  34.9850021
  49.7917989  33.4796697  34.0696036  48.8314190  34.2838656  35.3337531
  50.1455267  32.7125862  36.0789912  49.5043535  32.4029973  36.9043109
  50.6214424  31.8354564  35.6405284  51.2339884  33.6809575  36.6062322
  51.9327934  33.8585880  35.7887863  50.7369855  34.6150355  36.8681213
  52.0188120  33.1352283  37.8582197  51.3121367  33.0769327  38.6860555
  52.3714059  32.1339039  37.6109824  53.2186294  34.0165280  38.2673444
  52.8920703  34.9443024  38.4968952  53.6749011  33.6114571  39.0722255
  53.8737761  34.0703269  37.5005410  47.2921540  31.9439914  35.9475239
  47.5806951  30.8696995  36.4990907  46.2925077  32.6973556  36.3865497
  46.1051497  33.6093365  35.9950308  45.4488643  32.2287205  37.5096156
  46.0642147  32.1091076  38.4013195  44.3311989  33.2312153  37.8167687
  44.8849955  34.1130344  38.1389545  43.7678555  33.4664596  36.9137713
  43.3567908  32.8000981  38.9327641  42.8361884  31.8975076  38.6127572
  44.1286871  32.5124535  40.2799682  44.6491961  33.4147789  40.6008704
  43.4179120  32.2106025  41.0492441  44.8525304  31.7131439  40.1210490
  42.2555822  33.8422491  39.1072314  41.7026379  33.9470786  38.1737631
  41.5758442  33.5244691  39.8978473  42.7006528  34.8005719  39.3748663
  44.8498075  30.8511667  37.1698355  44.8399603  29.9511923  38.0274200
  44.3102605  30.7123019  35.9704542  44.2429802  31.4835912  35.3218515
  43.7126934  29.4300629  35.5892630  42.9261019  29.2110083  36.3113351
  43.0927252  29.5084348  34.2051018  43.8695480  29.7182421  33.4698282
  42.6142570  28.5585939  33.9664166  42.3487712  30.3047983  34.1841983
  44.7393469  28.2714601  35.6555374  44.4266251  27.1803292  36.1972341
  45.9424403  28.5176772  35.1205455  46.0986855  29.3926469  34.6408426
  47.0279181  27.5032709  35.1068818  46.6931386  26.5890275  34.6167994
  48.2471028  28.0665339  34.3270307  48.5000508  29.0377875  34.7522177
  49.4959178  27.1200658  34.4063096  49.2438596  26.1486983  33.9808554
  50.3211340  27.5587544  33.8453553  49.7915811  26.9942691  35.4478753
  47.8320808  28.2083606  32.9578532  48.5599436  28.5558667  32.4372232
  47.3881714  27.0574181  36.5137360  47.4229134  25.8369713  36.8093853
  47.6185152  28.0420477  37.3878478  47.5532342  29.0006773  37.0766130
  48.0293189  27.7910856  38.7469917  48.8712934  27.1072733  38.8545977
  48.3686469  29.1155667  39.4828125  47.5716770  29.8300017  39.2766070
  48.5059265  28.9182811  41.0358826  49.3030715  28.2042761  41.2429034
  48.7435927  29.8733350  41.5043772  47.5664635  28.5402018  41.4390786
  49.5939133  29.7684736  38.8575446  49.3948051  29.9856845  37.8081270
  49.8201962  30.6960113  39.3834434  50.4450919  29.0917696  38.9328270
  46.9445834  27.0166400  39.4869133  47.2500743  25.9584454  40.1188827
  45.6901153  27.4843355  39.4131036  45.4954084  28.3522195  38.9345997
  44.5887780  26.8182104  40.1248636  44.9204853  26.7321684  41.1595936
  43.3005531  27.6480126  40.0908941  42.9510225  27.7353392  39.0621558
  42.5359501  27.1577399  40.6934845  43.4972605  28.6419128  40.4928490
  44.3319017  25.3783330  39.6034266  44.0881832  24.4471858  40.3968825
  44.4058696  25.2120663  38.2871967  44.5187723  26.0166806  37.6872399
  44.1887115  23.8962253  37.6583892  43.2750386  23.4511423  38.0523462
  44.0536067  24.0267689  36.1387819  44.8254685  24.6976893  35.7616953
  44.1690166  23.0456531  35.6781385  42.6715837  24.5933656  35.7940234
  41.9314867  23.8271742  36.0249090  42.5325362  25.4446406  36.4604286
  42.5060948  25.0290364  34.4043784  43.4783125  24.8763389  33.6323388
  41.4022715  25.5045734  34.0422118  45.3018498  22.9068632  38.0917385
  45.0255013  21.7517016  38.4516027  46.5374138  23.3696076  38.1242671
  46.7731863  24.2762727  37.7468164  47.6160258  22.5282175  38.6248566
  47.5794655  21.5848442  38.0800543  48.9425158  23.1742867  38.3739588
  48.9977755  24.1158654  38.9202883  49.7395555  22.5117288  38.7113681
  49.0576708  23.3664671  37.3072324  47.4304177  22.1936707  40.1190286
  47.6380505  21.0408941  40.5357214  47.0554916  23.1843737  40.9335714
  47.0358215  24.1408308  40.6096853  46.7554357  22.9226991  42.3400205
  47.6127170  22.4298856  42.7986083  46.4578007  24.1988212  43.1124684
  45.7369753  24.7836299  42.5410588  46.0215881  23.9229929  44.0725399
  47.6897248  25.0128882  43.3410026  48.3692555  24.4548371  43.9851438
  48.1724019  25.2027023  42.3823080  47.2886245  26.5863328  44.1244160
  46.8106040  26.1129735  45.7996626  47.6445268  25.6077924  46.2869652
  46.5444552  27.0043838  46.3676883  45.9537953  25.4405285  45.7572623
  45.6120982  21.9400200  42.5181106  45.6780645  21.1016757  43.4238513
  44.6054869  22.0153537  41.6432920  44.6088113  22.7627018  40.9639105
  43.4470759  21.1273582  41.6900473  43.0535964  21.1960779  42.7042222
  42.3580389  21.5768689  40.7109521  42.7340723  21.5049590  39.6903994
  41.4828764  20.9365135  40.8211151  42.0811738  22.6094335  40.9236854
  43.8251489  19.6487398  41.4423613  43.2463454  18.7582138  42.0710933
  44.7639515  19.4033753  40.5324041  45.1177922  20.1654197  39.9718825
  45.2675090  18.0252499  40.2526592  44.4018027  17.3684354  40.1675337
  46.0356956  17.9997784  38.9225695  45.3877869  18.3552170  38.1213349
  46.9105940  18.6458194  38.9952589  46.4814513  16.5730551  38.6202668
  47.1298131  16.2170700  39.4208931  45.6070070  15.9264671  38.5469663
  47.2440411  16.5477686  37.2998720  46.5961339  16.9032088  36.4986370
  48.1189400  17.1938085  37.3725632  47.6933630  15.1760128  36.9730739
  47.4676830  14.4292931  37.6146171  48.3807528  14.8816701  35.8731838
  48.7152838  15.8100977  34.9815496  48.4451477  16.7715137  35.1325655
  49.2379229  15.5494618  34.1575248  48.7344169  13.6144511  35.6783029
  48.4787827  12.9118648  36.3573637  49.2569991  13.3605362  34.8521468
  46.1588506  17.4769664  41.3929668  46.2523729  16.2540121  41.6022761
  46.8174982  18.3850215  42.1207017  46.6779413  19.3577346  41.8873511
  47.8509510  18.0464492  43.1151614  48.3799562  17.1410148  42.8177708
  48.8726491  19.2070183  43.2137444  49.7690905  18.9272233  42.6603849
  48.4248379  20.0894759  42.7567612  49.2740275  19.5515055  44.6578192
  49.6915661  18.6845044  45.4244746  49.1493424  20.8400042  45.0233062
  49.3987462  21.1223241  45.9604257  48.8068850  21.5193137  44.3589552
  47.3050841  17.6116928  44.4829626  46.2062821  18.0113811  44.8949606
  47.9143729  16.7911776  45.1655763  50.2901470  46.4073285  36.8569627
  50.3736447  45.6879583  38.0571925  51.4417476  45.6252480  38.9084860
  51.0979633  44.8208301  39.9441743  49.8159988  44.3515911  39.7846228
  49.3362813  44.9057104  38.5669554  48.1261324  44.8184380  37.8506697
  47.9997246  45.5197541  36.6448921  46.7690530  45.4595963  35.8700434
  46.6727523  46.1367920  34.7224102  47.7755048  46.9565099  34.1933009
  47.6499712  47.5610497  33.1347326  48.9340303  46.9983936  34.9509738
  49.0661498  46.2902225  36.1739964  51.2553768  47.2069187  36.2697209
  52.5150746  46.5965289  35.9920040  52.6118777  46.1481633  32.8723868
  53.2629992  47.2720648  33.6291510  54.0300512  48.2375399  32.7630477
  53.1990543  47.4528311  34.9632498  51.8574539  44.6827866  40.7013117
  49.2910986  43.6933584  40.4615132  47.3105258  44.2135628  38.2373399
  45.9397572  44.8633586  36.2367888  45.7725780  46.1154939  34.1194784
  52.3848623  45.5666219  35.6438282  53.1207248  46.5728569  36.9044164
  51.9838463  45.5140979  33.5036821  51.9703266  46.5477109  32.0802807
  53.3752294  45.5122161  32.4114721  53.3608963  48.7053803  32.0328620
  54.4976194  49.0383177  33.3460442  54.8240043  47.7122414  32.2223243
  53.6860267  48.3269198  35.3920970  38.9481236  61.7089383  35.3153301
  44.1882735  15.3990274  46.2491020  32.5331849  58.7409732  26.7961076
  53.3011415  48.8564739  52.4166632  63.2603925  59.6201923  39.6844329
  36.4548200  53.5956276  73.5046853  35.7389050  11.1016979  23.8762774
  26.0846973  75.3877496  36.6702229  34.4439985  18.6370811  12.4156009
  32.8888888  21.5848497  69.1749943   4.3614624  44.1928039  63.0756775
  39.6520039  73.0998183  16.4597310  54.0839242  29.8754927   3.2980898
  37.2562716  24.9669709  17.2062493  56.4335736  56.5635043  52.0042440
  52.6927820  33.7618241  56.5976097   3.1979063  55.0844851  26.9744849
  49.0071306  23.0500975  28.0757846  34.8651589  25.5934396  59.5038949
  18.1670479   4.6312182  32.2166781  64.7204347  44.0081284  19.8111205
  19.6588022  62.8766761  20.4004369  57.6622509  30.0090537  18.5467373
  25.2558169  10.0645505  30.0012362  78.1537825  57.1135036  29.6505114
  61.1931725  24.4088116  44.2571060  15.6136569  25.3079024  37.6579749
  53.8698664  43.6536610   0.6641170  30.5040701  15.3250265  23.0242136
  24.6188185  58.0013749  10.3736628  52.1899866  53.1428361  65.9873569
  56.3637278  36.1912016  21.4805996  68.6329081  13.8743726  40.0229507
   9.0962353  25.3221023  56.4563747  43.7153469   1.5163033  39.8475881
  17.6615184  41.8648200  27.8037347  60.2216448  28.0584432   5.5684995
  73.7148842  38.7613853  50.6903635  62.9723706  55.0372564  10.2722839
  45.1529355  11.4260188  68.8198402  26.3059411  25.2194842  64.6785022
  21.9593904  45.8646695  40.8577094  43.6886708  82.1576275  59.0091065
  41.4198789  14.4992482  50.1282898  69.8284478  28.2158348  68.9711612
  70.8617095  44.8156436  29.0119940  50.2983152  52.9372713   8.0633586
  24.4429084  43.3467658  81.3153868  40.6645094  29.7440809  10.0835627
  55.3720978   6.4718816  51.7862687  37.3042541  18.7995198   9.2179877
  23.0637849  20.8016577  23.4564424  64.5493097  20.3810339  35.9203171
   1.2953079  36.1024395  28.9698301   4.3661572  18.9067807  28.3192156
  42.0105082  22.5396983  51.9080775  23.9789616  48.8652944  42.4430428
  78.3770644  56.9556195  56.0559660  31.7111703  -2.9544875  22.5808578
  26.4734486  -3.0414443  28.6513695  52.8820763  15.7929429  42.1357856
  44.7164730  38.3033301  85.7205520  44.1876201  38.5192935  86.3802826
  45.2389750  38.9969440  85.6406489  44.7153183  38.4376438  85.8061119
  36.6064338  42.1996518  84.5212988  36.0221553  42.7046549  84.9278851
  36.2034433  41.9738905  83.7809579  36.4603642  42.2404766  84.4718013
  41.0641552  38.4462170  82.9981908  41.3037556  38.6540154  82.1857251
  41.3857393  37.6419679  83.1070853  41.1478710  38.3576271  82.8942461
  34.2750934  36.0600057  82.0542032  33.5609111  35.7738237  82.4664465
  34.7594903  36.3996683  82.6948420  34.2410297  36.0681707  82.2097667
  41.4498252  44.5630011  82.4303840  41.8649401  44.2315035  81.7388336
  40.6190182  44.3298914  82.3023977  41.3886261  44.4801267  82.3094688
  44.1431642  40.8140571  81.6165042  44.0611805  40.8842758  82.4820029
  44.7811363  41.3770315  81.4248782  44.2251480  40.9079542  81.7154991
  41.2471752  40.8361025  84.6273648  42.0612391  41.1275918  84.5156420
  41.1830894  40.1820887  84.0531941  41.3574491  40.7826220  84.5262486
  37.7582476  39.5284832  84.0920850  38.1427628  39.3092539  84.8437395
  37.5094096  40.3547778  84.2221926  37.7784548  39.6182979  84.2221926
  42.6847775  44.0522825  79.9689453  43.4520760  44.1122950  79.5595305
  42.2379084  43.4803266  79.4845772  42.7321202  43.9759401  79.8367164
  38.7322375  40.3241591  81.4326564  39.0214900  41.1006474  81.7070138
  38.8194174  39.8130323  82.1341063  38.7876631  40.3633510  81.5769061
  43.5253994  35.7174854  85.6880250  42.9977013  35.8003598  84.9985959
  43.9849702  36.4592726  85.6844895  43.5155844  35.8395517  85.5854946
  35.5187059  33.9877374  80.7121146  35.1699863  34.6397099  81.1752695
  35.0383505  33.9734487  79.9845017  35.3957303  34.0820428  80.6732237
  35.9211190  37.4803015  83.5539767  36.5556270  38.0763441  83.4889229
  36.0036801  37.1806473  84.3685637  36.0267741  37.5243924  83.6642854
  40.5601284  35.3525115  85.0275873  39.9666123  35.6742111  84.4760440
  40.5976562  34.5066210  84.8196979  40.4775673  35.2749443  84.9158644
  38.5330516  35.9922365  83.1205203  38.9129481  36.0101994  82.3356318
  37.7923112  36.4376354  82.9996050  38.4799354  36.0604140  82.9868771
  39.3315271  42.8299872  84.5113993  38.5226593  42.5066545  84.4647302
  39.8390179  42.1233094  84.4442241  39.2864937  42.6781188  84.4944287
  47.9351241  15.3166692  74.5715232  47.9045245  16.1711329  74.7433501
  48.5332589  15.0161984  75.1301375  48.0188399  15.3983188  74.6790034
  35.5192065  23.9405061  75.0905394  34.7674965  23.5620599  74.8621439
  35.9678077  23.9723494  74.3424204  35.4741732  23.8890668  74.9462896
  40.9717025  24.3630430  70.5190941  40.6368394  25.0407352  70.0835163
  41.4843896  23.9735742  69.9307812  40.9982606  24.4055008  70.3677732
  40.5121316  26.3144699  76.4602052  40.8960696  26.8831598  75.9206827
  40.4480458  25.5894209  75.9807868  40.5594744  26.2920162  76.3095915
  45.7567815  17.8918994  72.8433541  45.6407341  18.6426680  73.2725680
  46.5523702  17.6342947  73.0929628  45.8572405  17.9653841  72.9437633
  36.9377561  28.8701042  78.7583022  37.5815016  29.3114206  79.1479180
  37.2633817  28.0654468  78.6713281  37.0809390  28.8166237  78.8028499
  37.6398141  21.8813017  74.1302884  37.9613982  22.4218224  73.5264192
  38.2870237  21.3109788  74.2625174  37.7824196  21.8772192  74.0609919
  39.8787784  20.2699457  74.2017062  40.3181420  19.6616557  74.6471835
  39.7292447  19.8906830  73.4302527  39.9209250  20.1237928  74.1536229
  43.4797121  18.6226638  71.1547831  43.3948416  19.4787605  71.2997400
  43.9681504  18.3470962  71.8229990  43.5386018  18.7083960  71.2749913
  44.4115554  15.2411432  72.6545566  43.8827025  15.4571066  73.3142873
  44.9340574  15.9347571  72.5746536  44.4104007  15.3754569  72.7401166
  49.8663607  20.8157737  78.0278611  49.0361310  21.0268380  78.1912027
  49.8172859  19.9894791  77.7520894  49.7370342  20.7247343  78.0115976
  36.3015162  19.1374649  71.4553034  35.7172377  19.6424680  71.8618898
  35.8985257  18.9117036  70.7149626  36.1554466  19.1782897  71.4058060
  40.7592376  15.3840301  69.9321955  40.9988380  15.5918285  69.1197298
  41.0808217  14.5797810  70.0410899  40.8429534  15.2954402  69.8282508
  47.1227922  21.4857091  78.1643327  46.6863154  21.4893834  78.9202298
  46.7890838  22.1662590  77.7322904  47.0090542  21.5869547  78.2124159
  50.2572268  18.2038011  77.0562964  50.9188702  17.6428680  76.9558872
  49.6163680  17.7090042  77.3815655  50.2601136  18.0474420  77.0895304
  41.1449076  21.5008143  69.3643887  41.5600225  21.1693166  68.6728383
  40.3141006  21.2677045  69.2364024  41.0837085  21.4179398  69.2434735
  46.5437099  19.2203394  76.7974953  46.7792688  19.3648592  75.9701803
  46.6926663  19.9845802  77.1906466  46.6002902  19.3542448  76.7338557
  48.3727556  18.0605059  74.6344556  48.7035773  18.5932700  74.0284651
  48.9460644  18.1143947  75.2906507  48.5061235  18.1474628  74.6422338
  43.8382466  17.7518702  68.5505089  43.7562629  17.8220889  69.4160076
  44.4762187  18.3148446  68.3588829  43.9202304  17.8457673  68.6495038
  40.9422576  17.7739156  71.5613695  41.7563215  18.0654049  71.4496466
  40.8781718  17.1199019  70.9871988  41.0525315  17.7204351  71.4602532
  37.4533300  16.4662963  71.0260896  37.8378452  16.2470670  71.7777442
  37.2044920  17.2925909  71.1561973  37.4735372  16.5561110  71.1561973
  37.7356542  24.6867839  73.0993267  38.0254841  24.2956821  72.3752493
  38.4660023  24.8684544  73.5398542  37.8863426  24.6561653  73.0576074
  35.6762458  26.6635222  76.1653416  35.4562753  26.3732576  76.9580083
  35.4556980  26.0050177  75.6371329  35.6110052  26.5234930  76.2042325
  37.8430414  28.0364612  74.9484109  38.4954472  27.5041054  75.1775135
  37.1456022  27.6833264  75.3351983  37.8361132  27.9054135  75.0396277
  45.8370332  20.3569026  74.2915088  46.4028365  21.0162236  74.2073631
  45.1898235  20.7018724  74.7631490  45.8249088  20.5050967  74.3487845
  42.3076910  23.3007810  73.7152167  42.0663586  22.5675671  73.3079232
  42.4878243  23.8494667  73.0618501  42.2984534  23.2730201  73.5582390
  47.0333030  20.4075253  71.0840725  46.6539839  19.6212391  71.0770014
  46.3699275  20.9562110  70.9412369  46.8791505  20.3720077  71.0621522
  39.8579938  23.9588772  74.9229551  40.6229829  23.6898416  74.6012215
  39.7558028  23.4738783  75.6399614  39.9561433  23.8478337  74.9809378
  42.3798599  20.9900956  66.9029500  43.1471584  21.0501081  66.4935352
  41.9329907  20.4181398  66.4185819  42.4272026  20.9137532  66.7707211
  45.2793129  22.6520744  71.4192410  45.3612966  23.4587731  71.0953861
  45.7642871  22.6716704  72.1433184  45.3630286  22.7741407  71.4779309
  40.9151221  17.2015515  74.3883824  41.4566767  16.6985896  74.8522445
  41.2297781  17.1480710  73.5773309  41.0415619  17.1194936  74.3367636
  39.0837671  22.5932867  71.6723852  39.1530492  21.7347405  71.8116853
  39.8626126  22.8104748  71.3442877  39.2090521  22.4985731  71.6441009
  43.4745159  25.0170568  75.8860346  43.0824951  24.7137283  75.1683212
  43.6298231  25.8539658  75.6965299  43.4398749  25.0954405  75.7516843
  43.6384834  21.5820557  75.8266376  43.2799488  21.7535200  76.6030408
  43.1523544  22.0433763  75.2694375  43.5143530  21.6759528  75.8591645
  38.4273199  17.2619722  68.3666610  38.7165724  18.0384605  68.6410185
  38.5144998  16.7508454  69.0681110  38.4827455  17.3011641  68.5109108
  44.2435464  24.4206061  79.3190380  44.0455153  24.9096875  78.6246591
  43.6223175  24.6247302  79.8974513  44.1223028  24.5222599  79.3013603
  43.2204818  12.6552986  72.6220297  42.6927836  12.7381730  71.9326006
  43.6800526  13.3970857  72.6184942  43.2106668  12.7773648  72.5194992
  35.2137883  10.9255505  67.6461192  34.8650687  11.5775230  68.1092742
  34.7334329  10.9112618  66.9185064  35.0908127  11.0198559  67.6072284
  42.7741900  21.2256549  71.7529954  43.4976099  21.6914662  71.6094528
  42.3342491  21.2930159  71.0027551  42.8157593  21.3040386  71.6214736
  43.0345750  25.2877254  71.9128015  42.3175060  25.1138116  71.4475253
  43.6852488  25.0529826  71.3803501  43.0247601  25.2273047  71.7657233
  38.3158912  26.5239013  78.3418163  37.9019311  25.8613143  77.9522005
  39.0006286  26.6716872  77.8213858  38.3557284  26.4479671  78.2074661
  41.6824206  25.6829098  79.0941780  41.2840489  25.7931368  78.3262600
  41.0675426  25.8911164  79.6768340  41.5323095  25.7302666  79.0673079
  49.4166049  20.2581065  72.4784871  49.7999655  21.0072421  72.7082968
  48.6210162  20.5046884  72.2196860  49.3559831  20.4050759  72.4742444
  38.2281340  12.9300496  70.0545250  38.6080305  12.9480126  69.2696364
  37.4873936  13.3754485  69.9336097  38.1750178  12.9982271  69.9208818
  39.0266094  19.7678003  71.4454040  38.2177417  19.4444676  71.3987349
  39.5341003  19.0611225  71.3782288  38.9815761  19.6159319  71.4284334
  58.9083824  30.8352000  74.5715232  58.8777829  31.6896636  74.7433501
  59.5065173  30.5347292  75.1301375  58.9920982  30.9168496  74.6790034
  52.1083509  29.9227651  79.3268162  51.2521405  30.0836149  79.3777279
  52.1551163  29.0519715  79.3473223  51.9882621  29.8178453  79.3374228
  46.4924649  39.4590369  75.0905394  45.7407548  39.0805907  74.8621439
  46.9410660  39.4908802  74.3424204  46.4474316  39.4075976  74.9462896
  51.9449609  39.8815738  70.5190941  51.6100977  40.5592660  70.0835163
  52.4576479  39.4921049  69.9307812  51.9715190  39.9240316  70.3677732
  51.4853900  41.8330007  76.4602052  51.8693279  42.4016905  75.9206827
  51.4213041  41.1079517  75.9807868  51.5327327  41.8105470  76.3095915
  54.9535330  31.9819695  81.9699814  55.4991290  32.6604781  82.0293783
  54.8952206  31.8407156  81.1101395  55.0251244  32.0611696  81.8511874
  48.0709405  39.4708761  77.3568166  48.1719768  38.6609115  77.6665294
  47.4751150  39.3765707  76.7267845  47.9981944  39.3373789  77.3094404
  56.7300399  33.4104302  72.8433541  56.6139925  34.1611988  73.2725680
  57.5256285  33.1528255  73.0929628  56.8304988  33.4839149  72.9437633
  47.9110145  44.3886350  78.7583022  48.5547600  44.8299514  79.1479180
  48.2366400  43.5839776  78.6713281  48.0541973  44.3351545  78.8028499
  41.2674449  35.4929047  76.9820500  41.0324634  34.6596700  76.8752769
  41.4060090  35.7733713  76.1681701  41.2530112  35.4112551  76.8462855
  43.5664537  27.6614778  79.8804807  42.9469568  27.0707425  79.7114822
  43.4648400  28.2526213  79.2469131  43.4602212  27.6618860  79.7609797
  48.6130724  37.3998325  74.1302884  48.9346565  37.9403532  73.5264192
  49.2602821  36.8295096  74.2625174  48.7556779  37.3957500  74.0609919
  50.6632432  29.4014320  74.2137271  51.3612597  29.5802447  74.7058734
  50.9784765  28.8784659  73.5907660  50.8127770  29.3508092  74.1939281
  43.2933670  31.2067060  82.1248376  43.1692367  31.7929505  82.7598195
  43.9451954  30.7127255  82.4260651  43.3707319  31.2205864  82.2634306
  50.8520368  35.7884765  74.2017062  51.2914003  35.1801865  74.6471835
  50.7025031  35.4092138  73.4302527  50.8941833  35.6423236  74.1536229
  48.3192011  34.3828777  81.4035887  48.9641013  33.8901220  81.0846836
  48.5593788  34.5253563  82.2301966  48.4502596  34.3306219  81.4785421
  50.8578102  37.2283682  81.0542780  51.1401345  36.4335088  80.8329536
  51.5864263  37.7064270  81.0747841  51.0067666  37.1818279  81.0245795
  48.8359296  24.7706716  78.2958545  48.5062626  25.2217860  77.6262244
  48.1604298  24.6922880  78.8431552  48.6869732  24.8257852  78.2781768
  54.4529704  34.1411946  71.1547831  54.3680999  34.9972913  71.2997400
  54.9414088  33.8656270  71.8229990  54.5118602  34.2269267  71.2749913
  56.0435704  20.7592239  76.5408156  55.7289145  21.4495718  76.9728578
  55.5262645  20.7037022  75.8393656  55.9200174  20.8527128  76.5005105
  55.3848138  30.7596740  72.6545566  54.8559609  30.9756374  73.3142873
  55.9073157  31.4532879  72.5746536  55.3836591  30.8939877  72.7401166
  60.8396190  36.3343045  78.0278611  60.0093894  36.5453688  78.1912027
  60.7905443  35.5080099  77.7520894  60.7102926  36.2432651  78.0115976
  47.2747745  34.6559957  71.4553034  46.6904961  35.1609988  71.8618898
  46.8717841  34.4302344  70.7149626  47.1287049  34.6968205  71.4058060
  42.8291774  40.3714718  78.2576706  42.3459352  41.0965208  78.2336289
  43.6415092  40.6690848  78.3686864  42.8782522  40.5217072  78.2703985
  48.9005928  39.1646899  80.8626520  48.3832870  38.8054314  80.2587828
  49.5980319  38.6409073  80.8732586  48.9271509  39.0344587  80.7756779
  51.7324960  30.9025609  69.9321955  51.9720963  31.1103593  69.1197298
  52.0540801  30.0983118  70.0410899  51.8162118  30.8139710  69.8282508
  47.0415250  22.8319005  73.7781493  47.7961218  23.1997322  73.5398543
  46.8642785  23.2058559  74.5460672  47.1269728  22.9417193  73.8566381
  45.6835971  40.8870894  78.4096986  46.3856551  40.3722883  78.4669742
  45.6033454  41.2145045  79.2143861  45.7759732  40.8585120  78.5369778
  45.3972315  25.2389324  70.4759606  45.2147888  25.4561205  69.6500599
  46.2597928  25.3528337  70.5318220  45.4976904  25.2879222  70.3614093
  45.0086747  37.0777246  77.9182594  45.8475646  37.3100179  77.9656355
  45.0398516  36.2081557  77.8489629  45.1368464  36.9834193  77.9147238
  45.6339450  37.4978121  82.2195899  46.1737675  37.3549252  82.8899272
  44.9509396  37.8974872  82.5879926  45.6131604  37.5357792  82.3730321
  51.0772034  22.2415735  73.5108630  51.8058194  22.0631689  73.0646786
  51.1666927  23.0833814  73.7215808  51.1978696  22.3399613  73.4762147
  55.0580335  33.1769122  77.4140924  55.8137850  33.6100636  77.4529832
  55.1642659  32.5273892  77.9875560  55.1850505  33.1446606  77.5038949
  58.0960506  37.0042399  78.1643327  57.6595738  37.0079142  78.9202298
  57.7623421  37.6847898  77.7322904  57.9823126  37.1054855  78.2124159
  41.0376595  33.7178412  82.3730321  40.7715010  32.9017529  82.5321311
  41.0515159  33.7631568  81.5025836  41.0001317  33.6035317  82.2683803
  44.9434342  28.5163496  68.9882079  44.2292519  28.2301676  69.4004511
  45.4278310  28.8560122  69.6288466  44.9093705  28.5245146  69.1437714
  61.2304852  33.7223319  77.0562964  61.8921286  33.1613987  76.9558872
  60.5896264  33.2275350  77.3815655  61.2333719  33.5659728  77.0895304
  52.1181660  37.0193450  69.3643887  52.5332808  36.6878474  68.6728383
  51.2873589  36.7862353  69.2364024  52.0569668  36.9364706  69.2434735
  41.4470008  34.5037191  79.6542065  41.2645582  34.4784077  78.8014357
  42.1819677  34.9736129  79.6930974  41.5284072  34.5698554  79.5339984
  57.5169683  34.7388701  76.7974953  57.7525272  34.8833900  75.9701803
  57.6659246  35.5031109  77.1906466  57.5735486  34.8727756  76.7338557
  59.3460139  33.5790367  74.6344556  59.6768356  34.1118008  74.0284651
  59.9193227  33.6329255  75.2906507  59.4793818  33.6659936  74.6422338
  54.5592028  31.4255270  75.3168137  54.6538883  32.1644564  75.7707762
  53.9350872  30.9972746  75.7502701  54.4801059  31.4716591  75.4476284
  41.4140919  31.3830692  79.8041132  41.9914421  31.2467143  80.4433377
  40.7154980  30.9266476  80.0586716  41.3961940  31.2952958  79.9363421
  54.8115050  33.2704010  68.5505089  54.7295212  33.3406197  69.4160076
  55.4494770  33.8333754  68.3588829  54.8934887  33.3642981  68.6495038
  48.1708221  33.0364748  78.0179615  47.9127465  32.2036483  77.9910914
  48.2256704  33.2622361  77.1772115  48.1407999  32.9462519  77.8899752
  53.2509271  25.1393198  78.1183708  52.5465598  24.6502384  78.2767627
  53.2994245  25.1515673  77.2472152  53.1539323  25.0682846  78.0123047
  47.1442933  30.5902510  78.5044510  46.5692524  30.7494679  79.1408471
  46.7678609  29.9537919  78.0412960  47.0045745  30.5200323  78.5299068
  50.8116222  29.0625860  83.3636888  50.4230654  28.6380077  82.7089079
  50.1470920  29.3108009  83.8713915  50.6563149  29.0364581  83.3424756
  60.4539491  28.8200864  76.1384718  60.1976056  28.0080806  75.9482601
  61.2968805  28.8278431  75.9114905  60.5405516  28.7012862  76.0769535
  36.8899752  30.2342585  76.5188950  36.9760004  29.8574453  77.3002480
  37.5175549  29.8603031  76.0408908  36.9956303  30.1228067  76.5634428
  51.9155160  33.2924464  71.5613695  52.7295799  33.5839357  71.4496466
  51.8514301  32.6384326  70.9871988  52.0257899  33.2389659  71.4602532
  47.7863068  36.7645982  76.6886007  48.4237015  36.5257729  77.2337800
  48.2118140  36.9683141  75.9539168  47.9439234  36.7596992  76.6603164
  42.4775711  39.0034318  80.5720311  42.5179856  39.2749169  79.7440090
  43.0370235  39.5276226  80.9878099  42.5659057  39.1210073  80.5112199
  48.4265883  31.9848271  71.0260896  48.8111036  31.7655978  71.7777442
  48.1777504  32.8111217  71.1561973  48.4467956  32.0746418  71.1561973
  50.1684540  37.2418404  78.3679793  50.2423548  37.0793576  79.2221643
  50.9854046  37.4308594  78.1240275  50.3000899  37.2455147  78.4577819
  43.9290297  37.5876267  75.3974237  43.1028415  37.8338004  75.2708516
  43.9902288  37.5088348  76.2636295  43.8164464  37.6121216  75.5063181
  46.1466321  23.6545208  76.3569677  45.2788746  23.7267808  76.4227286
  46.4341525  24.4567287  76.5457652  46.0606069  23.7839355  76.3944444
  48.7089126  40.2053147  73.0993267  48.9987424  39.8142129  72.3752493
  49.4392607  40.3869852  73.5398542  48.8596010  40.1746961  73.0576074
  49.2983871  35.0070893  84.1846397  48.7995565  35.7186661  84.2631286
  50.1084095  35.3271560  84.1464560  49.3439978  35.1597742  84.1902966
  46.6495041  42.1820530  76.1653416  46.4295337  41.8917884  76.9580083
  46.4289563  41.5235485  75.6371329  46.5842636  42.0420238  76.2042325
  45.5611989  34.2693846  78.4309118  45.2725237  33.6431317  78.9654845
  46.4295337  34.2114134  78.4973799  45.6472241  34.1681390  78.5200073
  56.3489886  29.4128630  78.7491100  56.0054652  28.6918965  79.0998350
  56.4482929  29.2042481  77.9069458  56.3131929  29.2752833  78.6762780
  48.8162997  43.5549920  74.9484109  49.4687055  43.0226362  75.1775135
  48.1188606  43.2018572  75.3351983  48.8093715  43.4239443  75.0396277
  45.7644262  35.9089097  74.3551483  46.5190230  36.2902136  74.5686946
  45.1714875  36.3600241  74.8098180  45.7880976  36.0317925  74.4534362
  56.8102916  35.8754334  74.2915088  57.3760948  36.5347544  74.2073631
  56.1630819  36.2204032  74.7631490  56.7981672  36.0236275  74.3487845
  47.0842489  37.0797659  79.7291599  46.5623242  37.2197950  80.4143463
  47.4716509  36.3208323  79.9193716  47.0646190  36.9883182  79.8592675
  44.0733673  27.1303467  73.7986553  43.7858468  26.7604738  73.0618501
  44.7604141  27.5998323  73.5370258  44.1322570  27.1450437  73.6501629
  53.2809494  38.8193118  73.7152167  53.0396170  38.0860979  73.3079232
  53.4610827  39.3679975  73.0618501  53.2717118  38.7915509  73.5582390
  48.5108814  34.1101678  75.1273090  48.3151597  34.7176412  74.5333393
  48.7343160  33.4169622  74.6464764  48.5143455  34.0979203  74.9689170
  46.9087344  30.9956416  75.2453958  47.6309996  31.1597574  74.7857764
  46.4295337  31.7166080  75.1393298  46.9451075  31.1254645  75.1619572
  54.8680852  27.3320214  80.6250643  54.0291952  27.3581493  80.3888906
  54.9385219  27.9790950  81.2055990  54.7549245  27.4316340  80.6759760
  44.5594961  33.4014488  84.3508098  45.0716058  33.6798741  83.7016858
  44.2731304  34.1403782  84.7170911  44.5929824  33.5516842  84.3097976
  53.3150130  24.2305591  75.3578259  54.0176483  24.0313340  74.8798217
  53.0494319  23.4581534  75.6647102  53.3796762  24.0868557  75.3323700
  58.7438376  32.5388201  77.9111885  58.6572350  32.6943627  78.7646664
  58.2888856  33.1826277  77.5371290  58.6641632  32.6563956  77.9818991
  41.6461867  27.9084680  74.6471834  41.7478004  28.7110841  74.9752810
  42.4417754  27.7072016  74.3494915  41.7789773  27.9970579  74.6507190
  52.6164192  29.8598948  76.5337444  52.3698906  29.7794699  77.3674233
  52.9449315  29.0752416  76.3399972  52.6285435  29.7325214  76.6284967
  56.5112241  36.5682308  80.3224225  56.3726600  37.2663353  80.8272968
  55.7312238  36.4130964  79.9660407  56.3755467  36.6482474  80.3450500
  48.5761219  32.5955667  85.9460427  48.7204595  33.1756875  85.3103537
  48.9236868  32.9731964  86.6510282  48.6488680  32.7376371  85.9559422
  50.7481136  31.7945835  83.7285559  50.0004450  31.9876850  83.3233837
  50.9022662  30.9691055  83.4909680  50.6603564  31.7010947  83.6330965
  47.6488974  40.7858439  82.8121454  47.7978538  40.2261355  82.1594859
  48.4288976  40.8650440  83.1953973  47.7863068  40.7144004  82.7718403
  58.0065613  35.9260561  71.0840725  57.6272422  35.1397699  71.0770014
  57.3431859  36.4747418  70.9412369  57.8524088  35.8905385  71.0621522
  50.8312522  39.4774080  74.9229551  51.5962413  39.2083724  74.6012215
  50.7290612  38.9924091  75.6399614  50.9294017  39.3663645  74.9809378
  48.8665291  27.6798490  81.4622787  48.0761366  27.4989950  81.7840122
  49.2625914  26.9025442  81.4453081  48.8082168  27.5385951  81.5075335
  53.3531182  36.5086264  66.9029500  54.1204167  36.5686389  66.4935352
  52.9062491  35.9366706  66.4185819  53.4004609  36.4322840  66.7707211
  54.2508978  35.3140920  79.1882233  53.5753979  35.0826152  79.6895620
  54.2601354  34.7062103  78.5624338  54.1527482  35.1899845  79.1698385
  51.3803122  30.1558749  85.9446286  51.3162263  31.0168705  85.8166422
  51.5200309  29.8390742  85.1441837  51.3918592  30.2358916  85.8074498
  56.2525712  38.1706052  71.4192410  56.3345550  38.9773039  71.0953861
  56.7375454  38.1902012  72.1433184  56.3362870  38.2926715  71.4779309
  50.0622215  32.8490888  80.0862488  49.6384465  33.0495387  79.3501507
  49.8867071  32.0019736  80.1986788  49.9733096  32.7539670  79.9936179
  45.3504660  33.3442940  75.5190461  45.5069280  33.2789743  76.3746453
  45.6905254  34.1191492  75.3069141  45.4237895  33.4492138  75.6145055
  51.8883805  32.7200823  74.3883824  52.4299351  32.2171204  74.8522445
  52.2030364  32.6666018  73.5773309  52.0148202  32.6380244  74.3367636
  50.0570255  38.1118175  71.6723852  50.1263075  37.2532713  71.8116853
  50.8358710  38.3290056  71.3442877  50.1823105  38.0171039  71.6441009
  53.0373074  27.6137128  84.4406125  53.2515044  26.9748042  83.8869479
  52.4206974  28.0582952  84.0113986  52.9778404  27.5847272  84.2956556
  54.4477742  40.5355876  75.8860346  54.0557534  40.2322591  75.1683212
  54.6030815  41.3724966  75.6965299  54.4131332  40.6139713  75.7516843
  41.9238922  30.5277890  75.8351228  42.3037887  30.9462435  75.1711495
  41.3494287  31.1091346  76.1420071  41.8950247  30.6755749  75.7827969
  54.6117417  37.1005865  75.8266376  54.2532072  37.2720508  76.6030408
  54.1256128  37.5619071  75.2694375  54.4876114  37.1944836  75.8591645
  52.4287803  20.7237063  79.4293467  51.5581361  20.6975785  79.3826777
  52.6828144  20.5514256  78.6119313  52.3381363  20.6947207  79.3013604
  49.4005783  32.7805030  68.3666610  49.6898307  33.5569913  68.6410185
  49.4877581  32.2693762  69.0681110  49.4560039  32.8196949  68.5109108
  49.4536944  22.7343292  80.8866938  48.9375432  22.0423483  81.0118517
  48.8930872  23.4014069  80.8329537  49.2943457  22.7306550  80.8973004
  57.4979157  29.8398907  81.3399493  57.0706765  29.7525255  80.5847592
  56.8605210  29.9476682  81.9254337  57.3408764  29.8431567  81.3144934
  45.5669724  32.0938295  80.4666723  44.7257730  31.9942169  80.6745616
  45.7759731  32.8633775  80.8181043  45.4734416  32.1930338  80.5494037
  43.0445290  29.7157832  78.2951473  42.6501988  29.7900844  77.5201583
  42.4885407  30.1015778  78.8459835  42.9048103  29.7839607  78.2619133
  54.6810237  22.6939126  77.9755352  54.8859831  22.6261434  78.8212349
  54.3536661  23.4997947  77.9076530  54.6625485  22.8025066  78.0915007
  49.3786388  30.0219694  79.7164320  49.0749526  29.4675682  80.3174728
  48.6765809  30.2011904  79.2292354  49.2302598  29.9664476  79.7334026
  48.4352485  27.3320214  74.2809022  48.7112220  26.6139126  73.8686589
  49.0351155  27.9305134  74.0730128  48.5645750  27.3140585  74.1889783
  47.4404739  37.2369415  84.4236418  47.3325094  37.2471477  85.2898476
  47.6500521  38.0624195  84.2341372  47.4554850  37.3610490  84.5240509
  57.9343925  23.2470890  77.4558118  57.3218239  23.7341292  77.8411849
  58.0308100  22.5714381  77.9995769  57.8581823  23.2189199  77.5936976
  51.9363006  25.0033731  72.5555617  52.3906752  25.1744292  73.2803461
  52.4103052  24.3901842  72.1553393  52.0731326  24.9384617  72.6029378
  45.4578531  34.4882057  81.8858355  44.8666465  35.1291555  81.8561371
  46.2199555  34.9119675  81.8589655  45.4826792  34.6457896  81.8773503
  55.2168048  39.9391369  79.3190380  55.0187736  40.4282183  78.6246591
  54.5955759  40.1432610  79.8974513  55.0955612  40.0407907  79.3013603
  49.2776026  31.7076266  73.6600624  50.0218071  32.0950542  73.8983574
  49.4236722  30.8633691  73.8241112  49.4086611  31.6406738  73.7194594
  51.1955601  23.5026525  78.6932486  50.3491646  23.6749332  78.5673835
  51.1926734  22.6975868  79.0298314  51.0702751  23.4087554  78.7243613
  52.2653902  27.2801739  79.5594543  51.7913856  26.7543501  80.0699854
  52.6372038  26.7331212  78.9909405  52.2503791  27.1217736  79.5509691
  58.5290632  32.3404115  80.9701324  58.2888855  31.5010530  80.9743750
  59.0082640  32.4204281  81.6942098  58.5642816  32.2285514  81.0776126
  54.1937401  28.1738294  72.6220297  53.6660420  28.2567038  71.9326006
  54.6533110  28.9156165  72.6184942  54.1839252  28.2958956  72.5194992
  60.5295819  29.1205572  78.9230583  60.2905589  29.0801406  78.0851368
  60.6929721  29.9676724  79.0496304  60.5186123  29.2397657  78.8184065
  46.0028718  28.1015695  81.5888507  45.3781788  28.1134087  80.9814460
  45.6674313  28.5775870  82.2379748  45.8614210  28.1734212  81.5945076
  46.1870467  26.4440813  67.6461192  45.8383271  27.0960538  68.1092742
  45.7066912  26.4297926  66.9185064  46.0640711  26.5383867  67.6072284
  42.7154393  36.1616155  83.0292272  42.1854318  35.4708594  83.0787246
  42.9879487  36.1526340  82.2004980  42.6779116  36.0583287  82.9139688
  53.7474484  36.7441857  71.7529954  54.4708683  37.2099970  71.6094528
  53.3075075  36.8115467  71.0027551  53.7890176  36.8225694  71.6214736
  52.9160639  33.6039399  83.0030643  52.3017632  33.0597450  83.2979279
  53.4327924  33.0903636  82.5236459  52.9016301  33.4475808  82.9754872
  52.1556936  34.6743669  80.7374942  51.7284544  34.0493388  80.3040377
  52.1481881  34.3918591  81.5633949  52.0916077  34.5396450  80.7954770
  50.4842646  25.5512424  80.9517476  50.5085133  25.0172536  80.2630256
  50.7354119  25.0429733  81.6143067  50.5252565  25.3973328  80.9482121
  37.9950236  32.8343919  80.3860620  37.8893685  32.7890763  79.5212704
  37.2450456  33.1797699  80.6674905  37.8685839  32.8784827  80.2997950
  46.7643968  24.2783242  80.3323220  46.8042340  24.7792449  81.0457928
  45.9393633  24.3693636  80.0629143  46.6483494  24.3665059  80.3973759
  48.1858332  30.7943752  82.6297119  47.3550261  30.9617570  82.4232367
  48.1309849  30.4179703  83.4146005  48.0547746  30.7633483  82.7145647
  46.5594375  29.0699344  73.1587237  46.6997336  29.5671808  73.8615878
  47.0576908  28.3685638  73.3001451  46.6535456  29.0401322  73.2838816
  46.5894598  29.9366455  70.4879814  47.2239677  30.5326880  70.4229276
  46.6720209  29.6369912  71.3025684  46.6951149  29.9807363  70.5982900
  48.1673581  25.8680430  70.4625256  48.4889422  25.3883513  69.8084518
  48.4300524  26.6780076  70.2716067  48.2539606  25.9170328  70.3380748
  53.5632736  25.2552624  82.8248735  53.9887807  24.8025150  82.2132261
  52.9489729  24.7012695  83.1013522  53.5361381  25.1066600  82.7753760
  43.0947586  32.1334295  73.7569360  43.6039815  32.7298803  74.1380665
  43.5681858  31.8660269  73.0745779  43.2390961  32.1820111  73.7123883
  54.0078334  40.8062562  71.9128015  53.2907643  40.6323424  71.4475253
  54.6585071  40.5715134  71.3803501  53.9980184  40.7458355  71.7657233
  52.0026958  21.7267724  76.2339312  51.3595276  21.5765370  76.8024450
  51.6626365  21.4810069  75.4688417  51.8572036  21.6679846  76.2042327
  56.5926305  29.6827151  75.6569320  55.9217495  30.2256853  75.5282386
  57.2866055  30.1522006  75.4151015  56.5955172  29.8325422  75.6024848
  50.6413039  41.8223863  80.8881079  50.4178693  41.0642692  81.2565105
  50.1522882  41.8521884  80.1661518  50.5356488  41.7146087  80.8357820
  56.7554432  26.1383034  78.5659694  57.1082042  25.7112757  79.2405492
  55.8969234  26.0533878  78.6960770  56.6803877  26.0627775  78.6854704
  45.4538117  28.7690554  76.6242540  44.7350106  29.1854686  76.8915404
  45.8250480  29.3344793  76.0734178  45.4030049  28.9139835  76.5825347
  54.7537698  29.4018403  82.5144536  54.7335625  29.2201698  83.3679315
  54.8016899  30.2730421  82.4904120  54.7572339  29.5034941  82.6367831
  49.2891496  42.0424321  78.3418163  48.8751894  41.3798451  77.9522005
  49.9738870  42.1902179  77.8213858  49.3289867  41.9664979  78.2074661
  52.6556790  41.2014406  79.0941780  52.2573073  41.3116676  78.3262600
  52.0408009  41.4096472  79.6768340  52.5055679  41.2487974  79.0673079
  51.2284692  27.8088554  71.9615920  50.6349531  28.1305550  71.4100487
  51.2659969  26.9629649  71.7537026  51.1459081  27.7312882  71.8498691
  54.1042508  27.7668058  75.3917670  53.8756201  27.7900760  74.5496028
  54.3640584  26.9425525  75.5112680  54.1088696  27.6484138  75.2842868
  47.1587271  26.3044605  76.6871866  47.6344637  26.6661684  76.0522047
  46.6575870  26.9601072  76.9672008  47.1552630  26.4538793  76.6348607
  60.3898632  35.7766373  72.4784871  60.7732238  36.5257729  72.7082968
  59.5942746  36.0232192  72.2196860  60.3292415  35.9236067  72.4742444
  49.2013924  28.4485804  70.0545250  49.5812889  28.4665434  69.2696364
  48.4606520  28.8939793  69.9336097  49.1482762  28.5167579  69.9208818
  56.8299214  26.7567996  75.6420828  56.8293441  26.6016652  76.5005105
  56.6255395  27.6030983  75.5862214  56.7998992  26.8588616  75.7608768
  38.8916485  30.1807780  80.0579645  38.7138247  29.7284389  80.7834560
  38.6035508  30.9833941  80.2418122  38.8229439  30.2330338  80.1923148
  54.5540067  31.4365497  79.2957035  55.0493732  30.7188492  79.2561055
  53.7439842  31.1336295  79.1811522  54.5083960  31.2863144  79.2730761
  49.9998678  35.2863311  71.4454040  49.1910001  34.9629984  71.3987349
  50.5073587  34.5796533  71.3782288  49.9548345  35.1344627  71.4284334
  40.6288955  32.7135504  77.1701404  39.7634475  32.7021194  77.0584175
  40.7287771  32.5265727  78.0172543  40.5163122  32.6841565  77.2790348
  56.6191885  34.1869185  81.9834164  57.0446957  33.6643607  81.4304589
  56.2548805  34.7850022  81.4622787  56.6278488  34.1979412  81.8243174
  46.2545965  42.4833402  80.7431509  46.5692524  43.2969791  80.7509291
  46.6639379  42.0983621  81.4113669  46.3614063  42.5462105  80.8435601
  53.2070485  37.9003449  78.3135321  53.6781663  38.6143712  78.4825307
  53.5430663  37.3002199  78.8495191  53.3265600  37.9174913  78.4167697
  49.1933095  24.6747333  72.7372881  50.0148789  24.8445645  72.4954576
  48.7302746  24.8294594  72.0139179  49.2464257  24.7229066  72.5944525
  43.5958985  36.4306511  80.3910118  44.2003843  36.3902345  79.7623939
  43.3886298  37.2777663  80.4214174  43.6547883  36.5494513  80.3026234
  53.4102757  38.6972456  81.6072355  54.2301131  38.5535422  81.8688650
  53.1296835  39.3218655  82.1488793  53.4899501  38.7682808  81.7260295
  38.8310268  35.4141128  80.2609041  38.7334546  34.6037400  80.5699098
  39.6139137  35.3932922  79.8755309  38.9326404  35.2908219  80.2495904
  61.6365016  44.9199628  74.2137271  62.3345181  45.0987755  74.7058734
  61.9517348  44.3969967  73.5907660  61.7860353  44.8693400  74.1939281
  59.8091880  40.2892024  78.2958545  59.4795210  40.7403168  77.6262244
  59.1336881  40.2108188  78.8431552  59.6602316  40.3443160  78.2781768
  67.0168287  36.2777547  76.5408156  66.7021728  36.9681026  76.9728578
  66.4995229  36.2222330  75.8393656  66.8932758  36.3712436  76.5005105
  58.2480329  50.1745265  71.4553034  57.6637544  50.6795296  71.8618898
  57.8450424  49.9487652  70.7149626  58.1019633  50.2153513  71.4058060
  62.7057543  46.4210917  69.9321955  62.9453547  46.6288901  69.1197298
  63.0273384  45.6168426  70.0410899  62.7894701  46.3325018  69.8282508
  58.0147834  38.3504313  73.7781493  58.7693802  38.7182630  73.5398543
  57.8375368  38.7243867  74.5460672  58.1002312  38.4602501  73.8566381
  56.3704898  40.7574632  70.4759606  56.1880471  40.9746513  69.6500599
  57.2330511  40.8713644  70.5318220  56.4709488  40.8064530  70.3614093
  62.0504617  37.7601042  73.5108630  62.7790778  37.5816997  73.0646786
  62.1399510  38.6019122  73.7215808  62.1711279  37.8584921  73.4762147
  55.9166925  44.0348804  68.9882079  55.2025102  43.7486984  69.4004511
  56.4010894  44.3745430  69.6288466  55.8826289  44.0430454  69.1437714
  63.0914243  52.5378758  69.3643887  63.5065392  52.2063782  68.6728383
  62.2606173  52.3047661  69.2364024  63.0302252  52.4550014  69.2434735
  65.7847633  48.7889318  68.5505089  65.7027796  48.8591505  69.4160076
  66.4227354  49.3519062  68.3588829  65.8667471  48.8828289  68.6495038
  47.8632335  45.7527893  76.5188950  47.9492587  45.3759761  77.3002480
  48.4908133  45.3788339  76.0408908  47.9688886  45.6413375  76.5634428
  62.8887744  48.8109772  71.5613695  63.7028382  49.1024665  71.4496466
  62.8246885  48.1569634  70.9871988  62.9990483  48.7574967  71.4602532
  59.3998467  47.5033579  71.0260896  59.7843620  47.2841286  71.7777442
  59.1510087  48.3296525  71.1561973  59.4200539  47.5931726  71.1561973
  57.1198904  39.1730516  76.3569677  56.2521330  39.2453115  76.4227286
  57.4074108  39.9752595  76.5457652  57.0338652  39.3024663  76.3944444
  55.0466256  42.6488775  73.7986553  54.7591052  42.2790046  73.0618501
  55.7336724  43.1183631  73.5370258  55.1055154  42.6635745  73.6501629
  57.8819928  46.5141724  75.2453958  58.6042580  46.6782882  74.7857764
  57.4027921  47.2351388  75.1393298  57.9183659  46.6439953  75.1619572
  64.2882714  39.7490899  75.3578259  64.9909067  39.5498648  74.8798217
  64.0226902  38.9766842  75.6647102  64.3529346  39.6053865  75.3323700
  52.6194451  43.4269988  74.6471834  52.7210587  44.2296149  74.9752810
  53.4150338  43.2257324  74.3494915  52.7522356  43.5155887  74.6507190
  64.3263766  52.0271572  66.9029500  65.0936751  52.0871697  66.4935352
  63.8795075  51.4552014  66.4185819  64.3737193  51.9508148  66.7707211
  52.8971506  46.0463198  75.8351228  53.2770470  46.4647743  75.1711495
  52.3226870  46.6276654  76.1420071  52.8682830  46.1941057  75.7827969
  63.4020387  36.2422371  79.4293467  62.5313945  36.2161093  79.3826777
  63.6560728  36.0699564  78.6119313  63.3113947  36.2132515  79.3013604
  60.3738366  48.2990338  68.3666610  60.6630891  49.0755221  68.6410185
  60.4610165  47.7879070  69.0681110  60.4292622  48.3382257  68.5109108
  59.4085069  42.8505522  74.2809022  59.6844803  42.1324434  73.8686589
  60.0083738  43.4490442  74.0730128  59.5378334  42.8325893  74.1889783
  62.9095590  40.5219039  72.5555617  63.3639336  40.6929600  73.2803461
  63.3835635  39.9087150  72.1553393  63.0463910  40.4569924  72.6029378
  60.2508610  47.2261574  73.6600624  60.9950654  47.6135850  73.8983574
  60.3969306  46.3818999  73.8241112  60.3819195  47.1592046  73.7194594
  62.1688185  39.0211833  78.6932486  61.3224230  39.1934640  78.5673835
  62.1659317  38.2161176  79.0298314  62.0435335  38.9272861  78.7243613
  65.1669985  43.6923601  72.6220297  64.6393004  43.7752345  71.9326006
  65.6265693  44.4341473  72.6184942  65.1571836  43.8144264  72.5194992
  57.1603050  41.9626121  67.6461192  56.8115855  42.6145846  68.1092742
  56.6799496  41.9483234  66.9185064  57.0373294  42.0569175  67.6072284
  57.5326959  44.5884652  73.1587237  57.6729920  45.0857116  73.8615878
  58.0309492  43.8870946  73.3001451  57.6268040  44.5586630  73.2838816
  57.5627181  45.4551763  70.4879814  58.1972261  46.0512188  70.4229276
  57.6452792  45.1555220  71.3025684  57.6683732  45.4992671  70.5982900
  59.1406164  41.3865738  70.4625256  59.4622005  40.9068820  69.8084518
  59.4033108  42.1965384  70.2716067  59.2272190  41.4355636  70.3380748
  54.0680169  47.6519603  73.7569360  54.5772399  48.2484111  74.1380665
  54.5414441  47.3845577  73.0745779  54.2123545  47.7005419  73.7123883
  62.9759542  37.2453032  76.2339312  62.3327860  37.0950678  76.8024450
  62.6358949  36.9995377  75.4688417  62.8304619  37.1865154  76.2042327
  56.4270701  44.2875862  76.6242540  55.7082690  44.7039994  76.8915404
  56.7983063  44.8530101  76.0734178  56.3762633  44.4325143  76.5825347
  62.2017275  43.3273862  71.9615920  61.6082115  43.6490858  71.4100487
  62.2392553  42.4814957  71.7537026  62.1191664  43.2498190  71.8498691
  58.1319854  41.8229913  76.6871866  58.6077221  42.1846992  76.0522047
  57.6308454  42.4786380  76.9672008  58.1285213  41.9724101  76.6348607
  60.1746508  43.9671112  70.0545250  60.5545472  43.9850742  69.2696364
  59.4339104  44.4125101  69.9336097  60.1215345  44.0352887  69.9208818
  60.9731262  50.8048619  71.4454040  60.1642584  50.4815292  71.3987349
  61.4806170  50.0981841  71.3782288  60.9280928  50.6529935  71.4284334
  60.1665678  40.1932641  72.7372881  60.9881373  40.3630953  72.4954576
  59.7035329  40.3479901  72.0139179  60.2196840  40.2414373  72.5944525
  35.2142889   0.8783192  62.0245440  34.4625789   0.4998730  61.7961485
  35.6628901   0.9101626  61.2764251  35.1692556   0.8268799  61.8802943
  40.6667849   1.3008561  57.4530987  40.3319218   1.9785483  57.0175210
  41.1794719   0.9113873  56.8647859  40.6933430   1.3433140  57.3017779
  40.2072140   3.2522830  63.3942099  40.5911520   3.8209729  62.8546874
  40.1431282   2.5272340  62.9147915  40.2545568   3.2298294  63.2435962
  36.6328385   5.8079173  65.6923069  37.2765840   6.2492337  66.0819227
  36.9584640   5.0032599  65.6053328  36.7760214   5.7544368  65.7368546
  37.3348965  -1.1808852  61.0642931  37.6564806  -0.6403645  60.4604239
  37.9821061  -1.7512081  61.1965220  37.4775020  -1.1849677  60.9949966
  37.4307366   1.6245971  60.0333314  37.7205665   1.2334952  59.3092540
  38.1610847   1.8062675  60.4738589  37.5814250   1.5939784  59.9916121
  35.3713282   3.6013353  63.0993463  35.1513577   3.3110708  63.8920130
  35.1507804   2.9428308  62.5711376  35.3060876   3.4613061  63.1382372
  37.5381238   4.9742743  61.8824156  38.1905296   4.4419185  62.1115182
  36.8406846   4.6211395  62.2692030  37.5311955   4.8432266  61.9736323
  42.0027734   0.2385941  60.6492214  41.7614410  -0.4946198  60.2419279
  42.1829067   0.7872798  59.9958547  41.9935358   0.2108332  60.4922437
  39.5530762   0.8966904  61.8569598  40.3180653   0.6276547  61.5352262
  39.4508852   0.4116914  62.5739660  39.6512257   0.7856468  61.9149425
  38.7788495  -0.4689002  58.6063899  38.8481315  -1.3274463  58.7456899
  39.5576950  -0.2517121  58.2782924  38.9041345  -0.5636138  58.5781056
  43.1695983   1.9548699  62.8200392  42.7775774   1.6515415  62.1023258
  43.3249055   2.7917789  62.6305346  43.1349573   2.0332536  62.6856889
  43.9386288   1.3584192  66.2530427  43.7405977   1.8475007  65.5586638
  43.3173999   1.5625434  66.8314560  43.8173852   1.4600730  66.2353650
  42.7296574   2.2255385  58.8468062  42.0125884   2.0516248  58.3815300
  43.3803312   1.9907958  58.3143548  42.7198424   2.1651178  58.6997280
  38.0109736   3.4617144  65.2758210  37.5970135   2.7991274  64.8862052
  38.6957110   3.6095003  64.7553904  38.0508108   3.3857802  65.1414707
  41.3775030   2.6207229  66.0281827  40.9791313   2.7309500  65.2602647
  40.7626250   2.8289296  66.6108387  41.2273919   2.6680797  66.0013126
  58.6034648   7.7730131  61.5055278  58.5728653   8.6274768  61.6773548
  59.2015997   7.4725424  62.0641422  58.6871806   7.8546628  61.6130081
  51.8034333   6.8605782  66.2608209  50.9472229   7.0214280  66.3117326
  51.8501987   5.9897846  66.2813270  51.6833444   6.7556584  66.2714275
  46.1875473  16.3968500  62.0245440  45.4358372  16.0184038  61.7961485
  46.6361484  16.4286933  61.2764251  46.1425140  16.3454107  61.8802943
  51.6400433  16.8193869  57.4530987  51.3051801  17.4970791  57.0175210
  52.1527303  16.4299181  56.8647859  51.6666014  16.8618448  57.3017779
  51.1804724  18.7708138  63.3942099  51.5644103  19.3395037  62.8546874
  51.1163865  18.0457648  62.9147915  51.2278151  18.7483601  63.2435962
  54.6486154   8.9197826  68.9039860  55.1942114   9.5982912  68.9633830
  54.5903030   8.7785287  68.0441442  54.7202068   8.9989828  68.7851921
  47.7660229  16.4086892  64.2908213  47.8670592  15.5987246  64.6005341
  47.1701974  16.3143838  63.6607891  47.6932768  16.2751920  64.2434451
  56.4251223  10.3482433  59.7773588  56.3090749  11.0990119  60.2065726
  57.2207109  10.0906386  60.0269675  56.5255812  10.4217280  59.8777680
  47.6060969  21.3264481  65.6923069  48.2498424  21.7677645  66.0819227
  47.9317224  20.5217907  65.6053328  47.7492797  21.2729676  65.7368546
  40.9625273  12.4307179  63.9160547  40.7275458  11.5974831  63.8092815
  41.1010914  12.7111844  63.1021747  40.9480936  12.3490682  63.7802902
  43.2615361   4.5992909  66.8144854  42.6420392   4.0085556  66.6454869
  43.1599224   5.1904344  66.1809177  43.1553036   4.5996992  66.6949844
  48.3081548  14.3376456  61.0642931  48.6297389  14.8781663  60.4604239
  48.9553645  13.7673227  61.1965220  48.4507603  14.3335631  60.9949966
  50.3583256   6.3392451  61.1477317  51.0563421   6.5180578  61.6398781
  50.6735589   5.8162790  60.5247707  50.5078593   6.2886223  61.1279327
  42.9884494   8.1445191  69.0588423  42.8643191   8.7307636  69.6938242
  43.6402778   7.6505387  69.3600698  43.0658143   8.1583995  69.1974353
  50.5471192  12.7262896  61.1357109  50.9864827  12.1179996  61.5811882
  50.3975855  12.3470269  60.3642574  50.5892657  12.5801367  61.0876276
  48.0142835  11.3206908  68.3375934  48.6591837  10.8279351  68.0186883
  48.2544612  11.4631694  69.1642013  48.1453420  11.2684350  68.4125468
  50.5528926  14.1661814  67.9882827  50.8352169  13.3713219  67.7669583
  51.2815086  14.6442401  68.0087888  50.7018490  14.1196411  67.9585842
  48.5310120   1.7084848  65.2298592  48.2013450   2.1595991  64.5602291
  47.8555122   1.6301011  65.7771598  48.3820556   1.7635983  65.2121815
  54.1480528  11.0790077  58.0887878  54.0631823  11.9351044  58.2337447
  54.6364911  10.8034401  58.7570037  54.2069426  11.1647399  58.2089960
  55.0798961   7.6974871  59.5885613  54.5510433   7.9134505  60.2482919
  55.6023981   8.3911010  59.5086583  55.0787414   7.8318008  59.6741212
  60.5347014  13.2721176  64.9618658  59.7044717  13.4831820  65.1252074
  60.4856267  12.4458230  64.6860941  60.4053750  13.1810782  64.9456023
  46.9698569  11.5938088  58.3893081  46.3855784  12.0988120  58.7958945
  46.5668664  11.3680475  57.6489673  46.8237873  11.6346337  58.3398106
  42.5242598  17.3092849  65.1916753  42.0410176  18.0343339  65.1676336
  43.3365916  17.6068979  65.3026910  42.5733346  17.4595203  65.2044032
  48.5956752  16.1025030  67.7966567  48.0783694  15.7432445  67.1927875
  49.2931143  15.5787204  67.8072633  48.6222333  15.9722718  67.7096826
  52.2520344  16.5519844  73.7582740  52.3403690  16.3645985  74.6060951
  52.6810056  15.9057274  73.3587587  52.3282446  16.4282852  73.8254492
  49.8190804  15.8351004  72.7400402  49.2561639  15.4223614  73.2640064
  50.5811827  15.7603910  73.1593546  49.8485252  15.7628405  72.8793403
  51.4275784   7.8403740  56.8662002  51.6671787   8.0481724  56.0537345
  51.7491625   7.0361249  56.9750946  51.5112942   7.7517841  56.7622555
  45.3786795  17.8249025  65.3437033  46.0807374  17.3101014  65.4009789
  45.2984278  18.1523177  66.1483908  45.4710556  17.7963251  65.4709825
  45.0923139   2.1767455  57.4099653  44.9098712   2.3939336  56.5840645
  45.9548752   2.2906468  57.4658267  45.1927728   2.2257353  57.2954140
  44.7037571  14.0155377  64.8522641  45.5426470  14.2478310  64.8996402
  44.7349340  13.1459689  64.7829676  44.8319288  13.9212324  64.8487285
  45.3290274  14.4356252  69.1535946  45.8688499  14.2927383  69.8239318
  44.6460220  14.8353003  69.5219972  45.3082427  14.4735923  69.3070368
  54.7531158  10.1147253  64.3480970  55.5088674  10.5478767  64.3869879
  54.8593483   9.4652023  64.9215606  54.8801329  10.0824737  64.4378996
  57.7911330  13.9420530  65.0983373  57.3546561  13.9457273  65.8542345
  57.4574245  14.6226029  64.6662951  57.6773950  14.0432986  65.1464206
  52.3640403  15.9828863  76.4226524  53.1480820  16.0959711  76.7882266
  52.1636998  15.1570000  76.6185210  52.4506429  15.8775583  76.5060910
  40.7327419  10.6556543  69.3070368  40.4665834   9.8395660  69.4661358
  40.7465983  10.7009699  68.4365883  40.6952141  10.5413448  69.2023850
  44.6385166   5.4541628  55.9222126  43.9243343   5.1679807  56.3344558
  45.1229134   5.7938253  56.5628513  44.6044529   5.4623277  56.0777761
  52.5210797  17.8938965  70.0692979  51.7226042  17.6538465  70.3266848
  52.9696808  17.9453358  70.8160027  52.4685408  17.8661356  70.2177904
  60.9255676  10.6601450  63.9903011  61.5872110  10.0992119  63.8898919
  60.2847088  10.1653481  64.3155702  60.9284543  10.5037859  64.0235351
  51.8132484  13.9571582  56.2983934  52.2283632  13.6256605  55.6068430
  50.9824413  13.7240484  56.1704071  51.7520492  13.8742838  56.1774781
  41.1420832  11.4415323  66.5882112  40.9596406  11.4162209  65.7354404
  41.8770501  11.9114260  66.6271021  41.2234896  11.5076685  66.4680030
  57.2120507  11.6766833  63.7314999  57.4476096  11.8212032  62.9041850
  57.3610070  12.4409241  64.1246513  57.2686310  11.8105887  63.6678603
  59.0410963  10.5168499  61.5684603  59.3719180  11.0496139  60.9624698
  59.6144051  10.5707386  62.2246554  59.1744642  10.6038067  61.5762385
  54.2542852   8.3633401  62.2508183  54.3489707   9.1022695  62.7047809
  53.6301696   7.9350877  62.6842748  54.1751882   8.4094722  62.3816331
  52.5095326  11.5419614  72.8998464  53.0834188  10.9046858  73.0547028
  52.4310130  11.5423696  72.0308122  52.5828561  11.4484725  72.7944875
  41.1091743   8.3208823  66.7381178  41.6865245   8.1845274  67.3773424
  40.4105804   7.8644607  66.9926763  41.0912764   8.2331090  66.8703468
  54.5065874  10.2082141  55.4845135  54.4246036  10.2784328  56.3500122
  55.1445594  10.7711885  55.2928876  54.5885711  10.3021112  55.5835085
  47.8659045   9.9742879  64.9519662  47.6078289   9.1414614  64.9250961
  47.9207528  10.2000492  64.1112162  47.8358823   9.8840650  64.8239798
  46.8393757   7.5280641  65.4384556  46.2643348   7.6872810  66.0748517
  46.4629433   6.8916051  64.9753007  46.6996569   7.4578454  65.4639115
  50.5067046   6.0003991  70.2976935  50.1181478   5.5758208  69.6429126
  49.8421744   6.2486140  70.8053961  50.3513973   5.9742712  70.2764803
  36.5850576   7.1720716  63.4528997  36.6710828   6.7952585  64.2342527
  37.2126373   6.7981162  62.9748955  36.6907127   7.0606198  63.4974474
  51.6105984  10.2302595  58.4953742  52.4246623  10.5217488  58.3836513
  51.5465125   9.5762458  57.9212035  51.7208723  10.1767790  58.3942579
  47.4813892  13.7024113  63.6226054  48.1187839  13.4635860  64.1677847
  47.9068964  13.9061272  62.8879214  47.6390058  13.6975123  63.5943211
  42.1726535  15.9412449  67.5060358  42.2130680  16.2127300  66.6780137
  42.7321059  16.4654357  67.9218146  42.2609880  16.0588204  67.4452246
  48.1216707   8.9226403  57.9600943  48.5061860   8.7034109  58.7117488
  47.8728327   9.7489348  58.0902020  48.1418780   9.0124549  58.0902020
  58.8551895  12.6973040  68.9711612  58.5497712  13.4301097  69.3324928
  58.1358110  12.2910970  68.6904398  58.7039237  12.7454773  68.9824749
  49.8635364  14.1796535  65.3019840  49.9374372  14.0171707  66.1561690
  50.6804870  14.3686725  65.0580322  49.9951723  14.1833278  65.3917866
  43.6241121  14.5254398  62.3314284  42.7979238  14.7716135  62.2048562
  43.6853112  14.4466479  63.1976342  43.5115288  14.5499347  62.4403228
  45.8417145   0.5923339  63.2909724  44.9739570   0.6645939  63.3567333
  46.1292349   1.3945418  63.4797699  45.7556893   0.7217486  63.3284490
  48.4039950  17.1431278  60.0333314  48.6938248  16.7520260  59.3092540
  49.1343431  17.3247983  60.4738589  48.5546834  17.1125092  59.9916121
  48.9934695  11.9449024  71.1186444  48.4946389  12.6564792  71.1971332
  49.8034919  12.2649691  71.0804606  49.0390802  12.0975873  71.1243013
  46.3445865  19.1198661  63.0993463  46.1246161  18.8296016  63.8920130
  46.1240387  18.4613616  62.5711376  46.2793460  18.9798369  63.1382372
  45.2562813  11.2071977  65.3649165  44.9676061  10.5809449  65.8994892
  46.1246161  11.1492265  65.4313845  45.3423064  11.1059522  65.4540120
  56.0440710   6.3506761  65.6831147  55.7005476   5.6297096  66.0338396
  56.1433753   6.1420612  64.8409505  56.0082753   6.2130964  65.6102827
  48.5113821  20.4928051  61.8824156  49.1637879  19.9604493  62.1115182
  47.8139430  20.1396703  62.2692030  48.5044539  20.3617574  61.9736323
  45.4595086  12.8467228  61.2891530  46.2141054  13.2280267  61.5026993
  44.8665699  13.2978372  61.7438227  45.4831800  12.9696056  61.3874408
  56.5053739  12.8132465  61.2255135  57.0711772  13.4725675  61.1413678
  55.8581643  13.1582163  61.6971537  56.4932496  12.9614406  61.2827891
  46.7793313  14.0175790  66.6631645  46.2574066  14.1576081  67.3483510
  47.1667333  13.2586454  66.8533763  46.7597013  13.9261314  66.7932722
  43.7684497   4.0681599  60.7326600  43.4809292   3.6982869  59.9958547
  44.4554965   4.5376454  60.4710305  43.8273394   4.0828568  60.5841676
  52.9760318  15.7571249  60.6492214  52.7346993  15.0239110  60.2419279
  53.1561650  16.3058106  59.9958547  52.9667942  15.7293640  60.4922437
  48.2059638  11.0479809  62.0613136  48.0102421  11.6554543  61.4673439
  48.4293984  10.3547753  61.5804810  48.2094279  11.0357334  61.9029217
  46.6038168   7.9334547  62.1794005  47.3260820   8.0975705  61.7197811
  46.1246161   8.6544212  62.0733345  46.6401899   8.0632776  62.0959619
  54.5631676   4.2698346  67.5590690  53.7242776   4.2959624  67.3228953
  54.6336043   4.9169081  68.1396036  54.4500069   4.3694471  67.6099807
  44.2545785  10.3392619  71.2848145  44.7666882  10.6176872  70.6356904
  43.9682128  11.0781913  71.6510958  44.2880648  10.4894973  71.2438023
  58.4389200   9.4766332  64.8451931  58.3523174   9.6321758  65.6986710
  57.9839680  10.1204408  64.4711337  58.3592456   9.5942087  64.9159038
  41.3412691   4.8462811  61.5811881  41.4428828   5.6488972  61.9092857
  42.1368578   4.6450147  61.2834962  41.4740597   4.9348710  61.5847237
  52.3115016   6.7977079  63.4677491  52.0649730   6.7172830  64.3014280
  52.6400139   6.0130547  63.2740018  52.3236259   6.6703345  63.5625014
  56.2063064  13.5060439  67.2564272  56.0677424  14.2041485  67.7613015
  55.4263062  13.3509095  66.9000454  56.0706291  13.5860605  67.2790546
  48.2712043   9.5333798  72.8800474  48.4155419  10.1135006  72.2443584
  48.6187692   9.9110095  73.5850329  48.3439504   9.6754502  72.8899469
  50.4431960   8.7323966  70.6625606  49.6955274   8.9254981  70.2573884
  50.5973486   7.9069186  70.4249727  50.3554388   8.6389078  70.5671012
  47.3439798  17.7236570  69.7461501  47.4929362  17.1639486  69.0934905
  48.1239800  17.8028572  70.1294020  47.4813892  17.6522135  69.7058450
  57.7016437  12.8638693  58.0180771  57.3223246  12.0775830  58.0110061
  57.0382683  13.4125550  57.8752416  57.5474912  12.8283516  57.9961568
  49.8693099  17.8951213  71.0245992  49.7936770  17.2260023  71.5796780
  49.7982958  18.5969001  71.5386658  49.8473705  17.8996120  71.1822840
  50.5263346  16.4152212  61.8569598  51.2913237  16.1461855  61.5352262
  50.4241435  15.9302222  62.5739660  50.6244841  16.3041776  61.9149425
  48.5616115   4.6176621  68.3962833  47.7712190   4.4368081  68.7180169
  48.9576738   3.8403574  68.3793128  48.5032991   4.4764082  68.4415382
  53.0482006  13.4464395  53.8369547  53.8154991  13.5064520  53.4275399
  52.6013315  12.8744837  53.3525866  53.0955433  13.3700971  53.7047257
  53.9459802  12.2519051  66.1222279  53.2704803  12.0204283  66.6235666
  53.9552178  11.6440234  65.4964384  53.8478306  12.1277976  66.1038432
  51.0753946   7.0936880  72.8786332  51.0113087   7.9546837  72.7506469
  51.2151133   6.7768873  72.0781884  51.0869416   7.1737047  72.7414545
  55.9476536  15.1084184  58.3532457  56.0296374  15.9151170  58.0293908
  56.4326278  15.1280143  59.0773231  56.0313694  15.2304846  58.4119356
  49.7573039   9.7869019  67.0202535  49.3335289   9.9873519  66.2841554
  49.5817895   8.9397867  67.1326835  49.6683920   9.6917801  66.9276225
  49.2584733  21.3019532  69.4823993  49.7480663  20.6030322  69.2999657
  48.6868965  21.0043402  70.0700050  49.2469263  21.1545756  69.5425033
  45.0455484  10.2821071  62.4530508  45.2020104  10.2167874  63.3086500
  45.3856078  11.0569623  62.2409187  45.1188719  10.3870269  62.5485102
  51.5834629   9.6578954  61.3223871  52.1250174   9.1549336  61.7862492
  51.8981188   9.6044149  60.5113356  51.7099026   9.5758375  61.2707683
  49.7521079  15.0496306  58.6063899  49.8213899  14.1910844  58.7456899
  50.5309534  15.2668187  58.2782924  49.8773929  14.9549170  58.5781056
  52.7323898   4.5515259  71.3746171  52.9465868   3.9126173  70.8209525
  52.1157798   4.9961083  70.9454033  52.6729228   4.5225403  71.2296603
  54.1428566  17.4734007  62.8200392  53.7508358  17.1700722  62.1023258
  54.2981639  18.3103097  62.6305346  54.1082156  17.5517844  62.6856889
  41.6189746   7.4656021  62.7691275  41.9988711   7.8840566  62.1051542
  41.0445111   8.0469477  63.0760118  41.5901071   7.6133880  62.7168016
  54.3068241  14.0383996  62.7606423  53.9482896  14.2098639  63.5370455
  53.8206952  14.4997202  62.2034421  54.1826938  14.1322967  62.7931692
  49.0956606   9.7183162  55.3006657  49.3849131  10.4948044  55.5750232
  49.1828405   9.2071893  56.0021157  49.1510863   9.7575080  55.4449155
  55.4672980  14.9287892  73.7073624  56.1052701  14.4348088  73.3736080
  54.8247072  14.8565293  73.1225851  55.4667207  14.8446901  73.5715979
  57.1929980   6.7777038  68.2739539  56.7657589   6.6903387  67.5187639
  56.5556033   6.8854814  68.8594383  57.0359588   6.7809698  68.2484981
  55.5227237  15.6207700  70.3478981  56.3119615  15.2696765  70.4681062
  55.6970835  16.4344089  70.0855614  55.6647519  15.6893558  70.3266848
  45.2620547   9.0316426  67.4006769  44.4208554   8.9320300  67.6085663
  45.4710555   9.8011906  67.7521090  45.1685240   9.1308469  67.4834084
  42.7396114   6.6535963  65.2291520  42.3452812   6.7278975  64.4541630
  42.1836231   7.0393909  65.7799882  42.5998927   6.7217738  65.1959180
  49.0737212   6.9597825  66.6504367  48.7700350   6.4053814  67.2514775
  48.3716633   7.1390035  66.1632401  48.9253422   6.9042608  66.6674073
  48.1303309   4.2698345  61.2149069  48.4063044   3.5517258  60.8026636
  48.7301979   4.8683265  61.0070175  48.2596574   4.2518716  61.1229830
  47.1355563  14.1747546  71.3576465  47.0275918  14.1849608  72.2238523
  47.3451345  15.0002326  71.1681418  47.1505674  14.2988621  71.4580556
  54.9118872  16.8769500  66.2530427  54.7138560  17.3660314  65.5586638
  54.2906583  17.0810742  66.8314560  54.7906436  16.9786038  66.2353650
  48.9726850   8.6454397  60.5940671  49.7168895   9.0328673  60.8323621
  49.1187546   7.8011822  60.7581159  49.1037435   8.5784870  60.6534641
  51.9604726   4.2179870  66.4934590  51.4864680   3.6921632  67.0039901
  52.3322862   3.6709343  65.9249452  51.9454615   4.0595867  66.4849737
  58.2241456   9.2782246  67.9041371  57.9839679   8.4388661  67.9083797
  58.7033463   9.3582413  68.6282144  58.2593640   9.1663646  68.0116173
  53.8888225   5.1116425  59.5560344  53.3611244   5.1945169  58.8666053
  54.3483934   5.8534296  59.5524989  53.8790076   5.2337087  59.4535039
  60.2246643   6.0583703  65.8570630  59.9856413   6.0179537  65.0191415
  60.3880545   6.9054855  65.9836351  60.2136947   6.1775788  65.7524112
  56.8292673  10.4433652  71.7875675  57.5526872   9.9906179  71.6086695
  56.5642636  10.7238318  71.0048003  56.8973947  10.4184621  71.6454390
  45.6979542   5.0393826  68.5228554  45.0732612   5.0512218  67.9154507
  45.3625137   5.5154001  69.1719794  45.5565034   5.1112343  68.5285123
  45.8821291   3.3818944  54.5801239  45.5334095   4.0338670  55.0432789
  45.4017736   3.3676057  53.8525110  45.7591534   3.4761998  54.5412331
  42.4105217  13.0994286  69.9632319  41.8805142  12.4086725  70.0127293
  42.6830311  13.0904471  69.1345027  42.3729940  12.9961418  69.8479735
  53.4425308  13.6819988  58.6870001  54.1659507  14.1478101  58.5434574
  53.0025899  13.7493598  57.9367598  53.4841000  13.7603825  58.5554783
  52.6111463  10.5417531  69.9370690  51.9968456   9.9975581  70.2319325
  53.1278748  10.0281767  69.4576506  52.5967125  10.3853940  69.9094919
  51.8507760  11.6121801  67.6714989  51.4235368  10.9871519  67.2380424
  51.8432705  11.3296722  68.4973996  51.7866901  11.4774581  67.7294816
  37.6901060   9.7722050  67.3200667  37.5844509   9.7268894  66.4552751
  36.9401280  10.1175831  67.6014952  37.5636663   9.8162958  67.2337997
  46.4594792   1.2161373  67.2663267  46.4993164   1.7170580  67.9797974
  45.6344457   1.3071767  66.9969190  46.3434318   1.3043190  67.3313805
  47.8809155   7.7321883  69.5637166  47.0501085   7.8995701  69.3572414
  47.8260673   7.3557834  70.3486051  47.7498570   7.7011614  69.6485694
  46.2545199   6.0077475  60.0927284  46.3948160   6.5049939  60.7955925
  46.7527732   5.3063769  60.2341497  46.3486280   5.9779454  60.2178863
  46.2845422   6.8744586  57.4219861  46.9190501   7.4705011  57.3569322
  46.3671032   6.5748043  58.2365731  46.3901973   6.9185494  57.5322947
  47.8624405   2.8058561  57.3965303  48.1840246   2.3261644  56.7424565
  48.1251348   3.6158207  57.2056114  47.9490430   2.8548459  57.2720795
  51.0921377  13.8277436  70.9164119  50.5846468  14.3813282  71.3604749
  50.7948023  13.8885725  70.0982893  50.9726262  13.9183747  70.8612575
  42.7898410   9.0712427  60.6909407  43.2990639   9.6676934  61.0720712
  43.2632682   8.8038400  60.0085826  42.9341785   9.1198242  60.6463929
  53.7029158  17.7440693  58.8468062  52.9858467  17.5701555  58.3815300
  54.3535895  17.5093266  58.3143548  53.6931008  17.6836486  58.6997280
  56.2877129   6.6205282  62.5909367  55.6168319   7.1634984  62.4622433
  56.9816879   7.0900137  62.3491062  56.2905996   6.7703553  62.5364895
  50.3363863  18.7601994  67.8221126  50.1129517  18.0020823  68.1905152
  49.8473706  18.7900015  67.1001565  50.2307312  18.6524218  67.7697867
  45.1488941   5.7068685  63.5582587  44.4300930   6.1232818  63.8255451
  45.5201304   6.2722924  63.0074225  45.0980873   5.8517967  63.5165394
  54.4488522   6.3396534  69.4484583  54.4286449   6.1579829  70.3019362
  54.4967723   7.2108552  69.4244166  54.4523163   6.4413072  69.5707878
  52.3934852  12.9283726  75.3733059  52.3530707  12.2833403  74.7878215
  53.2058170  12.8720343  75.6858471  52.5078005  12.8242693  75.3330008
  48.9842319  18.9802452  65.2758210  48.5702718  18.3176582  64.8862052
  49.6689694  19.1280311  64.7553904  49.0240691  18.9043110  65.1414707
  52.3507614  18.1392537  66.0281827  51.9523897  18.2494807  65.2602647
  51.7358833  18.3474603  66.6108387  52.2006503  18.1866105  66.0013126
  50.9235516   4.7466685  58.8955967  50.3300355   5.0683681  58.3440534
  50.9610793   3.9007780  58.6877073  50.8409905   4.6691013  58.7838738
  53.7993332   4.7046189  62.3257717  53.5707025   4.7278891  61.4836075
  54.0591408   3.8803656  62.4452727  53.8039520   4.5862269  62.2182914
  46.8538095   3.2422736  63.6211912  47.3295461   3.6039816  62.9862094
  46.3526694   3.8979203  63.9012055  46.8503454   3.3916925  63.5688653
  60.0849456  12.7144504  59.4124917  60.4683062  13.4635860  59.6423014
  59.2893570  12.9610324  59.1536907  60.0243239  12.8614198  59.4082491
  48.8964748   5.3863936  56.9885296  49.2763713   5.4043565  56.2036411
  48.1557344   5.8317924  56.8676144  48.8433586   5.4545710  56.8548865
  38.5867309   7.1185911  66.9919692  38.4089070   6.6662520  67.7174607
  38.2986331   7.9212073  67.1758169  38.5180263   7.1708469  67.1263195
  54.2490890   8.3743629  66.2297082  54.7444556   7.6566624  66.1901102
  53.4390666   8.0714426  66.1151569  54.2034784   8.2241275  66.2070808
  49.6949502  12.2241442  58.3794086  48.8860825  11.9008115  58.3327396
  50.2024411  11.5174664  58.3122335  49.6499169  12.0722758  58.3624381
  40.3239779   9.6513635  64.1041451  39.4585299   9.6399325  63.9924222
  40.4238595   9.4643858  64.9512590  40.2113946   9.6219696  64.2130395
  56.3142709  11.1247316  68.9174211  56.7397781  10.6021738  68.3644636
  55.9499629  11.7228153  68.3962834  56.3229312  11.1357543  68.7583220
  45.9496789  19.4211534  67.6771556  46.2643348  20.2347922  67.6849338
  46.3590202  19.0361752  68.3453715  46.0564887  19.4840236  67.7775648
  52.9021309  14.8381580  65.2475368  53.3732487  15.5521843  65.4165353
  53.2381487  14.2380330  65.7835238  53.0216424  14.8553045  65.3507744
  53.5395255  14.6299514  72.0103061  52.9916201  14.0057398  71.7423126
  54.0008284  14.8193787  71.2947140  53.5262465  14.5658565  71.8653492
  43.2909809  13.3684642  67.3250165  43.8954667  13.3280476  66.6963985
  43.0837122  14.2155794  67.3554220  43.3498707  13.4872645  67.2366281
  53.1053581  15.6350587  68.5412402  53.9251955  15.4913553  68.8028697
  52.8247659  16.2596786  69.0828840  53.1850325  15.7060939  68.6600341
  38.5261092  12.3519260  67.1949088  38.4285370  11.5415531  67.5039144
  39.3089961  12.3311053  66.8095356  38.6277228  12.2286350  67.1835951
  69.5767232  23.2915439  61.5055278  69.5461236  24.1460076  61.6773548
  70.1748581  22.9910731  62.0641422  69.6604390  23.3731935  61.6130081
  62.7766917  22.3791090  66.2608209  61.9204812  22.5399588  66.3117326
  62.8234570  21.5083154  66.2813270  62.6566028  22.2741892  66.2714275
  57.1608056  31.9153808  62.0245440  56.4090956  31.5369346  61.7961485
  57.6094068  31.9472241  61.2764251  57.1157723  31.8639415  61.8802943
  62.6133016  32.3379177  57.4530987  62.2784385  33.0156099  57.0175210
  63.1259887  31.9484489  56.8647859  62.6398597  32.3803755  57.3017779
  62.1537307  34.2893446  63.3942099  62.5376687  34.8580345  62.8546874
  62.0896449  33.5642956  62.9147915  62.2010735  34.2668909  63.2435962
  65.6218738  24.4383134  68.9039860  66.1674698  25.1168220  68.9633830
  65.5635614  24.2970595  68.0441442  65.6934652  24.5175136  68.7851921
  58.7392812  31.9272200  64.2908213  58.8403175  31.1172554  64.6005341
  58.1434558  31.8329146  63.6607891  58.6665351  31.7937228  64.2434451
  67.3983806  25.8667741  59.7773588  67.2823332  26.6175427  60.2065726
  68.1939693  25.6091694  60.0269675  67.4988396  25.9402588  59.8777680
  58.5793552  36.8449789  65.6923069  59.2231008  37.2862953  66.0819227
  58.9049808  36.0403215  65.6053328  58.7225381  36.7914984  65.7368546
  51.9357857  27.9492486  63.9160547  51.7008041  27.1160139  63.8092815
  52.0743498  28.2297152  63.1021747  51.9213519  27.8675990  63.7802902
  54.2347944  20.1178217  66.8144854  53.6152976  19.5270864  66.6454869
  54.1331808  20.7089652  66.1809177  54.1285620  20.1182300  66.6949844
  59.2814132  29.8561764  61.0642931  59.6029973  30.3966971  60.4604239
  59.9286228  29.2858535  61.1965220  59.4240187  29.8520939  60.9949966
  61.3315840  21.8577759  61.1477317  62.0296005  22.0365886  61.6398781
  61.6468172  21.3348098  60.5247707  61.4811177  21.8071531  61.1279327
  53.9617077  23.6630499  69.0588423  53.8375774  24.2492944  69.6938242
  54.6135362  23.1690695  69.3600698  54.0390727  23.6769303  69.1974353
  61.5203775  28.2448204  61.1357109  61.9597411  27.6365304  61.5811882
  61.3708438  27.8655577  60.3642574  61.5625241  28.0986675  61.0876276
  58.9875418  26.8392216  68.3375934  59.6324421  26.3464659  68.0186883
  59.2277195  26.9817002  69.1642013  59.1186003  26.7869658  68.4125468
  61.5261510  29.6847122  67.9882827  61.8084752  28.8898527  67.7669583
  62.2547670  30.1627709  68.0087888  61.6751073  29.6381719  67.9585842
  59.5042703  17.2270156  65.2298592  59.1746033  17.6781299  64.5602291
  58.8287705  17.1486319  65.7771598  59.3553140  17.2821291  65.2121815
  65.1213112  26.5975385  58.0887878  65.0364407  27.4536352  58.2337447
  65.6097495  26.3219709  58.7570037  65.1802009  26.6832707  58.2089960
  66.7119111  13.2155678  63.4748203  66.3972552  13.9059157  63.9068625
  66.1946053  13.1600461  62.7733703  66.5883582  13.3090567  63.4345152
  66.0531545  23.2160179  59.5885613  65.5243017  23.4319813  60.2482919
  66.5756565  23.9096318  59.5086583  66.0519998  23.3503316  59.6741212
  71.5079598  28.7906484  64.9618658  70.6777301  29.0017127  65.1252074
  71.4588850  27.9643538  64.6860941  71.3786333  28.6996090  64.9456023
  57.9431153  27.1123396  58.3893081  57.3588368  27.6173428  58.7958945
  57.5401248  26.8865783  57.6489673  57.7970457  27.1531644  58.3398106
  53.4975181  32.8278157  65.1916753  53.0142760  33.5528647  65.1676336
  54.3098500  33.1254287  65.3026910  53.5465929  32.9780511  65.2044032
  59.5689336  31.6210338  67.7966567  59.0516277  31.2617753  67.1927875
  60.2663727  31.0972512  67.8072633  59.5954917  31.4908026  67.7096826
  63.2252928  32.0705152  73.7582740  63.3136273  31.8831292  74.6060951
  63.6542640  31.4242582  73.3587587  63.3015030  31.9468160  73.8254492
  60.7923387  31.3536312  72.7400402  60.2294222  30.9408922  73.2640064
  61.5544411  31.2789218  73.1593546  60.8217836  31.2813713  72.8793403
  62.4008367  23.3589048  56.8662002  62.6404371  23.5667032  56.0537345
  62.7224208  22.5546557  56.9750946  62.4845525  23.2703149  56.7622555
  57.7098658  15.2882444  60.7121540  58.4644626  15.6560761  60.4738590
  57.5326192  15.6621998  61.4800719  57.7953136  15.3980632  60.7906428
  56.3519379  33.3434333  65.3437033  57.0539958  32.8286322  65.4009789
  56.2716862  33.6708485  66.1483908  56.4443139  33.3148559  65.4709825
  57.3998285  23.5809920  74.4717448  57.5718789  23.4715815  75.3202729
  57.9367643  24.2264326  74.2348640  57.5043289  23.6601922  74.5622544
  56.0655722  17.6952763  57.4099653  55.8831295  17.9124644  56.5840645
  56.9281335  17.8091776  57.4658267  56.1660312  17.7442661  57.2954140
  55.6770154  29.5340685  64.8522641  56.5159054  29.7663618  64.8996402
  55.7081923  28.6644997  64.7829676  55.8051872  29.4397632  64.8487285
  56.3022857  29.9541560  69.1535946  56.8421082  29.8112691  69.8239318
  55.6192803  30.3538311  69.5219972  56.2815011  29.9921231  69.3070368
  61.7455441  14.6979174  60.4448676  62.4741602  14.5195129  59.9986833
  61.8350334  15.5397253  60.6555855  61.8662103  14.7963052  60.4102194
  65.7263742  25.6332561  64.3480970  66.4821257  26.0664075  64.3869879
  65.8326066  24.9837331  64.9215606  65.8533913  25.6010045  64.4378996
  68.7643913  29.4605838  65.0983373  68.3279145  29.4642581  65.8542345
  68.4306829  30.1411337  64.6662951  68.6506533  29.5618294  65.1464206
  63.3372987  31.5014171  76.4226524  64.1213403  31.6145019  76.7882266
  63.1369581  30.6755308  76.6185210  63.4239012  31.3960890  76.5060910
  51.7060002  26.1741851  69.3070368  51.4398417  25.3580968  69.4661358
  51.7198566  26.2195007  68.4365883  51.6684725  26.0598756  69.2023850
  55.6117749  20.9726936  55.9222126  54.8975926  20.6865115  56.3344558
  56.0961718  21.3123561  56.5628513  55.5777113  20.9808585  56.0777761
  56.4558609  19.7120229  71.9537375  55.7630405  19.2417209  72.1998107
  57.0718936  19.4858534  72.5279082  56.4443139  19.6087361  72.0746528
  63.4943380  33.4124273  70.0692979  62.6958626  33.1723773  70.3266848
  63.9429392  33.4638666  70.8160027  63.4417991  33.3846664  70.2177904
  71.8988259  26.1786758  63.9903011  72.5604693  25.6177427  63.8898919
  71.2579671  25.6838789  64.3155702  71.9017127  26.0223167  64.0235351
  62.7865067  29.4756890  56.2983934  63.2016216  29.1441913  55.6068430
  61.9556997  29.2425792  56.1704071  62.7253076  29.3928146  56.1774781
  52.1153416  26.9600631  66.5882112  51.9328989  26.9347517  65.7354404
  52.8503085  27.4299568  66.6271021  52.1967480  27.0261993  66.4680030
  68.1853090  27.1952141  63.7314999  68.4208679  27.3397339  62.9041850
  68.3342654  27.9594549  64.1246513  68.2418893  27.3291195  63.6678603
  55.1799168  23.6785633  73.0964221  55.9039140  23.6638664  73.5829115
  55.2815304  24.3880989  72.5986189  55.3017377  23.7810337  73.0943007
  70.0143547  26.0353806  61.5684603  70.3451764  26.5681447  60.9624698
  70.5876635  26.0892694  62.2246554  70.1477226  26.1223375  61.5762385
  65.2275436  23.8818709  62.2508183  65.3222290  24.6208003  62.7047809
  64.6034279  23.4536185  62.6842748  65.1484466  23.9280030  62.3816331
  63.4827910  27.0604922  72.8998464  64.0566771  26.4232166  73.0547028
  63.4042714  27.0609004  72.0308122  63.5561145  26.9670033  72.7944875
  52.0824326  23.8394131  66.7381178  52.6597829  23.7030582  67.3773424
  51.3838388  23.3829915  66.9926763  52.0645348  23.7516397  66.8703468
  65.4798457  25.7267449  55.4845135  65.3978620  25.7969636  56.3500122
  66.1178178  26.2897193  55.2928876  65.5618295  25.8206420  55.5835085
  58.8391628  25.4928187  64.9519662  58.5810873  24.6599922  64.9250961
  58.8940111  25.7185800  64.1112162  58.8091406  25.4025958  64.8239798
  63.9192679  17.5956638  65.0523754  63.2149005  17.1065823  65.2107673
  63.9677653  17.6079112  64.1812199  63.8222730  17.5246286  64.9463094
  57.8126341  23.0465949  65.4384556  57.2375932  23.2058118  66.0748517
  57.4362017  22.4101358  64.9753007  57.6729153  22.9763762  65.4639115
  61.4799629  21.5189299  70.2976935  61.0914062  21.0943516  69.6429126
  60.8154328  21.7671448  70.8053961  61.3246557  21.4928020  70.2764803
  71.1222898  21.2764303  63.0724765  70.8659463  20.4644245  62.8822648
  71.9652212  21.2841870  62.8454952  71.2088924  21.1576301  63.0109582
  47.5583159  22.6906024  63.4528997  47.6443411  22.3137892  64.2342527
  48.1858957  22.3166470  62.9748955  47.6639710  22.5791506  63.4974474
  62.5838567  25.7487903  58.4953742  63.3979206  26.0402796  58.3836513
  62.5197709  25.0947766  57.9212035  62.6941306  25.6953098  58.3942579
  58.4546476  29.2209421  63.6226054  59.0920423  28.9821168  64.1677847
  58.8801547  29.4246580  62.8879214  58.6122642  29.2160431  63.5943211
  53.1459118  31.4597757  67.5060358  53.1863263  31.7312608  66.6780137
  53.7053642  31.9839665  67.9218146  53.2342464  31.5773512  67.4452246
  59.0949291  24.4411710  57.9600943  59.4794443  24.2219417  58.7117488
  58.8460911  25.2674656  58.0902020  59.1151363  24.5309857  58.0902020
  60.8367948  29.6981843  65.3019840  60.9106956  29.5357015  66.1561690
  61.6537454  29.8872033  65.0580322  60.9684306  29.7018586  65.3917866
  54.5973704  30.0439706  62.3314284  53.7711822  30.2901443  62.2048562
  54.6585696  29.9651787  63.1976342  54.4847871  30.0684655  62.4403228
  56.8149728  16.1108647  63.2909724  55.9472154  16.1831247  63.3567333
  57.1024932  16.9130726  63.4797699  56.7289476  16.2402794  63.3284490
  59.3772533  32.6616586  60.0333314  59.6670832  32.2705568  59.3092540
  60.1076014  32.8433291  60.4738589  59.5279418  32.6310400  59.9916121
  59.9667279  27.4634332  71.1186444  59.4678972  28.1750100  71.1971332
  60.7767503  27.7834999  71.0804606  60.0123385  27.6161181  71.1243013
  57.3178449  34.6383969  63.0993463  57.0978744  34.3481324  63.8920130
  57.0972971  33.9798924  62.5711376  57.2526043  34.4983677  63.1382372
  56.2295396  26.7257285  65.3649165  55.9408645  26.0994757  65.8994892
  57.0978744  26.6677573  65.4313845  56.3155648  26.6244830  65.4540120
  67.0173294  21.8692069  65.6831147  66.6738060  21.1482404  66.0338396
  67.1166336  21.6605920  64.8409505  66.9815337  21.7316272  65.6102827
  59.4846405  36.0113359  61.8824156  60.1370463  35.4789801  62.1115182
  58.7872013  35.6582011  62.2692030  59.4777123  35.8802882  61.9736323
  56.4327670  28.3652536  61.2891530  57.1873638  28.7465575  61.5026993
  55.8398282  28.8163680  61.7438227  56.4564383  28.4881364  61.3874408
  67.4786323  28.3317773  61.2255135  68.0444356  28.9910983  61.1413678
  66.8314226  28.6767471  61.6971537  67.4665079  28.4799714  61.2827891
  58.8934337  20.3215377  76.4148742  58.0834112  20.6273156  76.3038585
  59.3709023  21.0420959  76.5301326  58.8437815  20.4729978  76.4155813
  57.7525896  29.5361098  66.6631645  57.2306650  29.6761389  67.3483510
  58.1399916  28.7771762  66.8533763  57.7329597  29.4446622  66.7932722
  54.7417080  19.5866906  60.7326600  54.4541876  19.2168177  59.9958547
  55.4287548  20.0561762  60.4710305  54.8005977  19.6013876  60.5841676
  63.9492901  31.2756557  60.6492214  63.7079577  30.5424418  60.2419279
  64.1294234  31.8243414  59.9958547  63.9400525  31.2478948  60.4922437
  59.1792222  26.5665117  62.0613136  58.9835004  27.1739851  61.4673439
  59.4026567  25.8733061  61.5804810  59.1826863  26.5542642  61.9029217
  57.5770752  23.4519855  62.1794005  58.2993404  23.6161013  61.7197811
  57.0978745  24.1729519  62.0733345  57.6134482  23.5818084  62.0959619
  65.5364259  19.7883653  67.5590690  64.6975360  19.8144932  67.3228953
  65.6068627  20.4354389  68.1396036  65.4232653  19.8879779  67.6099807
  55.2278368  25.8577927  71.2848145  55.7399465  26.1362180  70.6356904
  54.9414711  26.5967221  71.6510958  55.2613232  26.0080281  71.2438023
  63.9833538  16.6869030  62.2918306  64.6859890  16.4876779  61.8138264
  63.7177726  15.9144973  62.5987149  64.0480170  16.5431996  62.2663747
  69.4121783  24.9951640  64.8451931  69.3255758  25.1507066  65.6986710
  68.9572263  25.6389716  64.4711337  69.3325040  25.1127395  64.9159038
  52.3145275  20.3648119  61.5811881  52.4161411  21.1674280  61.9092857
  53.1101162  20.1635455  61.2834962  52.4473180  20.4534018  61.5847237
  58.7462094  17.9504316  71.3449186  58.5545291  17.9659450  72.1948610
  59.5960690  18.1467990  71.3215841  58.8437816  17.9818667  71.4672481
  53.1309007  20.4795297  69.3233003  52.9894499  19.6279238  69.4477511
  53.4149570  20.5223958  68.4995209  53.1516853  20.3595047  69.2200627
  63.2847599  22.3162387  63.4677491  63.0382314  22.2358138  64.3014280
  63.6132722  21.5315855  63.2740018  63.2968843  22.1888653  63.5625014
  67.1795648  29.0245747  67.2564272  67.0410007  29.7226792  67.7613015
  66.3995646  28.8694403  66.9000454  67.0438875  29.1045913  67.2790546
  59.2444627  25.0519106  72.8800474  59.3888002  25.6320314  72.2443584
  59.5920275  25.4295403  73.5850329  59.3172088  25.1939810  72.8899469
  61.4164544  24.2509274  70.6625606  60.6687858  24.4440289  70.2573884
  61.5706069  23.4254494  70.4249727  61.3286971  24.1574386  70.5671012
  58.3172382  33.2421878  69.7461501  58.4661945  32.6824794  69.0934905
  59.0972384  33.3213879  70.1294020  58.4546475  33.1707443  69.7058450
  68.6749021  28.3824000  58.0180771  68.2955830  27.5961138  58.0110061
  68.0115266  28.9310857  57.8752416  68.5207496  28.3468824  57.9961568
  60.8425682  33.4136521  71.0245992  60.7669353  32.7445331  71.5796780
  60.7715541  34.1154309  71.5386658  60.8206289  33.4181428  71.1822840
  61.6566321  18.1459825  71.5521009  62.1138935  18.8783799  71.6793802
  61.7322650  17.7226290  72.3108265  61.7357291  18.1917063  71.6822086
  53.8999312  18.3925645  72.6410453  53.3641502  17.7806003  72.9571220
  53.9617077  18.9673781  73.2944120  53.8294945  18.3872572  72.7845880
  61.4995929  31.9337519  61.8569598  62.2645820  31.6647163  61.5352262
  61.3974019  31.4487530  62.5739660  61.5977425  31.8227084  61.9149425
  59.5348699  20.1361929  68.3962833  58.7444774  19.9553389  68.7180169
  59.9309322  19.3588881  68.3793128  59.4765575  19.9949390  68.4415382
  64.0214590  28.9649703  53.8369547  64.7887575  29.0249828  53.4275399
  63.5745899  28.3930145  53.3525866  64.0688017  28.8886279  53.7047257
  64.9192385  27.7704359  66.1222279  64.2437387  27.5389591  66.6235666
  64.9284761  27.1625542  65.4964384  64.8210890  27.6463284  66.1038432
  62.0486529  22.6122188  72.8786332  61.9845670  23.4732144  72.7506469
  62.1883717  22.2954181  72.0781884  62.0601999  22.6922355  72.7414545
  66.9209120  30.6269491  58.3532457  67.0028957  31.4336478  58.0293908
  67.4058862  30.6465451  59.0773231  67.0046278  30.7490154  58.4119356
  60.7305623  25.3054327  67.0202535  60.3067872  25.5058826  66.2841554
  60.5550478  24.4583175  67.1326835  60.6416504  25.2103109  66.9276225
  60.2317316  36.8204840  69.4823993  60.7213247  36.1215630  69.2999657
  59.6601549  36.5228710  70.0700050  60.2201846  36.6731064  69.5425033
  56.0188068  25.8006379  62.4530508  56.1752687  25.7353182  63.3086500
  56.3588661  26.5754931  62.2409187  56.0921303  25.9055577  62.5485102
  62.5567213  25.1764262  61.3223871  63.0982758  24.6734644  61.7862492
  62.8713772  25.1229457  60.5113356  62.6831610  25.0943683  61.2707683
  60.7253662  30.5681614  58.6063899  60.7946483  29.7096152  58.7456899
  61.5042117  30.7853495  58.2782924  60.8506512  30.4734478  58.5781056
  63.7056482  20.0700567  71.3746171  63.9198452  19.4311481  70.8209525
  63.0890381  20.5146391  70.9454033  63.6461811  20.0410711  71.2296603
  65.1161150  32.9919315  62.8200392  64.7240942  32.6886030  62.1023258
  65.2714222  33.8288405  62.6305346  65.0814740  33.0703152  62.6856889
  52.5922329  22.9841329  62.7691275  52.9721294  23.4025874  62.1051542
  52.0177694  23.5654785  63.0760118  52.5633654  23.1319188  62.7168016
  65.2800825  29.5569304  62.7606423  64.9215479  29.7283947  63.5370455
  64.7939535  30.0182510  62.2034421  65.1559522  29.6508275  62.7931692
  63.0971211  13.1800503  66.3633514  62.2264769  13.1539224  66.3166824
  63.3511552  13.0077695  65.5459360  63.0064771  13.1510646  66.2353651
  60.0689190  25.2368469  55.3006657  60.3581715  26.0133352  55.5750232
  60.1560989  24.7257201  56.0021157  60.1243446  25.2760388  55.4449155
  60.1220351  15.1906731  67.8206985  59.6058840  14.4986922  67.9458564
  59.5614280  15.8577508  67.7669583  59.9626864  15.1869989  67.8313051
  62.1912585  15.7299691  69.6499837  61.8044338  15.7548723  70.4313367
  61.7045522  15.1641370  69.1974354  62.0625093  15.6495442  69.6987741
  66.4405564  30.4473200  73.7073624  67.0785285  29.9533396  73.3736080
  65.7979656  30.3750601  73.1225851  66.4399791  30.3632209  73.5715979
  68.1662564  22.2962346  68.2739539  67.7390172  22.2088695  67.5187639
  67.5288617  22.4040122  68.8594383  68.0092171  22.2995006  68.2484981
  66.4959821  31.1393008  70.3478981  67.2852199  30.7882073  70.4681062
  66.6703418  31.9529397  70.0855614  66.6380102  31.2078865  70.3266848
  56.2353131  24.5501734  67.4006769  55.3941138  24.4505608  67.6085663
  56.4443139  25.3197214  67.7521090  56.1417824  24.6493777  67.4834084
  53.7128698  22.1721271  65.2291520  53.3185396  22.2464283  64.4541630
  53.1568815  22.5579217  65.7799882  53.5731510  22.2403046  65.1959180
  65.3493645  15.1502565  64.9095399  65.5543238  15.0824873  65.7552396
  65.0220069  15.9561386  64.8416576  65.3308893  15.2588505  65.0255054
  60.0469796  22.4783133  66.6504367  59.7432933  21.9239122  67.2514775
  59.3449217  22.6575343  66.1632401  59.8986006  22.4227916  66.6674073
  59.1035893  19.7883653  61.2149069  59.3795627  19.0702566  60.8026636
  59.7034562  20.3868573  61.0070175  59.2329158  19.7704024  61.1229830
  58.1088147  29.6932854  71.3576465  58.0008502  29.7034916  72.2238523
  58.3183928  30.5187634  71.1681418  58.1238258  29.8173929  71.4580556
  68.6027332  15.7034329  64.3898164  67.9901646  16.1904731  64.7751896
  68.6991507  15.0277820  64.9335816  68.5265230  15.6752638  64.5277023
  62.6046413  17.4597170  59.4895664  63.0590160  17.6307731  60.2143508
  63.0786459  16.8465281  59.0893439  62.7414734  17.3948056  59.5369425
  56.1261939  26.9445496  68.8198402  55.5349872  27.5854995  68.7901417
  56.8882962  27.3683114  68.7929702  56.1510199  27.1021335  68.8113549
  56.5222562  18.1047494  69.4866420  56.9824043  18.1786424  70.2241544
  56.5678668  18.9028748  69.1366241  56.5973117  18.2341641  69.5439176
  58.1705911  18.7714189  74.0538447  57.7791477  18.1247536  74.4894225
  58.3391774  19.3625624  74.6732702  58.1376822  18.7628457  74.2101153
  65.8851455  32.3954808  66.2530427  65.6871144  32.8845622  65.5586638
  65.2639166  32.5996049  66.8314560  65.7639020  32.4971346  66.2353650
  59.9459433  24.1639705  60.5940671  60.6901478  24.5513981  60.8323621
  60.0920130  23.3197130  60.7581159  60.0770019  24.0970178  60.6534641
  61.8639009  15.9589964  65.6272532  61.0175054  16.1312771  65.5013882
  61.8610141  15.1539307  65.9638361  61.7386159  15.8650993  65.6583659
  62.9337309  19.7365178  66.4934590  62.4597264  19.2106940  67.0039901
  63.3055445  19.1894651  65.9249452  62.9187198  19.5781175  66.4849737
  53.3110339  21.7336685  71.8618136  54.1735952  21.6332394  71.7755466
  52.9802122  21.1531394  71.3003708  53.3895536  21.6328311  71.7663542
  69.1974040  24.7967554  67.9041371  68.9572263  23.9573969  67.9083797
  69.6766047  24.8767720  68.6282144  69.2326224  24.6848953  68.0116173
  64.8620809  20.6301733  59.5560344  64.3343828  20.7130477  58.8666053
  65.3216517  21.3719604  59.5524989  64.8522659  20.7522395  59.4535039
  71.1979227  21.5769011  65.8570630  70.9588997  21.5364845  65.0191415
  71.3613128  22.4240163  65.9836351  71.1869530  21.6961096  65.7524112
  67.8025257  25.9618960  71.7875675  68.5259456  25.5091487  71.6086695
  67.5375219  26.2423626  71.0048003  67.8706530  25.9369929  71.6454390
  56.6712125  20.5579134  68.5228554  56.0465196  20.5697526  67.9154507
  56.3357720  21.0339309  69.1719794  56.5297617  20.6297651  68.5285123
  56.8553874  18.9004252  54.5801239  56.5066678  19.5523977  55.0432789
  56.3750320  18.8861365  53.8525110  56.7324118  18.9947306  54.5412331
  53.3837801  28.6179594  69.9632319  52.8537726  27.9272033  70.0127293
  53.6562894  28.6089779  69.1345027  53.3462523  28.5146726  69.8479735
  64.4157891  29.2005296  58.6870001  65.1392090  29.6663409  58.5434574
  63.9758483  29.2678906  57.9367598  64.4573584  29.2789133  58.5554783
  63.5844047  26.0602838  69.9370690  62.9701040  25.5160889  70.2319325
  64.1011331  25.5467075  69.4576506  63.5699709  25.9039248  69.9094919
  62.8240344  27.1307109  67.6714989  62.3967952  26.5056827  67.2380424
  62.8165288  26.8482030  68.4973996  62.7599485  26.9959889  67.7294816
  55.9402871  22.1672282  70.7403423  56.0996358  21.4115606  71.1455145
  55.7595764  22.7163221  71.3944160  55.9368230  22.1366095  70.8966129
  61.1526053  18.0075863  67.8857523  61.1768541  17.4735975  67.1970303
  61.4037527  17.4993172  68.5483113  61.1935972  17.8536767  67.8822167
  48.6633643  25.2907358  67.3200667  48.5577092  25.2454202  66.4552751
  47.9133863  25.6361139  67.6014952  48.5369246  25.3348266  67.2337997
  57.4327376  16.7346681  67.2663267  57.4725747  17.2355888  67.9797974
  56.6077040  16.8257075  66.9969190  57.3166902  16.8228498  67.3313805
  59.6156989  26.3007421  75.3683562  58.7652619  26.4379136  75.5041207
  59.7785116  25.5671200  75.8131263  59.5140852  26.2121522  75.4539161
  58.8541739  23.2507191  69.5637166  58.0233669  23.4181009  69.3572414
  58.7993256  22.8743142  70.3486051  58.7231154  23.2196922  69.6485694
  57.2277783  21.5262783  60.0927284  57.3680744  22.0235247  60.7955925
  57.7260316  20.8249077  60.2341497  57.3218864  21.4964761  60.2178863
  57.2578005  22.3929894  57.4219861  57.8923085  22.9890319  57.3569322
  57.3403616  22.0933351  58.2365731  57.3634556  22.4370802  57.5322947
  58.8356988  18.3243869  57.3965303  59.1572829  17.8446952  56.7424565
  59.0983932  19.1343515  57.2056114  58.9223014  18.3733767  57.2720795
  62.0653961  29.3462743  70.9164119  61.5579052  29.8998590  71.3604749
  61.7680607  29.4071033  70.0982893  61.9458846  29.4369055  70.8612575
  64.2316143  17.7116063  69.7588782  64.6571215  17.2588589  69.1472308
  63.6173136  17.1576134  70.0353569  64.2044788  17.5630039  69.7093807
  53.7630993  24.5897734  60.6909407  54.2723222  25.1862242  61.0720712
  54.2365265  24.3223708  60.0085826  53.9074369  24.6383550  60.6463929
  64.6761741  33.2626001  58.8468062  63.9591051  33.0886863  58.3815300
  65.3268479  33.0278573  58.3143548  64.6663592  33.2021794  58.6997280
  62.6710366  14.1831163  63.1679359  62.0278684  14.0328809  63.7364497
  62.3309773  13.9373508  62.4028463  62.5255443  14.1243285  63.1382374
  67.2609712  22.1390590  62.5909367  66.5900902  22.6820292  62.4622433
  67.9549463  22.6085445  62.3491062  67.2638580  22.2888861  62.5364895
  61.3096446  34.2787302  67.8221126  61.0862101  33.5206131  68.1905152
  60.8206289  34.3085323  67.1001565  61.2039895  34.1709526  67.7697867
  67.4237840  18.5946473  65.4999741  67.7765450  18.1676196  66.1745539
  66.5652641  18.5097317  65.6300817  67.3487285  18.5191214  65.6194751
  56.1221525  21.2253993  63.5582587  55.4033514  21.6418126  63.8255451
  56.4933887  21.7908232  63.0074225  56.0713457  21.3703274  63.5165394
  65.4221106  21.8581842  69.4484583  65.4019033  21.6765137  70.3019362
  65.4700306  22.7293860  69.4244166  65.4255747  21.9598380  69.5707878
  63.3667436  28.4469034  75.3733059  63.3263290  27.8018711  74.7878215
  64.1790754  28.3905651  75.6858471  63.4810589  28.3428001  75.3330008
  59.9574903  34.4987760  65.2758210  59.5435302  33.8361890  64.8862052
  60.6422277  34.6465619  64.7553904  59.9973275  34.4228418  65.1414707
  63.3240197  33.6577845  66.0281827  62.9256480  33.7680115  65.2602647
  62.7091417  33.8659911  66.6108387  63.1739087  33.7051413  66.0013126
  61.8968099  20.2651993  58.8955967  61.3032939  20.5868989  58.3440534
  61.9343377  19.4193088  58.6877073  61.8142488  20.1876321  58.7838738
  64.7725916  20.2231497  62.3257717  64.5439609  20.2464199  61.4836075
  65.0323992  19.3988964  62.4452727  64.7772104  20.1047577  62.2182914
  59.0545144  22.0765970  71.9282817  58.5424047  21.4687153  72.2867848
  58.8824640  22.7922563  72.3956793  58.9534781  22.0929270  72.0499041
  53.9010859  20.5203546  74.5785179  53.7313449  21.1804921  74.0333385
  53.4576809  20.7310107  75.2997668  53.8110193  20.6489528  74.6046808
  57.8270678  18.7608044  63.6211912  58.3028045  19.1225124  62.9862094
  57.3259278  19.4164511  63.9012055  57.8236037  18.9102232  63.5688653
  71.0582040  28.2329812  59.4124917  71.4415646  28.9821168  59.6423014
  70.2626153  28.4795631  59.1536907  70.9975822  28.3799506  59.4082491
  50.8012923  23.4250411  69.8373669  50.2539643  22.7551057  69.9554537
  51.5905302  23.0580259  69.9017136  50.8365107  23.2715398  69.8642369
  60.6497332  23.0857868  75.3337080  61.4008659  23.4009545  75.6476634
  60.8419908  22.8837039  74.5071001  60.7888746  23.1025250  75.2580475
  59.8697331  20.9049243  56.9885296  60.2496296  20.9228873  56.2036411
  59.1289928  21.3503232  56.8676144  59.8166169  20.9731018  56.8548865
  67.4982622  19.2131435  62.5760875  67.4976848  19.0580091  63.4345151
  67.2938802  20.0594422  62.5202261  67.4682400  19.3152055  62.6948814
  49.5599893  22.6371219  66.9919692  49.3821654  22.1847828  67.7174607
  49.2718915  23.4397381  67.1758169  49.4912846  22.6893777  67.1263195
  65.2223474  23.8928936  66.2297082  65.7177139  23.1751932  66.1901102
  64.4123250  23.5899734  66.1151569  65.1767367  23.7426583  66.2070808
  60.6682086  27.7426750  58.3794086  59.8593408  27.4193423  58.3327396
  61.1756994  27.0359972  58.3122335  60.6231752  27.5908066  58.3624381
  51.2972363  25.1698943  64.1041451  50.4317882  25.1584633  63.9924222
  51.3971179  24.9829166  64.9512590  51.1846530  25.1405004  64.2130395
  67.2875293  26.6432624  68.9174211  67.7130364  26.1207046  68.3644636
  66.9232213  27.2413461  68.3962834  67.2961895  26.6542851  68.7583220
  56.9229373  34.9396842  67.6771556  57.2375932  35.7533230  67.6849338
  57.3322786  34.5547060  68.3453715  57.0297471  35.0025544  67.7775648
  63.8753892  30.3566888  65.2475368  64.3465071  31.0707151  65.4165353
  64.2114071  29.7565638  65.7835238  63.9949007  30.3738353  65.3507744
  64.5127839  30.1484822  72.0103061  63.9648785  29.5242706  71.7423126
  64.9740867  30.3379094  71.2947140  64.4995048  30.0843873  71.8653492
  59.8616502  17.1310772  59.6712928  60.6832197  17.3009085  59.4294623
  59.3986153  17.2858033  58.9479226  59.9147664  17.1792505  59.5284572
  58.4511834  15.1253534  70.4511357  58.9956247  14.7844661  71.0415698
  58.5048770  15.9838995  70.5932641  58.5400953  15.2008793  70.5593230
  54.2642393  28.8869950  67.3250165  54.8687250  28.8465784  66.6963985
  54.0569705  29.7341102  67.3554220  54.3231290  29.0057952  67.2366281
  64.0786165  31.1535895  68.5412402  64.8984539  31.0098861  68.8028697
  63.7980243  31.7782094  69.0828840  64.1582908  31.2246247  68.6600341
  49.4993675  27.8704567  67.1949088  49.4017953  27.0600839  67.5039144
  50.2822545  27.8496361  66.8095356  49.6009812  27.7471658  67.1835951
  73.7499500  37.8976398  66.2608209  72.8937396  38.0584896  66.3117326
  73.7967154  37.0268462  66.2813270  73.6298612  37.7927200  66.2714275
  68.1340640  47.4339116  62.0245440  67.3823539  47.0554654  61.7961485
  68.5826652  47.4657549  61.2764251  68.0890307  47.3824723  61.8802943
  73.5865600  47.8564485  57.4530987  73.2516968  48.5341407  57.0175210
  74.0992470  47.4669796  56.8647859  73.6131181  47.8989063  57.3017779
  73.1269891  49.8078754  63.3942099  73.5109270  50.3765653  62.8546874
  73.0629032  49.0828264  62.9147915  73.1743318  49.7854217  63.2435962
  76.5951321  39.9568442  68.9039860  77.1407281  40.6353528  68.9633830
  76.5368198  39.8155903  68.0441442  76.6667236  40.0360443  68.7851921
  69.7125396  47.4457508  64.2908213  69.8135759  46.6357862  64.6005341
  69.1167141  47.3514454  63.6607891  69.6397935  47.3122536  64.2434451
  69.5526136  52.3635097  65.6923069  70.1963591  52.8048261  66.0819227
  69.8782391  51.5588523  65.6053328  69.6957964  52.3100292  65.7368546
  62.9090440  43.4677794  63.9160547  62.6740625  42.6345447  63.8092815
  63.0476081  43.7482460  63.1021747  62.8946103  43.3861298  63.7802902
  65.2080528  35.6363525  66.8144854  64.5885559  35.0456172  66.6454869
  65.1064391  36.2274960  66.1809177  65.1018203  35.6367608  66.6949844
  70.2546715  45.3747072  61.0642931  70.5762556  45.9152279  60.4604239
  70.9018812  44.8043843  61.1965220  70.3972771  45.3706247  60.9949966
  72.3048423  37.3763067  61.1477317  73.0028588  37.5551194  61.6398781
  72.6200756  36.8533406  60.5247707  72.4543761  37.3256839  61.1279327
  64.9349661  39.1815807  69.0588423  64.8108358  39.7678252  69.6938242
  65.5867945  38.6876002  69.3600698  65.0123310  39.1954611  69.1974353
  72.4936359  43.7633512  61.1357109  72.9329994  43.1550612  61.5811882
  72.3441022  43.3840885  60.3642574  72.5357825  43.6171983  61.0876276
  69.9608002  42.3577524  68.3375934  70.6057004  41.8649967  68.0186883
  70.2009779  42.5002310  69.1642013  70.0918587  42.3054966  68.4125468
  72.4994093  45.2032430  67.9882827  72.7817336  44.4083835  67.7669583
  73.2280254  45.6813017  68.0087888  72.6483657  45.1567026  67.9585842
  70.4775287  32.7455463  65.2298592  70.1478617  33.1966607  64.5602291
  69.8020289  32.6671627  65.7771598  70.3285723  32.8006599  65.2121815
  76.0945695  42.1160693  58.0887878  76.0096990  42.9721660  58.2337447
  76.5830079  41.8405017  58.7570037  76.1534593  42.2018015  58.2089960
  77.6851695  28.7340986  63.4748203  77.3705136  29.4244465  63.9068625
  77.1678636  28.6785769  62.7733703  77.5616165  28.8275875  63.4345152
  77.0264129  38.7345487  59.5885613  76.4975600  38.9505121  60.2482919
  77.5489149  39.4281626  59.5086583  77.0252582  38.8688624  59.6741212
  68.9163736  42.6308704  58.3893081  68.3320952  43.1358735  58.7958945
  68.5133832  42.4051091  57.6489673  68.7703040  42.6716952  58.3398106
  64.4707765  48.3463465  65.1916753  63.9875343  49.0713955  65.1676336
  65.2831083  48.6439595  65.3026910  64.5198513  48.4965819  65.2044032
  70.5421919  47.1395646  67.7966567  70.0248861  46.7803061  67.1927875
  71.2396310  46.6157820  67.8072633  70.5687500  47.0093334  67.7096826
  73.3740951  38.8774356  56.8662002  73.6136955  39.0852340  56.0537345
  73.6956792  38.0731865  56.9750946  73.4578109  38.7888457  56.7622555
  68.6831241  30.8067752  60.7121540  69.4377209  31.1746069  60.4738590
  68.5058776  31.1807306  61.4800719  68.7685719  30.9165940  60.7906428
  67.3251962  48.8619641  65.3437033  68.0272542  48.3471630  65.4009789
  67.2449445  49.1893792  66.1483908  67.4175723  48.8333867  65.4709825
  68.3730869  39.0995228  74.4717448  68.5451373  38.9901123  75.3202729
  68.9100226  39.7449633  74.2348640  68.4775873  39.1787230  74.5622544
  67.0388306  33.2138071  57.4099653  66.8563879  33.4309952  56.5840645
  67.9013919  33.3277084  57.4658267  67.1392895  33.2627969  57.2954140
  66.6502738  45.0525993  64.8522641  67.4891637  45.2848926  64.8996402
  66.6814507  44.1830305  64.7829676  66.7784455  44.9582940  64.8487285
  67.2755441  45.4726868  69.1535946  67.8153666  45.3297999  69.8239318
  66.5925387  45.8723619  69.5219972  67.2547595  45.5106539  69.3070368
  72.7188025  30.2164482  60.4448676  73.4474185  30.0380437  59.9986833
  72.8082918  31.0582561  60.6555855  72.8394687  30.3148360  60.4102194
  76.6996326  41.1517869  64.3480970  77.4553841  41.5849383  64.3869879
  76.8058650  40.5022639  64.9215606  76.8266496  41.1195353  64.4378996
  62.6792586  41.6927159  69.3070368  62.4131001  40.8766276  69.4661358
  62.6931150  41.7380315  68.4365883  62.6417308  41.5784064  69.2023850
  66.5850333  36.4912244  55.9222126  65.8708510  36.2050423  56.3344558
  67.0694301  36.8308869  56.5628513  66.5509696  36.4993893  56.0777761
  67.4291192  35.2305537  71.9537375  66.7362989  34.7602517  72.1998107
  68.0451520  35.0043842  72.5279082  67.4175722  35.1272669  72.0746528
  73.7597651  44.9942197  56.2983934  74.1748799  44.6627221  55.6068430
  72.9289580  44.7611100  56.1704071  73.6985659  44.9113453  56.1774781
  63.0885999  42.4785939  66.5882112  62.9061573  42.4532825  65.7354404
  63.8235668  42.9484876  66.6271021  63.1700063  42.5447301  66.4680030
  66.1531751  39.1970941  73.0964221  66.8771723  39.1823972  73.5829115
  66.2547888  39.9066297  72.5986189  66.2749960  39.2995645  73.0943007
  76.2008020  39.4004017  62.2508183  76.2954874  40.1393311  62.7047809
  75.5766863  38.9721493  62.6842748  76.1217050  39.4465338  62.3816331
  63.0556910  39.3579439  66.7381178  63.6330412  39.2215890  67.3773424
  62.3570972  38.9015223  66.9926763  63.0377931  39.2701705  66.8703468
  76.4531041  41.2452757  55.4845135  76.3711203  41.3154944  56.3500122
  77.0910761  41.8082501  55.2928876  76.5350878  41.3391728  55.5835085
  69.8124212  41.0113495  64.9519662  69.5543456  40.1785230  64.9250961
  69.8672695  41.2371108  64.1112162  69.7823990  40.9211266  64.8239798
  74.8925262  33.1141946  65.0523754  74.1881589  32.6251131  65.2107673
  74.9410236  33.1264420  64.1812199  74.7955314  33.0431593  64.9463094
  68.7858924  38.5651257  65.4384556  68.2108515  38.7243426  66.0748517
  68.4094600  37.9286666  64.9753007  68.6461736  38.4949070  65.4639115
  72.4532213  37.0374607  70.2976935  72.0646646  36.6128824  69.6429126
  71.7886911  37.2856756  70.8053961  72.2979141  37.0113328  70.2764803
  58.5315743  38.2091332  63.4528997  58.6175995  37.8323200  64.2342527
  59.1591540  37.8351778  62.9748955  58.6372294  38.0976814  63.4974474
  73.5571151  41.2673211  58.4953742  74.3711790  41.5588104  58.3836513
  73.4930292  40.6133074  57.9212035  73.6673890  41.2138406  58.3942579
  69.4279059  44.7394729  63.6226054  70.0653006  44.5006476  64.1677847
  69.8534131  44.9431888  62.8879214  69.5855226  44.7345739  63.5943211
  64.1191702  46.9783065  67.5060358  64.1595847  47.2497916  66.6780137
  64.6786226  47.5024973  67.9218146  64.2075048  47.0958820  67.4452246
  70.0681874  39.9597018  57.9600943  70.4527027  39.7404725  58.7117488
  69.8193495  40.7859964  58.0902020  70.0883947  40.0495165  58.0902020
  71.8100531  45.2167151  65.3019840  71.8839540  45.0542323  66.1561690
  72.6270038  45.4057341  65.0580322  71.9416890  45.2203894  65.3917866
  65.5706288  45.5625014  62.3314284  64.7444406  45.8086751  62.2048562
  65.6318279  45.4837095  63.1976342  65.4580455  45.5869963  62.4403228
  67.7882312  31.6293955  63.2909724  66.9204737  31.7016555  63.3567333
  68.0757516  32.4316034  63.4797699  67.7022060  31.7588102  63.3284490
  70.3505117  48.1801894  60.0333314  70.6403415  47.7890876  59.3092540
  71.0808598  48.3618599  60.4738589  70.5012001  48.1495708  59.9916121
  70.9399862  42.9819640  71.1186444  70.4411556  43.6935408  71.1971332
  71.7500086  43.3020307  71.0804606  70.9855969  43.1346489  71.1243013
  68.2911033  50.1569277  63.0993463  68.0711328  49.8666631  63.8920130
  68.0705555  49.4984232  62.5711376  68.2258627  50.0168985  63.1382372
  67.2027980  42.2442593  65.3649165  66.9141228  41.6180064  65.8994892
  68.0711328  42.1862881  65.4313845  67.2888232  42.1430137  65.4540120
  77.9905878  37.3877377  65.6831147  77.6470643  36.6667712  66.0338396
  78.0898920  37.1791228  64.8409505  77.9547920  37.2501580  65.6102827
  70.4578988  51.5298667  61.8824156  71.1103046  50.9975109  62.1115182
  69.7604597  51.1767319  62.2692030  70.4509706  51.3988190  61.9736323
  67.4060253  43.8837844  61.2891530  68.1606221  44.2650883  61.5026993
  66.8130866  44.3348988  61.7438227  67.4296967  44.0066672  61.3874408
  69.8666920  35.8400685  76.4148742  69.0566696  36.1458464  76.3038585
  70.3441607  36.5606267  76.5301326  69.8170399  35.9915286  76.4155813
  68.7258480  45.0546406  66.6631645  68.2039233  45.1946697  67.3483510
  69.1132500  44.2957070  66.8533763  68.7062181  44.9631929  66.7932722
  65.7149664  35.1052214  60.7326600  65.4274459  34.7353485  59.9958547
  66.4020132  35.5747070  60.4710305  65.7738561  35.1199184  60.5841676
  74.9225485  46.7941865  60.6492214  74.6812161  46.0609726  60.2419279
  75.1026818  47.3428722  59.9958547  74.9133109  46.7664256  60.4922437
  70.1524805  42.0850425  62.0613136  69.9567588  42.6925159  61.4673439
  70.3759151  41.3918369  61.5804810  70.1559446  42.0727950  61.9029217
  68.5503335  38.9705163  62.1794005  69.2725987  39.1346321  61.7197811
  68.0711328  39.6914827  62.0733345  68.5867066  39.1003392  62.0959619
  76.5096843  35.3068961  67.5590690  75.6707944  35.3330240  67.3228953
  76.5801210  35.9539697  68.1396036  76.3965236  35.4065087  67.6099807
  66.2010952  41.3763235  71.2848145  66.7132049  41.6547488  70.6356904
  65.9147295  42.1152529  71.6510958  66.2345815  41.5265589  71.2438023
  74.9566121  32.2054338  62.2918306  75.6592474  32.0062087  61.8138264
  74.6910310  31.4330281  62.5987149  75.0212754  32.0617304  62.2663747
  63.2877858  35.8833427  61.5811881  63.3893995  36.6859588  61.9092857
  64.0833745  35.6820763  61.2834962  63.4205764  35.9719326  61.5847237
  69.7194677  33.4689624  71.3449186  69.5277874  33.4844758  72.1948610
  70.5693273  33.6653298  71.3215841  69.8170399  33.5003975  71.4672481
  64.1041590  35.9980605  69.3233003  63.9627082  35.1464546  69.4477511
  64.3882154  36.0409266  68.4995209  64.1249437  35.8780355  69.2200627
  74.2580183  37.8347695  63.4677491  74.0114897  37.7543446  64.3014280
  74.5865306  37.0501163  63.2740018  74.2701426  37.7073961  63.5625014
  78.1528232  44.5431055  67.2564272  78.0142591  45.2412100  67.7613015
  77.3728230  44.3879711  66.9000454  78.0171459  44.6231221  67.2790546
  70.2177210  40.5704414  72.8800474  70.3620586  41.1505622  72.2443584
  70.5652859  40.9480711  73.5850329  70.2904671  40.7125118  72.8899469
  72.3897127  39.7694582  70.6625606  71.6420441  39.9625597  70.2573884
  72.5438653  38.9439802  70.4249727  72.3019555  39.6759694  70.5671012
  72.6298904  33.6645133  71.5521009  73.0871519  34.3969107  71.6793802
  72.7055233  33.2411598  72.3108265  72.7089874  33.7102371  71.6822086
  64.8731896  33.9110953  72.6410453  64.3374085  33.2991311  72.9571220
  64.9349660  34.4859089  73.2944120  64.8027528  33.9057880  72.7845880
  72.4728513  47.4522827  61.8569598  73.2378404  47.1832471  61.5352262
  72.3706603  46.9672838  62.5739660  72.5710008  47.3412392  61.9149425
  70.5081282  35.6547237  68.3962833  69.7177357  35.4738697  68.7180169
  70.9041905  34.8774189  68.3793128  70.4498159  35.5134698  68.4415382
  74.9947173  44.4835011  53.8369547  75.7620158  44.5435136  53.4275399
  74.5478482  43.9115453  53.3525866  75.0420600  44.4071587  53.7047257
  75.8924969  43.2889667  66.1222279  75.2169971  43.0574899  66.6235666
  75.9017345  42.6810850  65.4964384  75.7943473  43.1648592  66.1038432
  73.0219113  38.1307496  72.8786332  72.9578254  38.9917452  72.7506469
  73.1616300  37.8139489  72.0781884  73.0334583  38.2107663  72.7414545
  77.8941703  46.1454799  58.3532457  77.9761541  46.9521786  58.0293908
  78.3791445  46.1650759  59.0773231  77.9778861  46.2675462  58.4119356
  71.7038207  40.8239635  67.0202535  71.2800456  41.0244134  66.2841554
  71.5283062  39.9768483  67.1326835  71.6149087  40.7288417  66.9276225
  66.9920652  41.3191687  62.4530508  67.1485271  41.2538490  63.3086500
  67.3321245  42.0940239  62.2409187  67.0653886  41.4240885  62.5485102
  73.5299796  40.6949570  61.3223871  74.0715342  40.1919951  61.7862492
  73.8446355  40.6414765  60.5113356  73.6564193  40.6128991  61.2707683
  71.6986246  46.0866922  58.6063899  71.7679066  45.2281460  58.7456899
  72.4774701  46.3038803  58.2782924  71.8239096  45.9919786  58.5781056
  74.6789066  35.5885875  71.3746171  74.8931035  34.9496789  70.8209525
  74.0622965  36.0331699  70.9454033  74.6194395  35.5596019  71.2296603
  76.0893733  48.5104623  62.8200392  75.6973525  48.2071338  62.1023258
  76.2446806  49.3473713  62.6305346  76.0547323  48.5888460  62.6856889
  63.5654913  38.5026637  62.7691275  63.9453878  38.9211182  62.1051542
  62.9910278  39.0840093  63.0760118  63.5366238  38.6504496  62.7168016
  76.2533408  45.0754612  62.7606423  75.8948063  45.2469255  63.5370455
  75.7672119  45.5367818  62.2034421  76.1292105  45.1693583  62.7931692
  74.0703794  28.6985811  66.3633514  73.1997352  28.6724532  66.3166824
  74.3244135  28.5263003  65.5459360  73.9797354  28.6695954  66.2353651
  71.0421774  40.7553777  55.3006657  71.3314298  41.5318660  55.5750232
  71.1293572  40.2442509  56.0021157  71.0976030  40.7945696  55.4449155
  71.0952935  30.7092039  67.8206985  70.5791423  30.0172230  67.9458564
  70.5346864  31.3762816  67.7669583  70.9359448  30.7055297  67.8313051
  73.1645168  31.2484999  69.6499837  72.7776921  31.2734030  70.4313367
  72.6778105  30.6826678  69.1974354  73.0357677  31.1680750  69.6987741
  67.2085715  40.0687042  67.4006769  66.3673721  39.9690916  67.6085663
  67.4175723  40.8382522  67.7521090  67.1150407  40.1679085  67.4834084
  64.6861282  37.6906579  65.2291520  64.2917979  37.7649591  64.4541630
  64.1301398  38.0764525  65.7799882  64.5464094  37.7588354  65.1959180
  76.3226228  30.6687873  64.9095399  76.5275822  30.6010181  65.7552396
  75.9952652  31.4746694  64.8416576  76.3041476  30.7773813  65.0255054
  71.0202379  37.9968441  66.6504367  70.7165517  37.4424429  67.2514775
  70.3181800  38.1760651  66.1632401  70.8718589  37.9413224  66.6674073
  70.0768477  35.3068961  61.2149069  70.3528211  34.5887873  60.8026636
  70.6767146  35.9053881  61.0070175  70.2061741  35.2889332  61.1229830
  69.0820730  45.2118162  71.3576465  68.9741085  45.2220224  72.2238523
  69.2916512  46.0372942  71.1681418  69.0970842  45.3359237  71.4580556
  73.5778997  32.9782478  59.4895664  74.0322744  33.1493039  60.2143508
  74.0519043  32.3650589  59.0893439  73.7147317  32.9133364  59.5369425
  67.0994522  42.4630804  68.8198402  66.5082456  43.1040302  68.7901417
  67.8615546  42.8868422  68.7929702  67.1242783  42.6206643  68.8113549
  67.4955145  33.6232802  69.4866420  67.9556627  33.6971731  70.2241544
  67.5411252  34.4214056  69.1366241  67.5705701  33.7526949  69.5439176
  69.1438495  34.2899497  74.0538447  68.7524060  33.6432844  74.4894225
  69.3124358  34.8810932  74.6732702  69.1109405  34.2813765  74.2101153
  76.8584039  47.9140116  66.2530427  76.6603727  48.4030930  65.5586638
  76.2371750  48.1181357  66.8314560  76.7371603  48.0156654  66.2353650
  70.9192017  39.6825013  60.5940671  71.6634062  40.0699289  60.8323621
  71.0652713  38.8382438  60.7581159  71.0502602  39.6155485  60.6534641
  72.8371593  31.4775272  65.6272532  71.9907638  31.6498079  65.5013882
  72.8342725  30.6724615  65.9638361  72.7118742  31.3836301  65.6583659
  73.9069893  35.2550486  66.4934590  73.4329847  34.7292248  67.0039901
  74.2788029  34.7079959  65.9249452  73.8919782  35.0966483  66.4849737
  64.2842923  37.2521993  71.8618136  65.1468536  37.1517702  71.7755466
  63.9534706  36.6716702  71.3003708  64.3628119  37.1513619  71.7663542
  75.8353393  36.1487041  59.5560344  75.3076411  36.2315785  58.8666053
  76.2949101  36.8904912  59.5524989  75.8255243  36.2707703  59.4535039
  67.6444709  36.0764442  68.5228554  67.0197779  36.0882834  67.9154507
  67.3090304  36.5524617  69.1719794  67.5030201  36.1482959  68.5285123
  67.8286458  34.4189560  54.5801239  67.4799262  35.0709285  55.0432789
  67.3482904  34.4046673  53.8525110  67.7056702  34.5132614  54.5412331
  64.3570385  44.1364902  69.9632319  63.8270309  43.4457341  70.0127293
  64.6295478  44.1275087  69.1345027  64.3195107  44.0332034  69.8479735
  75.3890475  44.7190604  58.6870001  76.1124674  45.1848717  58.5434574
  74.9491066  44.7864214  57.9367598  75.4306167  44.7974441  58.5554783
  74.5576630  41.5788146  69.9370690  73.9433623  41.0346197  70.2319325
  75.0743915  41.0652383  69.4576506  74.5432293  41.4224555  69.9094919
  73.7972927  42.6492416  67.6714989  73.3700535  42.0242135  67.2380424
  73.7897872  42.3667338  68.4973996  73.7332068  42.5145197  67.7294816
  66.9135454  37.6857589  70.7403423  67.0728941  36.9300914  71.1455145
  66.7328348  38.2348529  71.3944160  66.9100813  37.6551403  70.8966129
  72.1258637  33.5261171  67.8857523  72.1501124  32.9921283  67.1970303
  72.3770111  33.0178480  68.5483113  72.1668556  33.3722075  67.8822167
  59.6366227  40.8092666  67.3200667  59.5309676  40.7639510  66.4552751
  58.8866447  41.1546447  67.6014952  59.5101830  40.8533574  67.2337997
  68.4059959  32.2531989  67.2663267  68.4458331  32.7541196  67.9797974
  67.5809624  32.3442383  66.9969190  68.2899485  32.3413806  67.3313805
  69.8274323  38.7692499  69.5637166  68.9966252  38.9366317  69.3572414
  69.7725840  38.3928450  70.3486051  69.6963737  38.7382230  69.6485694
  68.2010366  37.0448091  60.0927284  68.3413328  37.5420555  60.7955925
  68.6992899  36.3434385  60.2341497  68.2951447  37.0150069  60.2178863
  68.2310589  37.9115202  57.4219861  68.8655668  38.5075627  57.3569322
  68.3136200  37.6118659  58.2365731  68.3367140  37.9556110  57.5322947
  69.8089572  33.8429177  57.3965303  70.1305413  33.3632260  56.7424565
  70.0716515  34.6528823  57.2056114  69.8955597  33.8919075  57.2720795
  75.2048727  33.2301371  69.7588782  75.6303798  32.7773897  69.1472308
  74.5905720  32.6761442  70.0353569  75.1777372  33.0815347  69.7093807
  64.7363577  40.1083042  60.6909407  65.2455806  40.7047550  61.0720712
  65.2097849  39.8409016  60.0085826  64.8806952  40.1568858  60.6463929
  75.6494325  48.7811309  58.8468062  74.9323634  48.6072171  58.3815300
  76.3001062  48.5463881  58.3143548  75.6396175  48.7207102  58.6997280
  73.6442950  29.7016471  63.1679359  73.0011267  29.5514117  63.7364497
  73.3042356  29.4558816  62.4028463  73.4988027  29.6428593  63.1382374
  72.2829030  49.7972610  67.8221126  72.0594684  49.0391439  68.1905152
  71.7938873  49.8270631  67.1001565  72.1772479  49.6894834  67.7697867
  78.3970423  34.1131781  65.4999741  78.7498034  33.6861504  66.1745539
  77.5385225  34.0282625  65.6300817  78.3219868  34.0376522  65.6194751
  67.0954108  36.7439301  63.5582587  66.3766098  37.1603434  63.8255451
  67.4666471  37.3093540  63.0074225  67.0446040  36.8888582  63.5165394
  76.3953689  37.3767150  69.4484583  76.3751617  37.1950445  70.3019362
  76.4432890  38.2479168  69.4244166  76.3988330  37.4783688  69.5707878
  70.9307487  50.0173068  65.2758210  70.5167885  49.3547198  64.8862052
  71.6154861  50.1650927  64.7553904  70.9705858  49.9413726  65.1414707
  74.2972781  49.1763153  66.0281827  73.8989064  49.2865423  65.2602647
  73.6824000  49.3845219  66.6108387  74.1471670  49.2236721  66.0013126
  72.8700683  35.7837301  58.8955967  72.2765522  36.1054297  58.3440534
  72.9075960  34.9378396  58.6877073  72.7875072  35.7061629  58.7838738
  75.7458499  35.7416805  62.3257717  75.5172192  35.7649507  61.4836075
  76.0056576  34.9174272  62.4452727  75.7504687  35.6232885  62.2182914
  70.0277728  37.5951278  71.9282817  69.5156631  36.9872461  72.2867848
  69.8557224  38.3107871  72.3956793  69.9267365  37.6114578  72.0499041
  64.8743443  36.0388854  74.5785179  64.7046033  36.6990229  74.0333385
  64.4309392  36.2495415  75.2997668  64.7842776  36.1674836  74.6046808
  68.8003262  34.2793352  63.6211912  69.2760628  34.6410431  62.9862094
  68.2991862  34.9349819  63.9012055  68.7968621  34.4287540  63.5688653
  61.7745507  38.9435719  69.8373669  61.2272226  38.2736365  69.9554537
  62.5637885  38.5765567  69.9017136  61.8097691  38.7900706  69.8642369
  70.8429915  36.4234551  56.9885296  71.2228880  36.4414181  56.2036411
  70.1022511  36.8688540  56.8676144  70.7898753  36.4916326  56.8548865
  78.4715206  34.7316743  62.5760875  78.4709432  34.5765399  63.4345151
  78.2671386  35.5779730  62.5202261  78.4414983  34.8337363  62.6948814
  60.5332477  38.1556527  66.9919692  60.3554238  37.7033136  67.7174607
  60.2451499  38.9582688  67.1758169  60.4645430  38.2079085  67.1263195
  76.1956058  39.4114244  66.2297082  76.6909723  38.6937239  66.1901102
  75.3855833  39.1085042  66.1151569  76.1499951  39.2611891  66.2070808
  71.6414669  43.2612058  58.3794086  70.8325992  42.9378731  58.3327396
  72.1489578  42.5545280  58.3122335  71.5964336  43.1093374  58.3624381
  62.2704946  40.6884251  64.1041451  61.4050466  40.6769941  63.9924222
  62.3703762  40.5014474  64.9512590  62.1579113  40.6590312  64.2130395
  78.2607876  42.1617932  68.9174211  78.6862948  41.6392354  68.3644636
  77.8964796  42.7598769  68.3962834  78.2694479  42.1728159  68.7583220
  67.8961956  50.4582149  67.6771556  68.2108515  51.2718538  67.6849338
  68.3055370  50.0732368  68.3453715  68.0030054  50.5210852  67.7775648
  74.8486476  45.8752196  65.2475368  75.3197654  46.5892459  65.4165353
  75.1846654  45.2750946  65.7835238  74.9681591  45.8923660  65.3507744
  70.8349086  32.6496080  59.6712928  71.6564780  32.8194392  59.4294623
  70.3718737  32.8043341  58.9479226  70.8880248  32.6977813  59.5284572
  69.4244418  30.6438842  70.4511357  69.9688831  30.3029969  71.0415698
  69.4781353  31.5024303  70.5932641  69.5133537  30.7194101  70.5593230
  65.2374976  44.4055258  67.3250165  65.8419834  44.3651092  66.6963985
  65.0302289  45.2526410  67.3554220  65.2963874  44.5243260  67.2366281
  60.4726259  43.3889875  67.1949088  60.3750537  42.5786147  67.5039144
  61.2555128  43.3681669  66.8095356  60.5742395  43.2656966  67.1835951
  77.5582916  52.0097551  55.9222126  76.8441093  51.7235731  56.3344558
  78.0426885  52.3494177  56.5628513  77.5242280  52.0179201  56.0777761
  69.5048327  53.7276640  63.4528997  69.5908578  53.3508508  64.2342527
  70.1324124  53.3537086  62.9748955  69.6104878  53.6162122  63.4974474
  76.6882247  50.6237522  60.7326600  76.4007043  50.2538793  59.9958547
  77.3752716  51.0932378  60.4710305  76.7471145  50.6384492  60.5841676
  74.2610442  51.4018735  61.5811881  74.3626578  52.2044896  61.9092857
  75.0566329  51.2006071  61.2834962  74.3938348  51.4904634  61.5847237
  74.5387497  54.0211945  62.7691275  74.9186461  54.4396490  62.1051542
  73.9642861  54.6025401  63.0760118  74.5098821  54.1689804  62.7168016
  75.7096160  55.6268350  60.6909407  76.2188390  56.2232858  61.0720712
  76.1830433  55.3594324  60.0085826  75.8539536  55.6754166  60.6463929
  78.0686692  52.2624609  63.5582587  77.3498681  52.6788741  63.8255451
  78.4399054  52.8278848  63.0074225  78.0178624  52.4073890  63.5165394
  56.8558880   8.8531939  48.9585487  56.1041780   8.4747477  48.7301532
  57.3044892   8.8850373  48.2104297  56.8108547   8.8017546  48.8142989
  62.3083840   9.2757308  44.3871034  61.9735209   9.9534230  43.9515256
  62.8210711   8.8862620  43.7987906  62.3349421   9.3181887  44.2357826
  61.8488131  11.2271577  50.3282146  62.2327511  11.7958476  49.7886921
  61.7847273  10.5021087  49.8487962  61.8961559  11.2047041  50.1776008
  58.4343636   8.8650331  51.2248260  58.5353999   8.0550685  51.5345387
  57.8385382   8.7707278  50.5947938  58.3616175   8.7315359  51.1774498
  58.2744376  13.7827920  52.6263116  58.9181832  14.2241084  53.0159274
  58.6000632  12.9781346  52.5393374  58.4176205  13.7293115  52.6708593
  51.6308681   4.8870618  50.8500593  51.3958865   4.0538270  50.7432862
  51.7694321   5.1675283  50.0361794  51.6164343   4.8054121  50.7142948
  58.9764956   6.7939895  47.9982977  59.2980797   7.3345102  47.3944286
  59.6237052   6.2236666  48.1305267  59.1191011   6.7899070  47.9290013
  53.1926005   9.7656288  52.1256799  52.7093584  10.4906778  52.1016383
  54.0049324  10.0632418  52.2366957  53.2416753   9.9158642  52.1384079
  59.2640159   8.5588469  54.7306614  58.7467101   8.1995884  54.1267922
  59.9614551   8.0350644  54.7412680  59.2905741   8.4286157  54.6436873
  62.9203751   9.0083283  60.6922787  63.0087097   8.8209424  61.5400997
  63.3493464   8.3620713  60.2927634  62.9965854   8.8846291  60.7594538
  60.4874211   8.2914443  59.6740449  59.9245046   7.8787053  60.1980110
  61.2495235   8.2167349  60.0933592  60.5168660   8.2191844  59.8133450
  56.0470203  10.2812464  52.2777079  56.7490782   9.7664453  52.3349836
  55.9667686  10.6086616  53.0823954  56.1393963  10.2526691  52.4049872
  55.9973681   6.8919692  56.0875993  56.5371906   6.7490823  56.7579365
  55.3143627   7.2916442  56.4560019  55.9765835   6.9299362  56.2410415
  63.0323811   8.4392302  63.3566571  63.8164227   8.5523150  63.7222313
  62.8320405   7.6133439  63.5525256  63.1189836   8.3339022  63.4400957
  63.1894204  10.3502404  57.0033026  62.3909450  10.1101904  57.2606895
  63.6380216  10.4016797  57.7500074  63.1368815  10.3224795  57.1517950
  51.8104240   3.8978762  53.5222159  51.6279813   3.8725648  52.6694451
  52.5453909   4.3677700  53.5611067  51.8918304   3.9640124  53.4020077
  58.1497300   6.1587552  50.5566101  58.7871247   5.9199299  51.1017894
  58.5752371   6.3624711  49.8219261  58.3073466   6.1538562  50.5283258
  52.8409942   8.3975888  54.4400405  52.8814087   8.6690739  53.6120184
  53.4004466   8.9217796  54.8558192  52.9293288   8.5151643  54.3792293
  60.5318772   6.6359975  52.2359887  60.6057780   6.4735146  53.0901737
  61.3488278   6.8250164  51.9920369  60.6635130   6.6396717  52.3257913
  54.2924528   6.9817837  49.2654330  53.4662646   7.2279575  49.1388609
  54.3536520   6.9029918  50.1316389  54.1798695   7.0062786  49.3743275
  59.0723357   9.5994718  46.9673360  59.3621656   9.2083699  46.2432587
  59.8026838   9.7811422  47.4078636  59.2230242   9.5688531  46.9256167
  57.0129273  11.5762100  50.0333510  56.7929568  11.2859455  50.8260177
  56.7923795  10.9177055  49.5051422  56.9476867  11.4361808  50.0722419
  59.1797229  12.9491490  48.8164202  59.8321287  12.4167932  49.0455229
  58.4822837  12.5960142  49.2032077  59.1727947  12.8181013  48.9076370
  56.1278493   5.3030668  48.2231577  56.8824461   5.6843707  48.4367039
  55.5349106   5.7541811  48.6778273  56.1515207   5.4259495  48.3214455
  57.4476720   6.4739229  53.5971692  56.9257474   6.6139521  54.2823557
  57.8350740   5.7149893  53.7873810  57.4280421   6.3824753  53.7272769
  63.6443725   8.2134688  47.5832261  63.4030401   7.4802549  47.1759326
  63.8245058   8.7621545  46.9298594  63.6351349   8.1857079  47.4262484
  58.0123205  10.1800009  56.6801548  58.1612769   9.6202925  56.0274952
  58.7923208  10.2592011  57.0634067  58.1497299  10.1085574  56.6398497
  60.5376506  10.3514652  57.9586039  60.4620177   9.6823462  58.5136827
  60.4666365  11.0532440  58.4726705  60.5157113  10.3559559  58.1162887
  61.1946753   8.8715651  48.7909645  61.9596644   8.6025294  48.4692309
  61.0924843   8.3865661  49.5079707  61.2928248   8.7605215  48.8489472
  59.9268140  13.7582972  56.4164039  60.4164071  13.0593761  56.2339704
  59.3552373  13.4606842  57.0040097  59.9152670  13.6109195  56.4765080
  60.4204486   7.5059745  45.5403946  60.4897307   6.6474284  45.6796946
  61.1992941   7.7231626  45.2122970  60.5457336   7.4112609  45.5121103
  64.8111974   9.9297446  49.7540439  64.4191766   9.6264162  49.0363305
  64.9665046  10.7666536  49.5645393  64.7765564  10.0081283  49.6196936
  57.8038971   6.6310985  58.2916511  57.6959326   6.6413047  59.1578570
  58.0134752   7.4565766  58.1021465  57.8189082   6.7552060  58.3920603
  65.5802279   9.3332939  53.1870473  65.3821968   9.8223754  52.4926685
  64.9589990   9.5374181  53.7654607  65.4589843   9.4349477  53.1693697
  53.0788625   5.5557725  56.8972365  52.5488549   4.8650164  56.9467340
  53.3513718   5.5467910  56.0685074  53.0413347   5.4524857  56.7819781
  48.3584467   2.2285489  54.2540714  48.2527916   2.1832334  53.3892798
  47.6084687   2.5739270  54.5354999  48.2320070   2.2726397  54.1678043
  61.7604785   6.2840875  57.8504166  61.2529876   6.8376721  58.2944796
  61.4631431   6.3449165  57.0322940  61.6409670   6.3747186  57.7952622
  64.3712565  10.2004132  45.7808109  63.6541875  10.0264995  45.3155346
  65.0219303   9.9656705  45.2483595  64.3614416  10.1399925  45.6337327
  61.0047270  11.2165433  54.7561172  60.7812925  10.4584262  55.1245199
  60.5157113  11.2463454  54.0341612  60.8990719  11.1087657  54.7037913
  59.6525727  11.4365891  52.2098257  59.2386126  10.7740021  51.8202099
  60.3373101  11.5843750  51.6893951  59.6924099  11.3606549  52.0754754
  63.0191021  10.5955976  52.9621874  62.6207304  10.7058247  52.1942694
  62.4042241  10.8038043  53.5448433  62.8689910  10.6429544  52.9353173
  56.6180197  11.8774973  54.6111603  56.9326756  12.6911361  54.6189385
  57.0273610  11.4925191  55.2793762  56.7248295  11.9403675  54.7115695
  53.9593217   5.8248081  54.2590211  54.5638074   5.7843915  53.6304032
  53.7520529   6.6719233  54.2894267  54.0182114   5.9436084  54.1706328
  63.7736989   8.0914026  55.4752449  64.5935363   7.9476992  55.7368744
  63.4931067   8.7160225  56.0168887  63.8533732   8.1624378  55.5940388
  49.1944499   4.8082699  54.1289135  49.0968777   3.9978970  54.4379191
  49.9773369   4.7874492  53.7435403  49.2960636   4.6849789  54.1175997
  73.4450324  14.8354529  53.1948256  72.5888220  14.9963027  53.2457372
  73.4917978  13.9646593  53.2153317  73.3249436  14.7305331  53.2054322
  67.8291464  24.3717247  48.9585487  67.0774363  23.9932785  48.7301532
  68.2777476  24.4035680  48.2104297  67.7841131  24.3202854  48.8142989
  73.2816424  24.7942616  44.3871034  72.9467792  25.4719538  43.9515256
  73.7943294  24.4047928  43.7987906  73.3082005  24.8367195  44.2357826
  72.8220715  26.7456885  50.3282146  73.2060094  27.3143784  49.7886921
  72.7579856  26.0206395  49.8487962  72.8694142  26.7232348  50.1776008
  76.2902145  16.8946573  55.8379907  76.8358105  17.5731660  55.8973877
  76.2319021  16.7534034  54.9781489  76.3618060  16.9738575  55.7191968
  69.4076220  24.3835639  51.2248260  69.5086583  23.5735993  51.5345387
  68.8117965  24.2892585  50.5947938  69.3348759  24.2500667  51.1774498
  69.2476960  29.3013228  52.6263116  69.8914415  29.7426392  53.0159274
  69.5733215  28.4966654  52.5393374  69.3908788  29.2478423  52.6708593
  62.6041264  20.4055926  50.8500593  62.3691449  19.5723578  50.7432862
  62.7426905  20.6860591  50.0361794  62.5896927  20.3239429  50.7142948
  64.9031352  12.5741656  53.7484901  64.2836383  11.9834303  53.5794916
  64.8015215  13.1653091  53.1149224  64.7969027  12.5745739  53.6289891
  69.9497539  22.3125203  47.9982977  70.2713380  22.8530410  47.3944286
  70.5969636  21.7421974  48.1305267  70.0923595  22.3084378  47.9290013
  71.9999247  14.3141198  48.0817364  72.6979412  14.4929326  48.5738827
  72.3151580  13.7911537  47.4587753  72.1494585  14.2634970  48.0619374
  64.6300485  16.1193938  55.9928470  64.5059182  16.7056383  56.6278289
  65.2818769  15.6254134  56.2940745  64.7074134  16.1332742  56.1314399
  72.1887183  20.7011643  48.0697156  72.6280818  20.0928744  48.5151928
  72.0391846  20.3219016  47.2982621  72.2308648  20.5550114  48.0216323
  69.6558826  19.2955655  55.2715981  70.3007828  18.8028098  54.9526930
  69.8960603  19.4380441  56.0982059  69.7869411  19.2433097  55.3465514
  72.1944917  22.1410561  54.9222874  72.4768160  21.3461966  54.7009630
  72.9231078  22.6191148  54.9427935  72.3434481  22.0945158  54.8925889
  70.1726111   9.6833595  52.1638639  69.8429441  10.1344738  51.4942337
  69.4971113   9.6049758  52.7111645  70.0236547   9.7384730  52.1461862
  75.7896519  19.0538824  45.0227925  75.7047814  19.9099791  45.1677494
  76.2780903  18.7783148  45.6910084  75.8485417  19.1396146  45.1430006
  76.7214953  15.6723618  46.5225660  76.1926424  15.8883252  47.1822966
  77.2439972  16.3659757  46.4426629  76.7203406  15.8066755  46.6081259
  68.6114560  19.5686835  45.3233128  68.0271776  20.0736867  45.7298992
  68.2084656  19.3429222  44.5829720  68.4653864  19.6095084  45.2738153
  64.1658589  25.2841596  52.1256799  63.6826167  26.0092086  52.1016383
  64.9781907  25.5817726  52.2366957  64.2149337  25.4343950  52.1384079
  70.2372743  24.0773777  54.7306614  69.7199685  23.7181192  54.1267922
  70.9347134  23.5535952  54.7412680  70.2638324  23.9471465  54.6436873
  73.8936335  24.5268591  60.6922787  73.9819681  24.3394732  61.5400997
  74.3226048  23.8806021  60.2927634  73.9698437  24.4031599  60.7594538
  71.4606795  23.8099751  59.6740449  70.8977630  23.3972361  60.1980110
  72.2227818  23.7352657  60.0933592  71.4901243  23.7377152  59.8133450
  73.0691775  15.8152487  43.8002049  73.3087778  16.0230471  42.9877392
  73.3907616  15.0109996  43.9090993  73.1528933  15.7266589  43.6962602
  67.0202786  25.7997772  52.2777079  67.7223366  25.2849761  52.3349836
  66.9400269  26.1271924  53.0823954  67.1126547  25.7711998  52.4049872
  68.0681693  16.0373359  61.4057494  68.2402197  15.9279254  62.2542776
  68.6051050  16.6827765  61.1688687  68.1726697  16.1165361  61.4962591
  66.7339130  10.1516202  44.3439699  66.5514703  10.3688083  43.5180692
  67.5964743  10.2655215  44.3998314  66.8343719  10.2006100  44.2294187
  66.3453562  21.9904124  51.7862687  67.1842461  22.2227057  51.8336449
  66.3765331  21.1208436  51.7169723  66.4735279  21.8961071  51.7827332
  66.9706265  22.4104999  56.0875993  67.5104490  22.2676131  56.7579365
  66.2876211  22.8101750  56.4560019  66.9498419  22.4484670  56.2410415
  76.3947150  18.0896000  51.2821017  77.1504665  18.5227514  51.3209926
  76.5009474  17.4400770  51.8555653  76.5217320  18.0573484  51.3719043
  74.0056394  23.9577610  63.3566571  74.7896811  24.0708458  63.7222313
  73.8052989  23.1318747  63.5525256  74.0922420  23.8524330  63.4400957
  62.3743410  18.6305290  56.2410414  62.1081825  17.8144407  56.4001405
  62.3881974  18.6758446  55.3705930  62.3368132  18.5162195  56.1363896
  66.2801157  13.4290375  42.8562173  65.5659334  13.1428554  43.2684605
  66.7645125  13.7687001  43.4968560  66.2460520  13.4372024  43.0117807
  67.1242016  12.1683669  58.8877422  66.4313813  11.6980648  59.1338154
  67.7402343  11.9421973  59.4619129  67.1126546  12.0650800  59.0086575
  74.1626788  25.8687712  57.0033026  73.3642033  25.6287212  57.2606895
  74.6112799  25.9202105  57.7500074  74.1101399  25.8410103  57.1517950
  73.4548475  21.9320329  43.2323981  73.8699623  21.6005352  42.5408476
  72.6240404  21.6989231  43.1044117  73.3936483  21.8491585  43.1114828
  62.7836823  19.4164070  53.5222159  62.6012397  19.3910956  52.6694451
  63.5186492  19.8863008  53.5611067  62.8650887  19.4825432  53.4020077
  65.8482575  16.1349073  60.0304267  66.5722547  16.1202103  60.5169162
  65.9498712  16.8444428  59.5326236  65.9700784  16.2373776  60.0283054
  75.8958843  16.3382148  49.1848230  75.9905698  17.0771442  49.6387856
  75.2717687  15.9099624  49.6182795  75.8167874  16.3843469  49.3156378
  74.1511317  19.5168361  59.8338511  74.7250179  18.8795605  59.9887075
  74.0726121  19.5172443  58.9648169  74.2244552  19.4233472  59.7284922
  62.7507734  16.2957570  53.6721225  63.3281236  16.1594021  54.3113471
  62.0521795  15.8393354  53.9266810  62.7328755  16.2079837  53.8043515
  76.1481865  18.1830888  42.4185182  76.0662027  18.2533075  43.2840169
  76.7861585  18.7460632  42.2268923  76.2301702  18.2769859  42.5175132
  69.5075036  17.9491626  51.8859709  69.2494280  17.1163361  51.8591008
  69.5623519  18.1749239  51.0452209  69.4774814  17.8589397  51.7579845
  68.4809748  15.5029388  52.3724603  67.9059339  15.6621557  53.0088564
  68.1045424  14.8664798  51.9093054  68.3412560  15.4327201  52.3979162
  72.1483037  13.9752738  57.2316982  71.7597469  13.5506956  56.5769173
  71.4837735  14.2234887  57.7394008  71.9929964  13.9491459  57.2104850
  58.2266567  15.1469463  50.3869044  58.3126819  14.7701332  51.1682574
  58.8542364  14.7729909  49.9089002  58.3323118  15.0354945  50.4314521
  73.2521975  18.2051342  45.4293789  74.0662614  18.4966235  45.3176560
  73.1881116  17.5511205  44.8552082  73.3624714  18.1516537  45.3282626
  69.1229883  21.6772860  50.5566101  69.7603830  21.4384607  51.1017894
  69.5484955  21.8810019  49.8219261  69.2806049  21.6723870  50.5283258
  63.8142526  23.9161196  54.4400405  63.8546671  24.1876047  53.6120184
  64.3737050  24.4403104  54.8558192  63.9025872  24.0336951  54.3792293
  69.7632698  16.8975150  44.8940990  70.1477851  16.6782856  45.6457535
  69.5144319  17.7238095  45.0242066  69.7834771  16.9873296  45.0242067
  71.5051355  22.1545282  52.2359887  71.5790363  21.9920454  53.0901737
  72.3220862  22.3435472  51.9920369  71.6367714  22.1582025  52.3257913
  65.2657112  22.5003145  49.2654330  64.4395230  22.7464882  49.1388609
  65.3269103  22.4215226  50.1316389  65.1531279  22.5248094  49.3743275
  67.4833136   8.5672086  50.2249771  66.6155561   8.6394686  50.2907380
  67.7708340   9.3694165  50.4137746  67.3972884   8.6966233  50.2624537
  70.0455941  25.1180025  46.9673360  70.3354239  24.7269007  46.2432587
  70.7759422  25.2996730  47.4078636  70.1962825  25.0873839  46.9256167
  70.6350686  19.9197771  58.0526491  70.1362380  20.6313539  58.1311379
  71.4450910  20.2398438  58.0144653  70.6806793  20.0724620  58.0583059
  67.9861856  27.0947408  50.0333510  67.7662152  26.8044763  50.8260177
  67.7656379  26.4362363  49.5051422  67.9209451  26.9547116  50.0722419
  66.8978804  19.1820724  52.2989212  66.6092052  18.5558196  52.8334939
  67.7662152  19.1241012  52.3653892  66.9839056  19.0808269  52.3880166
  77.6856701  14.3255508  52.6171194  77.3421467  13.6045843  52.9678443
  77.7849744  14.1169359  51.7749552  77.6498744  14.1879711  52.5442874
  70.1529812  28.4676798  48.8164202  70.8053870  27.9353240  49.0455229
  69.4555421  28.1145450  49.2032077  70.1460530  28.3366321  48.9076370
  67.1011077  20.8215975  48.2231577  67.8557045  21.2029015  48.4367039
  66.5081690  21.2727119  48.6778273  67.1247791  20.9444803  48.3214455
  78.1469731  20.7881212  48.1595182  78.7127763  21.4474422  48.0753725
  77.4997634  21.1330910  48.6311584  78.1348487  20.9363153  48.2167938
  69.5617744  12.7778816  63.3488789  68.7517520  13.0836596  63.2378631
  70.0392431  13.4984398  63.4641373  69.5121223  12.9293417  63.3495860
  68.4209304  21.9924537  53.5971692  67.8990057  22.1324828  54.2823557
  68.8083324  21.2335201  53.7873810  68.4013005  21.9010061  53.7272769
  65.4100488  12.0430346  47.6666647  65.1225283  11.6731616  46.9298594
  66.0970956  12.5125201  47.4050352  65.4689385  12.0577315  47.5181723
  74.6176309  23.7319996  47.5832261  74.3762985  22.9987857  47.1759326
  74.7977642  24.2806853  46.9298594  74.6083933  23.7042387  47.4262484
  69.8475629  19.0228556  48.9953183  69.6518412  19.6303290  48.4013486
  70.0709975  18.3296500  48.5144857  69.8510270  19.0106081  48.8369264
  68.2454159  15.9083294  49.1134052  68.9676811  16.0724452  48.6537858
  67.7662152  16.6292959  49.0073391  68.2817890  16.0381523  49.0299666
  76.2047667  12.2447093  54.4930737  75.3658767  12.2708371  54.2569000
  76.2752034  12.8917828  55.0736083  76.0916060  12.3443218  54.5439853
  65.8961776  18.3141366  58.2188191  66.4082873  18.5925619  57.5696951
  65.6098119  19.0530660  58.5851005  65.9296639  18.4643720  58.1778070
  62.9828682  12.8211558  48.5151928  63.0844819  13.6237719  48.8432903
  63.7784569  12.6198894  48.2175009  63.1156588  12.9097457  48.5187283
  69.4145501  10.4067755  58.2789233  69.2228698  10.4222889  59.1288657
  70.2644097  10.6031429  58.2555888  69.5121223  10.4382106  58.4012528
  63.7992414  12.9358736  56.2573050  63.6577906  12.0842677  56.3817557
  64.0832978  12.9787397  55.4335256  63.8200260  12.8158486  56.1540674
  73.9531007  14.7725826  50.4017538  73.7065721  14.6921577  51.2354327
  74.2816130  13.9879294  50.2080065  73.9652250  14.6452092  50.4965061
  77.8479056  21.4809186  54.1904319  77.7093415  22.1790232  54.6953061
  77.0679053  21.3257842  53.8340501  77.7122282  21.5609352  54.2130593
  69.9128034  17.5082545  59.8140521  70.0571410  18.0883753  59.1783631
  70.2603683  17.8858842  60.5190375  69.9855495  17.6503249  59.8239516
  72.0847951  16.7072713  57.5965652  71.3371265  16.9003728  57.1913931
  72.2389477  15.8817933  57.3589774  71.9970379  16.6137825  57.5011058
  68.9855789  25.6985317  56.6801548  69.1345353  25.1388233  56.0274952
  69.7655791  25.7777319  57.0634067  69.1229883  25.6270882  56.6398497
  71.5109090  25.8699960  57.9586039  71.4352761  25.2008770  58.5136827
  71.4398949  26.5717748  58.4726705  71.4889697  25.8744867  58.1162887
  72.3249728  10.6023264  58.4861056  72.7822343  11.3347238  58.6133848
  72.4006057  10.1789729  59.2448312  72.4040698  10.6480502  58.6162133
  64.5682720  10.8489084  59.5750500  64.0324909  10.2369442  59.8911267
  64.6300484  11.4237220  60.2284167  64.4978352  10.8436012  59.7185927
  72.1679337  24.3900959  48.7909645  72.9329228  24.1210602  48.4692309
  72.0657427  23.9050969  49.5079707  72.2660832  24.2790523  48.8489472
  70.2032106  12.5925368  55.3302880  69.4128181  12.4116828  55.6520216
  70.5992729  11.8152321  55.3133175  70.1448983  12.4512829  55.3755429
  74.6897997  21.4213142  40.7709594  75.4570982  21.4813267  40.3615446
  74.2429306  20.8493584  40.2865912  74.7371424  21.3449718  40.6387304
  75.5875793  20.2267798  53.0562326  74.9120794  19.9953030  53.5575713
  75.5968169  19.6188981  52.4304431  75.4894297  20.1026723  53.0378478
  72.7169937  15.0685627  59.8126379  72.6529078  15.9295584  59.6846516
  72.8567124  14.7517620  59.0121930  72.7285407  15.1485794  59.6754592
  77.5892527  23.0832931  45.2872504  77.6712365  23.8899917  44.9633955
  78.0742269  23.1028890  46.0113278  77.6729685  23.2053593  45.3459403
  71.3989031  17.7617766  53.9542582  70.9751280  17.9622266  53.2181600
  71.2233886  16.9146614  54.0666882  71.3099911  17.6666548  53.8616272
  70.9000724  29.2768279  56.4164039  71.3896654  28.5779069  56.2339704
  70.3284956  28.9792149  57.0040097  70.8885254  29.1294503  56.4765080
  66.6871475  18.2569818  49.3870555  66.8436095  18.1916621  50.2426547
  67.0272069  19.0318370  49.1749234  66.7604710  18.3619016  49.4825149
  73.2250620  17.6327702  48.2563918  73.7666166  17.1298083  48.7202538
  73.5397179  17.5792896  47.4453403  73.3515017  17.5507122  48.2047730
  71.3937070  23.0245053  45.5403946  71.4629890  22.1659592  45.6796946
  72.1725525  23.2416934  45.2122970  71.5189920  22.9297917  45.5121103
  74.3739889  12.5264006  58.3086218  74.5881859  11.8874920  57.7549572
  73.7573789  12.9709830  57.8794080  74.3145219  12.4974150  58.1636649
  75.7844557  25.4482754  49.7540439  75.3924349  25.1449469  49.0363305
  75.9397630  26.2851844  49.5645393  75.7498147  25.5266591  49.6196936
  63.2605737  15.4404768  49.7031322  63.6404702  15.8589313  49.0391589
  62.6861102  16.0218224  50.0100165  63.2317062  15.5882627  49.6508063
  75.9484232  22.0132743  49.6946470  75.5898887  22.1847386  50.4710502
  75.4622943  22.4745949  49.1374468  75.8242929  22.1071714  49.7271739
  70.7372598  17.6931909  42.2346704  71.0265122  18.4696791  42.5090278
  70.8244396  17.1820640  42.9361203  70.7926854  17.7323827  42.3789202
  77.1088972  22.9036639  60.6413671  77.7468692  22.4096835  60.3076127
  76.4663063  22.8314040  60.0565897  77.1083198  22.8195648  60.5056026
  77.1643228  23.5956447  57.2819027  77.9535606  23.2445512  57.4021109
  77.3386826  24.4092836  57.0195661  77.3063510  23.6642305  57.2606895
  66.9036539  17.0065173  54.3346816  66.0624545  16.9069047  54.5425710
  67.1126546  17.7760653  54.6861137  66.8101231  17.1057216  54.4174131
  64.3812105  14.6284710  52.1631567  63.9868803  14.7027722  51.3881676
  63.8252222  15.0142656  52.7139929  64.2414918  14.6966485  52.1299227
  70.7153203  14.9346572  53.5844414  70.4116341  14.3802561  54.1854821
  70.0132624  15.1138782  53.0972448  70.5669413  14.8791355  53.6014119
  69.7719300  12.2447092  48.1489116  70.0479035  11.5266005  47.7366683
  70.3717970  12.8432012  47.9410222  69.9012565  12.2267463  48.0569877
  68.7771554  22.1496293  58.2916511  68.6691909  22.1598355  59.1578570
  68.9867336  22.9751073  58.1021465  68.7921665  22.2737368  58.3920603
  66.7945346  19.4008935  55.7538449  66.2033280  20.0418434  55.7241464
  67.5566370  19.8246553  55.7269749  66.8193607  19.5584774  55.7453596
  67.1905969  10.5610933  56.4206467  67.6507451  10.6349863  57.1581590
  67.2362076  11.3592187  56.0706288  67.2656525  10.6905080  56.4779223
  68.8389319  11.2277628  60.9878494  68.4474884  10.5810975  61.4234272
  69.0075182  11.8189063  61.6072749  68.8060229  11.2191896  61.1441200
  76.5534863  24.8518247  53.1870473  76.3554551  25.3409062  52.4926685
  75.9322574  25.0559489  53.7654607  76.4322427  24.9534785  53.1693697
  70.6142841  16.6203144  47.5280718  71.3584886  17.0077420  47.7663668
  70.7603537  15.7760569  47.6921206  70.7453426  16.5533617  47.5874687
  73.6020717  12.1928617  53.4274637  73.1280671  11.6670379  53.9379948
  73.9738853  11.6458090  52.8589499  73.5870606  12.0344614  53.4189784
  63.9793747  14.1900124  58.7958183  64.8419360  14.0895833  58.7095513
  63.6485530  13.6094833  58.2343755  64.0578943  14.0891751  58.7003589
  75.5304216  13.0865172  46.4900391  75.0027235  13.1693916  45.8006100
  75.9899925  13.8283043  46.4865036  75.5206067  13.2085834  46.3875086
  67.3395533  13.0142573  55.4568601  66.7148603  13.0260965  54.8494554
  67.0041128  13.4902748  56.1059841  67.1981025  13.0861090  55.4625170
  67.5237282  11.3567691  41.5141286  67.1750086  12.0087417  41.9772835
  67.0433727  11.3424804  40.7865157  67.4007526  11.4510745  41.4752377
  64.0521208  21.0743033  56.8972365  63.5221133  20.3835472  56.9467340
  64.3246302  21.0653218  56.0685074  64.0145931  20.9710165  56.7819781
  75.0841299  21.6568735  45.6210048  75.8075498  22.1226848  45.4774621
  74.6441890  21.7242345  44.8707645  75.1256991  21.7352572  45.4894829
  74.2527454  18.5166278  56.8710737  73.6384447  17.9724328  57.1659372
  74.7694739  18.0030514  56.3916553  74.2383116  18.3602687  56.8434965
  73.4923751  19.5870548  54.6055036  73.0651359  18.9620266  54.1720471
  73.4848696  19.3045469  55.4314043  73.4282892  19.4523328  54.6634863
  66.6086278  14.6235721  57.6743470  66.7679765  13.8679045  58.0795191
  66.4279172  15.1726660  58.3284207  66.6051637  14.5929534  57.8306176
  71.8209461  10.4639302  54.8197570  71.8451948   9.9299414  54.1310350
  72.0720935   9.9556611  55.4823160  71.8619380  10.3100206  54.8162214
  59.3317051  17.7470797  54.2540714  59.2260500  17.7017641  53.3892798
  58.5817271  18.0924578  54.5354999  59.2052654  17.7911705  54.1678043
  68.1010783   9.1910120  54.2003314  68.1409155   9.6919327  54.9138021
  67.2760448   9.2820514  53.9309237  67.9850309   9.2791937  54.2653852
  70.2840396  18.7570860  62.3023608  69.4336027  18.8942575  62.4381253
  70.4468524  18.0234639  62.7471310  70.1824260  18.6684962  62.3879208
  69.5225147  15.7070630  56.4977213  68.6917076  15.8744448  56.2912461
  69.4676664  15.3306581  57.2826098  69.3914561  15.6760362  56.5825741
  67.8961190  13.9826222  47.0267331  68.0364151  14.4798686  47.7295972
  68.3943723  13.2812516  47.1681544  67.9902271  13.9528201  47.1518910
  67.9261413  14.8493333  44.3559907  68.5606492  15.4453758  44.2909369
  68.0087024  14.5496790  45.1705778  68.0317964  14.8934241  44.4662994
  69.5040396  10.7807308  44.3305349  69.8256237  10.3010391  43.6764612
  69.7667339  11.5906954  44.1396161  69.5906421  10.8297206  44.2060841
  72.7337368  21.8026183  57.8504166  72.2262459  22.3562029  58.2944796
  72.4364015  21.8634472  57.0322940  72.6142253  21.8932494  57.7952622
  64.4314401  17.0461174  47.6249453  64.9406630  17.6425681  48.0060759
  64.9048673  16.7787147  46.9425873  64.5757776  17.0946989  47.5803976
  75.3445149  25.7189440  45.7808109  74.6274458  25.5450302  45.3155346
  75.9951886  25.4842013  45.2483595  75.3346999  25.6585233  45.6337327
  77.9293120  14.5954029  49.5249414  77.2584310  15.1383731  49.3962480
  78.6232870  15.0648884  49.2831109  77.9321987  14.7452300  49.4704942
  71.9779854  26.7350741  54.7561172  71.7545508  25.9769570  55.1245199
  71.4889697  26.7648762  54.0341612  71.8723303  26.6272965  54.7037913
  66.7904932  13.6817432  50.4922634  66.0716921  14.0981565  50.7595497
  67.1617295  14.2471671  49.9414272  66.7396864  13.8266714  50.4505441
  76.0904513  14.3145281  56.3824630  76.0702440  14.1328576  57.2359408
  76.1383714  15.1857300  56.3584213  76.0939154  14.4161819  56.5047924
  74.0350843  20.9032473  62.3073106  73.9946698  20.2582150  61.7218262
  74.8474161  20.8469090  62.6198518  74.1493997  20.7991440  62.2670055
  70.6258311  26.9551199  52.2098257  70.2118709  26.2925329  51.8202099
  71.3105685  27.1029058  51.6893951  70.6656682  26.8791857  52.0754754
  73.9923605  26.1141284  52.9621874  73.5939888  26.2243555  52.1942694
  73.3774824  26.3223350  53.5448433  73.8422494  26.1614852  52.9353173
  72.5651507  12.7215432  45.8296013  71.9716346  13.0432429  45.2780580
  72.6026784  11.8756527  45.6217119  72.4825896  12.6439760  45.7178785
  75.4409323  12.6794937  49.2597764  75.2123016  12.7027638  48.4176122
  75.7007400  11.8552404  49.3792774  75.4455511  12.5611016  49.1522961
  69.7228552  14.5329410  58.8622864  69.2107455  13.9250593  59.2207895
  69.5508048  15.2486002  59.3296840  69.6218189  14.5492709  58.9839087
  64.5694266  12.9766985  61.5125226  64.3996857  13.6368360  60.9673432
  64.1260216  13.1873546  62.2337715  64.4793600  13.1052967  61.5386855
  68.4954086  11.2171483  50.5551959  68.9711452  11.5788563  49.9202140
  67.9942685  11.8727950  50.8352102  68.4919445  11.3665672  50.5028700
  61.4696331  15.8813850  56.7713715  60.9223050  15.2114496  56.8894584
  62.2588709  15.5143698  56.8357183  61.5048515  15.7278837  56.7982416
  71.3180739  15.5421307  62.2677126  72.0692066  15.8572984  62.5816681
  71.5103316  15.3400478  61.4411048  71.4572154  15.5588689  62.1920522
  70.5380739  13.3612683  43.9225343  70.9179704  13.3792312  43.1376458
  69.7973335  13.8066671  43.8016191  70.4849577  13.4294457  43.7888911
  60.2283300  15.0934658  53.9259738  60.0505062  14.6411267  54.6514654
  59.9402323  15.8960820  54.1098216  60.1596254  15.1457216  54.0603241
  75.8906882  16.3492376  53.1637129  76.3860547  15.6315371  53.1241149
  75.0806657  16.0463173  53.0491616  75.8450775  16.1990022  53.1410855
  71.3365493  20.1990189  45.3134133  70.5276816  19.8756862  45.2667443
  71.8440402  19.4923411  45.2462382  71.2915160  20.0471505  45.2964428
  61.9655770  17.6262382  51.0381498  61.1001290  17.6148072  50.9264269
  62.0654586  17.4392605  51.8852637  61.8529937  17.5968443  51.1470442
  77.9558700  19.0996063  55.8514258  78.3813772  18.5770485  55.2984683
  77.5915620  19.6976901  55.3302880  77.9645303  19.1106290  55.6923267
  67.5912780  27.3960281  54.6111603  67.9059339  28.2096669  54.6189385
  68.0006194  27.0110499  55.2793762  67.6980878  27.4588983  54.7115695
  74.5437300  22.8130327  52.1815415  75.0148478  23.5270590  52.3505400
  74.8797478  22.2129078  52.7175284  74.6632415  22.8301792  52.2847791
  75.1811246  22.6048262  58.9443108  74.6332192  21.9806145  58.6763173
  75.6424275  22.7942534  58.2287187  75.1678456  22.5407312  58.7993539
  70.5299910   9.5874211  46.6052975  71.3515604   9.7572524  46.3634670
  70.0669561   9.7421472  45.8819272  70.5831072   9.6355944  46.4624619
  64.9325800  21.3433389  54.2590211  65.5370658  21.3029223  53.6304032
  64.7253113  22.1904541  54.2894267  64.9914698  21.4621392  54.1706328
  74.7469572  23.6099334  55.4752449  75.5667946  23.4662300  55.7368744
  74.4663650  24.2345533  56.0168887  74.8266316  23.6809686  55.5940388
  60.1677083  20.3268007  54.1289135  60.0701361  19.5164278  54.4379191
  60.9505952  20.3059800  53.7435403  60.2693219  20.2035097  54.1175997
  73.5773848  35.9241234  50.8500593  73.3424032  35.0908886  50.7432862
  73.7159489  36.2045899  50.0361794  73.5629510  35.8424737  50.7142948
  75.8763935  28.0926964  53.7484901  75.2568967  27.5019611  53.5794916
  75.7747799  28.6838399  53.1149224  75.7701611  28.0931047  53.6289891
  75.6033068  31.6379246  55.9928470  75.4791765  32.2241691  56.6278289
  76.2551353  31.1439442  56.2940745  75.6806718  31.6518050  56.1314399
  75.1391173  40.8026904  52.1256799  74.6558751  41.5277394  52.1016383
  75.9514491  41.1003034  52.2366957  75.1881920  40.9529258  52.1384079
  77.9935370  41.3183080  52.2777079  78.6955949  40.8035069  52.3349836
  77.9132853  41.6457232  53.0823954  78.0859130  41.2897306  52.4049872
  77.7071713  25.6701510  44.3439699  77.5247286  25.8873391  43.5180692
  78.5697326  25.7840523  44.3998314  77.8076303  25.7191408  44.2294187
  77.3186145  37.5089432  51.7862687  78.1575045  37.7412365  51.8336449
  77.3497914  36.6393744  51.7169723  77.4467863  37.4146379  51.7827332
  77.9438848  37.9290307  56.0875993  78.4837073  37.7861438  56.7579365
  77.2608795  38.3287058  56.4560019  77.9231002  37.9669978  56.2410415
  73.3475993  34.1490598  56.2410414  73.0814409  33.3329715  56.4001405
  73.3614557  34.1943754  55.3705930  73.3100716  34.0347503  56.1363896
  77.2533740  28.9475683  42.8562173  76.5391917  28.6613862  43.2684605
  77.7377709  29.2872308  43.4968560  77.2193104  28.9557332  43.0117807
  78.0974600  27.6868976  58.8877422  77.4046396  27.2165956  59.1338154
  78.7134927  27.4607281  59.4619129  78.0859130  27.5836108  59.0086575
  73.7569407  34.9349378  53.5222159  73.5744980  34.9096264  52.6694451
  74.4919076  35.4048315  53.5611067  73.8383471  35.0010740  53.4020077
  76.8215159  31.6534380  60.0304267  77.5455131  31.6387411  60.5169162
  76.9231295  32.3629736  59.5326236  76.9433368  31.7559084  60.0283054
  73.7240317  31.8142878  53.6721225  74.3013820  31.6779329  54.3113471
  73.0254379  31.3578662  53.9266810  73.7061339  31.7265144  53.8043515
  69.1999151  30.6654771  50.3869044  69.2859402  30.2886640  51.1682574
  69.8274948  30.2915217  49.9089002  69.3055702  30.5540253  50.4314521
  74.7875109  39.4346504  54.4400405  74.8279254  39.7061355  53.6120184
  75.3469633  39.9588412  54.8558192  74.8758455  39.5522259  54.3792293
  76.2389695  38.0188453  49.2654330  75.4127813  38.2650190  49.1388609
  76.3001687  37.9400534  50.1316389  76.1263862  38.0433402  49.3743275
  78.4565719  24.0857394  50.2249771  77.5888145  24.1579994  50.2907380
  78.7440924  24.8879473  50.4137746  78.3705467  24.2151541  50.2624537
  77.8711387  34.7006032  52.2989212  77.5824636  34.0743504  52.8334939
  78.7394735  34.6426320  52.3653892  77.9571639  34.5993577  52.3880166
  76.3833071  27.5615653  47.6666647  76.0957867  27.1916924  46.9298594
  77.0703540  28.0310509  47.4050352  76.4421969  27.5762623  47.5181723
  76.8694360  33.8326674  58.2188191  77.3815456  34.1110927  57.5696951
  76.5830702  34.5715968  58.5851005  76.9029223  33.9829028  58.1778070
  73.9561266  28.3396866  48.5151928  74.0577402  29.1423027  48.8432903
  74.7517153  28.1384202  48.2175009  74.0889172  28.4282765  48.5187283
  74.7724998  28.4544044  56.2573050  74.6310490  27.6027985  56.3817557
  75.0565561  28.4972705  55.4335256  74.7932844  28.3343794  56.1540674
  75.5415303  26.3674392  59.5750500  75.0057493  25.7554750  59.8911267
  75.6033068  26.9422528  60.2284167  75.4710936  26.3621320  59.7185927
  77.6604059  33.7755126  49.3870555  77.8168678  33.7101929  50.2426547
  78.0004652  34.5503678  49.1749234  77.7337294  33.8804324  49.4825149
  74.2338321  30.9590076  49.7031322  74.6137285  31.3774621  49.0391589
  73.6593685  31.5403532  50.0100165  74.2049645  31.1067935  49.6508063
  77.8769122  32.5250481  54.3346816  77.0357129  32.4254355  54.5425710
  78.0859130  33.2945961  54.6861137  77.7833815  32.6242524  54.4174131
  75.3544689  30.1470018  52.1631567  74.9601387  30.2213030  51.3881676
  74.7984806  30.5327964  52.7139929  75.2147501  30.2151793  52.1299227
  77.7677930  34.9194243  55.7538449  77.1765863  35.5603742  55.7241464
  78.5298954  35.3431861  55.7269749  77.7926191  35.0770082  55.7453596
  78.1638553  26.0796241  56.4206467  78.6240034  26.1535171  57.1581590
  78.2094659  26.8777495  56.0706288  78.2389108  26.2090388  56.4779223
  74.9526331  29.7085432  58.7958183  75.8151944  29.6081141  58.7095513
  74.6218114  29.1280141  58.2343755  75.0311527  29.6077059  58.7003589
  78.3128117  28.5327881  55.4568601  77.6881187  28.5446273  54.8494554
  77.9773711  29.0088056  56.1059841  78.1713608  28.6046398  55.4625170
  78.4969865  26.8752999  41.5141286  78.1482670  27.5272725  41.9772835
  78.0166311  26.8610112  40.7865157  78.3740109  26.9696053  41.4752377
  75.0253792  36.5928341  56.8972365  74.4953717  35.9020780  56.9467340
  75.2978885  36.5838526  56.0685074  74.9878514  36.4895473  56.7819781
  77.5818862  30.1421029  57.6743470  77.7412349  29.3864353  58.0795191
  77.4011756  30.6911968  58.3284207  77.5784221  30.1114842  57.8306176
  70.3049634  33.2656105  54.2540714  70.1993083  33.2202949  53.3892798
  69.5549854  33.6109886  54.5354999  70.1785237  33.3097013  54.1678043
  75.4046984  32.5646481  47.6249453  75.9139214  33.1610989  48.0060759
  75.8781256  32.2972455  46.9425873  75.5490360  32.6132297  47.5803976
  77.7637516  29.2002740  50.4922634  77.0449505  29.6166873  50.7595497
  78.1349878  29.7656979  49.9414272  77.7129448  29.3452021  50.4505441
  75.5426850  28.4952293  61.5125226  75.3729440  29.1553668  60.9673432
  75.0992800  28.7058854  62.2337715  75.4526184  28.6238275  61.5386855
  72.4428915  31.3999158  56.7713715  71.8955634  30.7299804  56.8894584
  73.2321293  31.0329006  56.8357183  72.4781098  31.2464145  56.7982416
  71.2015884  30.6119966  53.9259738  71.0237645  30.1596575  54.6514654
  70.9134906  31.4146128  54.1098216  71.1328837  30.6642524  54.0603241
  72.9388354  33.1447690  51.0381498  72.0733873  33.1333380  50.9264269
  73.0387170  32.9577913  51.8852637  72.8262521  33.1153751  51.1470442
  75.9058384  36.8618697  54.2590211  76.5103241  36.8214531  53.6304032
  75.6985696  37.7089849  54.2894267  75.9647281  36.9806699  54.1706328
  71.1409666  35.8453315  54.1289135  71.0433944  35.0349586  54.4379191
  71.9238536  35.8245108  53.7435403  71.2425803  35.7220405  54.1175997
  73.2724672  12.8619365  37.7840640  73.0374856  12.0287017  37.6772909
  73.4110313  13.1424030  36.9701841  73.2580334  12.7802868  37.6482995
  74.8341996  17.7405035  39.0596846  74.3509575  18.4655525  39.0356430
  75.6465315  18.0381166  39.1707004  74.8832744  17.8907389  39.0724126
  77.6886194  18.2561211  39.2117126  78.3906773  17.7413200  39.2689883
  77.6083677  18.5835363  40.0164001  77.7809954  18.2275438  39.3389918
  77.0136969  14.4467563  38.7202734  77.8525869  14.6790496  38.7676496
  77.0448738  13.5771875  38.6509770  77.1418687  14.3524510  38.7167379
  77.6389672  14.8668439  43.0216040  78.1787897  14.7239570  43.6919412
  76.9559618  15.2665189  43.3900066  77.6181826  14.9048109  43.1750461
  73.0426817  11.0868729  43.1750461  72.7765232  10.2707846  43.3341452
  73.0565381  11.1321885  42.3045977  73.0051540  10.9725634  43.0703943
  73.4520231  11.8727509  40.4562206  73.2695804  11.8474395  39.6034498
  74.1869900  12.3426447  40.4951114  73.5334295  11.9388871  40.3360124
  74.4825933  16.3724635  41.3740451  74.5230078  16.6439486  40.5460231
  75.0420457  16.8966543  41.7898239  74.5709279  16.4900390  41.3132339
  75.9340519  14.9566584  36.1994377  75.1078637  15.2028322  36.0728656
  75.9952511  14.8778665  37.0656435  75.8214686  14.9811533  36.3083322
  78.6545264  19.5510847  36.9673557  78.4345559  19.2608202  37.7600224
  78.4339786  18.8925802  36.4391469  78.5892858  19.4110555  37.0062466
  77.7694485  13.2779415  35.1571624  78.5240453  13.6592454  35.3707086
  77.1765097  13.7290558  35.6118320  77.7931198  13.4008242  35.2554502
  77.4628754  11.8572375  42.6878496  76.8716687  12.4981873  42.6581511
  78.2249777  12.2809992  42.6609795  77.4877015  12.0148213  42.6793643
  74.7204616  13.5306472  43.8312412  74.1904541  12.8398911  43.8807387
  74.9929709  13.5216657  43.0025121  74.6829338  13.4273604  43.7159828
  70.0000458  10.2034236  41.1880760  69.8943907  10.1581081  40.3232845
  69.2500678  10.5488017  41.4695045  69.8736061  10.2475144  41.1018090
  78.2596188  19.8523720  41.5451650  78.5742747  20.6660108  41.5529432
  78.6689601  19.4673938  42.2133809  78.3664286  19.9152422  41.6455741
  75.6009208  13.7996828  41.1930258  76.2054065  13.7592662  40.5644079
  75.3936520  14.6467980  41.2234314  75.6598105  13.9184831  41.1046375
  70.8360490  12.7831446  41.0629181  70.7384768  11.9727717  41.3719238
  71.6189360  12.7623239  40.6775449  70.9376627  12.6598536  41.0516044
  26.3751607  30.5618655  74.2980592  26.3445611  31.4163292  74.4698861
  26.9732956  30.2613948  74.8566736  26.4588765  30.6435152  74.4055394
  13.9592431  39.1857024  74.8170754  13.2075331  38.8072562  74.5886799
  14.4078443  39.2175457  74.0689564  13.9142098  39.1342631  74.6728256
  19.4117391  39.6082393  70.2456301  19.0768760  40.2859315  69.8100523
  19.9244262  39.2187705  69.6573173  19.4382972  39.6506972  70.0943093
  18.9521683  41.5596662  76.1867413  19.3361062  42.1283561  75.6472188
  18.8880824  40.8346172  75.7073229  18.9995110  41.5372125  76.0361275
  24.1968181  33.1370957  72.5698902  24.0807707  33.8878643  72.9991040
  24.9924068  32.8794910  72.8194989  24.2972771  33.2105804  72.6702994
  15.3777927  44.1153005  78.4848383  16.0215383  44.5566169  78.8744541
  15.7034183  43.3106431  78.3978641  15.5209756  44.0618200  78.5293860
  16.0798507  37.1264980  73.8568244  16.4014348  37.6670187  73.2529552
  16.7270603  36.5561751  73.9890534  16.2224562  37.1224155  73.7875280
  18.3188150  35.5151420  73.9282422  18.7581786  34.9068521  74.3737195
  18.1692813  35.1358793  73.1567887  18.3609616  35.3689891  73.8801590
  21.9197487  33.8678601  70.8813192  21.8348782  34.7239568  71.0262761
  22.4081870  33.5922925  71.5495351  21.9786384  33.9535923  71.0015273
  22.8515920  30.4863395  72.3810927  22.3227392  30.7023029  73.0408233
  23.3740940  31.1799534  72.3011896  22.8504373  30.6206532  72.4666526
  28.3063973  36.0609700  77.7543971  27.4761676  36.2720344  77.9177388
  28.2573225  35.2346754  77.4786255  28.1770708  35.9699306  77.7381337
  14.7415528  34.3826612  71.1818395  14.1572743  34.8876644  71.5884259
  14.3385623  34.1568999  70.4414987  14.5954832  34.4234861  71.1323420
  19.1992742  30.6292264  69.6587315  19.4388746  30.8370248  68.8462658
  19.5208583  29.8249773  69.7676260  19.2829900  30.5406366  69.5547868
  25.5628288  36.7309054  77.8908687  25.1263520  36.7345797  78.6467658
  25.2291204  37.4114553  77.4588265  25.4490908  36.8321510  77.9389520
  12.4102124  28.2430152  68.7147439  11.6960301  27.9568331  69.1269872
  12.8946093  28.5826777  69.3553827  12.3761488  28.2511801  68.8703074
  28.6972634  33.4489974  76.7828324  29.3589069  32.8880643  76.6824233
  28.0564046  32.9542005  77.1081015  28.7001502  33.2926383  76.8160665
  19.5849442  36.7460106  69.0909248  20.0000591  36.4145129  68.3993743
  18.7541372  36.5129008  68.9629384  19.5237451  36.6631362  68.9700095
  24.9837465  34.4655357  76.5240313  25.2193054  34.6100556  75.6967164
  25.1327029  35.2297765  76.9171827  25.0403268  34.5994411  76.4603917
  26.8127922  33.3057023  74.3609917  27.1436139  33.8384663  73.7550012
  27.3861010  33.3595910  75.0171868  26.9461601  33.3926591  74.3687699
  22.2782832  32.9970665  68.2770449  22.1962995  33.0672852  69.1425436
  22.9162553  33.5600409  68.0854190  22.3602670  33.0909636  68.3760399
  27.9207273  28.5467519  75.8650079  27.6643838  27.7347461  75.6747961
  28.7636587  28.5545087  75.6380266  28.0073299  28.4279517  75.8034896
  19.3822942  33.0191119  71.2879055  20.1963581  33.3106012  71.1761827
  19.3182084  32.3650982  70.7137348  19.4925682  32.9656314  71.1867893
  15.8933666  31.7114927  70.7526257  16.2778819  31.4922633  71.5042802
  15.6445286  32.5377872  70.8827333  15.9135738  31.8013073  70.8827333
  16.1756908  39.9319802  72.8258627  16.4655207  39.5408784  72.1017854
  16.9060389  40.1136507  73.2663903  16.3263793  39.9013616  72.7841434
  14.1162824  41.9087185  75.8918777  13.8963119  41.6184540  76.6845444
  13.8957346  41.2502140  75.3636689  14.0510418  41.7686893  75.9307686
  16.2830780  43.2816575  74.6749469  16.9354838  42.7493017  74.9040495
  15.5856388  42.9285227  75.0617343  16.2761498  43.1506098  74.7661637
  24.2770698  35.6020989  74.0180449  24.8428731  36.2614199  73.9338992
  23.6298601  35.9470687  74.4896851  24.2649454  35.7502930  74.0753205
  20.7477276  38.5459773  73.4417528  20.5063952  37.8127634  73.0344593
  20.9278609  39.0946630  72.7883861  20.7384900  38.5182164  73.2847751
  25.4733396  35.6527217  70.8106085  25.0940205  34.8664354  70.8035374
  24.8099641  36.2014074  70.6677729  25.3191871  35.6172041  70.7886882
  18.2980304  39.2040736  74.6494911  19.0630195  38.9350379  74.3277576
  18.1958394  38.7190746  75.3664974  18.3961800  39.0930300  74.7074739
  20.8198965  36.2352919  66.6294861  21.5871950  36.2953044  66.2200712
  20.3730274  35.6633361  66.1451179  20.8672392  36.1589495  66.4972571
  23.7193495  37.8972708  71.1457771  23.8013332  38.7039694  70.8219222
  24.2043237  37.9168667  71.8698544  23.8030653  38.0193370  71.2044670
  19.3551588  32.4467479  74.1149185  19.8967133  31.9437860  74.5787805
  19.6698147  32.3932673  73.3038670  19.4815985  32.3646899  74.0632997
  17.5238037  37.8384830  71.3989213  17.5930858  36.9799369  71.5382213
  18.3026492  38.0556711  71.0708237  17.6490887  37.7437694  71.3706370
  21.9145525  40.2622531  75.6125706  21.5225317  39.9589246  74.8948572
  22.0698597  41.0991621  75.4230660  21.8799115  40.3406368  75.4782203
  22.0785200  36.8272520  75.5531737  21.7199854  36.9987163  76.3295769
  21.5923910  37.2885726  74.9959735  21.9543897  36.9211491  75.5857006
  16.8673565  32.5071686  68.0931971  17.1566090  33.2836568  68.3675545
  16.9545364  31.9960417  68.7946470  16.9227821  32.5463604  68.2374469
  22.6835830  39.6658024  79.0455740  22.4855519  40.1548839  78.3511952
  22.0623541  39.8699266  79.6239874  22.5623395  39.7674562  79.0278964
  21.6605184  27.9004949  72.3485658  21.1328203  27.9833693  71.6591367
  22.1200892  28.6422820  72.3450302  21.6507034  28.0225611  72.2460353
  13.6538249  26.1707468  67.3726553  13.3051053  26.8227194  67.8358102
  13.1734695  26.1564581  66.6450424  13.5308493  26.2650522  67.3337644
  21.2142267  36.4708512  71.4795315  21.9376465  36.9366625  71.3359888
  20.7742858  36.5382122  70.7292912  21.2557959  36.5492349  71.3480096
  14.0562380  29.6633110  70.2145174  14.6907460  30.2593535  70.1494636
  14.1387991  29.3636567  71.0291044  14.1618931  29.7074018  70.3248261
  21.4746116  40.5329217  71.6393376  20.7575426  40.3590079  71.1740613
  22.1252854  40.2981790  71.1068862  21.4647967  40.4725010  71.4922594
  16.7559278  41.7690976  78.0683524  16.3419677  41.1065106  77.6787366
  17.4406652  41.9168835  77.5479218  16.7957650  41.6931634  77.9340021
  20.1224572  40.9281061  78.8207140  19.7240855  41.0383332  78.0527961
  19.5075792  41.1363127  79.4033700  19.9723462  40.9754629  78.7938440
  27.8566415  35.5033028  72.2050231  28.2400021  36.2524384  72.4348328
  27.0610528  35.7498848  71.9462220  27.7960197  35.6502722  72.2007805
  16.6681706  28.1752460  69.7810610  17.0480671  28.1932089  68.9961725
  15.9274303  28.6206448  69.6601457  16.6150544  28.2434234  69.6474178
  17.4666461  35.0129966  71.1719400  16.6577783  34.6896639  71.1252710
  17.9741369  34.3063188  71.1047649  17.4216127  34.8611282  71.1549694
  37.3484190  46.0803963  74.2980592  37.3178195  46.9348600  74.4698861
  37.9465539  45.7799255  74.8566736  37.4321348  46.1620459  74.4055394
  30.5483875  45.1679614  79.0533522  29.6921771  45.3288112  79.1042639
  30.5951529  44.2971678  79.0738583  30.4282987  45.0630416  79.0639588
  24.9325015  54.7042332  74.8170754  24.1807914  54.3257870  74.5886799
  25.3811027  54.7360765  74.0689564  24.8874682  54.6527939  74.6728256
  30.3849975  55.1267701  70.2456301  30.0501343  55.8044623  69.8100523
  30.8976845  54.7373013  69.6573173  30.4115556  55.1692280  70.0943093
  29.9254266  57.0781970  76.1867413  30.3093645  57.6468869  75.6472188
  29.8613407  56.3531480  75.7073229  29.9727693  57.0557433  76.0361275
  33.3935696  47.2271658  81.6965174  33.9391656  47.9056744  81.7559144
  33.3352573  47.0859119  80.8366756  33.4651611  47.3063660  81.5777235
  26.5109771  54.7160724  77.0833526  26.6120134  53.9061078  77.3930654
  25.9151516  54.6217670  76.4533205  26.4382310  54.5825752  77.0359765
  35.1700765  48.6556265  72.5698902  35.0540291  49.4063951  72.9991040
  35.9656652  48.3980218  72.8194989  35.2705354  48.7291112  72.6702994
  26.3510511  59.6338313  78.4848383  26.9947966  60.0751477  78.8744541
  26.6766766  58.8291739  78.3978641  26.4942339  59.5803508  78.5293860
  19.7074815  50.7381010  76.7085860  19.4725000  49.9048663  76.6018129
  19.8460456  51.0185676  75.8947061  19.6930478  50.6564514  76.5728215
  22.0064903  42.9066741  79.6070168  21.3869934  42.3159388  79.4380183
  21.9048766  43.4978176  78.9734491  21.9002578  42.9070824  79.4875157
  27.0531090  52.6450288  73.8568244  27.3746931  53.1855495  73.2529552
  27.7003187  52.0747059  73.9890534  27.1957146  52.6409463  73.7875280
  29.1032798  44.6466283  73.9402631  29.8012963  44.8254410  74.4324094
  29.4185131  44.1236622  73.3173020  29.2528136  44.5960055  73.9204641
  21.7334036  46.4519023  81.8513737  21.6092733  47.0381468  82.4863556
  22.3852320  45.9579219  82.1526012  21.8107685  46.4657827  81.9899666
  29.2920734  51.0336728  73.9282422  29.7314369  50.4253828  74.3737195
  29.1425397  50.6544101  73.1567887  29.3342200  50.8875199  73.8801590
  26.7592377  49.6280740  81.1301248  27.4041379  49.1353183  80.8112196
  26.9994154  49.7705526  81.9567326  26.8902962  49.5758182  81.2050781
  29.2978468  52.4735646  80.7808140  29.5801711  51.6787051  80.5594896
  30.0264629  52.9516233  80.8013201  29.4468032  52.4270243  80.7511156
  27.2759662  40.0158680  78.0223906  26.9462992  40.4669823  77.3527604
  26.6004664  39.9374843  78.5696912  27.1270098  40.0709815  78.0047129
  32.8930070  49.3863909  70.8813192  32.8081366  50.2424876  71.0262761
  33.3814454  49.1108233  71.5495351  32.9518968  49.4721231  71.0015273
  34.4836070  36.0044202  76.2673516  34.1689511  36.6947681  76.6993939
  33.9663012  35.9488985  75.5659017  34.3600540  36.0979091  76.2270465
  33.8248504  46.0048703  72.3810927  33.2959975  46.2208337  73.0408233
  34.3473524  46.6984842  72.3011896  33.8236957  46.1391840  72.4666526
  39.2796557  51.5795008  77.7543971  38.4494260  51.7905652  77.9177388
  39.2305809  50.7532062  77.4786255  39.1503292  51.4884614  77.7381337
  25.7148111  49.9011920  71.1818395  25.1305327  50.4061952  71.5884259
  25.3118207  49.6754307  70.4414987  25.5687415  49.9420168  71.1323420
  21.2692140  55.6166681  77.9842066  20.7859718  56.3417171  77.9601650
  22.0815458  55.9142811  78.0952224  21.3182888  55.7669035  77.9969346
  27.3406294  54.4098862  80.5891881  26.8233236  54.0506277  79.9853189
  28.0380685  53.8861036  80.5997947  27.3671875  54.2796550  80.5022139
  30.1725326  46.1477572  69.6587315  30.4121330  46.3555556  68.8462658
  30.4941167  45.3435081  69.7676260  30.2562484  46.0591673  69.5547868
  25.4815616  38.0770968  73.5046853  26.2361584  38.4449285  73.2663904
  25.3043151  38.4510522  74.2726033  25.5670095  38.1869156  73.5831742
  24.1236337  56.1322857  78.1362346  24.8256917  55.6174846  78.1935103
  24.0433820  56.4597009  78.9409221  24.2160098  56.1037083  78.2635138
  38.7750515  44.2265408  81.5494393  37.9378936  44.2967596  81.7841987
  38.7438746  44.2289903  80.6768695  38.6468797  44.2375636  81.4553941
  23.8372681  40.4841287  70.2024966  23.6548254  40.7013168  69.3765959
  24.6998294  40.5980300  70.2583581  23.9377270  40.5331185  70.0879453
  23.4487113  52.3229209  77.6447954  24.2876012  52.5552142  77.6921716
  23.4798882  51.4533521  77.5754990  23.5768830  52.2286156  77.6412599
  24.0739816  52.7430084  81.9461260  24.6138041  52.6001215  82.6164632
  23.3909762  53.1426835  82.3145286  24.0531970  52.7809755  82.0995681
  29.5172400  37.4867698  73.2373990  30.2458560  37.3083653  72.7912146
  29.6067293  38.3285777  73.4481168  29.6379062  37.5851576  73.2027508
  33.4980701  48.4221085  77.1406284  34.2538216  48.8552599  77.1795193
  33.6043025  47.7725855  77.7140920  33.6250871  48.3898569  77.2304310
  36.5360872  52.2494362  77.8908687  36.0996104  52.2531105  78.6467658
  36.2023787  52.9299861  77.4588265  36.4223492  52.3506818  77.9389520
  36.4558355  39.2908190  80.1338115  37.0984263  39.3606295  80.7200030
  36.7081375  38.6237413  79.6317657  36.5880487  39.2034539  80.1465394
  23.3834708  43.7615460  68.7147439  22.6692885  43.4753639  69.1269872
  23.8678677  44.1012085  69.3553827  23.3494071  43.7697109  68.8703074
  39.6705218  48.9675282  76.7828324  40.3321652  48.4065951  76.6824233
  39.0296630  48.4727313  77.1081015  39.6734085  48.8111691  76.8160665
  30.5582026  52.2645414  69.0909248  30.9733174  51.9330437  68.3993743
  29.7273955  52.0314316  68.9629384  30.4970034  52.1816670  68.9700095
  19.8870374  49.7489155  79.3807426  19.7045948  49.7236041  78.5279718
  20.6220043  50.2188092  79.4196334  19.9684438  49.8150517  79.2605344
  35.9570049  49.9840665  76.5240313  36.1925638  50.1285863  75.6967164
  36.1059612  50.7483073  76.9171827  36.0135852  50.1179719  76.4603917
  37.7860505  48.8242330  74.3609917  38.1168723  49.3569971  73.7550012
  38.3593594  48.8781218  75.0171868  37.9194185  48.9111899  74.3687699
  32.9992395  46.6707233  75.0433497  33.0939249  47.4096527  75.4973123
  32.3751238  46.2424709  75.4768062  32.9201425  46.7168554  75.1741645
  19.8541285  46.6282655  79.5306492  20.4314787  46.4919106  80.1698737
  19.1555347  46.1718439  79.7852076  19.8362306  46.5404921  79.6628782
  33.2515416  48.5155973  68.2770449  33.1695578  48.5858160  69.1425436
  33.8895136  49.0785717  68.0854190  33.3335253  48.6094944  68.3760399
  26.6108587  48.2816711  77.7444975  26.3527831  47.4488446  77.7176275
  26.6657070  48.5074324  76.9037476  26.5808365  48.1914482  77.6165112
  31.6909637  40.3845162  77.8449068  30.9865964  39.8954347  78.0032987
  31.7394611  40.3967636  76.9737512  31.5939689  40.3134810  77.7388408
  25.5843299  45.8354473  78.2309870  25.0092890  45.9946642  78.8673831
  25.2078975  45.1989883  77.7678321  25.4446112  45.7652286  78.2564428
  29.2516588  44.3077823  83.0902249  28.8631021  43.8832040  82.4354440
  28.5871286  44.5559972  83.5979275  29.0963516  44.2816544  83.0690116
  38.8939857  44.0652827  75.8650079  38.6376422  43.2532769  75.6747961
  39.7369171  44.0730395  75.6380266  38.9805882  43.9464825  75.8034896
  15.3300118  45.4794548  76.2454311  15.4160370  45.1026417  77.0267841
  15.9575916  45.1054994  75.7674269  15.4356669  45.3680030  76.2899788
  33.0742949  38.0052451  80.6026233  33.4553461  37.3230623  80.9894107
  32.2706234  37.7162054  80.4201897  33.0119411  37.8619500  80.6330289
  30.3555526  48.5376427  71.2879055  31.1696165  48.8291320  71.1761827
  30.2914667  47.8836290  70.7137348  30.4658265  48.4841622  71.1867893
  26.2263434  52.0097945  76.4151368  26.8637381  51.7709692  76.9603161
  26.6518506  52.2135104  75.6804528  26.3839601  52.0048955  76.3868525
  26.8666249  47.2300234  70.7526257  27.2511402  47.0107941  71.5042802
  26.6177870  48.0563180  70.8827333  26.8868322  47.3198381  70.8827333
  28.6084906  52.4870367  78.0945154  28.6823915  52.3245539  78.9487004
  29.4254413  52.6760557  77.8505635  28.7401265  52.4907110  78.1843179
  22.3690663  52.8328230  75.1239597  21.5428781  53.0789967  74.9973876
  22.4302654  52.7540311  75.9901655  22.2564830  52.8573179  75.2328542
  24.5866687  38.8997171  76.0835037  23.7189112  38.9719771  76.1492647
  24.8741891  39.7019250  76.2723013  24.5006435  39.0291318  76.1209804
  33.7099575  39.0475031  84.4146359  34.4553167  38.8584841  84.0009785
  33.2936880  39.5733269  83.8560216  33.7584550  39.0977176  84.2710933
  27.1489492  55.4505110  72.8258627  27.4387790  55.0594092  72.1017854
  27.8792973  55.6321815  73.2663903  27.2996376  55.4198924  72.7841434
  41.0861846  46.4184259  79.3651864  41.6369768  45.7852328  79.6048956
  41.0705962  46.9499652  80.0567369  41.1647043  46.4033207  79.5030722
  27.7384237  50.2522856  83.9111758  27.2395931  50.9638624  83.9896646
  28.5484461  50.5723523  83.8729920  27.7840344  50.4049705  83.9168326
  25.0895408  57.4272493  75.8918777  24.8695703  57.1369848  76.6845444
  24.8689930  56.7687448  75.3636689  25.0243002  57.2872201  75.9307686
  24.0012355  49.5145809  78.1574479  23.7125603  48.8883281  78.6920206
  24.8695703  49.4566097  78.2239159  24.0872607  49.4133354  78.2465433
  34.7890253  44.6580593  78.4756460  34.4455018  43.9370928  78.8263710
  34.8883295  44.4494444  77.6334819  34.7532295  44.5204796  78.4028140
  27.2563363  58.8001883  74.6749469  27.9087421  58.2678325  74.9040495
  26.5588972  58.4470535  75.0617343  27.2494081  58.6691406  74.7661637
  24.2044628  51.1541060  74.0816844  24.9590596  51.5354099  74.2952306
  23.6115241  51.6052204  74.5363540  24.2281342  51.2769888  74.1799722
  35.2503282  51.1206297  74.0180449  35.8161314  51.7799507  73.9338992
  34.6031185  51.4655995  74.4896851  35.2382038  51.2688238  74.0753205
  25.5242855  52.3249622  79.4556959  25.0023608  52.4649913  80.1408824
  25.9116875  51.5660286  79.6459076  25.5046556  52.2335146  79.5858036
  22.5134039  42.3755430  73.5251914  22.2258835  42.0056701  72.7883861
  23.2004507  42.8450286  73.2635619  22.5722936  42.3902400  73.3766989
  31.7209860  54.0645081  73.4417528  31.4796536  53.3312942  73.0344593
  31.9011193  54.6131938  72.7883861  31.7117484  54.0367472  73.2847751
  26.9509180  49.3553641  74.8538450  26.7551963  49.9628375  74.2598753
  27.1743526  48.6621585  74.3730124  26.9543821  49.3431166  74.6954531
  25.3487710  46.2408379  74.9719318  26.0710362  46.4049537  74.5123124
  24.8695703  46.9618044  74.8658658  25.3851441  46.3706608  74.8884932
  33.3081218  42.5772177  80.3516003  32.4692319  42.6033456  80.1154267
  33.3785585  43.2242913  80.9321350  33.1949611  42.6768303  80.4025120
  31.7550496  39.4757554  75.0843619  32.4576849  39.2765303  74.6063578
  31.4894685  38.7033497  75.3912463  31.8197129  39.3320521  75.0589061
  37.1838742  47.7840164  77.6377245  37.0972716  47.9395590  78.4912024
  36.7289222  48.4278240  77.2636650  37.1041998  47.9015919  77.7084352
  20.0862233  43.1536643  74.3737195  20.1878370  43.9562804  74.7018170
  20.8818120  42.9523979  74.0760275  20.2190139  43.2422542  74.3772550
  31.0564558  45.1050911  76.2602805  30.8099272  45.0246662  77.0939594
  31.3849681  44.3204379  76.0665332  31.0685801  44.9777177  76.3550328
  34.9512607  51.8134271  80.0489586  34.8126966  52.5115316  80.5538328
  34.1712605  51.6582927  79.6925768  34.8155834  51.8934437  80.0715860
  27.0161585  47.8407630  85.6725788  27.1604961  48.4208838  85.0368898
  27.3637234  48.2183927  86.3775642  27.0889046  47.9828334  85.6824783
  29.1881502  47.0397798  83.4550919  28.4404817  47.2328813  83.0499197
  29.3423028  46.2143018  83.2175041  29.1003930  46.9462910  83.3596325
  26.0889340  56.0310402  82.5386815  26.2378904  55.4713318  81.8860219
  26.8689342  56.1102403  82.9219333  26.2263434  55.9595967  82.4983764
  36.4465980  51.1712524  70.8106085  36.0672788  50.3849662  70.8035374
  35.7832225  51.7199381  70.6677729  36.2924454  51.1357348  70.7886882
  33.9010605  34.1138224  78.2140166  34.0194174  34.5714688  77.4807469
  33.7272781  33.3083485  77.9276384  33.8929776  34.0631996  78.0641100
  29.2712888  54.7226044  74.6494911  30.0362779  54.4535687  74.3277576
  29.1690978  54.2376054  75.3664974  29.3694383  54.6115608  74.7074739
  27.3065657  42.9250453  81.1888147  26.5161732  42.7441913  81.5105483
  27.7026280  42.1477406  81.1718442  27.2482534  42.7837914  81.2340695
  31.7931548  51.7538227  66.6294861  32.5604533  51.8138352  66.2200712
  31.3462857  51.1818669  66.1451179  31.8404975  51.6774803  66.4972571
  32.6909344  50.5592883  78.9147593  32.0154346  50.3278115  79.4160980
  32.7001720  49.9514066  78.2889698  32.5927848  50.4351808  78.8963745
  29.8203488  45.4010712  85.6711646  29.7562629  46.2620669  85.5431783
  29.9600675  45.0842705  84.8707197  29.8318958  45.4810879  85.5339859
  34.6926078  53.4158015  71.1457771  34.7745916  54.2225002  70.8219222
  35.1775821  53.4353975  71.8698544  34.7763236  53.5378678  71.2044670
  28.5022582  48.0942851  79.8127849  28.0784831  48.2947350  79.0766867
  28.3267437  47.2471699  79.9252149  28.4133462  47.9991633  79.7201539
  23.7905027  48.5894903  75.2455821  23.9469646  48.5241706  76.1011813
  24.1305620  49.3643455  75.0334501  23.8638261  48.6944101  75.3410416
  30.3284171  47.9652786  74.1149185  30.8699717  47.4623168  74.5787805
  30.6430730  47.9117981  73.3038670  30.4548568  47.8832207  74.0632997
  28.4970621  53.3570138  71.3989213  28.5663441  52.4984676  71.5382213
  29.2759076  53.5742019  71.0708237  28.6223471  53.2623002  71.3706370
  31.4773441  42.8589091  84.1671485  31.6915410  42.2200005  83.6134839
  30.8607340  43.3034915  83.7379347  31.4178770  42.8299235  84.0221916
  32.8878108  55.7807839  75.6125706  32.4957900  55.4774554  74.8948572
  33.0431181  56.6176929  75.4230660  32.8531698  55.8591676  75.4782203
  20.3639288  45.7729853  75.5616589  20.7438253  46.1914398  74.8976856
  19.7894653  46.3543309  75.8685432  20.3350613  45.9207712  75.5093330
  33.6412529  44.4678156  85.1054792  32.8289210  44.1604047  85.1867965
  34.1002463  43.9877156  85.6697504  33.5892913  44.3514649  85.2009386
  33.0517783  52.3457828  75.5531737  32.6932438  52.5172471  76.3295769
  32.5656494  52.8071034  74.9959735  32.9276480  52.4396799  75.5857006
  30.8688169  35.9689027  79.1558828  29.9981727  35.9427748  79.1092137
  31.1228510  35.7966219  78.3384674  30.7781729  35.9399170  79.0278965
  27.8406149  48.0256994  68.0931971  28.1298673  48.8021876  68.3675545
  27.9277947  47.5145725  68.7946470  27.8960405  48.0648912  68.2374469
  27.8937310  37.9795255  80.6132298  27.3775798  37.2875447  80.7383877
  27.3331239  38.6466032  80.5594897  27.7343823  37.9758513  80.6238364
  35.9379523  45.0850870  81.0664853  35.5107131  44.9977219  80.3112953
  35.3005576  45.1928646  81.6519697  35.7809130  45.0883530  81.0410295
  24.0070090  47.3390258  80.1932083  23.1658096  47.2394132  80.4010977
  24.2160098  48.1085738  80.5446404  23.9134782  47.4382301  80.2759398
  21.4845657  44.9609795  78.0216834  21.0902354  45.0352807  77.2466943
  20.9285773  45.3467741  78.5725195  21.3448469  45.0291570  77.9884493
  33.1210603  37.9391089  77.7020713  33.3260197  37.8713397  78.5477710
  32.7937027  38.7449910  77.6341890  33.1025851  38.0477029  77.8180368
  27.8186754  45.2671657  79.4429681  27.5149892  44.7127646  80.0440088
  27.1166175  45.4463867  78.9557715  27.6702964  45.2116440  79.4599386
  26.8752852  42.5772177  74.0074382  27.1512586  41.8591090  73.5951950
  27.4751521  43.1757097  73.7995488  27.0046116  42.5592548  73.9155144
  36.3744291  38.4922853  77.1823478  35.7618605  38.9793255  77.5677210
  36.4708466  37.8166344  77.7261129  36.2982189  38.4641162  77.3202336
  30.3763372  40.2485694  72.2820977  30.8307119  40.4196255  73.0068822
  30.8503418  39.6353805  71.8818753  30.5131692  40.1836580  72.3294739
  23.8978897  49.7334020  81.6123716  23.3066831  50.3743519  81.5826731
  24.6599921  50.1571638  81.5855015  23.9227158  49.8909859  81.6038863
  33.6568414  55.1843332  79.0455740  33.4588102  55.6734146  78.3511952
  33.0356125  55.3884573  79.6239874  33.5355978  55.2859870  79.0278964
  27.7176392  46.9528229  73.3865985  28.4618437  47.3402505  73.6248935
  27.8637088  46.1085654  73.5506472  27.8486977  46.8858702  73.4459954
  29.6355968  38.7478488  78.4197846  28.7892013  38.9201295  78.2939196
  29.6327100  37.9427831  78.7563674  29.5103117  38.6539517  78.4508973
  30.7054268  42.5253702  79.2859904  30.2314222  41.9995464  79.7965215
  31.0772404  41.9783175  78.7174765  30.6904157  42.3669699  79.2775051
  36.9690999  47.5856078  80.6966684  36.7289221  46.7462493  80.7009111
  37.4483006  47.6656244  81.4207458  37.0043182  47.4737477  80.8041487
  32.6337768  43.4190257  72.3485658  32.1060786  43.5019001  71.6591367
  33.0933476  44.1608128  72.3450302  32.6239618  43.5410919  72.2460353
  38.9696186  44.3657535  78.6495944  38.7305956  44.3253369  77.8116728
  39.1330087  45.2128687  78.7761665  38.9586489  44.4849620  78.5449426
  24.6270833  41.6892776  67.3726553  24.2783637  42.3412502  67.8358102
  24.1467279  41.6749889  66.6450424  24.5041077  41.7835830  67.3337644
  32.1874850  51.9893820  71.4795315  32.9109049  52.4551933  71.3359888
  31.7475441  52.0567430  70.7292912  32.2290542  52.0677657  71.3480096
  31.3561005  48.8491363  82.7296004  30.7417998  48.3049413  83.0244639
  31.8728290  48.3355599  82.2501820  31.3416668  48.6927772  82.7020232
  30.5957302  49.9195633  80.4640302  30.1684910  49.2945351  80.0305738
  30.5882247  49.6370554  81.2899310  30.5316444  49.7848413  80.5220130
  28.9243012  40.7964387  80.6782836  28.9485499  40.2624499  79.9895616
  29.1754486  40.2881696  81.3408427  28.9652931  40.6425291  80.6747481
  25.2044334  39.5235205  80.0588581  25.2442706  40.0244412  80.7723288
  24.3793999  39.6145599  79.7894504  25.0883860  39.6117022  80.1239119
  26.6258698  46.0395715  82.3562480  25.7950627  46.2069533  82.1497728
  26.5710215  45.6631666  83.1411365  26.4948113  46.0085446  82.4411008
  24.9994741  44.3151307  72.8852597  25.1397703  44.8123771  73.5881239
  25.4977274  43.6137601  73.0266811  25.0935822  44.2853285  73.0104176
  25.0294964  45.1818418  70.2145174  25.6640043  45.7778843  70.1494636
  25.1120575  44.8821875  71.0291044  25.1351515  45.2259326  70.3248261
  26.6073947  41.1132393  70.1890616  26.9289788  40.6335476  69.5349879
  26.8700890  41.9232039  69.9981428  26.6939972  41.1622291  70.0646108
  29.8370919  52.1351267  83.7089432  29.3296011  52.6887114  84.1530063
  29.5397566  52.1959557  82.8908207  29.7175804  52.2257579  83.6537889
  32.0033102  40.5004587  82.5514095  32.4288173  40.0477114  81.9397622
  31.3890095  39.9464658  82.8278883  31.9761747  40.3518563  82.5019121
  21.5347952  47.3786258  73.4834720  22.0440181  47.9750766  73.8646026
  22.0082224  47.1112232  72.8011140  21.6791327  47.4272074  73.4389243
  32.4478700  56.0514525  71.6393376  31.7308009  55.8775387  71.1740613
  33.0985437  55.8167097  71.1068862  32.4380550  55.9910318  71.4922594
  30.4427325  36.9719687  75.9604672  29.7995642  36.8217333  76.5289811
  30.1026732  36.7262032  75.1953777  30.2972402  36.9131809  75.9307688
  35.0326671  44.9279114  75.3834681  34.3617861  45.4708816  75.2547746
  35.7266421  45.3973969  75.1416376  35.0355539  45.0777385  75.3290209
  29.0813405  57.0675826  80.6146439  28.8579059  56.3094655  80.9830466
  28.5923248  57.0973847  79.8926879  28.9756854  56.9598050  80.5623180
  35.1954798  41.3834997  78.2925054  35.5482409  40.9564720  78.9670853
  34.3369600  41.2985841  78.4226131  35.1204243  41.3079738  78.4120065
  23.8938483  44.0142517  76.3507901  23.1750473  44.4306650  76.6180764
  24.2650846  44.5796756  75.7999539  23.8430415  44.1591798  76.3090708
  33.1938064  44.6470366  82.2409896  33.1735992  44.4653661  83.0944675
  33.2417265  45.5182384  82.2169480  33.1972705  44.7486904  82.3633191
  27.7291862  57.2876284  78.0683524  27.3152260  56.6250414  77.6787366
  28.4139236  57.4354143  77.5479218  27.7690233  57.2116942  77.9340021
  31.0957156  56.4466369  78.8207140  30.6973439  56.5568639  78.0527961
  30.4808375  56.6548435  79.4033700  30.9456045  56.4939937  78.7938440
  29.6685058  43.0540517  71.6881280  29.0749897  43.3757513  71.1365847
  29.7060336  42.2081612  71.4802386  29.5859447  42.9764845  71.5764051
  36.6278859  36.5053409  79.2209367  36.1209723  35.7982549  79.1530544
  37.4246292  36.1746598  79.3510443  36.6706098  36.3526561  79.2308362
  32.5442874  43.0120021  75.1183030  32.3156567  43.0352723  74.2761389
  32.8040951  42.1877488  75.2378041  32.5489062  42.8936101  75.0108228
  25.5987637  41.5496568  76.4137226  26.0745003  41.9113648  75.7787407
  25.0976237  42.2053035  76.6937369  25.5952996  41.6990756  76.3613967
  38.8298998  51.0218336  72.2050231  39.2132604  51.7709692  72.4348328
  38.0343112  51.2684155  71.9462220  38.7692781  51.1688030  72.2007805
  27.6414290  43.6937768  69.7810610  28.0213255  43.7117397  68.9961725
  26.9006886  44.1391756  69.6601457  27.5883128  43.7619542  69.6474178
  35.2699581  42.0019959  75.3686189  35.2693807  41.8468615  76.2270465
  35.0655761  42.8482946  75.3127574  35.2399358  42.1040579  75.4874128
  17.3316852  45.4259743  79.7845005  17.1538613  44.9736352  80.5099921
  17.0435874  46.2285905  79.9683483  17.2629805  45.4782301  79.9188508
  32.9940433  46.6817461  79.0222396  33.4894098  45.9640456  78.9826416
  32.1840208  46.3788258  78.9076883  32.9484326  46.5315107  78.9996121
  28.4399044  50.5315274  71.1719400  27.6310367  50.2081947  71.1252710
  28.9473953  49.8248496  71.1047649  28.3948711  50.3796590  71.1549694
  19.0689321  47.9587467  76.8966764  18.2034841  47.9473157  76.7849536
  19.1688137  47.7717690  77.7437904  18.9563488  47.9293528  77.0055709
  35.0592252  49.4321148  81.7099524  35.4847323  48.9095570  81.1569949
  34.6949171  50.0301985  81.1888147  35.0678854  49.4431375  81.5508534
  24.6946331  57.7285366  80.4696870  25.0092890  58.5421754  80.4774652
  25.1039745  57.3435584  81.1379029  24.8014429  57.7914068  80.5700962
  31.6470851  53.1455412  78.0400682  32.1182029  53.8595675  78.2090667
  31.9831029  52.5454162  78.5760551  31.7665966  53.1626877  78.1433058
  35.0938662  41.0058701  82.1879567  34.5101650  41.5067907  81.7757134
  35.4142956  40.4988257  81.5543890  35.0551837  41.0050536  82.0338074
  27.6333461  39.9199296  72.4638242  28.4549155  40.0897609  72.2219936
  27.1703112  40.0746557  71.7404539  27.6864623  39.9681029  72.3209886
  22.0359351  51.6758474  80.1175478  22.6404209  51.6354308  79.4889299
  21.8286664  52.5229626  80.1479534  22.0948249  51.7946476  80.0291595
  31.8503124  53.9424419  81.3337716  32.6701497  53.7987385  81.5954011
  31.5697201  54.5670618  81.8754154  31.9299867  54.0134771  81.4525655
  40.0765382  60.1651591  73.9402631  40.7745547  60.3439718  74.4324094
  40.3917715  59.6421930  73.3173020  40.2260719  60.1145363  73.9204641
  38.2492246  55.5343988  78.0223906  37.9195576  55.9855131  77.3527604
  37.5737247  55.4560151  78.5696912  38.1002682  55.5895123  78.0047129
  45.4568653  51.5229510  76.2673516  45.1422094  52.2132989  76.6993939
  44.9395595  51.4674293  75.5659017  45.3333124  51.6164399  76.2270465
  36.6880695  65.4197228  71.1818395  36.1037910  65.9247259  71.5884259
  36.2850790  65.1939615  70.4414987  36.5419999  65.4605476  71.1323420
  41.1457909  61.6662880  69.6587315  41.3853913  61.8740864  68.8462658
  41.4673750  60.8620389  69.7676260  41.2295067  61.5776981  69.5547868
  34.8105264  56.0026595  70.2024966  34.6280838  56.2198476  69.3765959
  35.6730877  56.1165608  70.2583581  34.9109854  56.0516493  70.0879453
  40.4904984  53.0053006  73.2373990  41.2191144  52.8268961  72.7912146
  40.5799876  53.8471085  73.4481168  40.6111646  53.1036884  73.2027508
  34.3567291  59.2800768  68.7147439  33.6425469  58.9938947  69.1269872
  34.8411260  59.6197393  69.3553827  34.3226655  59.2882417  68.8703074
  41.5314609  67.7830721  69.0909248  41.9465758  67.4515745  68.3993743
  40.7006539  67.5499624  68.9629384  41.4702618  67.7001977  68.9700095
  44.2247999  64.0341281  68.2770449  44.1428162  64.1043468  69.1425436
  44.8627720  64.5971025  68.0854190  44.3067837  64.1280252  68.3760399
  26.3032702  60.9979856  76.2454311  26.3892953  60.6211724  77.0267841
  26.9308499  60.6240302  75.7674269  26.4089253  60.8865338  76.2899788
  41.3288110  64.0561735  71.2879055  42.1428748  64.3476628  71.1761827
  41.2647251  63.4021598  70.7137348  41.4390849  64.0026930  71.1867893
  37.8398833  62.7485542  70.7526257  38.2243986  62.5293249  71.5042802
  37.5910453  63.5748488  70.8827333  37.8600906  62.8383689  70.8827333
  35.5599270  54.4182479  76.0835037  34.6921696  54.4905079  76.1492647
  35.8474475  55.2204558  76.2723013  35.4739018  54.5476626  76.1209804
  33.4866622  57.8940738  73.5251914  33.1991418  57.5242009  72.7883861
  34.1737091  58.3635594  73.2635619  33.5455520  57.9087708  73.3766989
  36.3220294  61.7593687  74.9719318  37.0442946  61.9234845  74.5123124
  35.8428287  62.4803351  74.8658658  36.3584025  61.8891916  74.8884932
  42.7283080  54.9942862  75.0843619  43.4309433  54.7950611  74.6063578
  42.4627269  54.2218805  75.3912463  42.7929712  54.8505828  75.0589061
  31.0594817  58.6721951  74.3737195  31.1610953  59.4748112  74.7018170
  31.8550704  58.4709287  74.0760275  31.1922723  58.7607850  74.3772550
  44.8743189  49.6323532  78.2140166  44.9926757  50.0899995  77.4807469
  44.7005365  48.8268793  77.9276384  44.8662360  49.5817304  78.0641100
  42.7664132  67.2723535  66.6294861  43.5337117  67.3323660  66.2200712
  42.3195441  66.7003977  66.1451179  42.8137559  67.1960111  66.4972571
  31.3371872  61.2915161  75.5616589  31.7170836  61.7099706  74.8976856
  30.7627236  61.8728617  75.8685432  31.3083197  61.4393020  75.5093330
  41.8420753  51.4874335  79.1558828  40.9714311  51.4613056  79.1092137
  42.0961094  51.3151527  78.3384674  41.7514313  51.4584478  79.0278965
  38.8138732  63.5442301  68.0931971  39.1031257  64.3207184  68.3675545
  38.9010531  63.0331033  68.7946470  38.8692988  63.5834220  68.2374469
  37.8485435  58.0957485  74.0074382  38.1245169  57.3776398  73.5951950
  38.4484104  58.6942405  73.7995488  37.9778700  58.0777856  73.9155144
  41.3495956  55.7671002  72.2820977  41.8039702  55.9381563  73.0068822
  41.8236001  55.1539113  71.8818753  41.4864276  55.7021888  72.3294739
  38.6908976  62.4713537  73.3865985  39.4351021  62.8587813  73.6248935
  38.8369672  61.6270962  73.5506472  38.8219561  62.4044010  73.4459954
  40.6088551  54.2663796  78.4197846  39.7624596  54.4386603  78.2939196
  40.6059684  53.4613139  78.7563674  40.4835701  54.1724825  78.4508973
  43.6070351  58.9375565  72.3485658  43.0793370  59.0204309  71.6591367
  44.0666059  59.6793436  72.3450302  43.5972202  59.0596227  72.2460353
  35.6003416  57.2078084  67.3726553  35.2516221  57.8597809  67.8358102
  35.1199862  57.1935197  66.6450424  35.4773660  57.3021138  67.3337644
  35.9727325  59.8336615  72.8852597  36.1130286  60.3309079  73.5881239
  36.4709858  59.1322909  73.0266811  36.0668406  59.8038593  73.0104176
  36.0027547  60.7003726  70.2145174  36.6372627  61.2964151  70.1494636
  36.0853158  60.4007183  71.0291044  36.1084098  60.7444634  70.3248261
  37.5806530  56.6317701  70.1890616  37.9022371  56.1520784  69.5349879
  37.8433474  57.4417347  69.9981428  37.6672556  56.6807599  70.0646108
  32.5080535  62.8971566  73.4834720  33.0172765  63.4936074  73.8646026
  32.9814808  62.6297540  72.8011140  32.6523911  62.9457382  73.4389243
  41.4159908  52.4904995  75.9604672  40.7728226  52.3402641  76.5289811
  41.0759315  52.2447340  75.1953777  41.2704985  52.4317117  75.9307688
  34.8671067  59.5327825  76.3507901  34.1483056  59.9491958  76.6180764
  35.2383429  60.0982064  75.7999539  34.8162999  59.6777106  76.3090708
  40.6417641  58.5725825  71.6881280  40.0482481  58.8942821  71.1365847
  40.6792919  57.7266920  71.4802386  40.5592031  58.4950153  71.5764051
  43.5175458  58.5305329  75.1183030  43.2889151  58.5538031  74.2761389
  43.7773534  57.7062796  75.2378041  43.5221646  58.4121409  75.0108228
  36.5720220  57.0681876  76.4137226  37.0477587  57.4298955  75.7787407
  36.0708820  57.7238343  76.6937369  36.5685579  57.2176064  76.3613967
  38.6146874  59.2123075  69.7810610  38.9945838  59.2302705  68.9961725
  37.8739470  59.6577064  69.6601457  38.5615711  59.2804850  69.6474178
  39.4131628  66.0500582  71.1719400  38.6042950  65.7267255  71.1252710
  39.9206537  65.3433804  71.1047649  39.3681295  65.8981898  71.1549694
  30.0421905  63.4772775  76.8966764  29.1767424  63.4658465  76.7849536
  30.1420721  63.2902998  77.7437904  29.9296072  63.4478836  77.0055709
  38.6066044  55.4384604  72.4638242  39.4281739  55.6082917  72.2219936
  38.1435695  55.5931865  71.7404539  38.6597207  55.4866337  72.3209886
  26.0702431   7.4996786  61.2320639  26.0396435   8.3541423  61.4038908
  26.6683779   7.1992079  61.7906782  26.1539589   7.5813283  61.3395441
  13.6543255  16.1235155  61.7510801  12.9026155  15.7450693  61.5226846
  14.1029267  16.1553589  61.0029611  13.6092922  16.0720762  61.6068303
  19.1068215  16.5460525  57.1796348  18.7719584  17.2237446  56.7440570
  19.6195086  16.1565836  56.5913220  19.1333796  16.5885103  57.0283139
  18.6472506  18.4974793  63.1207459  19.0311886  19.0661692  62.5812235
  18.5831648  17.7724304  62.6413276  18.6945934  18.4750257  62.9701322
  23.8919005  10.0749088  59.5038949  23.7758531  10.8256774  59.9331087
  24.6874892   9.8173041  59.7535036  23.9923595  10.1483935  59.6043040
  15.0728751  21.0531136  65.4188429  15.7166207  21.4944300  65.8084588
  15.3985007  20.2484563  65.3318688  15.2160580  20.9996331  65.4633907
  15.7749331  14.0643111  60.7908291  16.0965172  14.6048319  60.1869599
  16.4221427  13.4939883  60.9230581  15.9175386  14.0602286  60.7215326
  18.0138974  12.4529551  60.8622469  18.4532610  11.8446652  61.3077242
  17.8643637  12.0736925  60.0907934  18.0560440  12.3068022  60.8141637
  21.6148311  10.8056732  57.8153238  21.5299606  11.6617699  57.9602807
  22.1032694  10.5301057  58.4835398  21.6737208  10.8914054  57.9355320
  22.5466744   7.4241527  59.3150974  22.0178215   7.6401160  59.9748280
  23.0691764   8.1177665  59.2351943  22.5455197   7.5584664  59.4006573
  28.0014797  12.9987831  64.6884018  27.1712500  13.2098475  64.8517435
  27.9524049  12.1724886  64.4126302  27.8721532  12.9077437  64.6721384
  14.4366352  11.3204743  58.1158442  13.8523567  11.8254775  58.5224305
  14.0336447  11.0947130  57.3755034  14.2905656  11.3612992  58.0663467
  18.8943566   7.5670395  56.5927362  19.1339570   7.7748379  55.7802705
  19.2159407   6.7627904  56.7016307  18.9780724   7.4784497  56.4887915
  25.2579112  13.6687186  64.8248734  24.8214344  13.6723928  65.5807705
  24.9242028  14.3492685  64.3928311  25.1441732  13.7699641  64.8729566
  28.3923458  10.3868105  63.7168371  29.0539892   9.8258774  63.6164280
  27.7514870   9.8920136  64.0421062  28.3952326  10.2304514  63.7500711
  19.2800266  13.6838237  56.0249294  19.6951415  13.3523261  55.3333790
  18.4492196  13.4507139  55.8969431  19.2188275  13.6009493  55.9040142
  24.6788289  11.4033488  63.4580360  24.9143878  11.5478687  62.6307211
  24.8277853  12.1675896  63.8511874  24.7354092  11.5372542  63.3943964
  26.5078746  10.2435154  61.2949964  26.8386963  10.7762794  60.6890059
  27.0811834  10.2974042  61.9511915  26.6412425  10.3304723  61.3027745
  21.9733656   9.9348796  55.2110496  21.8913819  10.0050983  56.0765483
  22.6113377  10.4978540  55.0194236  22.0553494  10.0287767  55.3100445
  19.0773766   9.9569251  58.2219102  19.8914405  10.2484143  58.1101874
  19.0132908   9.3029113  57.6477395  19.1876505   9.9034445  58.1207940
  15.5884490   8.6493058  57.6866304  15.9729642   8.4300764  58.4382849
  15.3396110   9.4756003  57.8167380  15.6086562   8.7391204  57.8167380
  15.8707732  16.8697934  59.7598674  16.1606031  16.4786915  59.0357901
  16.6011213  17.0514639  60.2003949  16.0214617  16.8391747  59.7181481
  13.8113648  18.8465316  62.8258824  13.5913943  18.5562671  63.6185491
  13.5908170  18.1880271  62.2976736  13.7461242  18.7065024  62.8647732
  15.9781604  20.2194706  61.6089516  16.6305662  19.6871148  61.8380542
  15.2807212  19.8663358  61.9957390  15.9712322  20.0884229  61.7001684
  23.9721522  12.5399120  60.9520495  24.5379555  13.1992330  60.8679038
  23.3249425  12.8848818  61.4236898  23.9600278  12.6881061  61.0093252
  20.4428100  15.4837904  60.3757575  20.2014776  14.7505765  59.9684640
  20.6229433  16.0324761  59.7223908  20.4335724  15.4560295  60.2187798
  25.1684220  12.5905348  57.7446132  24.7891029  11.8042486  57.7375421
  24.5050465  13.1392205  57.6017776  25.0142695  12.5550172  57.7226929
  17.9931128  16.1418867  61.5834958  18.7581019  15.8728511  61.2617622
  17.8909218  15.6568877  62.3005021  18.0912624  16.0308431  61.6414786
  20.5149789  13.1731051  53.5634907  21.2822774  13.2331175  53.1540759
  20.0681098  12.6011492  53.0791226  20.5623216  13.0967626  53.4312618
  23.4144319  14.8350839  58.0797818  23.4964156  15.6417825  57.7559269
  23.8994061  14.8546798  58.8038591  23.4981477  14.9571501  58.1384716
  19.0502412   9.3845610  61.0489231  19.5917957   8.8815991  61.5127852
  19.3648971   9.3310804  60.2378717  19.1766809   9.3025031  60.9973044
  17.2188861  14.7762961  58.3329259  17.2881682  13.9177500  58.4722260
  17.9977316  14.9934842  58.0048284  17.3441711  14.6815825  58.3046417
  21.6096349  17.2000663  62.5465753  21.2176141  16.8967378  61.8288619
  21.7649421  18.0369752  62.3570707  21.5749939  17.2784499  62.4122250
  21.7736024  13.7650651  62.4871783  21.4150678  13.9365294  63.2635816
  21.2874734  14.2263857  61.9299782  21.6494721  13.8589622  62.5197052
  16.5624389   9.4449817  55.0272018  16.8516914  10.2214699  55.3015592
  16.6496188   8.9338548  55.7286517  16.6178645   9.4841735  55.1714516
  22.3786654  16.6036155  65.9795787  22.1806343  17.0926970  65.2851998
  21.7574365  16.8077397  66.5579921  22.2574219  16.7052693  65.9619010
  21.3556008   4.8383080  59.2825705  20.8279027   4.9211824  58.5931413
  21.8151716   5.5800951  59.2790349  21.3457858   4.9603742  59.1800400
  20.9093090  13.4086643  58.4135362  21.6327289  13.8744756  58.2699935
  20.4693681  13.4760253  57.6632959  20.9508783  13.4870480  58.2820143
  21.1696940  17.4707348  58.5733423  20.4526250  17.2968211  58.1080660
  21.8203678  17.2359921  58.0408909  21.1598791  17.4103141  58.4262641
  16.4510102  18.7069107  65.0023571  16.0370501  18.0443237  64.6127412
  17.1357476  18.8546966  64.4819265  16.4908474  18.6309765  64.8680068
  19.8175396  17.8659192  65.7547187  19.4191679  17.9761463  64.9868008
  19.2026616  18.0741259  66.3373747  19.6674285  17.9132760  65.7278487
  27.5517239  12.4411159  59.1390278  27.9350845  13.1902515  59.3688375
  26.7561352  12.6876979  58.8802267  27.4911021  12.5880853  59.1347851
  16.3632530   5.1130591  56.7150657  16.7431495   5.1310220  55.9301772
  15.6225126   5.5584580  56.5941504  16.3101368   5.1812365  56.5814225
  17.1617285  11.9508097  58.1059447  16.3528607  11.6274771  58.0592756
  17.6692193  11.2441319  58.0387696  17.1166951  11.7989413  58.0889741
  37.0435014  23.0182094  61.2320639  37.0129019  23.8726731  61.4038908
  37.6416363  22.7177387  61.7906782  37.1272172  23.0998591  61.3395441
  30.2434699  22.1057745  65.9873569  29.3872595  22.2666243  66.0382686
  30.2902353  21.2349809  66.0078630  30.1233811  22.0008547  65.9979635
  24.6275839  31.6420463  61.7510801  23.8758738  31.2636001  61.5226846
  25.0761851  31.6738897  61.0029611  24.5825506  31.5906070  61.6068303
  33.5528416  28.3744271  75.5934025  34.2595183  27.8796301  75.7220960
  33.7416351  28.8153352  74.8636683  33.6856321  28.3662621  75.5043071
  30.0800799  32.0645832  57.1796348  29.7452167  32.7422754  56.7440570
  30.5927669  31.6751144  56.5913220  30.1066380  32.1070411  57.0283139
  29.6205090  34.0160101  63.1207459  30.0044469  34.5847000  62.5812235
  29.5564231  33.2909611  62.6413276  29.6678517  33.9935565  62.9701322
  33.0886520  24.1649789  68.6305221  33.6342480  24.8434876  68.6899191
  33.0303397  24.0237250  67.7706802  33.1602435  24.2441791  68.5117281
  26.2060595  31.6538855  64.0173573  26.3070958  30.8439209  64.3270701
  25.6102340  31.5595802  63.3873252  26.1333134  31.5203883  63.9699812
  26.0461335  36.5716444  65.4188429  26.6898790  37.0129608  65.8084588
  26.3717590  35.7669870  65.3318688  26.1893163  36.5181639  65.4633907
  19.4025639  27.6759142  63.6425907  19.1675824  26.8426794  63.5358176
  19.5411280  27.9563807  62.8287108  19.3881302  27.5942645  63.5068262
  21.7015727  19.8444872  66.5410215  21.0820758  19.2537520  66.3720229
  21.5999590  20.4356308  65.9074538  21.5953402  19.8448955  66.4215204
  26.7481914  29.5828419  60.7908291  27.0697755  30.1233626  60.1869599
  27.3954011  29.0125191  60.9230581  26.8907970  29.5787594  60.7215326
  28.7983622  21.5844414  60.8742678  29.4963787  21.7632542  61.3664141
  29.1135955  21.0614753  60.2513067  28.9478960  21.5338186  60.8544688
  21.4284860  23.3897154  68.7853784  21.3043557  23.9759599  69.4203603
  22.0803144  22.8957350  69.0866059  21.5058509  23.4035958  68.9239713
  28.9871558  27.9714859  60.8622469  29.4265193  27.3631960  61.3077242
  28.8376221  27.5922232  60.0907934  29.0293024  27.8253330  60.8141637
  26.4543201  26.5658871  68.0641295  27.0992203  26.0731314  67.7452243
  26.6944978  26.7083658  68.8907373  26.5853786  26.5136313  68.1390828
  28.9929292  29.4113777  67.7148187  29.2752535  28.6165183  67.4934943
  29.7215453  29.8894364  67.7353248  29.1418856  29.3648374  67.6851202
  26.9710486  16.9536811  64.9563952  26.6413816  17.4047954  64.2867651
  26.2955488  16.8752974  65.5036959  26.8220922  17.0087946  64.9387176
  32.5880894  26.3242040  57.8153238  32.5032189  27.1803007  57.9602807
  33.0765278  26.0486364  58.4835398  32.6469792  26.4099362  57.9355320
  34.1786894  12.9422334  63.2013563  33.8640335  13.6325812  63.6333985
  33.6613835  12.8867116  62.4999064  34.0551364  13.0357222  63.1610512
  33.5199328  22.9426835  59.3150974  32.9910799  23.1586468  59.9748280
  34.0424348  23.6362973  59.2351943  33.5187781  23.0769971  59.4006573
  38.9747381  28.5173139  64.6884018  38.1445084  28.7283783  64.8517435
  38.9256633  27.6910194  64.4126302  38.8454116  28.4262745  64.6721384
  25.4098935  26.8390051  58.1158442  24.8256151  27.3440083  58.5224305
  25.0069031  26.6132438  57.3755034  25.2638239  26.8798300  58.0663467
  20.9642964  32.5544812  64.9182113  20.4810542  33.2795302  64.8941697
  21.7766282  32.8520943  65.0292271  21.0133712  32.7047166  64.9309392
  27.0357118  31.3476993  67.5231928  26.5184060  30.9884408  66.9193236
  27.7331509  30.8239168  67.5337994  27.0622699  31.2174681  67.4362186
  30.6920710  31.7971807  73.4848101  30.7804056  31.6097948  74.3326311
  31.1210423  31.1509237  73.0852947  30.7682812  31.6734815  73.5519852
  28.2591170  31.0802967  72.4665763  27.6962005  30.6675577  72.9905424
  29.0212193  31.0055873  72.8858906  28.2885618  31.0080368  72.6058763
  29.8676150  23.0855703  56.5927362  30.1072154  23.2933687  55.7802705
  30.1891991  22.2813212  56.7016307  29.9513308  22.9969805  56.4887915
  25.1766440  15.0149099  60.4386900  25.9312408  15.3827416  60.2003950
  24.9993975  15.3888654  61.2066080  25.2620918  15.1247287  60.5171789
  23.8187161  33.0700988  65.0702393  24.5207741  32.5552977  65.1275150
  23.7384644  33.3975140  65.8749268  23.9110922  33.0415215  65.1975185
  38.4701339  21.1643540  68.4834439  37.6329760  21.2345727  68.7182034
  38.4389570  21.1668035  67.6108742  38.3419621  21.1753767  68.3893987
  23.5323505  17.4219418  57.1365013  23.3499078  17.6391299  56.3106006
  24.3949118  17.5358431  57.1923628  23.6328094  17.4709316  57.0219500
  23.1437937  29.2607340  64.5788001  23.9826836  29.4930273  64.6261763
  23.1749706  28.3911652  64.5095036  23.2719654  29.1664287  64.5752646
  23.7690640  29.6808216  68.8801307  24.3088865  29.5379347  69.5504679
  23.0860586  30.0804966  69.2485333  23.7482794  29.7187886  69.0335728
  29.2123224  14.4245829  60.1714037  29.9409384  14.2461784  59.7252193
  29.3018117  15.2663909  60.3821215  29.3329886  14.5229707  60.1367555
  33.1931525  25.3599216  64.0746331  33.9489040  25.7930731  64.1135240
  33.2993849  24.7103986  64.6480967  33.3201695  25.3276700  64.1644357
  36.2311696  29.1872493  64.8248734  35.7946928  29.1909236  65.5807705
  35.8974611  29.8677992  64.3928311  36.1174316  29.2884949  64.8729566
  30.8040769  31.2280826  76.1491884  31.5881186  31.3411674  76.5147626
  30.6037364  30.4021963  76.3450570  30.8906795  31.1227546  76.2326270
  19.1727785  25.9008506  69.0335728  18.9066200  25.0847623  69.1926718
  19.1866349  25.9461662  68.1631244  19.1352507  25.7865411  68.9289210
  36.1509179  16.2286321  67.0678162  36.7935087  16.2984426  67.6540077
  36.4032199  15.5615544  66.5657704  36.2831311  16.1412670  67.0805441
  23.0785532  20.6993591  55.6487486  22.3643709  20.4131770  56.0609919
  23.5629500  21.0390217  56.2893874  23.0444895  20.7075240  55.8043121
  30.9611163  33.1390928  69.7958340  30.1626408  32.8990428  70.0532208
  31.4097174  33.1905321  70.5425387  30.9085774  33.1113319  69.9443264
  39.3656042  25.9053413  63.7168371  40.0272476  25.3444082  63.6164280
  38.7247454  25.4105444  64.0421062  39.3684909  25.7489822  63.7500711
  30.2532850  29.2023545  56.0249294  30.6683998  28.8708569  55.3333790
  29.4224779  28.9692447  55.8969431  30.1920858  29.1194801  55.9040142
  19.5821198  26.6867286  66.3147472  19.3996772  26.6614172  65.4619765
  20.3170867  27.1566224  66.3536381  19.6635262  26.7528648  66.1945391
  35.6520873  26.9218796  63.4580360  35.8876462  27.0663995  62.6307211
  35.8010436  27.6861204  63.8511874  35.7086676  27.0557850  63.3943964
  37.4811329  25.7620462  61.2949964  37.8119546  26.2948102  60.6890059
  38.0544417  25.8159349  61.9511915  37.6145008  25.8490031  61.3027745
  32.6943218  23.6085364  61.9773544  32.7890073  24.3474658  62.4313169
  32.0702062  23.1802840  62.4108108  32.6152249  23.6546685  62.1081691
  30.9495692  26.7871577  72.6263825  31.5234554  26.1498821  72.7812389
  30.8710496  26.7875659  71.7573482  31.0228927  26.6936688  72.5210236
  19.5492109  23.5660786  66.4646539  20.1265611  23.4297237  67.1038784
  18.8506170  23.1096571  66.7192123  19.5313130  23.4783053  66.5968829
  32.9466240  25.4534104  55.2110496  32.8646402  25.5236291  56.0765483
  33.5845960  26.0163848  55.0194236  33.0286077  25.5473075  55.3100445
  31.3860461  17.3223293  64.7789115  30.6816788  16.8332478  64.9373034
  31.4345435  17.3345767  63.9077559  31.2890513  17.2512941  64.6728455
  25.2794123  22.7732605  65.1649917  24.7043714  22.9324773  65.8013878
  24.9029799  22.1368014  64.7018367  25.1396935  22.7030418  65.1904475
  28.9467412  21.2455954  70.0242295  28.5581845  20.8210172  69.3694487
  28.2822110  21.4938104  70.5319322  28.7914340  21.2194675  70.0030163
  38.5890681  21.0030959  62.7990125  38.3327246  20.1910900  62.6088008
  39.4319995  21.0108526  62.5720313  38.6756706  20.8842956  62.7374942
  15.0250942  22.4172679  63.1794358  15.1111194  22.0404548  63.9607887
  15.6526739  22.0433125  62.7014316  15.1307493  22.3058162  63.2239835
  32.7693773  14.9430583  67.5366280  33.1504285  14.2608754  67.9234154
  31.9657058  14.6540185  67.3541944  32.7070235  14.7997631  67.5670335
  30.0506350  25.4754558  58.2219102  30.8646989  25.7669451  58.1101874
  29.9865491  24.8214421  57.6477395  30.1609089  25.4219753  58.1207940
  36.2715840  28.1580555  72.6348678  36.0354478  27.3268619  72.5160739
  36.9159069  28.1066162  73.2203522  36.3310511  28.0278243  72.7034572
  25.9214258  28.9476076  63.3491414  26.5588205  28.7087823  63.8943208
  26.3469330  29.1513235  62.6144575  26.0790425  28.9427086  63.3208572
  20.6126901  31.1864412  67.2325718  20.6531046  31.4579263  66.4045498
  21.1721425  31.7106320  67.6483506  20.7010247  31.3040167  67.1717606
  26.5617073  24.1678366  57.6866304  26.9462226  23.9486072  58.4382849
  26.3128694  24.9941311  57.8167380  26.5819146  24.2576512  57.8167380
  37.2952261  27.9425003  68.6976972  36.9898078  28.6753060  69.0590288
  36.5758476  27.5362933  68.4169758  37.1439603  27.9906736  68.7090110
  28.3035730  29.4248499  65.0285201  28.3774738  29.2623670  65.8827051
  29.1205237  29.6138688  64.7845682  28.4352089  29.4285241  65.1183226
  42.9954053  24.5818004  68.0245317  42.9278553  24.6013963  67.1547903
  42.9809715  25.4248331  68.2500987  42.9832809  24.7091739  67.9297794
  22.0641487  29.7706361  62.0579644  21.2379605  30.0168099  61.9313923
  22.1253478  29.6918442  62.9241702  21.9515654  29.7951310  62.1668589
  24.2817511  15.8375302  63.0175084  23.4139936  15.9097902  63.0832694
  24.5692715  16.6397381  63.2063059  24.1957259  15.9669449  63.0549851
  26.8440316  32.3883242  59.7598674  27.1338614  31.9972223  59.0357901
  27.5743797  32.5699947  60.2003949  26.9947200  32.3577055  59.7181481
  40.7812670  23.3562390  66.2991911  41.3320592  22.7230459  66.5389003
  40.7656786  23.8877783  66.9907415  40.8597867  23.3411338  66.4370769
  27.4335061  27.1900988  70.8451805  26.9346755  27.9016755  70.9236693
  28.2435285  27.5101654  70.8069967  27.4791168  27.3427836  70.8508373
  24.7846232  34.3650624  62.8258824  24.5646527  34.0747979  63.6185491
  24.5640754  33.7065579  62.2976736  24.7193826  34.2250332  62.8647732
  23.6963179  26.4523941  65.0914525  23.4076427  25.8261412  65.6260253
  24.5646527  26.3944228  65.1579206  23.7823431  26.3511485  65.1805480
  34.4841077  21.5958724  65.4096507  34.1405842  20.8749059  65.7603757
  34.5834119  21.3872575  64.5674866  34.4483119  21.4582927  65.3368187
  26.9514187  35.7380014  61.6089516  27.6038245  35.2056456  61.8380542
  26.2539796  35.3848666  61.9957390  26.9444905  35.6069537  61.7001684
  23.8995452  28.0919192  61.0156890  24.6541420  28.4732231  61.2292353
  23.3066065  28.5430335  61.4703587  23.9232166  28.2148019  61.1139769
  34.9454106  28.0584428  60.9520495  35.5112138  28.7177638  60.8679038
  34.2982009  28.4034126  61.4236898  34.9332862  28.2066369  61.0093252
  25.2193679  29.2627753  66.3897006  24.6974432  29.4028045  67.0748871
  25.6067699  28.5038417  66.5799123  25.1997380  29.1713277  66.5198082
  22.2084863  19.3133562  60.4591961  21.9209658  18.9434832  59.7223908
  22.8955331  19.7828417  60.1975665  22.2673760  19.3280531  60.3107036
  31.4160684  31.0023212  60.3757575  31.1747360  30.2691073  59.9684640
  31.5962017  31.5510069  59.7223908  31.4068308  30.9745603  60.2187798
  26.6460004  26.2931772  61.7878497  26.4502787  26.9006506  61.1938800
  26.8694350  25.5999716  61.3070171  26.6494645  26.2809297  61.6294578
  25.0438534  23.1786510  61.9059365  25.7661186  23.3427668  61.4463171
  24.5646527  23.8996175  61.7998705  25.0802265  23.3084739  61.8224979
  33.0032042  19.5150309  67.2856050  32.1643143  19.5411588  67.0494313
  33.0736409  20.1621044  67.8661397  32.8900435  19.6146434  67.3365167
  22.6946151  25.5844582  71.0113505  23.2067248  25.8628836  70.3622265
  22.4082494  26.3233876  71.3776318  22.7281014  25.7346936  70.9703383
  31.4501320  16.4135686  62.0183666  32.1527673  16.2143434  61.5403624
  31.1845509  15.6411628  62.3252510  31.5147952  16.2698652  61.9929108
  36.8789566  24.7218295  64.5717292  36.7923540  24.8773721  65.4252071
  36.4240046  25.3656371  64.1976697  36.7992822  24.8394051  64.6424399
  19.7813057  20.0914774  61.3077242  19.8829194  20.8940936  61.6358217
  20.5768944  19.8902110  61.0100322  19.9140963  20.1800673  61.3112597
  30.7515382  22.0429043  63.1942851  30.5050096  21.9624793  64.0279640
  31.0800505  21.2582510  63.0005379  30.7636625  21.9155308  63.2890375
  34.6463431  28.7512402  66.9829633  34.5077790  29.4493448  67.4878375
  33.8663429  28.5961058  66.6265814  34.5106657  28.8312569  67.0055907
  32.9841516  25.0508777  73.2352014  32.9789554  24.1788594  73.2394441
  33.6902510  25.2496946  72.7621470  33.0886520  24.9512651  73.1659050
  26.7112409  24.7785761  72.6065835  26.8555785  25.3586969  71.9708945
  27.0588058  25.1562058  73.3115689  26.7839870  24.9206465  72.6164829
  28.8832326  23.9775929  70.3890966  28.1355640  24.1706944  69.9839244
  29.0373852  23.1521149  70.1515087  28.7954754  23.8841041  70.2936372
  25.7840164  32.9688533  69.4726861  25.9329728  32.4091449  68.8200266
  26.5640166  33.0480535  69.8559380  25.9214258  32.8974098  69.4323810
  36.1416803  28.1090656  57.7446132  35.7623612  27.3227794  57.7375421
  35.4783049  28.6577513  57.6017776  35.9875278  28.0735480  57.7226929
  28.3093465  33.1403176  70.7511352  28.2337136  32.4711986  71.3062140
  28.2383324  33.8420964  71.2652018  28.2874072  33.1448083  70.9088200
  33.5961429  11.0516355  65.1480213  33.7144998  11.5092819  64.4147515
  33.4223605  10.2461617  64.8616430  33.5880600  11.0010128  64.9981146
  28.9663712  31.6604175  61.5834958  29.7313603  31.3913818  61.2617622
  28.8641802  31.1754185  62.3005021  29.0645207  31.5493739  61.6414786
  27.0016481  19.8628584  68.1228194  26.2112556  19.6820044  68.4445530
  27.3977104  19.0855537  68.1058488  26.9433358  19.7216045  68.1680742
  31.4882372  28.6916358  53.5634907  32.2555357  28.7516483  53.1540759
  31.0413681  28.1196800  53.0791226  31.5355799  28.6152934  53.4312618
  32.3860168  27.4971014  65.8487640  31.7105169  27.2656247  66.3501027
  32.3952544  26.8892197  65.2229745  32.2878672  27.3729940  65.8303792
  29.5154312  22.3388843  72.6051693  29.4513453  23.1998800  72.4771829
  29.6551499  22.0220836  71.8047244  29.5269782  22.4189010  72.4679906
  34.3876902  30.3536147  58.0797818  34.4696740  31.1603133  57.7559269
  34.8726644  30.3732106  58.8038591  34.4714060  30.4756809  58.1384716
  28.1973406  25.0320983  66.7467896  27.7735655  25.2325482  66.0106914
  28.0218261  24.1849831  66.8592196  28.1084286  24.9369764  66.6541586
  27.6985099  36.5471496  69.2089353  28.1881029  35.8482285  69.0265018
  27.1269331  36.2495366  69.7965410  27.6869629  36.3997719  69.2690394
  23.4855851  25.5273034  62.1795868  23.6420470  25.4619837  63.0351860
  23.8256444  26.3021587  61.9674548  23.5589085  25.6322232  62.2750462
  30.0234995  24.9030918  61.0489231  30.5650541  24.4001299  61.5127852
  30.3381554  24.8496112  60.2378717  30.1499392  24.8210339  60.9973044
  33.8952103  29.1133565  78.1616144  34.7086968  28.8418714  78.3221276
  33.7347069  28.8141105  77.3576340  33.9922051  29.0288491  78.0661550
  28.1921445  30.2948269  58.3329259  28.2614265  29.4362808  58.4722260
  28.9709900  30.5120150  58.0048284  28.3174295  30.2001133  58.3046417
  31.1724265  19.7967222  71.1011532  31.3866234  19.1578136  70.5474886
  30.5558164  20.2413046  70.6719394  31.1129594  19.7677366  70.9561963
  32.5828932  32.7185970  62.5465753  32.1908724  32.4152686  61.8288619
  32.7382005  33.5555060  62.3570707  32.5482522  32.7969807  62.4122250
  20.0590112  22.7107985  62.4956635  20.4389077  23.1292529  61.8316903
  19.4845477  23.2921440  62.8025479  20.0301437  22.8585843  62.4433376
  33.3363353  21.4056287  72.0394839  32.5240034  21.0982178  72.1208012
  33.7953287  20.9255287  72.6037551  33.2843737  21.2892780  72.1349433
  32.7468607  29.2835959  62.4871783  32.3883262  29.4550602  63.2635816
  32.2607318  29.7449165  61.9299782  32.6227304  29.3774930  62.5197052
  30.5638993  12.9067158  66.0898875  29.6932551  12.8805879  66.0432184
  30.8179334  12.7344350  65.2724720  30.4732553  12.8777302  65.9619011
  27.5356973  24.9635125  55.0272018  27.8249497  25.7400007  55.3015592
  27.6228771  24.4523856  55.7286517  27.5911229  25.0027043  55.1714516
  33.9073347  30.1739855  73.4338984  34.5453067  29.6800051  73.1001440
  33.2647438  30.1017256  72.8491211  33.9067573  30.0898864  73.2981339
  35.6330347  22.0229001  68.0004900  35.2057955  21.9355350  67.2452999
  34.9956400  22.1306777  68.5859744  35.4759954  22.0261661  67.9750341
  33.9627603  30.8659664  70.0744341  34.7519981  30.5148728  70.1946423
  34.1371201  31.6796052  69.8120975  34.1047885  30.9345521  70.0532209
  23.7020914  24.2768389  67.1272130  22.8608920  24.1772263  67.3351024
  23.9110922  25.0463870  67.4786450  23.6085606  24.3760433  67.2099445
  21.1796481  21.8987926  64.9556880  20.7853178  21.9730938  64.1806990
  20.6236597  22.2845873  65.5065242  21.0399293  21.9669701  64.9224540
  32.8161427  14.8769220  64.6360759  33.0211021  14.8091528  65.4817757
  32.4887851  15.6828041  64.5681937  32.7976675  14.9855161  64.7520415
  27.5137578  22.2049788  66.3769727  27.2100716  21.6505777  66.9780135
  26.8116999  22.3841998  65.8897762  27.3653788  22.1494571  66.3939433
  26.5703676  19.5150308  60.9414429  26.8463410  18.7969221  60.5291997
  27.1702345  20.1135228  60.7335535  26.6996940  19.4970679  60.8495190
  25.5755929  29.4199509  71.0841825  25.4676284  29.4301571  71.9503883
  25.7851711  30.2454290  70.8946779  25.5906040  29.5440584  71.1845917
  36.0695115  15.4300984  64.1163525  35.4569429  15.9171387  64.5017257
  36.1659290  14.7544475  64.6601176  35.9933013  15.4019293  64.2542383
  30.0714196  17.1863826  59.2161024  30.5257943  17.3574386  59.9408869
  30.5454242  16.5731936  58.8158800  30.2082516  17.1214711  59.2634786
  23.5929721  26.6712152  68.5463763  23.0017655  27.3121650  68.5166778
  24.3550745  27.0949769  68.5195062  23.6177982  26.8287990  68.5378910
  39.7120143  26.5017921  69.5441041  39.7703267  26.9504570  70.2901017
  39.0786611  26.9116734  69.1071121  39.6271438  26.6291656  69.5893589
  33.3519238  32.1221463  65.9795787  33.1538926  32.6112278  65.2851998
  32.7306949  32.3262705  66.5579921  33.2306802  32.2238001  65.9619010
  27.4127216  23.8906360  60.3206031  28.1569261  24.2780636  60.5588981
  27.5587912  23.0463785  60.4846519  27.5437801  23.8236833  60.3800001
  29.3306791  15.6856619  65.3537893  28.4842837  15.8579427  65.2279243
  29.3277924  14.8805963  65.6903721  29.2053941  15.5917648  65.3849020
  30.4005092  19.4631833  66.2199951  29.9265046  18.9373595  66.7305262
  30.7723228  18.9161306  65.6514812  30.3854981  19.3047830  66.2115098
  36.6641822  24.5234209  67.6306731  36.4240045  23.6840624  67.6349158
  37.1433830  24.6034376  68.3547505  36.6994006  24.4115609  67.7381534
  32.3288592  20.3568388  59.2825705  31.8011610  20.4397132  58.5931413
  32.7884300  21.0986259  59.2790349  32.3190442  20.4789050  59.1800400
  38.6647009  21.3035666  65.5835990  38.4256779  21.2631500  64.7456775
  38.8280911  22.1506818  65.7101711  38.6537313  21.4227751  65.4789472
  35.2693040  25.6885615  71.5141036  35.9927238  25.2358142  71.3352055
  35.0043002  25.9690281  70.7313363  35.3374313  25.6636584  71.3719751
  24.1379908  20.2845789  68.2493915  23.5132978  20.2964181  67.6419867
  23.8025503  20.7605964  68.8985155  23.9965400  20.3564306  68.2550483
  24.3221657  18.6270907  54.3066600  23.9734461  19.2790633  54.7698149
  23.8418103  18.6128021  53.5790471  24.1991901  18.7213961  54.2677691
  20.8505584  28.3446249  69.6897679  20.3205508  27.6538688  69.7392654
  21.1230677  28.3356434  68.8610388  20.8130306  28.2413381  69.5745095
  31.8825674  28.9271951  58.4135362  32.6059873  29.3930064  58.2699935
  31.4426265  28.9945561  57.6632959  31.9241366  29.0055788  58.2820143
  31.0511829  25.7869494  69.6636051  30.4368822  25.2427544  69.9584686
  31.5679114  25.2733730  69.1841867  31.0367492  25.6305903  69.6360279
  30.2908126  26.8573764  67.3980349  29.8635734  26.2323482  66.9645785
  30.2833071  26.5748686  68.2239356  30.2267267  26.7226544  67.4560177
  28.6193836  17.7342518  67.6122883  28.6436323  17.2002631  66.9235663
  28.8705310  17.2259827  68.2748474  28.6603755  17.5803422  67.6087528
  16.1301426  25.0174013  67.0466027  16.0244875  24.9720858  66.1818111
  15.3801646  25.3627794  67.3280312  16.0037029  25.0614921  66.9603357
  24.8995158  16.4613337  66.9928628  24.9393530  16.9622543  67.7063335
  24.0744823  16.5523730  66.7234551  24.7834684  16.5495153  67.0579166
  26.3209522  22.9773846  69.2902527  25.4901451  23.1447664  69.0837775
  26.2661039  22.6009797  70.0751412  26.1898936  22.9463578  69.3751055
  24.6945565  21.2529438  59.8192644  24.8348526  21.7501902  60.5221286
  25.1928098  20.5515732  59.9606858  24.7886646  21.2231417  59.9444223
  24.7245788  22.1196549  57.1485221  25.3590867  22.7156974  57.0834683
  24.8071399  21.8200007  57.9631091  24.8302339  22.1637457  57.2588308
  37.7028354  24.6512026  70.0171585  38.2946194  25.2909277  70.0489783
  38.1387348  23.9535063  70.3063652  37.8546785  24.6430377  70.0652418
  26.3024771  18.0510524  57.1230663  26.6240612  17.5713607  56.4689925
  26.5651714  18.8610170  56.9321475  26.3890796  18.1000422  56.9986155
  29.5321743  29.0729399  70.6429479  29.0246835  29.6265245  71.0870110
  29.2348390  29.1337689  69.8248254  29.4126628  29.1635710  70.5877936
  31.6983926  17.4382718  69.4854142  32.1238997  16.9855245  68.8737669
  31.0840919  16.8842789  69.7618930  31.6712571  17.2896694  69.4359167
  21.2298776  24.3164390  60.4174767  21.7391005  24.9128897  60.7986073
  21.7033048  24.0490363  59.7351187  21.3742151  24.3650205  60.3729290
  32.1429524  32.9892656  58.5733423  31.4258833  32.8153519  58.1080660
  32.7936261  32.7545229  58.0408909  32.1331374  32.9288449  58.4262641
  30.1378148  13.9097818  62.8944719  29.4946466  13.7595464  63.4629858
  29.7977555  13.6640163  62.1293824  29.9923226  13.8509941  62.8647734
  34.7277495  21.8657245  62.3174728  34.0568685  22.4086947  62.1887793
  35.4217245  22.3352100  62.0756423  34.7306362  22.0155516  62.2630256
  28.7764229  34.0053957  67.5486486  28.5529883  33.2472786  67.9170512
  28.2874072  34.0351978  66.8266926  28.6707678  33.8976181  67.4963227
  34.8905622  18.3213129  65.2265101  35.2433232  17.8942851  65.9010900
  34.0320424  18.2363972  65.3566177  34.8155067  18.2457869  65.3460111
  23.5889307  20.9520648  63.2847948  22.8701297  21.3684781  63.5520811
  23.9601670  21.5174887  62.7339586  23.5381239  21.0969930  63.2430755
  30.8335218  28.1735689  75.0998420  30.7931073  27.5285366  74.5143576
  31.6458536  28.1172306  75.4123832  30.9478372  28.0694656  75.0595369
  27.4242686  34.2254415  65.0023571  27.0103084  33.5628545  64.6127412
  28.1090060  34.3732274  64.4819265  27.4641057  34.1495073  64.8680068
  30.7907980  33.3844500  65.7547187  30.3924263  33.4946771  64.9868008
  30.1759199  33.5926567  66.3373747  30.6406869  33.4318068  65.7278487
  29.3635882  19.9918648  58.6221327  28.7700721  20.3135645  58.0705894
  29.4011159  19.1459744  58.4142433  29.2810271  19.9142976  58.5104098
  36.3229683  13.4431540  66.1549413  35.8160547  12.7360680  66.0870591
  37.1197116  13.1124729  66.2850490  36.3656922  13.2904692  66.1648408
  32.2393698  19.9498153  62.0523077  32.0107391  19.9730854  61.2101435
  32.4991775  19.1255620  62.1718088  32.2439886  19.8314233  61.9448275
  25.2938461  18.4874699  63.3477273  25.7695827  18.8491779  62.7127454
  24.7927060  19.1431166  63.6277416  25.2903820  18.6368888  63.2954014
  38.5249822  27.9596467  59.1390278  38.9083428  28.7087823  59.3688375
  37.7293936  28.2062287  58.8802267  38.4643605  28.1066161  59.1347851
  27.3365114  20.6315899  56.7150657  27.7164079  20.6495528  55.9301772
  26.5957710  21.0769888  56.5941504  27.2833952  20.6997673  56.5814225
  34.9650405  18.9398090  62.3026236  34.9644631  18.7846746  63.1610512
  34.7606585  19.7861077  62.2467621  34.9350182  19.0418711  62.4214175
  17.0267675  22.3637874  66.7185052  16.8489437  21.9114483  67.4439968
  16.7386698  23.1664036  66.9023530  16.9580629  22.4160432  66.8528555
  32.6891257  23.6195592  65.9562442  33.1844922  22.9018587  65.9166463
  31.8791032  23.3166389  65.8416929  32.6435150  23.4693238  65.9336168
  28.1349868  27.4693405  58.1059447  27.3261191  27.1460078  58.0592756
  28.6424777  26.7626627  58.0387696  28.0899535  27.3174721  58.0889741
  18.7640145  24.8965598  63.8306811  17.8985665  24.8851289  63.7189582
  18.8638961  24.7095821  64.6777950  18.6514312  24.8671659  63.9395756
  34.7543075  26.3699279  68.6439571  35.1798147  25.8473701  68.0909996
  34.3899995  26.9680117  68.1228194  34.7629678  26.3809506  68.4848581
  24.3897155  34.6663497  67.4036917  24.7043714  35.4799885  67.4114698
  24.7990569  34.2813715  68.0719076  24.4965253  34.7292199  67.5041008
  31.3421675  30.0833543  64.9740729  31.8132853  30.7973806  65.1430714
  31.6781853  29.4832294  65.5100598  31.4616790  30.1005008  65.0773105
  33.4298659  31.6934857  77.1532801  33.5395625  30.9043417  77.5089548
  33.7589556  31.6040793  76.3507139  33.4951065  31.5640710  77.0875191
  31.9795621  29.8751478  71.7368421  31.4316567  29.2509361  71.4688487
  32.4408650  30.0645750  71.0212501  31.9662831  29.8110528  71.5918852
  34.7889486  17.9436832  69.1219614  34.2052474  18.4446039  68.7097181
  35.1093780  17.4366388  68.4883937  34.7502661  17.9428667  68.9678121
  27.3284285  16.8577427  59.3978288  28.1499979  17.0275740  59.1559983
  26.8653936  17.0124688  58.6744586  27.3815447  16.9059160  59.2549933
  21.7310175  28.6136605  67.0515525  22.3355033  28.5732439  66.4229346
  21.5237488  29.4607757  67.0819581  21.7899073  28.7324608  66.9631642
  31.5453948  30.8802550  68.2677762  32.3652321  30.7365516  68.5294058
  31.2648025  31.5048749  68.8094200  31.6250691  30.9512902  68.3865702
  16.9661458  27.5971223  66.9214448  16.8685736  26.7867494  67.2304505
  17.7490327  27.5763016  66.5360716  17.0677594  27.4738313  66.9101311
  41.2167283  37.6243053  65.9873569  40.3605178  37.7851551  66.0382686
  41.2634936  36.7535117  66.0078630  41.0966394  37.5193855  65.9979635
  44.5260999  43.8929579  75.5934025  45.2327767  43.3981609  75.7220960
  44.7148935  44.3338660  74.8636683  44.6588905  43.8847929  75.5043071
  44.0619104  39.6835097  68.6305221  44.6075064  40.3620184  68.6899191
  44.0035980  39.5422558  67.7706802  44.1335018  39.7627099  68.5117281
  37.1793179  47.1724163  64.0173573  37.2803542  46.3624517  64.3270701
  36.5834924  47.0781109  63.3873252  37.1065717  47.0389191  63.9699812
  37.0193918  52.0901752  65.4188429  37.6631374  52.5314916  65.8084588
  37.3450174  51.2855178  65.3318688  37.1625747  52.0366947  65.4633907
  30.3758223  43.1944450  63.6425907  30.1408407  42.3612102  63.5358176
  30.5143864  43.4749115  62.8287108  30.3613885  43.1127953  63.5068262
  32.6748310  35.3630180  66.5410215  32.0553342  34.7722827  66.3720229
  32.5732174  35.9541615  65.9074538  32.5685986  35.3634263  66.4215204
  39.7716206  37.1029722  60.8742678  40.4696371  37.2817850  61.3664141
  40.0868539  36.5800061  60.2513067  39.9211543  37.0523494  60.8544688
  32.4017443  38.9082462  68.7853784  32.2776140  39.4944907  69.4203603
  33.0535728  38.4142658  69.0866059  32.4791093  38.9221266  68.9239713
  37.4275784  42.0844179  68.0641295  38.0724787  41.5916622  67.7452243
  37.6677561  42.2268965  68.8907373  37.5586369  42.0321621  68.1390828
  39.9661876  44.9299085  67.7148187  40.2485119  44.1350490  67.4934943
  40.6948036  45.4079672  67.7353248  40.1151439  44.8833682  67.6851202
  37.9443070  32.4722119  64.9563952  37.6146400  32.9233262  64.2867651
  37.2688071  32.3938282  65.5036959  37.7953506  32.5273254  64.9387176
  45.1519477  28.4607642  63.2013563  44.8372918  29.1511120  63.6333985
  44.6346419  28.4052424  62.4999064  45.0283948  28.5542530  63.1610512
  36.3831519  42.3575359  58.1158442  35.7988734  42.8625391  58.5224305
  35.9801614  42.1317746  57.3755034  36.2370823  42.3983608  58.0663467
  31.9375548  48.0730120  64.9182113  31.4543126  48.7980610  64.8941697
  32.7498866  48.3706250  65.0292271  31.9866295  48.2232474  64.9309392
  38.0089702  46.8662301  67.5231928  37.4916643  46.5069716  66.9193236
  38.7064093  46.3424476  67.5337994  38.0355283  46.7359989  67.4362186
  41.6653294  47.3157115  73.4848101  41.7536639  47.1283256  74.3326311
  42.0943006  46.6694545  73.0852947  41.7415396  47.1920123  73.5519852
  39.2323753  46.5988275  72.4665763  38.6694588  46.1860885  72.9905424
  39.9944777  46.5241181  72.8858906  39.2618202  46.5265676  72.6058763
  36.1499024  30.5334407  60.4386900  36.9044992  30.9012724  60.2003950
  35.9726558  30.9073961  61.2066080  36.2353502  30.6432595  60.5171789
  34.7919745  48.5886296  65.0702393  35.4940324  48.0738285  65.1275150
  34.7117228  48.9160448  65.8749268  34.8843505  48.5600523  65.1975185
  49.4433922  36.6828848  68.4834439  48.6062343  36.7531035  68.7182034
  49.4122153  36.6853342  67.6108742  49.3152205  36.6939075  68.3893987
  35.8398651  38.8261883  74.1982808  36.0119155  38.7167778  75.0468089
  36.3768009  39.4716289  73.9614000  35.9443655  38.9053885  74.2887905
  34.5056088  32.9404726  57.1365013  34.3231662  33.1576607  56.3106006
  35.3681701  33.0543739  57.1923628  34.6060678  32.9894624  57.0219500
  34.1170520  44.7792648  64.5788001  34.9559420  45.0115581  64.6261763
  34.1482289  43.9096960  64.5095036  34.2452238  44.6849595  64.5752646
  34.7423223  45.1993523  68.8801307  35.2821448  45.0564655  69.5504679
  34.0593170  45.5990274  69.2485333  34.7215377  45.2373194  69.0335728
  40.1855807  29.9431137  60.1714037  40.9141968  29.7647092  59.7252193
  40.2750700  30.7849217  60.3821215  40.3062470  30.0415015  60.1367555
  44.1664108  40.8784524  64.0746331  44.9221623  41.3116038  64.1135240
  44.2726433  40.2289294  64.6480967  44.2934279  40.8462008  64.1644357
  47.2044279  44.7057801  64.8248734  46.7679511  44.7094544  65.5807705
  46.8707195  45.3863300  64.3928311  47.0906899  44.8070257  64.8729566
  41.7773353  46.7466134  76.1491884  42.5613770  46.8596982  76.5147626
  41.5769947  45.9207271  76.3450570  41.8639378  46.6412854  76.2326270
  30.1460368  41.4193814  69.0335728  29.8798784  40.6032931  69.1926718
  30.1598932  41.4646970  68.1631244  30.1085091  41.3050719  68.9289210
  47.1241762  31.7471629  67.0678162  47.7667671  31.8169734  67.6540077
  47.3764783  31.0800852  66.5657704  47.2563894  31.6597978  67.0805441
  34.8958975  34.9572193  71.6802736  34.2030771  34.4869172  71.9263467
  35.5119302  34.7310497  72.2544443  34.8843505  34.8539324  71.8011888
  41.9343746  48.6576236  69.7958340  41.1358992  48.4175736  70.0532208
  42.3829758  48.7090629  70.5425387  41.8818357  48.6298627  69.9443264
  30.5553782  42.2052594  66.3147472  30.3729355  42.1799480  65.4619765
  31.2903451  42.6751532  66.3536381  30.6367846  42.2713956  66.1945391
  46.6253456  42.4404104  63.4580360  46.8609045  42.5849303  62.6307211
  46.7743020  43.2046512  63.8511874  46.6819259  42.5743158  63.3943964
  33.6199534  38.9237597  72.8229581  34.3439506  38.9090627  73.3094476
  33.7215670  39.6332952  72.3251549  33.7417743  39.0262300  72.8208368
  40.9944483  42.4036681  77.6878528  40.2017464  42.7180193  77.8731148
  41.1093410  42.6188150  76.8499313  40.8939894  42.4820518  77.5916863
  41.9228276  42.3056885  72.6263825  42.4967138  41.6684129  72.7812389
  41.8443080  42.3060967  71.7573482  41.9961511  42.2121996  72.5210236
  30.5224692  39.0846094  66.4646539  31.0998195  38.9482545  67.1038784
  29.8238754  38.6281879  66.7192123  30.5045714  38.9968361  66.5968829
  37.2791995  40.7380150  64.6785022  37.0211239  39.9051885  64.6516322
  37.3340477  40.9637763  63.8377523  37.2491772  40.6477921  64.5505159
  42.3593045  32.8408601  64.7789115  41.6549371  32.3517786  64.9373034
  42.4078019  32.8531075  63.9077559  42.2623096  32.7698249  64.6728455
  36.2526707  38.2917913  65.1649917  35.6776298  38.4510081  65.8013878
  35.8762383  37.6553322  64.7018367  36.1129519  38.2215725  65.1904475
  39.9199995  36.7641262  70.0242295  39.5314428  36.3395480  69.3694487
  39.2554694  37.0123411  70.5319322  39.7646923  36.7379983  70.0030163
  49.5623264  36.5216266  62.7990125  49.3059829  35.7096208  62.6088008
  50.4052578  36.5293834  62.5720313  49.6489290  36.4028264  62.7374942
  25.9983526  37.9357987  63.1794358  26.0843777  37.5589856  63.9607887
  26.6259323  37.5618433  62.7014316  26.1040077  37.8243469  63.2239835
  43.7426357  30.4615891  67.5366280  44.1236869  29.7794062  67.9234154
  42.9389641  30.1725493  67.3541944  43.6802819  30.3182939  67.5670335
  47.2448424  43.6765863  72.6348678  47.0087061  42.8453927  72.5160739
  47.8891653  43.6251470  73.2203522  47.3043095  43.5463550  72.7034572
  36.8946842  44.4661384  63.3491414  37.5320789  44.2273131  63.8943208
  37.3201913  44.6698543  62.6144575  37.0523008  44.4612394  63.3208572
  31.5859484  46.7049720  67.2325718  31.6263630  46.9764571  66.4045498
  32.1454008  47.2291628  67.6483506  31.6742830  46.8225475  67.1717606
  37.5349657  39.6863674  57.6866304  37.9194810  39.4671380  58.4382849
  37.2861277  40.5126619  57.8167380  37.5551729  39.7761820  57.8167380
  37.7018197  32.9670089  77.4028888  37.3871638  33.7369652  77.1398451
  37.3808130  32.4040345  76.8181115  37.6077116  32.9980357  77.2770238
  48.2684844  43.4610311  68.6976972  47.9630661  44.1938368  69.0590288
  47.5491060  43.0548241  68.4169758  48.1172187  43.5092044  68.7090110
  39.2768314  44.9433806  65.0285201  39.3507322  44.7808978  65.8827051
  40.0937820  45.1323996  64.7845682  39.4084672  44.9470549  65.1183226
  53.9686637  40.1003312  68.0245317  53.9011137  40.1199271  67.1547903
  53.9542299  40.9433639  68.2500987  53.9565393  40.2277047  67.9297794
  33.0374070  45.2891669  62.0579644  32.2112188  45.5353406  61.9313923
  33.0986062  45.2103750  62.9241702  32.9248237  45.3136618  62.1668589
  35.2550094  31.3560610  63.0175084  34.3872520  31.4283210  63.0832694
  35.5425299  32.1582689  63.2063059  35.1689842  31.4854757  63.0549851
  44.3782983  31.5038470  71.3486406  45.1236575  31.3148280  70.9349832
  43.9620288  32.0296708  70.7900262  44.4267957  31.5540615  71.2050979
  51.7545254  38.8747698  66.2991911  52.3053175  38.2415767  66.5389003
  51.7389369  39.4063091  66.9907415  51.8330450  38.8596646  66.4370769
  38.4067645  42.7086295  70.8451805  37.9079338  43.4202063  70.9236693
  39.2167869  43.0286962  70.8069967  38.4523751  42.8613144  70.8508373
  35.7578815  49.8835932  62.8258824  35.5379111  49.5933287  63.6185491
  35.5373337  49.2250887  62.2976736  35.6926409  49.7435640  62.8647732
  34.6695762  41.9709248  65.0914525  34.3809011  41.3446720  65.6260253
  35.5379110  41.9129536  65.1579206  34.7556014  41.8696793  65.1805480
  45.4573660  37.1144032  65.4096507  45.1138426  36.3934367  65.7603757
  45.5566703  36.9057883  64.5674866  45.4215703  36.9768235  65.3368187
  37.9246771  51.2565322  61.6089516  38.5770829  50.7241764  61.8380542
  37.2272380  50.9033974  61.9957390  37.9177489  51.1254845  61.7001684
  34.8728036  43.6104500  61.0156890  35.6274004  43.9917539  61.2292353
  34.2798648  44.0615643  61.4703587  34.8964749  43.7333327  61.1139769
  37.3334703  35.5667340  76.1414103  36.5234478  35.8725120  76.0303945
  37.8109389  36.2872922  76.2566687  37.2838181  35.7181941  76.1421174
  36.1926262  44.7813061  66.3897006  35.6707016  44.9213353  67.0748871
  36.5800283  44.0223725  66.5799123  36.1729963  44.6898585  66.5198082
  33.1817446  34.8318870  60.4591961  32.8942242  34.4620140  59.7223908
  33.8687915  35.3013725  60.1975665  33.2406344  34.8465839  60.3107036
  37.6192588  41.8117080  61.7878497  37.4235371  42.4191814  61.1938800
  37.8426933  41.1185024  61.3070171  37.6227229  41.7994605  61.6294578
  36.0171118  38.6971818  61.9059365  36.7393770  38.8612976  61.4463171
  35.5379111  39.4181483  61.7998705  36.0534849  38.8270047  61.8224979
  43.9764625  35.0335617  67.2856050  43.1375726  35.0596895  67.0494313
  44.0468993  35.6806352  67.8661397  43.8633019  35.1331742  67.3365167
  33.6678735  41.1029890  71.0113505  34.1799832  41.3814143  70.3622265
  33.3815077  41.8419184  71.3776318  33.7013598  41.2532244  70.9703383
  42.4233904  31.9320994  62.0183666  43.1260257  31.7328742  61.5403624
  42.1578092  31.1596936  62.3252510  42.4880536  31.7883960  61.9929108
  47.8522149  40.2403603  64.5717292  47.7656124  40.3959029  65.4252071
  47.3972629  40.8841679  64.1976697  47.7725406  40.3579358  64.6424399
  30.7545641  35.6100082  61.3077242  30.8561777  36.4126243  61.6358217
  31.5501528  35.4087418  61.0100322  30.8873547  35.6985981  61.3112597
  37.1862460  33.1956279  71.0714547  36.9945657  33.2111413  71.9213970
  38.0361056  33.3919953  71.0481202  37.2838182  33.2270630  71.1937841
  31.5709373  35.7247260  69.0498363  31.4294865  34.8731201  69.1742871
  31.8549936  35.7675921  68.2260569  31.5917219  35.6047010  68.9465987
  41.7247965  37.5614350  63.1942851  41.4782680  37.4810101  64.0279640
  42.0533088  36.7767818  63.0005379  41.7369209  37.4340616  63.2890375
  45.6196014  44.2697710  66.9829633  45.4810373  44.9678756  67.4878375
  44.8396012  44.1146366  66.6265814  45.4839241  44.3497876  67.0055907
  43.9574099  40.5694085  73.2352014  43.9522138  39.6973902  73.2394441
  44.6635093  40.7682254  72.7621470  44.0619103  40.4697959  73.1659050
  37.6844993  40.2971069  72.6065835  37.8288368  40.8772277  71.9708945
  38.0320641  40.6747366  73.3115689  37.7572454  40.4391773  72.6164829
  39.8564910  39.4961237  70.3890966  39.1088224  39.6892252  69.9839244
  40.0106435  38.6706457  70.1515087  39.7687338  39.4026349  70.2936372
  36.7572748  48.4873841  69.4726861  36.9062311  47.9276757  68.8200266
  37.5372750  48.5665843  69.8559380  36.8946841  48.4159406  69.4323810
  39.2826048  48.6588484  70.7511352  39.2069719  47.9897294  71.3062140
  39.2115907  49.3606272  71.2652018  39.2606655  48.6633391  70.9088200
  40.0966687  33.3911788  71.2786370  40.5539301  34.1235762  71.4059162
  40.1723016  32.9678253  72.0373626  40.1757657  33.4369026  71.4087446
  32.3399678  33.6377608  72.3675814  31.8041868  33.0257966  72.6836581
  32.4017443  34.2125744  73.0209480  32.2695311  33.6324536  72.5111240
  44.5694013  26.5701663  65.1480213  44.6877581  27.0278127  64.4147515
  44.3956189  25.7646925  64.8616430  44.5613184  26.5195435  64.9981146
  37.9749065  35.3813892  68.1228194  37.1845140  35.2005352  68.4445530
  38.3709688  34.6040845  68.1058488  37.9165941  35.2401353  68.1680742
  43.3592751  43.0156322  65.8487640  42.6837753  42.7841554  66.3501027
  43.3685127  42.4077505  65.2229745  43.2611256  42.8915247  65.8303792
  40.4886895  37.8574151  72.6051693  40.4246036  38.7184108  72.4771829
  40.6284083  37.5406144  71.8047244  40.5002365  37.9374318  72.4679906
  39.1705989  40.5506291  66.7467896  38.7468238  40.7510790  66.0106914
  38.9950844  39.7035139  66.8592196  39.0816870  40.4555072  66.6541586
  38.6717683  52.0656803  69.2089353  39.1613613  51.3667593  69.0265018
  38.1001915  51.7680673  69.7965410  38.6602213  51.9183027  69.2690394
  34.4588434  41.0458342  62.1795868  34.6153053  40.9805145  63.0351860
  34.7989027  41.8206895  61.9674548  34.5321669  41.1507540  62.2750462
  44.8684686  44.6318873  78.1616144  45.6819551  44.3604022  78.3221276
  44.7079652  44.3326413  77.3576340  44.9654635  44.5473799  78.0661550
  42.1456848  35.3152530  71.1011532  42.3598818  34.6763444  70.5474886
  41.5290747  35.7598354  70.6719394  42.0862177  35.2862674  70.9561963
  43.5561516  48.2371278  62.5465753  43.1641308  47.9337994  61.8288619
  43.7114588  49.0740368  62.3570707  43.5215106  48.3155115  62.4122250
  31.0322696  38.2293292  62.4956635  31.4121660  38.6477837  61.8316903
  30.4578060  38.8106748  62.8025479  31.0034020  38.3771151  62.4433376
  44.3095936  36.9241595  72.0394839  43.4972618  36.6167486  72.1208012
  44.7685871  36.4440595  72.6037551  44.2576321  36.8078088  72.1349433
  43.7201191  44.8021267  62.4871783  43.3615846  44.9735910  63.2635816
  43.2339902  45.2634473  61.9299782  43.5959888  44.8960238  62.5197052
  41.5371577  28.4252466  66.0898875  40.6665135  28.3991187  66.0432184
  41.7911918  28.2529658  65.2724720  41.4465137  28.3962609  65.9619011
  41.4049444  38.3301667  76.8223541  41.8749075  38.9543783  77.2091415
  41.4511324  37.6618642  77.3816756  41.4817319  38.3236347  76.9623613
  38.5620717  30.4358694  67.5472345  38.0459206  29.7438886  67.6723924
  38.0014646  31.1029471  67.4934944  38.4027230  30.4321952  67.5578411
  40.6312951  30.9751654  69.3765198  40.2444704  31.0000686  70.1578728
  40.1445888  30.4093333  68.9239714  40.5025460  30.8947405  69.4253101
  44.8805930  45.6925163  73.4338984  45.5185651  45.1985359  73.1001440
  44.2380022  45.6202564  72.8491211  44.8800157  45.6084172  73.2981339
  46.6062930  37.5414309  68.0004900  46.1790538  37.4540658  67.2452999
  45.9688983  37.6492085  68.5859744  46.4492537  37.5446969  67.9750341
  40.2970092  27.8618640  71.6675458  40.9263210  28.3978940  71.3896528
  40.4655955  27.7695999  72.5189023  40.4147887  27.9280002  71.7523986
  40.0984007  32.6489834  73.9401869  40.9257437  32.3774983  73.9960484
  40.1191853  33.4450676  74.2965687  40.2236857  32.7269589  74.0017052
  44.9360187  46.3844971  70.0744341  45.7252565  46.0334036  70.1946423
  45.1103785  47.1981360  69.8120975  45.0780468  46.4530829  70.0532209
  34.6753497  39.7953697  67.1272130  33.8341504  39.6957571  67.3351024
  34.8843505  40.5649177  67.4786450  34.5818190  39.8945741  67.2099445
  32.1529064  37.4173234  64.9556880  31.7585762  37.4916246  64.1806990
  31.5969181  37.8031180  65.5065242  32.0131876  37.4855009  64.9224540
  43.7894011  30.3954528  64.6360759  43.9943604  30.3276836  65.4817757
  43.4620435  31.2013349  64.5681937  43.7709259  30.5040469  64.7520415
  38.4870162  37.7235096  66.3769727  38.1833300  37.1691085  66.9780135
  37.7849583  37.9027306  65.8897762  38.3386372  37.6679879  66.3939433
  37.5436259  35.0335616  60.9414429  37.8195993  34.3154529  60.5291997
  38.1434928  35.6320536  60.7335535  37.6729524  35.0155987  60.8495190
  36.5488513  44.9384817  71.0841825  36.4408868  44.9486879  71.9503883
  36.7584295  45.7639597  70.8946779  36.5638624  45.0625892  71.1845917
  47.0427699  30.9486292  64.1163525  46.4302012  31.4356695  64.5017257
  47.1391873  30.2729783  64.6601176  46.9665596  30.9204601  64.2542383
  41.0446780  32.7049134  59.2161024  41.4990526  32.8759694  59.9408869
  41.5186825  32.0917244  58.8158800  41.1815100  32.6400019  59.2634786
  34.5662305  42.1897460  68.5463763  33.9750238  42.8306958  68.5166778
  35.3283329  42.6135077  68.5195062  34.5910566  42.3473298  68.5378910
  34.9622928  33.3499457  69.2131780  35.4224409  33.4238387  69.9506904
  35.0079035  34.1480711  68.8631602  35.0373483  33.4793604  69.2704537
  36.6106278  34.0166152  73.7803807  36.2191843  33.3699499  74.2159585
  36.7792140  34.6077587  74.3998063  36.5777188  34.0080420  73.9366513
  50.6852727  42.0203229  69.5441041  50.7435850  42.4689878  70.2901017
  50.0519194  42.4302042  69.1071121  50.6004022  42.1476964  69.5893589
  44.3251821  47.6406771  65.9795787  44.1271510  48.1297586  65.2851998
  43.7039532  47.8448013  66.5579921  44.2039386  47.7423309  65.9619010
  38.3859800  39.4091668  60.3206031  39.1301845  39.7965944  60.5588981
  38.5320496  38.5649093  60.4846519  38.5170385  39.3422141  60.3800001
  40.3039375  31.2041927  65.3537893  39.4575420  31.3764735  65.2279243
  40.3010508  30.3991271  65.6903721  40.1786525  31.1102956  65.3849020
  41.3737675  34.9817141  66.2199951  40.8997630  34.4558903  66.7305262
  41.7455811  34.4346614  65.6514812  41.3587564  34.8233138  66.2115098
  31.7510706  36.9788648  71.5883497  32.6136319  36.8784357  71.5020826
  31.4202489  36.3983357  71.0269069  31.8295902  36.8780275  71.4928902
  47.6374406  40.0419517  67.6306731  47.3972629  39.2025932  67.6349158
  48.1166413  40.1219684  68.3547505  47.6726590  39.9300917  67.7381534
  49.6379593  36.8220974  65.5835990  49.3989363  36.7816808  64.7456775
  49.8013494  37.6692126  65.7101711  49.6269897  36.9413059  65.4789472
  46.2425623  41.2070923  71.5141036  46.9659822  40.7543450  71.3352055
  45.9775586  41.4875589  70.7313363  46.3106896  41.1821892  71.3719751
  35.1112492  35.8031097  68.2493915  34.4865562  35.8149489  67.6419867
  34.7758086  36.2791272  68.8985155  34.9697983  35.8749614  68.2550483
  31.8238167  43.8631557  69.6897679  31.2938092  43.1723996  69.7392654
  32.0963260  43.8541742  68.8610388  31.7862889  43.7598689  69.5745095
  42.0244413  41.3054802  69.6636051  41.4101406  40.7612852  69.9584686
  42.5411698  40.7919038  69.1841867  42.0100075  41.1491211  69.6360279
  41.2640710  42.3759072  67.3980349  40.8368318  41.7508790  66.9645785
  41.2565654  42.0933994  68.2239356  41.1999851  42.2411852  67.4560177
  34.3803237  37.4124245  70.4668783  34.5396724  36.6567569  70.8720505
  34.1996131  37.9615184  71.1209521  34.3768596  37.3818058  70.6231489
  42.3223540  29.5785480  71.0219573  41.8264101  29.7749154  70.3311139
  43.0792602  29.9778149  70.8508374  42.3610365  29.6663214  70.8939709
  39.5926420  33.2527826  67.6122883  39.6168907  32.7187938  66.9235663
  39.8437893  32.7445135  68.2748474  39.6336338  33.0988730  67.6087528
  27.1034009  40.5359321  67.0466027  26.9977458  40.4906165  66.1818111
  26.3534229  40.8813102  67.3280312  26.9769612  40.5800229  66.9603357
  35.8727742  31.9798644  66.9928628  35.9126113  32.4807851  67.7063335
  35.0477406  32.0709038  66.7234551  35.7567268  32.0680461  67.0579166
  38.0557355  41.5459384  75.0948922  37.2052985  41.6831099  75.2306567
  38.2185482  40.8123163  75.5396624  37.9541218  41.4573486  75.1804521
  37.2942105  38.4959154  69.2902527  36.4634035  38.6632972  69.0837775
  37.2393622  38.1195105  70.0751412  37.1631520  38.4648886  69.3751055
  35.1025888  31.9868047  74.9258937  35.7278592  31.4430180  75.1988370
  34.6476368  31.5062965  74.3566728  35.1274149  31.8357529  74.8820531
  35.6678149  36.7714746  59.8192644  35.8081110  37.2687210  60.5221286
  36.1660682  36.0701040  59.9606858  35.7619230  36.7416725  59.9444223
  35.6978371  37.6381857  57.1485221  36.3323451  38.2342282  57.0834683
  35.7803982  37.3385314  57.9631091  35.8034922  37.6822765  57.2588308
  48.6760937  40.1697334  70.0171585  49.2678777  40.8094585  70.0489783
  49.1119932  39.4720371  70.3063652  48.8279368  40.1615685  70.0652418
  37.2757354  33.5695832  57.1230663  37.5973195  33.0898915  56.4689925
  37.5384298  34.3795478  56.9321475  37.3623380  33.6185730  56.9986155
  40.5054327  44.5914707  70.6429479  39.9979418  45.1450553  71.0870110
  40.2080973  44.6522996  69.8248254  40.3859212  44.6821018  70.5877936
  42.6716509  32.9568026  69.4854142  43.0971581  32.5040553  68.8737669
  42.0573502  32.4028097  69.7618930  42.6445155  32.8082002  69.4359167
  32.2031359  39.8349698  60.4174767  32.7123589  40.4314205  60.7986073
  32.6765632  39.5675671  59.7351187  32.3474735  39.8835513  60.3729290
  41.1110732  29.4283126  62.8944719  40.4679050  29.2780772  63.4629858
  40.7710139  29.1825471  62.1293824  40.9655809  29.3695248  62.8647734
  39.7496812  49.5239265  67.5486486  39.5262467  48.7658094  67.9170512
  39.2606656  49.5537286  66.8266926  39.6440261  49.4161489  67.4963227
  45.8638206  33.8398436  65.2265101  46.2165816  33.4128159  65.9010900
  45.0053007  33.7549280  65.3566177  45.7887651  33.7643177  65.3460111
  34.5621891  36.4705956  63.2847948  33.8433880  36.8870089  63.5520811
  34.9334253  37.0360195  62.7339586  34.5113823  36.6155238  63.2430755
  43.8621472  37.1033805  69.1749943  43.8419399  36.9217100  70.0284722
  43.9100673  37.9745824  69.1509527  43.8656113  37.2050343  69.2973238
  41.8067802  43.6920997  75.0998420  41.7663657  43.0470674  74.5143576
  42.6191120  43.6357614  75.4123832  41.9210955  43.5879964  75.0595369
  38.3975269  49.7439723  65.0023571  37.9835668  49.0813853  64.6127412
  39.0822643  49.8917582  64.4819265  38.4373641  49.6680381  64.8680068
  41.7640563  48.9029808  65.7547187  41.3656847  49.0132079  64.9868008
  41.1491783  49.1111875  66.3373747  41.6139453  48.9503376  65.7278487
  40.3368465  35.5103956  58.6221327  39.7433305  35.8320953  58.0705894
  40.3743743  34.6645051  58.4142433  40.2542854  35.4328284  58.5104098
  47.2962266  28.9616848  66.1549413  46.7893131  28.2545988  66.0870591
  48.0929700  28.6310037  66.2850490  47.3389505  28.8090000  66.1648408
  37.4945510  37.3217934  71.6548177  36.9824413  36.7139117  72.0133209
  37.3225007  38.0374526  72.1222153  37.3935147  37.3381233  71.7764401
  32.3411225  35.7655509  74.3050539  32.1713815  36.4256884  73.7598746
  31.8977175  35.9762070  75.0263028  32.2510559  35.8941491  74.3312169
  36.2671044  34.0060007  63.3477273  36.7428411  34.3677087  62.7127454
  35.7659644  34.6616474  63.6277416  36.2636403  34.1554196  63.2954014
  41.3714581  35.2442178  74.0950433  41.9286011  35.0155988  73.4628898
  41.0475646  36.0047844  73.8185645  41.4060991  35.3226015  73.9606930
  29.2413290  38.6702374  69.5639029  28.6940009  38.0003020  69.6819897
  30.0305668  38.3032222  69.6282496  29.2765473  38.5167361  69.5907730
  39.0897698  38.3309832  75.0602440  39.8409025  38.6461508  75.3741994
  39.2820274  38.1289002  74.2336362  39.2289112  38.3477213  74.9845836
  45.9382988  34.4583398  62.3026236  45.9377215  34.3032054  63.1610512
  45.7339168  35.3046385  62.2467621  45.9082766  34.5604019  62.4214175
  28.0000259  37.8823182  66.7185052  27.8222020  37.4299791  67.4439968
  27.7119281  38.6849344  66.9023530  27.9313212  37.9345740  66.8528555
  43.6623840  39.1380900  65.9562442  44.1577505  38.4203895  65.9166463
  42.8523616  38.8351697  65.8416929  43.6167733  38.9878546  65.9336168
  29.7372729  40.4150906  63.8306811  28.8718248  40.4036596  63.7189582
  29.8371545  40.2281129  64.6777950  29.6246896  40.3856967  63.9395756
  45.7275659  41.8884587  68.6439571  46.1530731  41.3659009  68.0909996
  45.3632579  42.4865425  68.1228194  45.7362262  41.8994814  68.4848581
  35.3629739  50.1848805  67.4036917  35.6776298  50.9985193  67.4114698
  35.7723152  49.7999023  68.0719076  35.4697837  50.2477507  67.5041008
  42.3154258  45.6018851  64.9740729  42.7865437  46.3159114  65.1430714
  42.6514437  45.0017602  65.5100598  42.4349374  45.6190316  65.0773105
  44.4031243  47.2120165  77.1532801  44.5128209  46.4228725  77.5089548
  44.7322140  47.1226101  76.3507139  44.4683649  47.0826018  77.0875191
  39.2323753  30.3746322  71.9298823  39.3651659  29.5777315  72.2579799
  39.6168906  30.9012725  72.5097099  39.3080082  30.3346239  72.0642326
  42.9528205  45.3936786  71.7368421  42.4049151  44.7694669  71.4688487
  43.4141234  45.5831058  71.0212501  42.9395414  45.3295836  71.5918852
  42.3056109  27.2976648  68.5279917  41.5002072  27.1874378  68.8447755
  42.1762844  27.3989104  67.6709782  42.1676241  27.2960318  68.4487957
  45.7622069  33.4622140  69.1219614  45.1785058  33.9631347  68.7097181
  46.0826363  32.9551696  68.4883937  45.7235244  33.4613975  68.9678121
  38.3016868  32.3762735  59.3978288  39.1232563  32.5461048  59.1559983
  37.8386519  32.5309996  58.6744586  38.3548031  32.4244468  59.2549933
  36.8912200  30.3705497  70.1776717  37.4356613  30.0296624  70.7681059
  36.9449136  31.2290959  70.3198002  36.9801320  30.4460756  70.2858591
  32.7042759  44.1321913  67.0515525  33.3087616  44.0917747  66.4229346
  32.4970071  44.9793065  67.0819581  32.7631656  44.2509916  66.9631642
  42.5186531  46.3987858  68.2677762  43.3384905  46.2550824  68.5294058
  42.2380609  47.0234057  68.8094200  42.5983274  46.4698210  68.3865702
  27.9394041  43.1156531  66.9214448  27.8418319  42.3052802  67.2304505
  28.7222911  43.0948324  66.5360716  28.0410178  42.9923621  66.9101311
  58.9900181  54.0552710  61.2320639  58.9594186  54.9097347  61.4038908
  59.5881530  53.7548003  61.7906782  59.0737339  54.1369206  61.3395441
  46.5741006  62.6791079  61.7510801  45.8223906  62.3006617  61.5226846
  47.0227018  62.7109512  61.0029611  46.5290673  62.6276686  61.6068303
  52.0265966  63.1016448  57.1796348  51.6917334  63.7793370  56.7440570
  52.5392836  62.7121760  56.5913220  52.0531547  63.1441027  57.0283139
  51.5670257  65.0530717  63.1207459  51.9509637  65.6217616  62.5812235
  51.5029398  64.3280227  62.6413276  51.6143684  65.0306180  62.9701322
  55.0351687  55.2020405  68.6305221  55.5807647  55.8805491  68.6899191
  54.9768564  55.0607866  67.7706802  55.1067602  55.2812407  68.5117281
  48.1525762  62.6909471  64.0173573  48.2536125  61.8809825  64.3270701
  47.5567507  62.5966417  63.3873252  48.0798301  62.5574499  63.9699812
  56.8116756  56.6305012  59.5038949  56.6956282  57.3812698  59.9331087
  57.6072643  56.3728965  59.7535036  56.9121345  56.7039859  59.6043040
  47.9926502  67.6087060  65.4188429  48.6363957  68.0500224  65.8084588
  48.3182757  66.8040486  65.3318688  48.1358330  67.5552255  65.4633907
  41.3490807  58.7129758  63.6425907  41.1140991  57.8797410  63.5358176
  41.4876447  58.9934423  62.8287108  41.3346469  58.6313261  63.5068262
  43.6480894  50.8815488  66.5410215  43.0285926  50.2908135  66.3720229
  43.5464758  51.4726923  65.9074538  43.5418569  50.8819571  66.4215204
  48.6947082  60.6199035  60.7908291  49.0162923  61.1604242  60.1869599
  49.3419178  60.0495806  60.9230581  48.8373137  60.6158210  60.7215326
  50.7448790  52.6215030  60.8742678  51.4428954  52.8003157  61.3664141
  51.0601122  52.0985369  60.2513067  50.8944127  52.5708802  60.8544688
  43.3750027  54.4267770  68.7853784  43.2508724  55.0130215  69.4203603
  44.0268311  53.9327966  69.0866059  43.4523676  54.4406574  68.9239713
  50.9336725  59.0085475  60.8622469  51.3730360  58.4002575  61.3077242
  50.7841388  58.6292848  60.0907934  50.9758191  58.8623946  60.8141637
  48.4008368  57.6029487  68.0641295  49.0457371  57.1101930  67.7452243
  48.6410145  57.7454273  68.8907373  48.5318953  57.5506929  68.1390828
  50.9394459  60.4484393  67.7148187  51.2217702  59.6535798  67.4934943
  51.6680620  60.9264980  67.7353248  51.0884023  60.4018990  67.6851202
  54.5346062  57.3612656  57.8153238  54.4497357  58.2173623  57.9602807
  55.0230445  57.0856980  58.4835398  54.5934959  57.4469978  57.9355320
  56.1252061  43.9792949  63.2013563  55.8105502  44.6696428  63.6333985
  55.6079003  43.9237732  62.4999064  56.0016531  44.0727838  63.1610512
  55.4664495  53.9797450  59.3150974  54.9375966  54.1957084  59.9748280
  55.9889515  54.6733589  59.2351943  55.4652948  54.1140587  59.4006573
  60.9212548  59.5543755  64.6884018  60.0910251  59.7654399  64.8517435
  60.8721800  58.7280809  64.4126302  60.7919283  59.4633361  64.6721384
  47.3564103  57.8760667  58.1158442  46.7721318  58.3810699  58.5224305
  46.9534198  57.6503054  57.3755034  47.2103406  57.9168915  58.0663467
  42.9108131  63.5915428  64.9182113  42.4275709  64.3165918  64.8941697
  43.7231449  63.8891558  65.0292271  42.9598879  63.7417782  64.9309392
  48.9822285  62.3847609  67.5231928  48.4649227  62.0255024  66.9193236
  49.6796676  61.8609783  67.5337994  49.0087866  62.2545297  67.4362186
  51.8141317  54.1226319  56.5927362  52.0537321  54.3304303  55.7802705
  52.1357158  53.3183828  56.7016307  51.8978475  54.0340420  56.4887915
  45.7652328  64.1071604  65.0702393  46.4672908  63.5923593  65.1275150
  45.6849812  64.4345756  65.8749268  45.8576089  64.0785830  65.1975185
  60.4166506  52.2014156  68.4834439  59.5794927  52.2716343  68.7182034
  60.3854737  52.2038650  67.6108742  60.2884788  52.2124383  68.3893987
  46.8131235  54.3447191  74.1982808  46.9851739  54.2353086  75.0468089
  47.3500593  54.9901597  73.9614000  46.9176239  54.4239193  74.2887905
  45.0903104  60.2977956  64.5788001  45.9292003  60.5300889  64.6261763
  45.1214873  59.4282268  64.5095036  45.2184821  60.2034903  64.5752646
  45.7155807  60.7178831  68.8801307  46.2554032  60.5749962  69.5504679
  45.0325753  61.1175582  69.2485333  45.6947961  60.7558502  69.0335728
  55.1396692  56.3969832  64.0746331  55.8954207  56.8301346  64.1135240
  55.2459016  55.7474602  64.6480967  55.2666862  56.3647316  64.1644357
  58.1776863  60.2243109  64.8248734  57.7412095  60.2279852  65.5807705
  57.8439778  60.9048608  64.3928311  58.0639483  60.3255565  64.8729566
  41.1192952  56.9379122  69.0335728  40.8531367  56.1218239  69.1926718
  41.1331516  56.9832278  68.1631244  41.0817674  56.8236027  68.9289210
  58.0974346  47.2656937  67.0678162  58.7400254  47.3355042  67.6540077
  58.3497366  46.5986160  66.5657704  58.2296478  47.1783286  67.0805441
  45.8691558  50.4757501  71.6802736  45.1763355  50.0054480  71.9263467
  46.4851886  50.2495805  72.2544443  45.8576088  50.3724632  71.8011888
  61.3121209  56.9424029  63.7168371  61.9737643  56.3814698  63.6164280
  60.6712621  56.4476060  64.0421062  61.3150077  56.7860438  63.7500711
  52.1998017  60.2394161  56.0249294  52.6149165  59.9079184  55.3333790
  51.3689946  60.0063063  55.8969431  52.1386026  60.1565417  55.9040142
  41.5286366  57.7237902  66.3147472  41.3461939  57.6984788  65.4619765
  42.2636035  58.1936839  66.3536381  41.6100429  57.7899264  66.1945391
  57.5986040  57.9589412  63.4580360  57.8341629  58.1034610  62.6307211
  57.7475603  58.7231820  63.8511874  57.6551843  58.0928466  63.3943964
  44.5932117  54.4422904  72.8229581  45.3172090  54.4275935  73.3094476
  44.6948254  55.1518260  72.3251549  44.7150326  54.5447608  72.8208368
  59.4276497  56.7991078  61.2949964  59.7584714  57.3318718  60.6890059
  60.0009585  56.8529965  61.9511915  59.5610176  56.8860646  61.3027745
  54.6408386  54.6455980  61.9773544  54.7355240  55.3845274  62.4313169
  54.0167229  54.2173456  62.4108108  54.5617416  54.6917301  62.1081691
  41.4957276  54.6031402  66.4646539  42.0730779  54.4667853  67.1038784
  40.7971338  54.1467186  66.7192123  41.4778297  54.5153669  66.5968829
  54.8931407  56.4904720  55.2110496  54.8111569  56.5606907  56.0765483
  55.5311127  57.0534464  55.0194236  54.9751244  56.5843691  55.3100445
  48.2524578  56.2565458  64.6785022  47.9943822  55.4237193  64.6516322
  48.3073061  56.4823071  63.8377523  48.2224356  56.1663229  64.5505159
  47.2259290  53.8103220  65.1649917  46.6508882  53.9695389  65.8013878
  46.8494967  53.1738630  64.7018367  47.0862103  53.7401033  65.1904475
  50.8932579  52.2826570  70.0242295  50.5047012  51.8580787  69.3694487
  50.2287277  52.5308719  70.5319322  50.7379507  52.2565291  70.0030163
  60.5355848  52.0401574  62.7990125  60.2792413  51.2281516  62.6088008
  61.3785162  52.0479142  62.5720313  60.6221873  51.9213572  62.7374942
  36.9716109  53.4543295  63.1794358  37.0576361  53.0775164  63.9607887
  37.5991907  53.0803741  62.7014316  37.0772660  53.3428777  63.2239835
  54.7158940  45.9801198  67.5366280  55.0969452  45.2979370  67.9234154
  53.9122225  45.6910801  67.3541944  54.6535402  45.8368247  67.5670335
  51.9971517  56.5125174  58.2219102  52.8112156  56.8040067  58.1101874
  51.9330658  55.8585037  57.6477395  52.1074256  56.4590369  58.1207940
  47.8679425  59.9846692  63.3491414  48.5053372  59.7458439  63.8943208
  48.2934497  60.1883851  62.6144575  48.0255592  59.9797702  63.3208572
  42.5592068  62.2235028  67.2325718  42.5996213  62.4949879  66.4045498
  43.1186592  62.7476936  67.6483506  42.6475414  62.3410783  67.1717606
  48.5082240  55.2048982  57.6866304  48.8927393  54.9856688  58.4382849
  48.2593861  56.0311927  57.8167380  48.5284313  55.2947128  57.8167380
  48.6750781  48.4855397  77.4028888  48.3604222  49.2554959  77.1398451
  48.3540713  47.9225653  76.8181115  48.5809700  48.5165665  77.2770238
  50.2500897  60.4619114  65.0285201  50.3239906  60.2994286  65.8827051
  51.0670404  60.6509304  64.7845682  50.3817256  60.4655857  65.1183226
  44.0106654  60.8076977  62.0579644  43.1844772  61.0538714  61.9313923
  44.0718645  60.7289058  62.9241702  43.8980821  60.8321926  62.1668589
  46.2282678  46.8745918  63.0175084  45.3605103  46.9468518  63.0832694
  46.5157882  47.6767997  63.2063059  46.1422426  47.0040065  63.0549851
  55.3515567  47.0223778  71.3486406  56.0969159  46.8333588  70.9349832
  54.9352871  47.5482016  70.7900262  55.4000541  47.0725923  71.2050979
  48.7905483  63.4253857  59.7598674  49.0803781  63.0342839  59.0357901
  49.5208964  63.6070562  60.2003949  48.9412367  63.3947671  59.7181481
  62.7277837  54.3933006  66.2991911  63.2785759  53.7601075  66.5389003
  62.7121953  54.9248399  66.9907415  62.8063034  54.3781954  66.4370769
  49.3800228  58.2271603  70.8451805  48.8811922  58.9387371  70.9236693
  50.1900453  58.5472270  70.8069967  49.4256335  58.3798452  70.8508373
  46.7311399  65.4021240  62.8258824  46.5111694  65.1118595  63.6185491
  46.5105921  64.7436195  62.2976736  46.6658993  65.2620948  62.8647732
  45.6428346  57.4894556  65.0914525  45.3541594  56.8632028  65.6260253
  46.5111694  57.4314844  65.1579206  45.7288598  57.3882101  65.1805480
  56.4306244  52.6329340  65.4096507  56.0871010  51.9119675  65.7603757
  56.5299286  52.4243191  64.5674866  56.3948286  52.4953543  65.3368187
  48.8979354  66.7750630  61.6089516  49.5503412  66.2427072  61.8380542
  48.2004963  66.4219282  61.9957390  48.8910072  66.6440153  61.7001684
  45.8460619  59.1289807  61.0156890  46.6006587  59.5102846  61.2292353
  45.2531232  59.5800951  61.4703587  45.8697333  59.2518635  61.1139769
  56.8919273  59.0955044  60.9520495  57.4577305  59.7548254  60.8679038
  56.2447176  59.4404742  61.4236898  56.8798029  59.2436985  61.0093252
  48.3067286  51.0852648  76.1414103  47.4967062  51.3910427  76.0303945
  48.7841973  51.8058230  76.2566687  48.2570765  51.2367249  76.1421174
  47.1658846  60.2998369  66.3897006  46.6439599  60.4398660  67.0748871
  47.5532866  59.5409033  66.5799123  47.1462547  60.2083893  66.5198082
  44.1550030  50.3504177  60.4591961  43.8674826  49.9805448  59.7223908
  44.8420498  50.8199033  60.1975665  44.2138927  50.3651147  60.3107036
  53.3625851  62.0393828  60.3757575  53.1212527  61.3061689  59.9684640
  53.5427184  62.5880685  59.7223908  53.3533475  62.0116219  60.2187798
  48.5925171  57.3302388  61.7878497  48.3967954  57.9377122  61.1938800
  48.8159517  56.6370332  61.3070171  48.5959812  57.3179913  61.6294578
  46.9903701  54.2157126  61.9059365  47.7126353  54.3798284  61.4463171
  46.5111694  54.9366791  61.7998705  47.0267432  54.3455355  61.8224979
  54.9497209  50.5520925  67.2856050  54.1108310  50.5782203  67.0494313
  55.0201576  51.1991660  67.8661397  54.8365603  50.6517050  67.3365167
  44.6411318  56.6215198  71.0113505  45.1532415  56.8999451  70.3622265
  44.3547661  57.3604492  71.3776318  44.6746181  56.7717552  70.9703383
  58.8254733  55.7588911  64.5717292  58.7388707  55.9144337  65.4252071
  58.3705213  56.4026987  64.1976697  58.7457990  55.8764666  64.6424399
  41.7278224  51.1285390  61.3077242  41.8294361  51.9311551  61.6358217
  42.5234111  50.9272726  61.0100322  41.8606130  51.2171289  61.3112597
  48.1595044  48.7141587  71.0714547  47.9678241  48.7296721  71.9213970
  49.0093640  48.9105261  71.0481202  48.2570766  48.7455938  71.1937841
  42.5441957  51.2432568  69.0498363  42.4027448  50.3916509  69.1742871
  42.8282520  51.2861229  68.2260569  42.5649803  51.1232318  68.9465987
  52.6980549  53.0799658  63.1942851  52.4515263  52.9995409  64.0279640
  53.0265672  52.2953126  63.0005379  52.7101793  52.9525924  63.2890375
  56.5928598  59.7883018  66.9829633  56.4542957  60.4864064  67.4878375
  55.8128596  59.6331674  66.6265814  56.4571825  59.8683184  67.0055907
  48.6577576  55.8156377  72.6065835  48.8020952  56.3957585  71.9708945
  49.0053225  56.1932674  73.3115689  48.7305038  55.9577081  72.6164829
  50.8297494  55.0146545  70.3890966  50.0820808  55.2077560  69.9839244
  50.9839019  54.1891765  70.1515087  50.7419921  54.9211657  70.2936372
  47.7305331  64.0059149  69.4726861  47.8794895  63.4462065  68.8200266
  48.5105333  64.0851150  69.8559380  47.8679425  63.9344714  69.4323810
  58.0881971  59.1461271  57.7446132  57.7088779  58.3598409  57.7375421
  57.4248216  59.6948129  57.6017776  57.9340445  59.1106095  57.7226929
  51.0699271  48.9097096  71.2786370  51.5271885  49.6421070  71.4059162
  51.1455599  48.4863561  72.0373626  51.1490240  48.9554334  71.4087446
  43.3132262  49.1562916  72.3675814  42.7774451  48.5443274  72.6836581
  43.3750027  49.7311052  73.0209480  43.2427894  49.1509844  72.5111240
  55.5426597  42.0886971  65.1480213  55.6610165  42.5463435  64.4147515
  55.3688772  41.2832232  64.8616430  55.5345768  42.0380743  64.9981146
  50.9128879  62.6974791  61.5834958  51.6778770  62.4284434  61.2617622
  50.8106969  62.2124801  62.3005021  51.0110374  62.5864355  61.6414786
  48.9481649  50.8999200  68.1228194  48.1577723  50.7190660  68.4445530
  49.3442271  50.1226153  68.1058488  48.8898525  50.7586661  68.1680742
  53.4347539  59.7286974  53.5634907  54.2020524  59.7887099  53.1540759
  52.9878848  59.1567416  53.0791226  53.4820967  59.6523550  53.4312618
  54.3325335  58.5341630  65.8487640  53.6570337  58.3026862  66.3501027
  54.3417711  57.9262813  65.2229745  54.2343839  58.4100555  65.8303792
  51.4619479  53.3759459  72.6051693  51.3978620  54.2369416  72.4771829
  51.6016667  53.0591452  71.8047244  51.4734949  53.4559626  72.4679906
  56.3342069  61.3906763  58.0797818  56.4161907  62.1973749  57.7559269
  56.8191812  61.4102722  58.8038591  56.4179227  61.5127425  58.1384716
  50.1438573  56.0691598  66.7467896  49.7200822  56.2696098  66.0106914
  49.9683428  55.2220446  66.8592196  50.0549453  55.9740380  66.6541586
  45.4321018  56.5643650  62.1795868  45.5885637  56.4990453  63.0351860
  45.7721611  57.3392202  61.9674548  45.5054253  56.6692848  62.2750462
  51.9700162  55.9401533  61.0489231  52.5115708  55.4371915  61.5127852
  52.2846721  55.8866728  60.2378717  52.0964559  55.8580954  60.9973044
  50.1386612  61.3318885  58.3329259  50.2079432  60.4733423  58.4722260
  50.9175067  61.5490766  58.0048284  50.2639462  61.2371749  58.3046417
  53.1189432  50.8337838  71.1011532  53.3331401  50.1948752  70.5474886
  52.5023331  51.2783662  70.6719394  53.0594761  50.8047982  70.9561963
  54.5294100  63.7556586  62.5465753  54.1373891  63.4523301  61.8288619
  54.6847172  64.5925676  62.3570707  54.4947689  63.8340423  62.4122250
  42.0055279  53.7478600  62.4956635  42.3854244  54.1663145  61.8316903
  41.4310644  54.3292056  62.8025479  41.9766604  53.8956459  62.4433376
  55.2828520  52.4426903  72.0394839  54.4705201  52.1352794  72.1208012
  55.7418454  51.9625903  72.6037551  55.2308904  52.3263396  72.1349433
  54.6933774  60.3206575  62.4871783  54.3348429  60.4921218  63.2635816
  54.2072485  60.7819781  61.9299782  54.5692471  60.4145546  62.5197052
  52.5104160  43.9437774  66.0898875  51.6397718  43.9176495  66.0432184
  52.7644502  43.7714966  65.2724720  52.4197720  43.9147917  65.9619011
  49.4822140  56.0005741  55.0272018  49.7714665  56.7770623  55.3015592
  49.5693939  55.4894472  55.7286517  49.5376396  56.0397659  55.1714516
  49.5353301  45.9544002  67.5472345  49.0191789  45.2624194  67.6723924
  48.9747230  46.6214779  67.4934944  49.3759814  45.9507260  67.5578411
  51.6045534  46.4936962  69.3765198  51.2177287  46.5185994  70.1578728
  51.1178472  45.9278641  68.9239714  51.4758043  46.4132713  69.4253101
  57.5795514  53.0599617  68.0004900  57.1523122  52.9725966  67.2452999
  56.9421567  53.1677393  68.5859744  57.4225121  53.0632277  67.9750341
  51.2702676  43.3803948  71.6675458  51.8995794  43.9164248  71.3896528
  51.4388539  43.2881307  72.5189023  51.3880471  43.4465310  71.7523986
  51.0716591  48.1675142  73.9401869  51.8990020  47.8960291  73.9960484
  51.0924437  48.9635984  74.2965687  51.1969441  48.2454897  74.0017052
  45.6486081  55.3139005  67.1272130  44.8074087  55.2142879  67.3351024
  45.8576089  56.0834485  67.4786450  45.5550773  55.4131048  67.2099445
  43.1261648  52.9358542  64.9556880  42.7318345  53.0101554  64.1806990
  42.5701765  53.3216488  65.5065242  42.9864460  53.0040317  64.9224540
  54.7626594  45.9139836  64.6360759  54.9676188  45.8462144  65.4817757
  54.4353018  46.7198657  64.5681937  54.7441842  46.0225777  64.7520415
  49.4602746  53.2420404  66.3769727  49.1565883  52.6876393  66.9780135
  48.7582166  53.4212614  65.8897762  49.3118955  53.1865187  66.3939433
  47.5221097  60.4570125  71.0841825  47.4141451  60.4672187  71.9503883
  47.7316878  61.2824905  70.8946779  47.5371208  60.5811200  71.1845917
  58.0160282  46.4671600  64.1163525  57.4034596  46.9542002  64.5017257
  58.1124457  45.7915091  64.6601176  57.9398180  46.4389909  64.2542383
  45.5394889  57.7082767  68.5463763  44.9482822  58.3492266  68.5166778
  46.3015912  58.1320385  68.5195062  45.5643149  57.8658606  68.5378910
  45.9355511  48.8684765  69.2131780  46.3956993  48.9423695  69.9506904
  45.9811618  49.6666019  68.8631602  46.0106067  48.9978912  69.2704537
  47.5838861  49.5351460  73.7803807  47.1924426  48.8884807  74.2159585
  47.7524724  50.1262895  74.3998063  47.5509771  49.5265728  73.9366513
  55.2984405  63.1592079  65.9795787  55.1004093  63.6482893  65.2851998
  54.6772116  63.3633320  66.5579921  55.1771969  63.2608617  65.9619010
  49.3592383  54.9276976  60.3206031  50.1034428  55.3151252  60.5588981
  49.5053079  54.0834401  60.4846519  49.4902968  54.8607449  60.3800001
  52.3470259  50.5002449  66.2199951  51.8730213  49.9744211  66.7305262
  52.7188395  49.9531922  65.6514812  52.3320148  50.3418446  66.2115098
  42.7243289  52.4973956  71.5883497  43.5868902  52.3969665  71.5020826
  42.3935072  51.9168665  71.0269069  42.8028486  52.3965583  71.4928902
  58.6106990  55.5604825  67.6306731  58.3705212  54.7211240  67.6349158
  59.0898997  55.6404992  68.3547505  58.6459173  55.4486224  67.7381534
  60.6112177  52.3406282  65.5835990  60.3721947  52.3002116  64.7456775
  60.7746078  53.1877434  65.7101711  60.6002480  52.4598367  65.4789472
  46.0845075  51.3216405  68.2493915  45.4598145  51.3334797  67.6419867
  45.7490670  51.7976580  68.8985155  45.9430567  51.3934922  68.2550483
  42.7970751  59.3816865  69.6897679  42.2670675  58.6909304  69.7392654
  43.0695844  59.3727050  68.8610388  42.7595473  59.2783997  69.5745095
  53.8290841  59.9642567  58.4135362  54.5525040  60.4300680  58.2699935
  53.3891432  60.0316177  57.6632959  53.8706533  60.0426404  58.2820143
  52.9976996  56.8240110  69.6636051  52.3833989  56.2798160  69.9584686
  53.5144281  56.3104346  69.1841867  52.9832659  56.6676519  69.6360279
  52.2373293  57.8944380  67.3980349  51.8100901  57.2694098  66.9645785
  52.2298238  57.6119301  68.2239356  52.1732435  57.7597160  67.4560177
  45.3535821  52.9309553  70.4668783  45.5129307  52.1752877  70.8720505
  45.1728714  53.4800492  71.1209521  45.3501180  52.9003366  70.6231489
  53.2956124  45.0970788  71.0219573  52.7996685  45.2934462  70.3311139
  54.0525186  45.4963456  70.8508374  53.3342948  45.1848522  70.8939709
  50.5659003  48.7713134  67.6122883  50.5901490  48.2373246  66.9235663
  50.8170477  48.2630443  68.2748474  50.6068922  48.6174038  67.6087528
  38.0766593  56.0544629  67.0466027  37.9710042  56.0091473  66.1818111
  37.3266813  56.3998410  67.3280312  37.9502196  56.0985537  66.9603357
  46.8460325  47.4983952  66.9928628  46.8858697  47.9993159  67.7063335
  46.0209990  47.5894346  66.7234551  46.7299851  47.5865769  67.0579166
  48.2674689  54.0144462  69.2902527  47.4366618  54.1818280  69.0837775
  48.2126206  53.6380413  70.0751412  48.1364104  53.9834193  69.3751055
  46.0758472  47.5053355  74.9258937  46.7011175  46.9615488  75.1988370
  45.6208952  47.0248273  74.3566728  46.1006733  47.3542836  74.8820531
  46.6410733  52.2900054  59.8192644  46.7813694  52.7872518  60.5221286
  47.1393265  51.5886348  59.9606858  46.7351813  52.2602032  59.9444223
  46.6710955  53.1567165  57.1485221  47.3056034  53.7527590  57.0834683
  46.7536566  52.8570622  57.9631091  46.7767506  53.2008073  57.2588308
  53.6449093  48.4753334  69.4854142  54.0704164  48.0225861  68.8737669
  53.0306086  47.9213405  69.7618930  53.6177738  48.3267310  69.4359167
  43.1763943  55.3535005  60.4174767  43.6856172  55.9499513  60.7986073
  43.6498215  55.0860979  59.7351187  43.3207319  55.4020821  60.3729290
  54.0894691  64.0263272  58.5733423  53.3724001  63.8524134  58.1080660
  54.7401428  63.7915844  58.0408909  54.0796541  63.9659065  58.4262641
  56.6742662  52.9027861  62.3174728  56.0033852  53.4457563  62.1887793
  57.3682412  53.3722716  62.0756423  56.6771530  53.0526132  62.2630256
  50.7229396  65.0424573  67.5486486  50.4995050  64.2843402  67.9170512
  50.2339239  65.0722594  66.8266926  50.6172845  64.9346797  67.4963227
  56.8370790  49.3583744  65.2265101  57.1898400  48.9313467  65.9010900
  55.9785591  49.2734588  65.3566177  56.7620234  49.2828485  65.3460111
  45.5354475  51.9891264  63.2847948  44.8166464  52.4055397  63.5520811
  45.9066837  52.5545503  62.7339586  45.4846406  52.1340545  63.2430755
  54.8354055  52.6219113  69.1749943  54.8151983  52.4402408  70.0284722
  54.8833256  53.4931131  69.1509527  54.8388696  52.7235651  69.2973238
  49.3707853  65.2625031  65.0023571  48.9568251  64.5999161  64.6127412
  50.0555227  65.4102890  64.4819265  49.4106224  65.1865689  64.8680068
  52.7373147  64.4215116  65.7547187  52.3389430  64.5317386  64.9868008
  52.1224366  64.6297182  66.3373747  52.5872036  64.4688684  65.7278487
  58.2694850  44.4802156  66.1549413  57.7625714  43.7731296  66.0870591
  59.0662283  44.1495345  66.2850490  58.3122089  44.3275308  66.1648408
  54.1858866  50.9868768  62.0523077  53.9572559  51.0101470  61.2101435
  54.4456942  50.1626235  62.1718088  54.1905054  50.8684848  61.9448275
  48.4678094  52.8403241  71.6548177  47.9556997  52.2324424  72.0133209
  48.2957590  53.5559834  72.1222153  48.3667731  52.8566541  71.7764401
  43.3143809  51.2840817  74.3050539  43.1446399  51.9442192  73.7598746
  42.8709759  51.4947378  75.0263028  43.2243142  51.4126799  74.3312169
  47.2403628  49.5245315  63.3477273  47.7160994  49.8862395  62.7127454
  46.7392228  50.1801782  63.6277416  47.2368987  49.6739504  63.2954014
  60.4714990  58.9967083  59.1390278  60.8548595  59.7458439  59.3688375
  59.6759103  59.2432903  58.8802267  60.4108772  59.1436777  59.1347851
  52.3447164  50.7627486  74.0950433  52.9018594  50.5341296  73.4628898
  52.0208229  51.5233152  73.8185645  52.3793574  50.8411323  73.9606930
  40.2145873  54.1887682  69.5639029  39.6672593  53.5188328  69.6819897
  41.0038251  53.8217530  69.6282496  40.2498057  54.0352669  69.5907730
  49.2830281  51.6686515  56.7150657  49.6629246  51.6866144  55.9301772
  48.5422877  52.1140503  56.5941504  49.2299119  51.7368289  56.5814225
  56.9115572  49.9768706  62.3026236  56.9109798  49.8217362  63.1610512
  56.7071752  50.8231693  62.2467621  56.8815350  50.0789326  62.4214175
  38.9732843  53.4008490  66.7185052  38.7954604  52.9485099  67.4439968
  38.6851865  54.2034652  66.9023530  38.9045796  53.4531048  66.8528555
  54.6356424  54.6566208  65.9562442  55.1310089  53.9389203  65.9166463
  53.8256199  54.3537005  65.8416929  54.5900317  54.5063854  65.9336168
  50.0815035  58.5064021  58.1059447  49.2726358  58.1830694  58.0592756
  50.5889944  57.7997243  58.0387696  50.0364702  58.3545337  58.0889741
  40.7105313  55.9336214  63.8306811  39.8450832  55.9221904  63.7189582
  40.8104128  55.7466437  64.6777950  40.5979479  55.9042275  63.9395756
  56.7008243  57.4069895  68.6439571  57.1263314  56.8844317  68.0909996
  56.3365162  58.0050732  68.1228194  56.7094845  57.4180122  68.4848581
  46.3362322  65.7034113  67.4036917  46.6508881  66.5170501  67.4114698
  46.7455736  65.3184331  68.0719076  46.4430420  65.7662815  67.5041008
  53.2886842  61.1204159  64.9740729  53.7598020  61.8344422  65.1430714
  53.6247021  60.5202909  65.5100598  53.4081957  61.1375624  65.0773105
  50.2056337  45.8931630  71.9298823  50.3384243  45.0962623  72.2579799
  50.5901490  46.4198033  72.5097099  50.2812666  45.8531547  72.0642326
  53.2788692  42.8161956  68.5279917  52.4734656  42.7059686  68.8447755
  53.1495428  42.9174412  67.6709782  53.1408825  42.8145626  68.4487957
  56.7354653  48.9807448  69.1219614  56.1517642  49.4816654  68.7097181
  57.0558947  48.4737004  68.4883937  56.6967828  48.9799283  68.9678121
  47.8644784  45.8890805  70.1776717  48.4089197  45.5481932  70.7681059
  47.9181720  46.7476267  70.3198002  47.9533903  45.9646064  70.2858591
  43.6775343  59.6507221  67.0515525  44.2820200  59.6103055  66.4229346
  43.4702655  60.4978373  67.0819581  43.7364240  59.7695224  66.9631642
  53.4919115  61.9173166  68.2677762  54.3117488  61.7736132  68.5294058
  53.2113192  62.5419365  68.8094200  53.5715858  61.9883518  68.3865702
  38.9126625  58.6341839  66.9214448  38.8150903  57.8238110  67.2304505
  39.6955495  58.6133632  66.5360716  39.0142761  58.5108929  66.9101311
  61.7181373  68.1400338  60.8742678  62.4161538  68.3188465  61.3664141
  62.0333706  67.6170677  60.2513067  61.8676710  68.0894110  60.8544688
  59.8908237  63.5092735  64.9563952  59.5611567  63.9603878  64.2867651
  59.2153239  63.4308898  65.5036959  59.7418673  63.5643870  64.9387176
  67.0984645  59.4978257  63.2013563  66.7838086  60.1881736  63.6333985
  66.5811586  59.4423040  62.4999064  66.9749115  59.5913146  63.1610512
  58.3296686  73.3945975  58.1158442  57.7453901  73.8996007  58.5224305
  57.9266781  73.1688362  57.3755034  58.1835990  73.4354223  58.0663467
  62.7873901  69.6411627  56.5927362  63.0269904  69.8489611  55.7802705
  63.1089742  68.8369136  56.7016307  62.8711058  69.5525728  56.4887915
  58.0964191  61.5705023  60.4386900  58.8510159  61.9383340  60.2003950
  57.9191725  61.9444577  61.2066080  58.1818669  61.6803211  60.5171789
  56.4521255  63.9775342  57.1365013  56.2696829  64.1947223  56.3106006
  57.3146868  64.0914355  57.1923628  56.5525845  64.0265240  57.0219500
  62.1320975  60.9801753  60.1714037  62.8607135  60.8017708  59.7252193
  62.2215868  61.8219832  60.3821215  62.2527637  61.0785631  60.1367555
  55.9983282  67.2549515  55.6487486  55.2841460  66.9687694  56.0609919
  56.4827251  67.5946140  56.2893874  55.9642646  67.2631164  55.8043121
  63.1730600  75.7579469  56.0249294  63.5881749  75.4264492  55.3333790
  62.3422530  75.5248371  55.8969431  63.1118609  75.6750724  55.9040142
  65.8663991  72.0090028  55.2110496  65.7844153  72.0792215  56.0765483
  66.5043711  72.5719772  55.0194236  65.9483828  72.1028999  55.3100445
  47.9448693  68.9728603  63.1794358  48.0308945  68.5960471  63.9607887
  48.5724490  68.5989049  62.7014316  48.0505244  68.8614085  63.2239835
  62.9704101  72.0310482  58.2219102  63.7844740  72.3225375  58.1101874
  62.9063242  71.3770345  57.6477395  63.0806840  71.9775677  58.1207940
  59.4814824  70.7234289  57.6866304  59.8659977  70.5041996  58.4382849
  59.2326444  71.5497235  57.8167380  59.5016897  70.8132436  57.8167380
  57.2015261  62.3931226  63.0175084  56.3337687  62.4653826  63.0832694
  57.4890466  63.1953305  63.2063059  57.1155009  62.5225373  63.0549851
  55.1282613  65.8689485  60.4591961  54.8407409  65.4990756  59.7223908
  55.8153082  66.3384341  60.1975665  55.1871511  65.8836455  60.3107036
  57.9636285  69.7342434  61.9059365  58.6858937  69.8983592  61.4463171
  57.4844278  70.4552098  61.7998705  58.0000016  69.8640663  61.8224979
  64.3699071  62.9691609  62.0183666  65.0725424  62.7699358  61.5403624
  64.1043260  62.1967552  62.3252510  64.4345703  62.8254575  61.9929108
  52.7010808  66.6470698  61.3077242  52.8026945  67.4496859  61.6358217
  53.4966695  66.4458034  61.0100322  52.8338714  66.7356597  61.3112597
  66.5159180  57.6072279  65.1480213  66.6342748  58.0648742  64.4147515
  66.3421356  56.8017540  64.8616430  66.5078351  57.5566051  64.9981146
  64.4080123  75.2472282  53.5634907  65.1753108  75.3072407  53.1540759
  63.9611432  74.6752724  53.0791226  64.4553550  75.1708858  53.4312618
  52.9787863  69.2663908  62.4956635  53.3586828  69.6848453  61.8316903
  52.4043228  69.8477364  62.8025479  52.9499188  69.4141767  62.4433376
  63.4836744  59.4623082  66.0898875  62.6130302  59.4361803  66.0432184
  63.7377085  59.2900274  65.2724720  63.3930304  59.4333225  65.9619011
  60.4554723  71.5191048  55.0272018  60.7447248  72.2955931  55.3015592
  60.5426522  71.0079780  55.7286517  60.5108980  71.5582967  55.1714516
  59.4901426  66.0706232  60.9414429  59.7661161  65.3525145  60.5291997
  60.0900096  66.6691152  60.7335535  59.6194691  66.0526603  60.8495190
  62.9911947  63.7419749  59.2161024  63.4455693  63.9130310  59.9408869
  63.4651992  63.1287860  58.8158800  63.1280267  63.6770635  59.2634786
  60.3324967  70.4462284  60.3206031  61.0767012  70.8336560  60.5588981
  60.4785663  69.6019709  60.4846519  60.4635552  70.3792757  60.3800001
  65.2486342  66.9124312  59.2825705  64.7209361  66.9953056  58.5931413
  65.7082050  67.6542183  59.2790349  65.2388193  67.0344974  59.1800400
  57.2419407  65.1826831  54.3066600  56.8932212  65.8346556  54.7698149
  56.7615853  65.1683944  53.5790471  57.1189651  65.2769885  54.2677691
  57.6143316  67.8085362  59.8192644  57.7546277  68.3057826  60.5221286
  58.1125849  67.1071656  59.9606858  57.7084397  67.7787340  59.9444223
  57.6443539  68.6752473  57.1485221  58.2788618  69.2712898  57.0834683
  57.7269149  68.3755930  57.9631091  57.7500089  68.7193381  57.2588308
  59.2222521  64.6066448  57.1230663  59.5438362  64.1269531  56.4689925
  59.4849465  65.4166094  56.9321475  59.3088547  64.6556346  56.9986155
  54.1496526  70.8720313  60.4174767  54.6588756  71.4684821  60.7986073
  54.6230799  70.6046287  59.7351187  54.2939902  70.9206129  60.3729290
  63.0575899  60.4653742  62.8944719  62.4144217  60.3151388  63.4629858
  62.7175306  60.2196087  62.1293824  62.9120977  60.4065864  62.8647734
  56.5087058  67.5076572  63.2847948  55.7899047  67.9240705  63.5520811
  56.8799420  68.0730811  62.7339586  56.4578990  67.6525853  63.2430755
  62.2833633  66.5474572  58.6221327  61.6898472  66.8691568  58.0705894
  62.3208910  65.7015667  58.4142433  62.2008022  66.4698900  58.5104098
  58.2136212  65.0430623  63.3477273  58.6893578  65.4047703  62.7127454
  57.7124811  65.6987090  63.6277416  58.2101571  65.1924811  63.2954014
  60.2562865  67.1871822  56.7150657  60.6361830  67.2051452  55.9301772
  59.5155461  67.6325811  56.5941504  60.2031702  67.2553597  56.5814225
  61.0547619  74.0249329  58.1059447  60.2458942  73.7016002  58.0592756
  61.5622528  73.3182551  58.0387696  61.0097286  73.8730645  58.0889741
  60.2482035  63.4133351  59.3978288  61.0697730  63.5831664  59.1559983
  59.7851686  63.5680612  58.6744586  60.3013198  63.4615084  59.2549933
  36.7385838  -0.0439775  48.1660686  36.7079843   0.8104862  48.3378955
  37.3367187  -0.3444482  48.7246829  36.8222996   0.0376722  48.2735488
  29.9385523  -0.9564124  52.9213616  29.0823419  -0.7955625  52.9722733
  29.9853177  -1.8272060  52.9418677  29.8184635  -1.0613322  52.9319682
  24.3226663   8.5798594  48.6850848  23.5709562   8.2014132  48.4566893
  24.7712674   8.6117028  47.9369658  24.2776330   8.5284201  48.5408350
  33.2479240   5.3122402  62.5274072  33.9546007   4.8174433  62.6561007
  33.4367175   5.7531483  61.7976730  33.3807145   5.3040752  62.4383118
  29.7751623   9.0023964  44.1136395  29.4402991   9.6800885  43.6780617
  30.2878493   8.6129275  43.5253266  29.8017204   9.0448542  43.9623186
  29.3155914  10.9538232  50.0547506  29.6995293  11.5225131  49.5152282
  29.2515055  10.2287743  49.5753322  29.3629341  10.9313696  49.9041369
  32.7837344   1.1027920  55.5645268  33.3293304   1.7813007  55.6239237
  32.7254220   0.9615381  54.7046849  32.8553258   1.1819922  55.4457328
  25.9011419   8.5916986  50.9513620  26.0021782   7.7817340  51.2610748
  25.3053164   8.4973933  50.3213299  25.8283958   8.4582014  50.9039859
  34.5602413   2.5312527  46.4378996  34.4441939   3.2820213  46.8671134
  35.3558299   2.2736481  46.6875083  34.6607002   2.6047374  46.5383087
  25.7412159  13.5094575  52.3528476  26.3849614  13.9507740  52.7424635
  26.0668414  12.7048002  52.2658735  25.8843987  13.4559770  52.3973953
  19.0976463   4.6137273  50.5765954  18.8626648   3.7804925  50.4698223
  19.2362104   4.8941939  49.7627155  19.0832126   4.5320776  50.4408309
  26.4432738   6.5206550  47.7248338  26.7648579   7.0611758  47.1209646
  27.0904835   5.9503322  47.8570628  26.5858793   6.5165725  47.6555373
  28.4934446  -1.4777455  47.8082725  29.1914611  -1.2989327  48.3004188
  28.8086779  -2.0007115  47.1853114  28.6429784  -1.5283683  47.7884735
  21.1235684   0.3275285  55.7193830  20.9994381   0.9137731  56.3543649
  21.7753968  -0.1664519  56.0206105  21.2009333   0.3414090  55.8579760
  28.6822382   4.9092990  47.7962516  29.1216017   4.3010091  48.2417289
  28.5327045   4.5300364  47.0247981  28.7243847   4.7631461  47.7481683
  26.1494025   3.5037002  54.9981342  26.7943027   3.0109445  54.6792290
  26.3895802   3.6461789  55.8247420  26.2804610   3.4514444  55.0730875
  28.6880116   6.3491908  54.6488234  28.9703359   5.5543314  54.4274990
  29.4166277   6.8272495  54.6693295  28.8369680   6.3026505  54.6191249
  32.2831718   3.2620172  44.7493285  32.1983013   4.1181138  44.8942854
  32.7716102   2.9864496  45.4175444  32.3420616   3.3477493  44.8695367
  33.2150152  -0.1195034  46.2491020  32.6861623   0.0964599  46.9088327
  33.7375171   0.5741104  46.1691990  33.2138605   0.0148103  46.3346620
  38.6698204   5.4551270  51.6224065  37.8395908   5.6661914  51.7857481
  38.6207457   4.6288325  51.3466348  38.5404940   5.3640876  51.6061430
  25.1049759   3.7768183  45.0498488  24.5206975   4.2818214  45.4564352
  24.7019855   3.5510569  44.3095080  24.9589063   3.8176431  45.0003514
  20.6593788   9.4922944  51.8522160  20.1761366  10.2173433  51.8281744
  21.4717106   9.7899074  51.9632318  20.7084536   9.6425297  51.8649439
  26.7307942   8.2855124  54.4571974  26.2134884   7.9262539  53.8533282
  27.4282333   7.7617299  54.4678041  26.7573523   8.1552812  54.3702233
  30.3871534   8.7349938  60.4188147  30.4754880   8.5476079  61.2666358
  30.8161247   8.0887368  60.0192994  30.4633636   8.6112946  60.4859899
  27.9541994   8.0181098  59.4005810  27.3912829   7.6053708  59.9245471
  28.7163017   7.9434004  59.8198953  27.9836442   7.9458499  59.5398810
  29.5626974   0.0233835  43.5267409  29.8022977   0.2311818  42.7142752
  29.8842815  -0.7808657  43.6356354  29.6464132  -0.0652064  43.4227962
  23.5137985  10.0079120  52.0042440  24.2158565   9.4931109  52.0615196
  23.4335468  10.3353271  52.8089315  23.6061746   9.9793346  52.1315232
  38.1652163  -1.8978329  55.4174486  37.3280584  -1.8276142  55.6522081
  38.1340394  -1.8953834  54.5448789  38.0370445  -1.8868102  55.3234034
  22.8388761   6.1985472  51.5128048  23.6777660   6.4308404  51.5601809
  22.8700530   5.3289783  51.4435083  22.9670478   6.1042418  51.5092693
  23.4641464   6.6186347  55.8141353  24.0039689   6.4757478  56.4844726
  22.7811410   7.0183098  56.1825380  23.4433618   6.6566018  55.9675775
  32.8882349   2.2977347  51.0086378  33.6439864   2.7308862  51.0475286
  32.9944673   1.6482117  51.5821014  33.0152519   2.2654831  51.0984403
  35.9262520   6.1250625  51.7588781  35.4897752   6.1287367  52.5147752
  35.5925435   6.8056124  51.3268358  35.8125140   6.2263080  51.8069613
  30.4991593   8.1658957  63.0831931  31.2832010   8.2789805  63.4487673
  30.2988188   7.3400095  63.2790617  30.5857619   8.0605677  63.1666317
  18.8678609   2.8386638  55.9675775  18.6017024   2.0225754  56.1266765
  18.8817173   2.8839793  55.0971290  18.8303331   2.7243542  55.8629257
  22.7736356  -2.3628278  42.5827533  22.0594533  -2.6490099  42.9949965
  23.2580324  -2.0231652  43.2233920  22.7395719  -2.3546628  42.7383168
  30.6561987  10.0769059  56.7298387  29.8577232   9.8368560  56.9872255
  31.1047998  10.1283452  57.4765434  30.6036598  10.0491451  56.8783311
  39.0606866   2.8431544  50.6508418  39.7223300   2.2822213  50.5504326
  38.4198278   2.3483575  50.9761109  39.0635733   2.6867954  50.6840758
  29.9483674   6.1401676  42.9589341  30.3634822   5.8086700  42.2673837
  29.1175603   5.9070578  42.8309478  29.8871682   6.0572932  42.8380189
  19.2772022   3.6245417  53.2487519  19.0947596   3.5992303  52.3959811
  20.0121691   4.0944355  53.2876428  19.3586086   3.6906779  53.1285438
  35.3471697   3.8596927  50.3920407  35.5827286   4.0042126  49.5647257
  35.4961260   4.6239335  50.7851920  35.4037500   3.9935981  50.3284011
  37.1762153   2.6998593  48.2290011  37.5070370   3.2326233  47.6230105
  37.7495241   2.7537481  48.8851961  37.3095832   2.7868162  48.2367792
  32.3894042   0.5463496  48.9113591  32.4840897   1.2852790  49.3653216
  31.7652886   0.1180971  49.3448155  32.3103073   0.5924816  49.0421738
  30.6446516   3.7249708  59.5603872  31.2185378   3.0876952  59.7152435
  30.5661320   3.7253791  58.6913529  30.7179751   3.6314820  59.4550282
  19.2442933   0.5038918  53.3986586  19.8216435   0.3675368  54.0378831
  18.5456994   0.0474702  53.6532170  19.2263954   0.4161184  53.5308875
  32.6417064   2.3912235  42.1450543  32.5597226   2.4614422  43.0105530
  33.2796784   2.9541979  41.9534283  32.7236901   2.4851206  42.2440492
  26.0010235   2.1572973  51.6125069  25.7429479   1.3244708  51.5856368
  26.0558718   2.3830586  50.7717569  25.9710013   2.0670745  51.4845206
  24.9744947  -0.2889264  52.0989964  24.3994538  -0.1297096  52.7353925
  24.5980623  -0.9253855  51.6358414  24.8347759  -0.3591451  52.1244522
  28.6418236  -1.8165915  56.9582342  28.2532668  -2.2411697  56.3034533
  27.9772934  -1.5683765  57.4659369  28.4865163  -1.8427194  56.9370210
  29.7457174   2.4132690  45.1559149  30.5597813   2.7047582  45.0441920
  29.6816315   1.7592552  44.5817442  29.8559913   2.3597884  45.0547986
  35.9666664   5.0958686  59.5688725  35.7305302   4.2646751  59.4500785
  36.6109893   5.0444293  60.1543569  36.0261335   4.9656374  59.6374618
  25.6165082   5.8854207  50.2831461  26.2539029   5.6465955  50.8283255
  26.0420154   6.0891366  49.5484622  25.7741248   5.8805217  50.2548618
  20.3077725   8.1242544  54.1665765  20.3481870   8.3957395  53.3385545
  20.8672249   8.6484452  54.5823553  20.3961071   8.2418299  54.1057653
  26.2567897   1.1056497  44.6206351  26.6413050   0.8864204  45.3722896
  26.0079518   1.9319442  44.7507427  26.2769970   1.1954643  44.7507427
  36.9903085   4.8803135  55.6317019  36.6848902   5.6131191  55.9930335
  36.2709300   4.4741064  55.3509805  36.8390427   4.9284868  55.6430156
  27.9986554   6.3626630  51.9625247  28.0725562   6.2001802  52.8167097
  28.8156060   6.5516819  51.7185729  28.1302913   6.3663372  52.0523273
  42.6904877   1.5196135  54.9585363  42.6229377   1.5392094  54.0887950
  42.6760539   2.3626462  55.1841034  42.6783633   1.6469870  54.8637840
  21.7592311   6.7084493  48.9919691  20.9330429   6.9546230  48.8653970
  21.8204302   6.6296573  49.8581749  21.6466478   6.7329442  49.1008635
  26.5391140   9.3261373  46.6938721  26.8289438   8.9350354  45.9697947
  27.2694621   9.5078078  47.1343996  26.6898024   9.2955187  46.6521528
  40.4763494   0.2940521  53.2331958  41.0271416  -0.3391410  53.4729050
  40.4607610   0.8255914  53.9247462  40.5548691   0.2789470  53.3710816
  27.1285885   4.1279119  57.7791851  26.6297579   4.8394886  57.8576740
  27.9386109   4.4479785  57.7410014  27.1741992   4.2805967  57.7848420
  24.4797055  11.3028755  49.7598871  24.2597351  11.0126110  50.5525538
  24.2591577  10.6443710  49.2316783  24.4144650  11.1628464  49.7987779
  23.3914003   3.3902072  52.0254572  23.1027251   2.7639543  52.5600300
  24.2597351   3.3322359  52.0919253  23.4774255   3.2889616  52.1145527
  34.1791900  -1.4663145  52.3436554  33.8356666  -2.1872810  52.6943804
  34.2784943  -1.6749294  51.5014912  34.1433943  -1.6038942  52.2708234
  26.6465011  12.6758145  48.5429563  27.2989069  12.1434587  48.7720589
  25.9490620  12.3226797  48.9297437  26.6395729  12.5447668  48.6341731
  23.5946276   5.0297323  47.9496937  24.3492244   5.4110362  48.1632400
  23.0016889   5.4808466  48.4043634  23.6182990   5.1526150  48.0479816
  34.6404930   4.9962559  47.8860542  35.2062962   5.6555769  47.8019085
  33.9932833   5.3412257  48.3576944  34.6283686   5.1444500  47.9433299
  24.9144503   6.2005884  53.3237053  24.3925256   6.3406176  54.0088917
  25.3018523   5.4416548  53.5139170  24.8948204   6.1091408  53.4538129
  31.1111508   7.9401343  47.3097621  30.8698184   7.2069204  46.9024686
  31.2912841   8.4888200  46.6563955  31.1019132   7.9123734  47.1527844
  26.3410828   3.2309903  48.7218544  26.1453611   3.8384638  48.1278847
  26.5645174   2.5377847  48.2410218  26.3445469   3.2187429  48.5634625
  24.7389358   0.1164641  48.8399412  25.4612010   0.2805799  48.3803218
  24.2597351   0.8374306  48.7338752  24.7753089   0.2462871  48.7565026
  32.6982866  -3.5471560  54.2196097  31.8593966  -3.5210281  53.9834360
  32.7687233  -2.9000825  54.8001444  32.5851259  -3.4475434  54.2705214
  22.3896975   2.5222713  57.9453552  22.9018072   2.8006967  57.2962312
  22.1033318   3.2612008  58.3116365  22.4231838   2.6725067  57.9043430
  36.5740390   1.6596427  51.5057339  36.4874364   1.8151853  52.3592118
  36.1190870   2.3034502  51.1316744  36.4943646   1.7772182  51.5764446
  30.4466206  -1.0192826  50.1282898  30.2000920  -1.0997075  50.9619687
  30.7751329  -1.8039358  49.9345426  30.4587449  -1.1466561  50.2230421
  34.3414255   5.6890533  53.9169680  34.2028614   6.3871579  54.4218422
  33.5614252   5.5339190  53.5605861  34.2057481   5.7690700  53.9395954
  32.6792340   1.9886908  60.1692061  32.6740378   1.1166725  60.1734488
  33.3853334   2.1875078  59.6961517  32.7837344   1.8890783  60.0999097
  26.4063233   1.7163892  59.5405881  26.5506609   2.2965100  58.9048991
  26.7538882   2.0940189  60.2455736  26.4790694   1.8584596  59.5504876
  28.5783150   0.9154061  57.3231013  27.8306464   1.1085075  56.9179291
  28.7324676   0.0899280  57.0855134  28.4905578   0.8219172  57.2276419
  25.4790988   9.9066664  56.4066908  25.6280552   9.3469580  55.7540313
  26.2590990   9.9858666  56.7899427  25.6165082   9.8352230  56.3663857
  35.8367627   5.0468787  44.6786179  35.4574436   4.2605925  44.6715468
  35.1733873   5.5955644  44.5357823  35.6826102   5.0113611  44.6566976
  28.0044289  10.0781307  57.6851399  27.9287960   9.4090118  58.2402187
  27.9334148  10.7799095  58.1992065  27.9824896  10.0826214  57.8428247
  28.6614536   8.5982306  48.5175005  29.4264427   8.3291950  48.1957669
  28.5592626   8.1132316  49.2345068  28.7596031   8.4871871  48.5754833
  26.6967305  -3.1993285  55.0568241  25.9063380  -3.3801825  55.3785576
  27.0927928  -3.9766332  55.0398535  26.6384182  -3.3405824  55.1020789
  31.1833196   5.6294490  40.4974954  31.9506181   5.6894615  40.0880806
  30.7364505   5.0574931  40.0131273  31.2306623   5.5531065  40.3652665
  32.0810992   4.4349145  52.7827687  31.4055993   4.2034378  53.2841074
  32.0903368   3.8270328  52.1569792  31.9829496   4.3108071  52.7643839
  29.2105136  -0.7233026  59.5391740  29.1464277   0.1376931  59.4111876
  29.3502323  -1.0401032  58.7387291  29.2220606  -0.6432859  59.4019952
  34.0827726   7.2914278  45.0137865  34.1647564   8.0981264  44.6899315
  34.5677468   7.3110237  45.7378638  34.1664884   7.4134940  45.0724763
  27.8924230   1.9699114  53.6807943  27.4686479   2.1703613  52.9446961
  27.7169085   1.1227962  53.7932242  27.8035110   1.8747895  53.5881633
  27.3935923  13.4849627  56.1429400  27.8831853  12.7860416  55.9605064
  26.8220155  13.1873497  56.7305457  27.3820453  13.3375850  56.2030441
  23.1806674   2.4651165  49.1135915  23.3371294   2.3997968  49.9691907
  23.5207268   3.2399718  48.9014595  23.2539909   2.5700363  49.2090509
  29.7185819   1.8409049  47.9829278  30.2601365   1.3379430  48.4467899
  30.0332378   1.7874243  47.1718764  29.8450216   1.7588470  47.9313090
  33.5902926   6.0511696  65.0956190  34.4037792   5.7796845  65.2561323
  33.4297893   5.7519236  64.2916386  33.6872875   5.9666622  65.0001596
  27.8872269   7.2326400  45.2669306  27.9565089   6.3740939  45.4062307
  28.6660724   7.4498281  44.9388331  28.0125119   7.1379264  45.2386464
  30.8675088  -3.2654647  58.0351579  31.0817058  -3.9043732  57.4814933
  30.2508988  -2.8208823  57.6059440  30.8080418  -3.2944503  57.8902010
  32.2779756   9.6564102  49.4805800  31.8859548   9.3530817  48.7628666
  32.4332829  10.4933192  49.2910753  32.2433346   9.7347938  49.3462297
  19.7540936  -0.3513884  49.4296682  20.1339901   0.0670661  48.7656950
  19.1796301   0.2299571  49.7365526  19.7252261  -0.2036026  49.3773423
  33.0314176  -1.6565582  58.9734886  32.2190858  -1.9639691  59.0548059
  33.4904111  -2.1366581  59.5377598  32.9794561  -1.7729089  59.0689480
  32.4419431   6.2214090  49.4211830  32.0834086   6.3928733  50.1975863
  31.9558142   6.6827296  48.8639829  32.3178128   6.3153062  49.4537099
  27.2307797   1.9013256  41.9612065  27.5200321   2.6778138  42.2355639
  27.3179595   1.3901987  42.6626564  27.2862053   1.9405174  42.1054562
  33.6024170   7.1117986  60.3679031  34.2403891   6.6178182  60.0341487
  32.9598262   7.0395387  59.7831258  33.6018397   7.0276995  60.2321386
  35.3281171  -1.0392868  54.9344947  34.9008779  -1.1266519  54.1793046
  34.6907224  -0.9315092  55.5199791  35.1710778  -1.0360208  54.9090388
  33.6578427   7.8037795  57.0084388  34.4470805   7.4526859  57.1286469
  33.8322025   8.6174183  56.7461022  33.7998709   7.8723652  56.9872256
  23.3971738   1.2146520  54.0612177  22.5559744   1.1150395  54.2691070
  23.6061745   1.9842001  54.4126497  23.3036430   1.3138564  54.1439492
  20.8747304  -1.1633943  51.8896927  20.4804002  -1.0890931  51.1147037
  20.3187421  -0.7775996  52.4405289  20.7350117  -1.0952168  51.8564587
  27.2088402  -0.8572080  53.3109774  26.9051540  -1.4116092  53.9120182
  26.5067823  -0.6779870  52.8237808  27.0604612  -0.9127298  53.3279480
  26.2654499  -3.5471561  47.8754476  26.5414234  -4.2652648  47.4632044
  26.8653169  -2.9486641  47.6675582  26.3947764  -3.5651190  47.7835237
  25.2706753   6.3577640  58.0181872  25.1627108   6.3679702  58.8843930
  25.4802535   7.1832421  57.8286826  25.2856864   6.4818715  58.1185964
  23.2880545   3.6090283  55.4803810  22.6968479   4.2499781  55.4506825
  24.0501569   4.0327900  55.4535109  23.3128806   3.7666121  55.4718957
  39.4070967   3.4396052  56.4781088  39.4654091   3.8882701  57.2241064
  38.7737435   3.8494865  56.0411168  39.3222262   3.5669787  56.5233636
  33.0470062   9.0599594  52.9135834  32.8489750   9.5490409  52.2192045
  32.4257773   9.2640836  53.4919967  32.9257626   9.1616133  52.8959057
  27.1078040   0.8284491  47.2546078  27.8520085   1.2158767  47.4929028
  27.2538736  -0.0158083  47.4186566  27.2388625   0.7614964  47.3140048
  30.0955916  -3.5990036  53.1539998  29.6215870  -4.1248274  53.6645309
  30.4674052  -4.1460563  52.5854859  30.0805805  -3.7574039  53.1455145
  36.3592646   1.4612340  54.5646778  36.1190869   0.6218755  54.5689205
  36.8384654   1.5412507  55.2887552  36.3944830   1.3493740  54.6721580
  32.0239415  -2.7053481  46.2165751  31.4962434  -2.6224737  45.5271460
  32.4835124  -1.9635610  46.2130396  32.0141266  -2.5832819  46.1140447
  38.3597833  -1.7586203  52.5176037  38.1207603  -1.7990369  51.6796822
  38.5231735  -0.9115051  52.6441758  38.3488137  -1.6394118  52.4129519
  34.9643864   2.6263747  58.4481082  35.6878062   2.1736273  58.2692102
  34.6993826   2.9068412  57.6653410  35.0325137   2.6014715  58.3059798
  23.8330732  -2.7776080  55.1833962  23.2083802  -2.7657688  54.5759914
  23.4976327  -2.3015905  55.8325202  23.6916224  -2.7057563  55.1890530
  20.5456407   5.2824380  56.6237726  20.0156332   4.5916819  56.6732701
  20.8181501   5.2734566  55.7950434  20.5081130   5.1791512  56.5085142
  31.5776498   5.8650083  45.3475408  32.3010697   6.3308196  45.2039982
  31.1377089   5.9323692  44.5973005  31.6192190   5.9433919  45.2160190
  30.7462653   2.7247625  56.5976097  30.1319646   2.1805675  56.8924733
  31.2629938   2.2111861  56.1181914  30.7318315   2.5684034  56.5700326
  29.9858950   3.7951895  54.3320396  29.5586558   3.1701614  53.8985831
  29.9783895   3.5126817  55.1579403  29.9218091   3.6604676  54.3900224
  15.8252250   1.9552144  53.9806074  15.7195699   1.9098989  53.1158158
  15.0752470   2.3005925  54.2620359  15.6987853   1.9993053  53.8943404
  26.0160346  -0.0848023  56.2242573  25.1852275   0.0825795  56.0177821
  25.9611863  -0.4612072  57.0091459  25.8849760  -0.1158291  56.3091102
  24.3896389  -1.8092431  46.7532691  24.5299350  -1.3119967  47.4561332
  24.8878922  -2.5106137  46.8946905  24.4837470  -1.8390452  46.8784270
  24.4196612  -0.9425320  44.0825268  25.0541691  -0.3464895  44.0174730
  24.5022223  -1.2421862  44.8971138  24.5253163  -0.8984412  44.1928354
  37.3979178   1.5890157  56.9511632  37.9897018   2.2287408  56.9829830
  37.8338172   0.8913194  57.2403699  37.5497609   1.5808508  56.9992465
  25.9975595  -5.0111345  44.0570710  26.3191436  -5.4908262  43.4029972
  26.2602538  -4.2011698  43.8661522  26.0841620  -4.9621447  43.9326202
  29.2272567   6.0107530  57.5769526  28.7197658   6.5643377  58.0210157
  28.9299214   6.0715820  56.7588301  29.1077452   6.1013841  57.5217983
  20.9249600   1.2542521  47.3514814  21.4341829   1.8507028  47.7326119
  21.3983872   0.9868494  46.6691234  21.0692975   1.3028336  47.3069337
  31.8380348   9.9270788  45.5073470  31.1209657   9.7531650  45.0420707
  32.4887085   9.6923360  44.9748956  31.8282198   9.8666580  45.3602687
  34.4228319  -1.1964624  49.2514775  33.7519509  -0.6534922  49.1227840
  35.1168069  -0.7269769  49.0096469  34.4257186  -1.0466353  49.1970302
  28.4715053  10.9432088  54.4826533  28.2480707  10.1850917  54.8510559
  27.9824896  10.9730109  53.7606973  28.3658502  10.8354313  54.4303274
  23.2840131  -2.1101221  50.2187994  22.5652120  -1.6937088  50.4860858
  23.6552494  -1.5446982  49.6679633  23.2332063  -1.9651939  50.1770801
  32.5839712  -1.4773372  56.1089990  32.5637639  -1.6590077  56.9624769
  32.6318913  -0.6061353  56.0849574  32.5874353  -1.3756833  56.2313285
  30.5286042   5.1113820  62.0338467  30.4881897   4.4663497  61.4483622
  31.3409360   5.0550438  62.3463879  30.6429196   5.0072787  61.9935416
  27.1193510  11.1632546  51.9363618  26.7053908  10.5006676  51.5467459
  27.8040884  11.3110405  51.4159312  27.1591881  11.0873204  51.8020115
  30.4858804  10.3222631  52.6887234  30.0875087  10.4324902  51.9208054
  29.8710023  10.5304698  53.2713794  30.3357693  10.3696199  52.6618533
  29.0586706  -3.0703221  45.5561374  28.4651545  -2.7486224  45.0045941
  29.0961983  -3.9162125  45.3482480  28.9761095  -3.1478892  45.4444145
  31.9344522  -3.1123716  48.9863124  31.7058215  -3.0891015  48.1441482
  32.1942598  -3.9366249  49.1058135  31.9390710  -3.2307636  48.8788322
  24.9889285  -4.5747170  50.2817320  25.4646651  -4.2130090  49.6467501
  24.4877884  -3.9190702  50.5617462  24.9854644  -4.4252981  50.2294061
  38.2200646   4.8974598  46.0730325  38.6034252   5.6465954  46.3028422
  37.4244760   5.1440418  45.8142314  38.1594429   5.0444292  46.0687898
  27.0315938  -2.4305970  43.6490704  27.4114903  -2.4126341  42.8641818
  26.2908534  -1.9851981  43.5281551  26.9784776  -2.3624195  43.5154272
  32.3842081   0.5573723  52.8902489  32.8795746  -0.1603282  52.8506510
  31.5741856   0.2544521  52.7756976  32.3385974   0.4071369  52.8676215
  27.8300692   4.4071536  45.0399494  27.0212015   4.0838210  44.9932803
  28.3375601   3.7004758  44.9727742  27.7850359   4.2552852  45.0229788
  18.4590969   1.8343729  50.7646858  17.5936489   1.8229420  50.6529629
  18.5589785   1.6473952  51.6117997  18.3465136   1.8049790  50.8735802
  34.4493899   3.3077410  55.5779618  34.8748971   2.7851832  55.0250043
  34.0850819   3.9058248  55.0568241  34.4580502   3.3187637  55.4188628
  24.0847979  11.6041628  54.3376963  24.3994538  12.4178016  54.3454745
  24.4941393  11.2191847  55.0059123  24.1916077  11.6670330  54.4381055
  31.0372499   7.0211675  51.9080775  31.5083677   7.7351937  52.0770761
  31.3732677   6.4210425  52.4440645  31.1567614   7.0383139  52.0113151
  33.1249483   8.6312988  64.0872848  33.2346449   7.8421549  64.4429595
  33.4540380   8.5418924  63.2847186  33.1901889   8.5018841  64.0215238
  31.6746445   6.8129609  58.6708468  31.1267391   6.1887492  58.4028533
  32.1359474   7.0023881  57.9552547  31.6613655   6.7488659  58.5258899
  21.4260999   5.5514736  53.9855572  22.0305857   5.5110570  53.3569393
  21.2188312   6.3985888  54.0159628  21.4849897   5.6702739  53.8971688
  31.2404771   7.8180681  55.2017809  32.0603145   7.6743648  55.4634104
  30.9598849   8.4426880  55.7434247  31.3201515   7.8891034  55.3205749
  16.6612282   4.5349354  53.8554495  16.5636560   3.7245625  54.1644552
  17.4441151   4.5141147  53.4700763  16.7628418   4.4116444  53.8441358
  40.9118107  14.5621184  52.9213616  40.0556002  14.7229682  52.9722733
  40.9585760  13.6913248  52.9418677  40.7917218  14.4571986  52.9319682
  44.2211823  20.8307710  62.5274072  44.9278590  20.3359741  62.6561007
  44.4099759  21.2716791  61.7976730  44.3539729  20.8226060  62.4383118
  43.7569928  16.6213228  55.5645268  44.3025888  17.2998315  55.6239237
  43.6986804  16.4800689  54.7046849  43.8285842  16.7005230  55.4457328
  36.7144742  29.0279883  52.3528476  37.3582198  29.4693047  52.7424635
  37.0400998  28.2233310  52.2658735  36.8576571  28.9745078  52.3973953
  30.0709047  20.1322581  50.5765954  29.8359231  19.2990233  50.4698223
  30.2094688  20.4127246  49.7627155  30.0564709  20.0506084  50.4408309
  32.3699134  12.3008311  53.4750262  31.7504166  11.7100959  53.3060276
  32.2682998  12.8919747  52.8414585  32.2636810  12.3012394  53.3555251
  39.4667030  14.0407853  47.8082725  40.1647195  14.2195981  48.3004188
  39.7819362  13.5178193  47.1853114  39.6162367  13.9901625  47.7884735
  32.0968267  15.8460593  55.7193830  31.9726964  16.4323039  56.3543649
  32.7486552  15.3520789  56.0206105  32.1741917  15.8599398  55.8579760
  39.6554965  20.4278298  47.7962516  40.0948601  19.8195399  48.2417289
  39.5059628  20.0485672  47.0247981  39.6976431  20.2816769  47.7481683
  37.1226608  19.0222310  54.9981342  37.7675611  18.5294753  54.6792290
  37.3628385  19.1647097  55.8247420  37.2537193  18.9699752  55.0730875
  39.6612700  21.8677216  54.6488234  39.9435943  21.0728622  54.4274990
  40.3898860  22.3457803  54.6693295  39.8102263  21.8211813  54.6191249
  37.6393894   9.4100250  51.8903999  37.3097224   9.8611393  51.2207698
  36.9638895   9.3316413  52.4377006  37.4904330   9.4651385  51.8727223
  44.8470301   5.3985773  50.1353610  44.5323742   6.0889251  50.5674032
  44.3297243   5.3430555  49.4339111  44.7234772   5.4920661  50.0950559
  49.6430788  20.9736578  51.6224065  48.8128491  21.1847222  51.7857481
  49.5940040  20.1473633  51.3466348  49.5137523  20.8826184  51.6061430
  36.0782343  19.2953490  45.0498488  35.4939558  19.8003522  45.4564352
  35.6752438  19.0695877  44.3095080  35.9321647  19.3361739  45.0003514
  31.6326372  25.0108252  51.8522160  31.1493950  25.7358741  51.8281744
  32.4449690  25.3084382  51.9632318  31.6817119  25.1610605  51.8649439
  37.7040526  23.8040432  54.4571974  37.1867467  23.4447847  53.8533282
  38.4014917  23.2802607  54.4678041  37.7306107  23.6738120  54.3702233
  41.3604118  24.2535246  60.4188147  41.4487463  24.0661387  61.2666358
  41.7893830  23.6072676  60.0192994  41.4366220  24.1298254  60.4859899
  38.9274577  23.5366406  59.4005810  38.3645412  23.1239016  59.9245471
  39.6895601  23.4619312  59.8198953  38.9569026  23.4643807  59.5398810
  40.5359557  15.5419143  43.5267409  40.7755561  15.7497126  42.7142752
  40.8575398  14.7376651  43.6356354  40.6196715  15.4533244  43.4227962
  35.8449848   7.4712538  47.3726947  36.5995816   7.8390855  47.1343997
  35.6677382   7.8452093  48.1406127  35.9304326   7.5810726  47.4511835
  34.4870569  25.5264427  52.0042440  35.1891148  25.0116417  52.0615196
  34.4068052  25.8538579  52.8089315  34.5794329  25.4978654  52.1315232
  49.1384746  13.6206979  55.4174486  48.3013167  13.6909166  55.6522081
  49.1072977  13.6231474  54.5448789  49.0103029  13.6317206  55.3234034
  35.5349475  15.7640014  61.1322855  35.7069979  15.6545909  61.9808136
  36.0718833  16.4094420  60.8954047  35.6394479  15.8432016  61.2227952
  34.2006912   9.8782857  44.0705060  34.0182485  10.0954738  43.2446053
  35.0632525   9.9921870  44.1263674  34.3011502   9.9272755  43.9559547
  33.8121344  21.7170779  51.5128048  34.6510244  21.9493712  51.5601809
  33.8433113  20.8475091  51.4435083  33.9403062  21.6227726  51.5092693
  34.4374047  22.1371655  55.8141353  34.9772272  21.9942786  56.4844726
  33.7543994  22.5368405  56.1825380  34.4166201  22.1751326  55.9675775
  39.8806631   6.8809268  47.1054084  40.6092792   6.7025223  46.6592240
  39.9701524   7.7227348  47.3161262  40.0013294   6.9793146  47.0707601
  43.8614932  17.8162655  51.0086378  44.6172447  18.2494170  51.0475286
  43.9677257  17.1667425  51.5821014  43.9885103  17.7840139  51.0984403
  46.8995103  21.6435933  51.7588781  46.4630335  21.6472675  52.5147752
  46.5658019  22.3241432  51.3268358  46.7857723  21.7448388  51.8069613
  41.4724177  23.6844265  63.0831931  42.2564593  23.7975113  63.4487673
  41.2720771  22.8585402  63.2790617  41.5590202  23.5790985  63.1666317
  29.8411192  18.3571945  55.9675775  29.5749608  17.5411062  56.1266765
  29.8549756  18.4025101  55.0971290  29.8035915  18.2428850  55.8629257
  46.8192586   8.6849760  54.0018209  47.4618495   8.7547865  54.5880124
  47.0715607   8.0178983  53.4997751  46.9514718   8.5976109  54.0145488
  33.7468939  13.1557030  42.5827533  33.0327116  12.8695209  42.9949965
  34.2312908  13.4953656  43.2233920  33.7128303  13.1638680  42.7383168
  34.5909799  11.8950324  58.6142783  33.8981595  11.4247303  58.8603514
  35.2070126  11.6688628  59.1884490  34.5794329  11.7917456  58.7351935
  41.6294570  25.5954367  56.7298387  40.8309816  25.3553867  56.9872255
  42.0780582  25.6468760  57.4765434  41.5769181  25.5676759  56.8783311
  50.0339449  18.3616852  50.6508418  50.6955884  17.8007521  50.5504326
  49.3930861  17.8668883  50.9761109  50.0368317  18.2053261  50.6840758
  30.2504606  19.1430725  53.2487519  30.0680179  19.1177611  52.3959811
  30.9854275  19.6129663  53.2876428  30.3318670  19.2092087  53.1285438
  46.3204280  19.3782235  50.3920407  46.5559869  19.5227434  49.5647257
  46.4693844  20.1424643  50.7851920  46.3770083  19.5121289  50.3284011
  33.3150358  15.8615728  59.7569628  34.0390330  15.8468758  60.2434523
  33.4166494  16.5711083  59.2591596  33.4368567  15.9640431  59.7548415
  40.6895307  19.3414812  64.6218575  39.8968288  19.6558324  64.8071194
  40.8044234  19.5566281  63.7839359  40.5890718  19.4198649  64.5256910
  43.3626626  16.0648803  48.9113591  43.4573480  16.8038098  49.3653216
  42.7385470  15.6366279  49.3448155  43.2835656  16.1110124  49.0421738
  41.6179100  19.2435016  59.5603872  42.1917962  18.6062260  59.7152435
  41.5393904  19.2439099  58.6913529  41.6912335  19.1500128  59.4550282
  30.2175516  16.0224226  53.3986586  30.7949019  15.8860676  54.0378831
  29.5189578  15.5660010  53.6532170  30.1996538  15.9346492  53.5308875
  36.9742818  17.6758281  51.6125069  36.7162063  16.8430016  51.5856368
  37.0291301  17.9015894  50.7717569  36.9442596  17.5856052  51.4845206
  42.0543869   9.7786732  51.7129162  41.3500195   9.2895917  51.8713081
  42.1028843   9.7909206  50.8417606  41.9573920   9.7076380  51.6068501
  35.9477531  15.2296044  52.0989964  35.3727122  15.3888212  52.7353925
  35.5713207  14.5931453  51.6358414  35.8080343  15.1593857  52.1244522
  39.6150819  13.7019393  56.9582342  39.2265252  13.2773611  56.3034533
  38.9505518  13.9501543  57.4659369  39.4597747  13.6758114  56.9370210
  49.2574088  13.4594398  49.7330172  49.0010653  12.6474339  49.5428055
  50.1003402  13.4671965  49.5060359  49.3440114  13.3406395  49.6714989
  25.6934350  14.8736118  50.1134404  25.7794601  14.4967987  50.8947934
  26.3210147  14.4996564  49.6354363  25.7990900  14.7621601  50.1579882
  43.4377181   7.3994022  54.4706326  43.8187693   6.7172193  54.8574201
  42.6340465   7.1103624  54.2881991  43.3753643   7.2561070  54.5010382
  40.7189758  17.9317998  45.1559149  41.5330396  18.2232890  45.0441920
  40.6548899  17.2777860  44.5817442  40.8292497  17.8783192  45.0547986
  46.9399248  20.6143994  59.5688725  46.7037885  19.7832058  59.4500785
  47.5842477  20.5629601  60.1543569  46.9993918  20.4841682  59.6374618
  36.5897666  21.4039515  50.2831461  37.2271613  21.1651263  50.8283255
  37.0152737  21.6076674  49.5484622  36.7473832  21.3990525  50.2548618
  31.2810308  23.6427852  54.1665765  31.3214453  23.9142703  53.3385545
  31.8404832  24.1669760  54.5823553  31.3693654  23.7603607  54.1057653
  37.2300481  16.6241805  44.6206351  37.6145634  16.4049512  45.3722896
  36.9812101  17.4504750  44.7507427  37.2502553  16.7139951  44.7507427
  37.3969021   9.9048220  64.3368935  37.0822462  10.6747783  64.0738497
  37.0758954   9.3418476  63.7521162  37.3027940   9.9358489  64.2110285
  47.9635668  20.3988442  55.6317019  47.6581485  21.1316499  55.9930335
  47.2441884  19.9926372  55.3509805  47.8123011  20.4470175  55.6430156
  38.9719138  21.8811938  51.9625247  39.0458146  21.7187109  52.8167097
  39.7888644  22.0702127  51.7185729  39.1035496  21.8848680  52.0523273
  53.6637460  17.0381443  54.9585363  53.5961961  17.0577402  54.0887950
  53.6493123  17.8811770  55.1841034  53.6516217  17.1655178  54.8637840
  32.7324894  22.2269800  48.9919691  31.9063012  22.4731538  48.8653970
  32.7936886  22.1481881  49.8581749  32.6199061  22.2514749  49.1008635
  34.9500918   8.2938741  49.9515131  34.0823344   8.3661341  50.0172740
  35.2376123   9.0960820  50.1403106  34.8640666   8.4232889  49.9889898
  44.0733807   8.4416601  58.2826453  44.8187399   8.2526411  57.8689878
  43.6571112   8.9674839  57.7240309  44.1218781   8.4918746  58.1391026
  51.4496078  15.8125829  53.2331958  52.0003999  15.1793898  53.4729050
  51.4340193  16.3441222  53.9247462  51.5281274  15.7974777  53.3710816
  38.1018469  19.6464427  57.7791851  37.6030162  20.3580194  57.8576740
  38.9118693  19.9665093  57.7410014  38.1474575  19.7991275  57.7848420
  34.3646586  18.9087380  52.0254572  34.0759835  18.2824851  52.5600300
  35.2329934  18.8507667  52.0919253  34.4506838  18.8074924  52.1145527
  45.1524484  14.0522163  52.3436554  44.8089250  13.3312498  52.6943804
  45.2517527  13.8436014  51.5014912  45.1166527  13.9146366  52.2708234
  45.6137513  20.5147867  47.8860542  46.1795546  21.1741077  47.8019085
  44.9665417  20.8597565  48.3576944  45.6016270  20.6629808  47.9433299
  37.0285527  12.5045471  63.0754150  36.2185302  12.8103251  62.9643992
  37.5060213  13.2251053  63.1906734  36.9789005  12.6560072  63.0761221
  35.8877086  21.7191192  53.3237053  35.3657840  21.8591484  54.0088917
  36.2751107  20.9601856  53.5139170  35.8680787  21.6276716  53.4538129
  32.8768270  11.7697001  47.3932007  32.5893066  11.3998271  46.6563955
  33.5638738  12.2391856  47.1315712  32.9357168  11.7843970  47.2447083
  37.3143412  18.7495211  48.7218544  37.1186194  19.3569946  48.1278847
  37.5377757  18.0563155  48.2410218  37.3178053  18.7372737  48.5634625
  35.7121942  15.6349949  48.8399412  36.4344594  15.7991107  48.3803218
  35.2329935  16.3559614  48.7338752  35.7485673  15.7648179  48.7565026
  43.6715449  11.9713748  54.2196097  42.8326550  11.9975027  53.9834360
  43.7419817  12.6184483  54.8001444  43.5583843  12.0709874  54.2705214
  33.3629559  18.0408021  57.9453552  33.8750655  18.3192275  57.2962312
  33.0765901  18.7797315  58.3116365  33.3964422  18.1910375  57.9043430
  42.1184728   8.8699125  48.9523713  42.8211081   8.6706873  48.4743671
  41.8528916   8.0975067  49.2592556  42.1831360   8.7262091  48.9269155
  47.5472973  17.1781735  51.5057339  47.4606948  17.3337161  52.3592118
  47.0923453  17.8219810  51.1316744  47.4676230  17.2957490  51.5764446
  30.4496465  12.5478213  48.2417288  30.5512601  13.3504375  48.5698264
  31.2452352  12.3465549  47.9440369  30.5824370  12.6364112  48.2452644
  36.8813284  10.1334410  58.0054594  36.6896481  10.1489544  58.8554017
  37.7311880  10.3298084  57.9821248  36.9789006  10.1648761  58.1277888
  31.2660197  12.6625391  55.9838410  31.1245689  11.8109332  56.1082918
  31.5500760  12.7054052  55.1600616  31.2868043  12.5425141  55.8806034
  45.3146838  21.2075841  53.9169680  45.1761197  21.9056887  54.4218422
  44.5346836  21.0524497  53.5605861  45.1790065  21.2876008  53.9395954
  43.6524923  17.5072216  60.1692061  43.6472962  16.6352033  60.1734488
  44.3585917  17.7060385  59.6961517  43.7569927  17.4076091  60.0999097
  37.3795817  17.2349200  59.5405881  37.5239192  17.8150408  58.9048991
  37.7271465  17.6125497  60.2455736  37.4523278  17.3769904  59.5504876
  39.5515734  16.4339369  57.3231013  38.8039048  16.6270383  56.9179291
  39.7057259  15.6084588  57.0855134  39.4638162  16.3404480  57.2276419
  36.4523572  25.4251972  56.4066908  36.6013135  24.8654888  55.7540313
  37.2323574  25.5043974  56.7899427  36.5897665  25.3537538  56.3663857
  38.9776872  25.5966615  57.6851399  38.9020543  24.9275425  58.2402187
  38.9066731  26.2984403  58.1992065  38.9557479  25.6011522  57.8428247
  39.7917511  10.3289919  58.2126417  40.2490125  11.0613894  58.3399209
  39.8673840   9.9056385  58.9713672  39.8708481  10.3747157  58.3427493
  32.0350502  10.5755739  59.3015860  31.4992692   9.9636097  59.6176628
  32.0968267  11.1503875  59.9549527  31.9646135  10.5702667  59.4451287
  44.2644837   3.5079795  52.0820260  44.3828405   3.9656258  51.3487562
  44.0907013   2.7025056  51.7956477  44.2564008   3.4573567  51.9321193
  37.6699889  12.3192023  55.0568241  36.8795964  12.1383483  55.3785576
  38.0660512  11.5418976  55.0398535  37.6116765  12.1779484  55.1020789
  43.0543575  19.9534453  52.7827687  42.3788577  19.7219686  53.2841074
  43.0635951  19.3455636  52.1569792  42.9562080  19.8293379  52.7643839
  40.1837719  14.7952282  59.5391740  40.1196860  15.6562239  59.4111876
  40.3234907  14.4784276  58.7387291  40.1953189  14.8752449  59.4019952
  38.8656813  17.4884422  53.6807943  38.4419062  17.6888921  52.9446961
  38.6901668  16.6413270  53.7932242  38.7767694  17.3933203  53.5881633
  38.3668507  29.0034935  56.1429400  38.8564437  28.3045724  55.9605064
  37.7952739  28.7058805  56.7305457  38.3553036  28.8561158  56.2030441
  34.1539258  17.9836473  49.1135915  34.3103877  17.9183276  49.9691907
  34.4939851  18.7585026  48.9014595  34.2272493  18.0885671  49.2090509
  40.6918403  17.3594357  47.9829278  41.2333948  16.8564738  48.4467899
  41.0064962  17.3059551  47.1718764  40.8182800  17.2773778  47.9313090
  44.5635510  21.5697004  65.0956190  45.3770375  21.2982153  65.2561323
  44.4030476  21.2704544  64.2916386  44.6605459  21.4851930  65.0001596
  41.8407672  12.2530661  58.0351579  42.0549642  11.6141575  57.4814933
  41.2241571  12.6976485  57.6059440  41.7813001  12.2240805  57.8902010
  30.7273520  15.1671424  49.4296682  31.1072484  15.5855969  48.7656950
  30.1528884  15.7484879  49.7365526  30.6984844  15.3149282  49.3773423
  44.0046760  13.8619726  58.9734886  43.1923442  13.5545617  59.0548059
  44.4636695  13.3818727  59.5377598  43.9527145  13.7456219  59.0689480
  43.4152015  21.7399398  49.4211830  43.0566669  21.9114041  50.1975863
  42.9290725  22.2012604  48.8639829  43.2910712  21.8338369  49.4537099
  41.2322401   5.3630597  53.0238922  40.3615959   5.3369318  52.9772231
  41.4862742   5.1907789  52.2064767  41.1415961   5.3340741  52.8959058
  38.2040380  17.4198564  41.9612065  38.4932905  18.1963446  42.2355639
  38.2912179  16.9087295  42.6626564  38.2594636  17.4590482  42.1054562
  41.1000268  15.2679798  63.7563588  41.5699899  15.8921914  64.1431462
  41.1462148  14.5996773  64.3156803  41.1768143  15.2614478  63.8963660
  38.2571541   7.3736825  54.4812392  37.7410030   6.6817017  54.6063971
  37.6965470   8.0407602  54.4274991  38.0978054   7.3700083  54.4918458
  40.3263775   7.9129785  56.3105244  39.9395528   7.9378817  57.0918774
  39.8396712   7.3471464  55.8579761  40.1976284   7.8325536  56.3593148
  44.5756754  22.6303294  60.3679031  45.2136475  22.1363490  60.0341487
  43.9330846  22.5580695  59.7831258  44.5750981  22.5462303  60.2321386
  46.3013754  14.4792440  54.9344947  45.8741362  14.3918789  54.1793046
  45.6639807  14.5870216  55.5199791  46.1443361  14.4825100  54.9090388
  39.9920916   4.7996771  58.6015504  40.6214034   5.3357071  58.3236575
  40.1606779   4.7074130  59.4529070  40.1098711   4.8658133  58.6864033
  39.7934831   9.5867966  60.8741916  40.6208261   9.3153114  60.9300530
  39.8142677  10.3828807  61.2305734  39.9187681   9.6647720  60.9357099
  44.6311011  23.3223103  57.0084388  45.4203389  22.9712167  57.1286469
  44.8054608  24.1359491  56.7461022  44.7731292  23.3908960  56.9872256
  34.3704321  16.7331828  54.0612177  33.5292328  16.6335703  54.2691070
  34.5794329  17.5027309  54.4126497  34.2769014  16.8323872  54.1439492
  31.8479888  14.3551365  51.8896927  31.4536586  14.4294377  51.1147037
  31.2920005  14.7409312  52.4405289  31.7082700  14.4233140  51.8564587
  43.4844835   7.3332659  51.5700806  43.6894428   7.2654967  52.4157803
  43.1571259   8.1391481  51.5021984  43.4660083   7.4418600  51.6860461
  38.1820986  14.6613228  53.3109774  37.8784123  14.1069216  53.9120182
  37.4800407  14.8405438  52.8237808  38.0337196  14.6058010  53.3279480
  37.2387083  11.9713747  47.8754476  37.5146817  11.2532660  47.4632044
  37.8385752  12.5698667  47.6675582  37.3680348  11.9534118  47.7835237
  36.2439337  21.8762948  58.0181872  36.1359692  21.8865010  58.8843930
  36.4535118  22.7017729  57.8286826  36.2589448  22.0004023  58.1185964
  46.7378523   7.8864424  51.0503572  46.1252836   8.3734826  51.4357303
  46.8342697   7.2107914  51.5941223  46.6616420   7.8582732  51.1882430
  40.7397604   9.6427265  46.1501071  41.1941350   9.8137825  46.8748916
  41.2137649   9.0295375  45.7498847  40.8765924   9.5778150  46.1974833
  34.2613129  19.1275591  55.4803810  33.6701062  19.7685089  55.4506825
  35.0234153  19.5513208  55.4535109  34.2861390  19.2851429  55.4718957
  34.6573752  10.2877588  56.1471827  35.1175233  10.3616518  56.8846951
  34.7029858  11.0858842  55.7971648  34.7324307  10.4171735  56.2044584
  36.3057101  10.9544283  60.7143854  35.9142667  10.3077630  61.1499632
  36.4742964  11.5455719  61.3338110  36.2728012  10.9458551  60.8706560
  50.3803551  18.9581360  56.4781088  50.4386674  19.4068009  57.2241064
  49.7470018  19.3680173  56.0411168  50.2954846  19.0855095  56.5233636
  44.0202645  24.5784902  52.9135834  43.8222334  25.0675717  52.2192045
  43.3990356  24.7826144  53.4919967  43.8990210  24.6801440  52.8959057
  38.0810624  16.3469799  47.2546078  38.8252668  16.7344075  47.4929028
  38.2271320  15.5027224  47.4186566  38.2121209  16.2800272  47.3140048
  39.9990199   8.1420058  52.2877940  39.1526244   8.3142866  52.1619289
  39.9961331   7.3369402  52.6243768  39.8737349   8.0481087  52.3189067
  41.0688499  11.9195272  53.1539998  40.5948454  11.3937034  53.6645309
  41.4406635  11.3724745  52.5854859  41.0538388  11.7611269  53.1455145
  31.4461530  13.9166779  58.5223543  32.3087143  13.8162488  58.4360873
  31.1153313  13.3361488  57.9609116  31.5246726  13.8158406  58.4268949
  47.3325230  16.9797648  54.5646778  47.0923453  16.1404063  54.5689205
  47.8117237  17.0597815  55.2887552  47.3677414  16.8679048  54.6721580
  42.9971999  12.8131827  46.2165751  42.4695018  12.8960571  45.5271460
  43.4567707  13.5549698  46.2130396  42.9873850  12.9352489  46.1140447
  49.3330417  13.7599105  52.5176037  49.0940187  13.7194939  51.6796822
  49.4964318  14.6070257  52.6441758  49.3220720  13.8791190  52.4129519
  45.9376447  18.1449055  58.4481082  46.6610646  17.6921581  58.2692102
  45.6726409  18.4253720  57.6653410  46.0057720  18.1200023  58.3059798
  34.8063316  12.7409228  55.1833962  34.1816386  12.7527620  54.5759914
  34.4708910  13.2169403  55.8325202  34.6648807  12.8127745  55.1890530
  34.9905064  11.0834347  41.2406647  34.6417869  11.7354072  41.7038196
  34.5101510  11.0691460  40.5130518  34.8675308  11.1777400  41.2017738
  31.5188991  20.8009688  56.6237726  30.9888916  20.1102127  56.6732701
  31.7914084  20.7919874  55.7950434  31.4813713  20.6976820  56.5085142
  41.7195237  18.2432933  56.5976097  41.1052230  17.6990983  56.8924733
  42.2362522  17.7297169  56.1181914  41.7050899  18.0869342  56.5700326
  40.9591534  19.3137203  54.3320396  40.5319142  18.6886921  53.8985831
  40.9516478  19.0312125  55.1579403  40.8950675  19.1789983  54.3900224
  34.0754061  14.3502376  57.4008830  34.2347548  13.5945700  57.8060552
  33.8946954  14.8993315  58.0549568  34.0719420  14.3196190  57.5571536
  42.0174364   6.5163611  57.9559620  41.5214925   6.7127286  57.2651186
  42.7743426   6.9156280  57.7848421  42.0561189   6.6041345  57.8279756
  39.2877243  10.1905957  54.5462930  39.3119731   9.6566070  53.8575710
  39.5388717   9.6823266  55.2088521  39.3287162  10.0366861  54.5427575
  26.7984833  17.4737452  53.9806074  26.6928282  17.4284297  53.1158158
  26.0485053  17.8191233  54.2620359  26.6720436  17.5178360  53.8943404
  35.5678566   8.9176776  53.9268674  35.6076937   9.4185982  54.6403382
  34.7428230   9.0087169  53.6574597  35.4518092   9.0058592  53.9919213
  37.7508179  18.4837516  62.0288969  36.9003809  18.6209230  62.1646614
  37.9136306  17.7501294  62.4736671  37.6492042  18.3951617  62.1144568
  36.9892929  15.4337285  56.2242573  36.1584859  15.6011103  56.0177821
  36.9344446  15.0573236  57.0091459  36.8582344  15.4027017  56.3091102
  34.7976712   8.9246178  61.8598984  35.4229416   8.3808311  62.1328416
  34.3427192   8.4441096  61.2906774  34.8224973   8.7735660  61.8160578
  35.3628973  13.7092877  46.7532691  35.5031934  14.2065341  47.4561332
  35.8611506  13.0079171  46.8946905  35.4570054  13.6794856  46.8784270
  35.3929195  14.5759988  44.0825268  36.0274275  15.1720413  44.0174730
  35.4754806  14.2763446  44.8971138  35.4985746  14.6200896  44.1928354
  48.3711761  17.1075465  56.9511632  48.9629601  17.7472716  56.9829830
  48.8070756  16.4098502  57.2403699  48.5230192  17.0993816  56.9992465
  36.9708178  10.5073963  44.0570710  37.2924019  10.0277046  43.4029972
  37.2335122  11.3173609  43.8661522  37.0574204  10.5563861  43.9326202
  40.2005151  21.5292838  57.5769526  39.6930242  22.0828685  58.0210157
  39.9031797  21.5901128  56.7588301  40.0810036  21.6199149  57.5217983
  42.3667333   9.8946157  56.4194189  42.7922405   9.4418684  55.8077715
  41.7524326   9.3406228  56.6958976  42.3395979   9.7460134  56.3699214
  31.8982183  16.7727829  47.3514814  32.4074413  17.3692336  47.7326119
  32.3716455  16.5053802  46.6691234  32.0425559  16.8213644  47.3069337
  40.8061556   6.3661257  49.8284766  40.1629874   6.2158904  50.3969904
  40.4660963   6.1203602  49.0633871  40.6606633   6.3073380  49.7987781
  45.3960902  14.3220684  49.2514775  44.7252092  14.8650386  49.1227840
  46.0900653  14.7915539  49.0096469  45.3989770  14.4718955  49.1970302
  39.4447636  26.4617396  54.4826533  39.2213291  25.7036225  54.8510559
  38.9557479  26.4915417  53.7606973  39.3391085  26.3539621  54.4303274
  45.5589030  10.7776568  52.1605148  45.9116640  10.3506291  52.8350947
  44.7003831  10.6927411  52.2906224  45.4838475  10.7021308  52.2800158
  34.2572715  13.4084087  50.2187994  33.5384704  13.8248220  50.4860858
  34.6285077  13.9738326  49.6679633  34.2064647  13.5533369  50.1770801
  43.5572296  14.0411936  56.1089990  43.5370223  13.8595231  56.9624769
  43.6051496  14.9123955  56.0849574  43.5606937  14.1428474  56.2313285
  41.5018626  20.6299128  62.0338467  41.4614480  19.9848805  61.4483622
  42.3141944  20.5735746  62.3463879  41.6161779  20.5258095  61.9935416
  41.4591387  25.8407939  52.6887234  41.0607670  25.9510210  51.9208054
  40.8442607  26.0490006  53.2713794  41.3090277  25.8881507  52.6618533
  40.0319289  12.4482087  45.5561374  39.4384129  12.7699084  45.0045941
  40.0694567  11.6023183  45.3482480  39.9493678  12.3706415  45.4444145
  46.9913090   5.8994979  53.0889460  46.4843955   5.1924119  53.0210638
  47.7880524   5.5688168  53.2190537  47.0340329   5.7468131  53.0988455
  42.9077106  12.4061592  48.9863124  42.6790799  12.4294293  48.1441482
  43.1675182  11.5819059  49.1058135  42.9123294  12.2877672  48.8788322
  37.1896334  14.2596065  58.5888224  36.6775237  13.6517248  58.9473256
  37.0175830  14.9752657  59.0562200  37.0885971  14.2759364  58.7104448
  32.0362049  12.7033640  61.2390586  31.8664639  13.3635015  60.6938793
  31.5927999  12.9140201  61.9603075  31.9461383  12.8319622  61.2652216
  35.9621868  10.9438138  50.2817320  36.4379235  11.3055218  49.6467501
  35.4610468  11.5994606  50.5617462  35.9587227  11.0932327  50.2294061
  41.0665405  12.1820309  61.0290480  41.6236835  11.9534119  60.3968945
  40.7426470  12.9425975  60.7525692  41.1011815  12.2604146  60.8946977
  28.9364114  15.6080506  56.4979076  28.3890833  14.9381151  56.6159944
  29.7256492  15.2410354  56.5622543  28.9716297  15.4545492  56.5247776
  38.7848522  15.2687963  61.9942487  39.5359849  15.5839640  62.3082041
  38.9771098  15.0667134  61.1676409  38.9239936  15.2855344  61.9185883
  38.0048522  13.0879338  43.6490704  38.3847486  13.1058967  42.8641818
  37.2641118  13.5333327  43.5281551  37.9517359  13.1561112  43.5154272
  45.6333812  11.3961529  49.2366282  45.6328038  11.2410186  50.0950559
  45.4289992  12.2424516  49.1807668  45.6033590  11.4982150  49.3554222
  27.6951083  14.8201313  53.6525099  27.5172844  14.3677922  54.3780015
  27.4070105  15.6227475  53.8363576  27.6264036  14.8723871  53.7868602
  43.3574664  16.0759031  52.8902489  43.8528329  15.3582026  52.8506510
  42.5474440  15.7729828  52.7756976  43.3118557  15.9256677  52.8676215
  29.4323553  17.3529037  50.7646858  28.5669072  17.3414728  50.6529629
  29.5322369  17.1659260  51.6117997  29.3197720  17.3235098  50.8735802
  45.4226483  18.8262718  55.5779618  45.8481555  18.3037140  55.0250043
  45.0583403  19.4243556  55.0568241  45.4313086  18.8372945  55.4188628
  35.0580563  27.1226936  54.3376963  35.3727122  27.9363324  54.3454745
  35.4673976  26.7377154  55.0059123  35.1648661  27.1855638  54.4381055
  44.0982067  24.1498296  64.0872848  44.2079032  23.3606857  64.4429595
  44.4272964  24.0604232  63.2847186  44.1634473  24.0204149  64.0215238
  38.9274577   7.3124453  58.8638870  39.0602483   6.5155447  59.1919846
  39.3119730   7.8390856  59.4437146  39.0030906   7.2724370  58.9982373
  42.6479029  22.3314917  58.6708468  42.0999975  21.7072800  58.4028533
  43.1092057  22.5209189  57.9552547  42.6346238  22.2673967  58.5258899
  42.0006933   4.2354779  55.4619964  41.1952896   4.1252509  55.7787802
  41.8713668   4.3367235  54.6049829  41.8627065   4.2338449  55.3828004
  45.4572893  10.4000271  56.0559660  44.8735882  10.9009478  55.6437228
  45.7777187   9.8929827  55.4223984  45.4186068  10.3992106  55.9018168
  37.9967692   9.3140866  46.3318335  38.8183387   9.4839179  46.0900030
  37.5337343   9.4688127  45.6084633  38.0498854   9.3622599  46.1889980
  36.5863024   7.3083628  57.1116764  37.1307437   6.9674755  57.7021106
  36.6399960   8.1669090  57.2538049  36.6752144   7.3838888  57.2198637
  32.3993583  21.0700044  53.9855572  33.0038440  21.0295878  53.3569393
  32.1920895  21.9171196  54.0159628  32.4582480  21.1888047  53.8971688
  42.2137355  23.3365989  55.2017809  43.0335729  23.1928955  55.4634104
  41.9331433  23.9612188  55.7434247  42.2934098  23.4076341  55.3205749
  27.6344865  20.0534662  53.8554495  27.5369143  19.2430933  54.1644552
  28.4173735  20.0326455  53.4700763  27.7361002  19.9301752  53.8441358
  58.6851005  30.9930841  48.1660686  58.6545010  31.8475478  48.3378955
  59.2832354  30.6926134  48.7246829  58.7688163  31.0747338  48.2735488
  51.8850690  30.0806492  52.9213616  51.0288586  30.2414990  52.9722733
  51.9318344  29.2098556  52.9418677  51.7649802  29.9757294  52.9319682
  55.1944407  36.3493018  62.5274072  55.9011174  35.8545048  62.6561007
  55.3832342  36.7902099  61.7976730  55.3272312  36.3411368  62.4383118
  54.7302511  32.1398536  55.5645268  55.2758471  32.8183623  55.6239237
  54.6719388  31.9985997  54.7046849  54.8018426  32.2190538  55.4457328
  43.3431718  27.8193619  53.4750262  42.7236750  27.2286267  53.3060276
  43.2415581  28.4105055  52.8414585  43.2369393  27.8197702  53.3555251
  50.4399614  29.5593161  47.8082725  51.1379778  29.7381289  48.3004188
  50.7551946  29.0363500  47.1853114  50.5894951  29.5086933  47.7884735
  43.0700851  31.3645901  55.7193830  42.9459548  31.9508347  56.3543649
  43.7219135  30.8706097  56.0206105  43.1474500  31.3784705  55.8579760
  48.6126477  24.9285558  51.8903999  48.2829807  25.3796701  51.2207698
  47.9371479  24.8501721  52.4377006  48.4636913  24.9836693  51.8727223
  55.8202885  20.9171081  50.1353610  55.5056326  21.6074559  50.5674032
  55.3029827  20.8615863  49.4339111  55.6967355  21.0105969  50.0950559
  60.6163372  36.4921886  51.6224065  59.7861075  36.7032530  51.7857481
  60.5672624  35.6658941  51.3466348  60.4870107  36.4011492  51.6061430
  60.1117330  29.1392287  55.4174486  59.2745751  29.2094474  55.6522081
  60.0805561  29.1416782  54.5448789  59.9835612  29.1502514  55.3234034
  46.5082059  31.2825322  61.1322855  46.6802563  31.1731217  61.9808136
  47.0451416  31.9279728  60.8954047  46.6127063  31.3617324  61.2227952
  57.8727687  37.1621240  51.7588781  57.4362919  37.1657983  52.5147752
  57.5390602  37.8426739  51.3268358  57.7590307  37.2633696  51.8069613
  52.4456760  39.2029573  63.0831931  53.2297177  39.3160421  63.4487673
  52.2453355  38.3770710  63.2790617  52.5322786  39.0976293  63.1666317
  57.7925170  24.2035068  54.0018209  58.4351078  24.2733173  54.5880124
  58.0448190  23.5364291  53.4997751  57.9247302  24.1161417  54.0145488
  45.5642382  27.4135632  58.6142783  44.8714179  26.9432611  58.8603514
  46.1802710  27.1873936  59.1884490  45.5526912  27.3102764  58.7351935
  61.0072033  33.8802160  50.6508418  61.6688467  33.3192829  50.5504326
  60.3663445  33.3854191  50.9761109  61.0100901  33.7238569  50.6840758
  57.2936864  34.8967543  50.3920407  57.5292453  35.0412742  49.5647257
  57.4426427  35.6609951  50.7851920  57.3502667  35.0306597  50.3284011
  44.2882941  31.3801036  59.7569628  45.0122914  31.3654066  60.2434523
  44.3899078  32.0896391  59.2591596  44.4101150  31.4825739  59.7548415
  59.1227320  33.7369209  48.2290011  59.4535538  34.2696849  47.6230105
  59.6960409  33.7908096  48.8851961  59.2561000  33.8238778  48.2367792
  51.6627891  34.8600120  64.6218575  50.8700871  35.1743632  64.8071194
  51.7776818  35.0751589  63.7839359  51.5623301  34.9383957  64.5256910
  52.5911683  34.7620324  59.5603872  53.1650545  34.1247568  59.7152435
  52.5126487  34.7624406  58.6913529  52.6644918  34.6685435  59.4550282
  53.0276452  25.2972040  51.7129162  52.3232779  24.8081225  51.8713081
  53.0761427  25.3094514  50.8417606  52.9306504  25.2261688  51.6068501
  50.5883403  29.2204701  56.9582342  50.1997836  28.7958919  56.3034533
  49.9238101  29.4686851  57.4659369  50.4330331  29.1943422  56.9370210
  60.2306672  28.9779706  49.7330172  59.9743237  28.1659647  49.5428055
  61.0735986  28.9857273  49.5060359  60.3172697  28.8591703  49.6714989
  54.4109764  22.9179330  54.4706326  54.7920276  22.2357501  54.8574201
  53.6073049  22.6288932  54.2881991  54.3486226  22.7746378  54.5010382
  57.9131831  36.1329302  59.5688725  57.6770469  35.3017366  59.4500785
  58.5575060  36.0814909  60.1543569  57.9726502  36.0026990  59.6374618
  48.3701605  25.4233528  64.3368935  48.0555046  26.1933091  64.0738497
  48.0491537  24.8603784  63.7521162  48.2760524  25.4543797  64.2110285
  58.9368252  35.9173750  55.6317019  58.6314069  36.6501807  55.9930335
  58.2174468  35.5111680  55.3509805  58.7855594  35.9655483  55.6430156
  64.6370044  32.5566751  54.9585363  64.5694544  32.5762710  54.0887950
  64.6225706  33.3997078  55.1841034  64.6248800  32.6840486  54.8637840
  45.9233502  23.8124049  49.9515131  45.0555927  23.8846649  50.0172740
  46.2108706  24.6146128  50.1403106  45.8373250  23.9418196  49.9889898
  55.0466391  23.9601909  58.2826453  55.7919983  23.7711719  57.8689878
  54.6303695  24.4860147  57.7240309  55.0951365  24.0104054  58.1391026
  62.4228661  31.3311137  53.2331958  62.9736583  30.6979206  53.4729050
  62.4072777  31.8626530  53.9247462  62.5013858  31.3160085  53.3710816
  49.0751052  35.1649735  57.7791851  48.5762746  35.8765502  57.8576740
  49.8851276  35.4850401  57.7410014  49.1207159  35.3176583  57.7848420
  56.1257068  29.5707471  52.3436554  55.7821833  28.8497806  52.6943804
  56.2250110  29.3621322  51.5014912  56.0899110  29.4331674  52.2708234
  48.0018110  28.0230779  63.0754150  47.1917886  28.3288559  62.9643992
  48.4792797  28.7436361  63.1906734  47.9521589  28.1745380  63.0761221
  54.6448033  27.4899056  54.2196097  53.8059134  27.5160335  53.9834360
  54.7152400  28.1369791  54.8001444  54.5316426  27.5895182  54.2705214
  44.3362142  33.5593329  57.9453552  44.8483239  33.8377583  57.2962312
  44.0498485  34.2982623  58.3116365  44.3697005  33.7095683  57.9043430
  53.0917311  24.3884433  48.9523713  53.7943664  24.1892181  48.4743671
  52.8261500  23.6160375  49.2592556  53.1563944  24.2447399  48.9269155
  58.5205557  32.6967042  51.5057339  58.4339531  32.8522469  52.3592118
  58.0656037  33.3405118  51.1316744  58.4408813  32.8142798  51.5764446
  47.8545867  25.6519718  58.0054594  47.6629065  25.6674852  58.8554017
  48.7044463  25.8483392  57.9821248  47.9521589  25.6834069  58.1277888
  42.2392781  28.1810699  55.9838410  42.0978272  27.3294640  56.1082918
  42.5233344  28.2239360  55.1600616  42.2600627  28.0610449  55.8806034
  52.3931373  30.0177790  50.1282898  52.1466087  29.9373540  50.9619687
  52.7216496  29.2331257  49.9345426  52.4052616  29.8904055  50.2230421
  56.2879422  36.7261149  53.9169680  56.1493781  37.4242195  54.4218422
  55.5079420  36.5709805  53.5605861  56.1522649  36.8061316  53.9395954
  54.6257507  33.0257524  60.1692061  54.6205545  32.1537341  60.1734488
  55.3318501  33.2245693  59.6961517  54.7302511  32.9261398  60.0999097
  48.3528400  32.7534508  59.5405881  48.4971776  33.3335716  58.9048991
  48.7004049  33.1310805  60.2455736  48.4255862  32.8955212  59.5504876
  50.5248318  31.9524677  57.3231013  49.7771632  32.1455691  56.9179291
  50.6789843  31.1269896  57.0855134  50.4370745  31.8589788  57.2276419
  50.7650095  25.8475227  58.2126417  51.2222709  26.5799202  58.3399209
  50.8406423  25.4241693  58.9713672  50.8441064  25.8932465  58.3427493
  43.0083086  26.0941047  59.3015860  42.4725275  25.4821405  59.6176628
  43.0700851  26.6689183  59.9549527  42.9378718  26.0887975  59.4451287
  55.2377420  19.0265102  52.0820260  55.3560989  19.4841566  51.3487562
  55.0639596  18.2210364  51.7956477  55.2296591  18.9758875  51.9321193
  48.6432472  27.8377331  55.0568241  47.8528547  27.6568791  55.3785576
  49.0393095  27.0604284  55.0398535  48.5849349  27.6964792  55.1020789
  51.1570303  30.3137590  59.5391740  51.0929444  31.1747547  59.4111876
  51.2967490  29.9969584  58.7387291  51.1685773  30.3937757  59.4019952
  55.5368094  37.0882312  65.0956190  56.3502959  36.8167461  65.2561323
  55.3763060  36.7889852  64.2916386  55.6338042  37.0037238  65.0001596
  52.8140256  27.7715969  58.0351579  53.0282225  27.1326883  57.4814933
  52.1974155  28.2161793  57.6059440  52.7545585  27.7426113  57.8902010
  54.9779344  29.3805034  58.9734886  54.1656025  29.0730925  59.0548059
  55.4369278  28.9004034  59.5377598  54.9259728  29.2641527  59.0689480
  52.2054984  20.8815905  53.0238922  51.3348542  20.8554626  52.9772231
  52.4595326  20.7093097  52.2064767  52.1148544  20.8526049  52.8959058
  52.0732851  30.7865106  63.7563588  52.5432482  31.4107222  64.1431462
  52.1194731  30.1182081  64.3156803  52.1500727  30.7799786  63.8963660
  49.2304125  22.8922133  54.4812392  48.7142613  22.2002325  54.6063971
  48.6698054  23.5592910  54.4274991  49.0710638  22.8885391  54.4918458
  51.2996358  23.4315093  56.3105244  50.9128111  23.4564125  57.0918774
  50.8129295  22.8656772  55.8579761  51.1708867  23.3510844  56.3593148
  55.5489338  38.1488602  60.3679031  56.1869058  37.6548798  60.0341487
  54.9063429  38.0766003  59.7831258  55.5483564  38.0647611  60.2321386
  57.2746338  29.9977748  54.9344947  56.8473946  29.9104097  54.1793046
  56.6372391  30.1055524  55.5199791  57.1175945  30.0010408  54.9090388
  50.9653500  20.3182079  58.6015504  51.5946618  20.8542379  58.3236575
  51.1339363  20.2259438  59.4529070  51.0831294  20.3843441  58.6864033
  50.7667415  25.1053273  60.8741916  51.5940844  24.8338422  60.9300530
  50.7875261  25.9014115  61.2305734  50.8920265  25.1833028  60.9357099
  55.6043594  38.8408411  57.0084388  56.3935972  38.4897475  57.1286469
  55.7787192  39.6544799  56.7461022  55.7463876  38.9094268  56.9872256
  54.4577418  22.8517967  51.5700806  54.6627012  22.7840275  52.4157803
  54.1303842  23.6576788  51.5021984  54.4392666  22.9603908  51.6860461
  49.1553570  30.1798535  53.3109774  48.8516707  29.6254524  53.9120182
  48.4532990  30.3590745  52.8237808  49.0069779  30.1243318  53.3279480
  57.7111106  23.4049732  51.0503572  57.0985420  23.8920134  51.4357303
  57.8075281  22.7293222  51.5941223  57.6349004  23.3768040  51.1882430
  51.7130187  25.1612573  46.1501071  52.1673934  25.3323133  46.8748916
  52.1870233  24.5480683  45.7498847  51.8498507  25.0963458  46.1974833
  45.6306335  25.8062896  56.1471827  46.0907817  25.8801826  56.8846951
  45.6762442  26.6044150  55.7971648  45.7056891  25.9357043  56.2044584
  47.2789685  26.4729591  60.7143854  46.8875250  25.8262938  61.1499632
  47.4475548  27.0641026  61.3338110  47.2460595  26.4643859  60.8706560
  61.3536134  34.4766668  56.4781088  61.4119258  34.9253317  57.2241064
  60.7202602  34.8865481  56.0411168  61.2687429  34.6040403  56.5233636
  54.9935229  40.0970210  52.9135834  54.7954917  40.5861025  52.2192045
  54.3722940  40.3011452  53.4919967  54.8722793  40.1986748  52.8959057
  50.9722783  23.6605366  52.2877940  50.1258828  23.8328174  52.1619289
  50.9693915  22.8554710  52.6243768  50.8469932  23.5666395  52.3189067
  52.0421083  27.4380580  53.1539998  51.5681037  26.9122342  53.6645309
  52.4139219  26.8910053  52.5854859  52.0270972  27.2796577  53.1455145
  42.4194113  29.4352087  58.5223543  43.2819726  29.3347796  58.4360873
  42.0885896  28.8546796  57.9609116  42.4979309  29.3343714  58.4268949
  58.3057814  32.4982956  54.5646778  58.0656036  31.6589371  54.5689205
  58.7849821  32.5783123  55.2887552  58.3409997  32.3864356  54.6721580
  53.9704583  28.3317135  46.2165751  53.4427601  28.4145879  45.5271460
  54.4300291  29.0735006  46.2130396  53.9606433  28.4537797  46.1140447
  60.3063001  29.2784413  52.5176037  60.0672771  29.2380247  51.6796822
  60.4696902  30.1255565  52.6441758  60.2953304  29.3976498  52.4129519
  56.9109031  33.6634362  58.4481082  57.6343230  33.2106889  58.2692102
  56.6458993  33.9439028  57.6653410  56.9790304  33.6385331  58.3059798
  45.7795899  28.2594536  55.1833962  45.1548969  28.2712928  54.5759914
  45.4441494  28.7354711  55.8325202  45.6381391  28.3313053  55.1890530
  45.0486644  29.8687684  57.4008830  45.2080131  29.1131008  57.8060552
  44.8679538  30.4178623  58.0549568  45.0452003  29.8381498  57.5571536
  52.9906947  22.0348919  57.9559620  52.4947509  22.2312594  57.2651186
  53.7476009  22.4341588  57.7848421  53.0293772  22.1226653  57.8279756
  50.2609827  25.7091265  54.5462930  50.2852314  25.1751378  53.8575710
  50.5121301  25.2008574  55.2088521  50.3019746  25.5552169  54.5427575
  46.5411149  24.4362084  53.9268674  46.5809521  24.9371290  54.6403382
  45.7160814  24.5272477  53.6574597  46.4250675  24.5243900  53.9919213
  48.7240762  34.0022824  62.0288969  47.8736393  34.1394538  62.1646614
  48.8868890  33.2686602  62.4736671  48.6224626  33.9136925  62.1144568
  47.9625513  30.9522593  56.2242573  47.1317442  31.1196411  56.0177821
  47.9077030  30.5758544  57.0091459  47.8314928  30.9212325  56.3091102
  45.7709296  24.4431486  61.8598984  46.3961999  23.8993619  62.1328416
  45.3159776  23.9626404  61.2906774  45.7957557  24.2920968  61.8160578
  59.3444345  32.6260773  56.9511632  59.9362185  33.2658024  56.9829830
  59.7803339  31.9283810  57.2403699  59.4962776  32.6179124  56.9992465
  51.1737735  37.0478146  57.5769526  50.6662826  37.6013993  58.0210157
  50.8764381  37.1086436  56.7588301  51.0542619  37.1384457  57.5217983
  53.3399917  25.4131465  56.4194189  53.7654988  24.9603992  55.8077715
  52.7256910  24.8591536  56.6958976  53.3128562  25.2645442  56.3699214
  51.7794140  21.8846565  49.8284766  51.1362458  21.7344211  50.3969904
  51.4393547  21.6388910  49.0633871  51.6339217  21.8258688  49.7987781
  56.3693486  29.8405992  49.2514775  55.6984676  30.3835694  49.1227840
  57.0633236  30.3100847  49.0096469  56.3722354  29.9904263  49.1970302
  56.5321614  26.2961876  52.1605148  56.8849224  25.8691598  52.8350947
  55.6736415  26.2112719  52.2906224  56.4571058  26.2206616  52.2800158
  54.5304879  29.5597244  56.1089990  54.5102807  29.3780539  56.9624769
  54.5784080  30.4309263  56.0849574  54.5339520  29.6613782  56.2313285
  52.4751209  36.1484436  62.0338467  52.4347064  35.5034113  61.4483622
  53.2874527  36.0921054  62.3463879  52.5894363  36.0443403  61.9935416
  51.0051873  27.9667395  45.5561374  50.4116712  28.2884392  45.0045941
  51.0427151  27.1208491  45.3482480  50.9226262  27.8891723  45.4444145
  57.9645674  21.4180287  53.0889460  57.4576538  20.7109427  53.0210638
  58.7613107  21.0873476  53.2190537  58.0072913  21.2653439  53.0988455
  53.8809689  27.9246900  48.9863124  53.6523382  27.9479601  48.1441482
  54.1407766  27.1004367  49.1058135  53.8855877  27.8062980  48.8788322
  48.1628918  29.7781373  58.5888224  47.6507821  29.1702556  58.9473256
  47.9908414  30.4937965  59.0562200  48.0618555  29.7944672  58.7104448
  43.0094633  28.2218948  61.2390586  42.8397223  28.8820323  60.6938793
  42.5660582  28.4325509  61.9603075  42.9193966  28.3504930  61.2652216
  46.9354452  26.4623446  50.2817320  47.4111818  26.8240526  49.6467501
  46.4343052  27.1179914  50.5617462  46.9319811  26.6117635  50.2294061
  60.1665814  35.9345214  46.0730325  60.5499419  36.6836570  46.3028422
  59.3709927  36.1811034  45.8142314  60.1059596  36.0814908  46.0687898
  52.0397988  27.7005617  61.0290480  52.5969418  27.4719427  60.3968945
  51.7159053  28.4611283  60.7525692  52.0744398  27.7789454  60.8946977
  39.9096697  31.1265814  56.4979076  39.3623417  30.4566459  56.6159944
  40.6989075  30.7595661  56.5622543  39.9448881  30.9730800  56.5247776
  49.7581105  30.7873271  61.9942487  50.5092432  31.1024947  62.3082041
  49.9503682  30.5852442  61.1676409  49.8972520  30.8040652  61.9185883
  56.6066396  26.9146837  49.2366282  56.6060622  26.7595493  50.0950559
  56.4022576  27.7609824  49.1807668  56.5766173  27.0167458  49.3554222
  38.6683667  30.3386621  53.6525099  38.4905428  29.8863230  54.3780015
  38.3802689  31.1412783  53.8363576  38.5996620  30.3909179  53.7868602
  54.3307248  31.5944339  52.8902489  54.8260913  30.8767334  52.8506510
  53.5207023  31.2915136  52.7756976  54.2851141  31.4441985  52.8676215
  56.3959067  34.3448026  55.5779618  56.8214138  33.8222448  55.0250043
  56.0315986  34.9428864  55.0568241  56.4045669  34.3558253  55.4188628
  55.0714651  39.6683604  64.0872848  55.1811616  38.8792164  64.4429595
  55.4005547  39.5789540  63.2847186  55.1367056  39.5389457  64.0215238
  49.9007161  22.8309761  58.8638870  50.0335067  22.0340754  59.1919846
  50.2852314  23.3576164  59.4437146  49.9763490  22.7909678  58.9982373
  53.6211612  37.8500225  58.6708468  53.0732558  37.2258108  58.4028533
  54.0824641  38.0394497  57.9552547  53.6078822  37.7859275  58.5258899
  52.9739516  19.7540087  55.4619964  52.1685480  19.6437817  55.7787802
  52.8446252  19.8552543  54.6049829  52.8359649  19.7523757  55.3828004
  56.4305477  25.9185579  56.0559660  55.8468465  26.4194786  55.6437228
  56.7509771  25.4115135  55.4223984  56.3918652  25.9177414  55.9018168
  47.5595608  22.8268936  57.1116764  48.1040021  22.4860063  57.7021106
  47.6132543  23.6854398  57.2538049  47.6484727  22.9024195  57.2198637
  53.1869939  38.8551297  55.2017809  54.0068312  38.7114263  55.4634104
  52.9064016  39.4797496  55.7434247  53.2666682  38.9261649  55.3205749
  69.6583589  46.5116149  48.1660686  69.6277593  47.3660786  48.3378955
  70.2564938  46.2111442  48.7246829  69.7420747  46.5932646  48.2735488
  62.8583274  45.5991800  52.9213616  62.0021169  45.7600298  52.9722733
  62.9050928  44.7283864  52.9418677  62.7382385  45.4942602  52.9319682
  57.2424414  55.1354518  48.6850848  56.4907313  54.7570056  48.4566893
  57.6910425  55.1672952  47.9369658  57.1974080  55.0840125  48.5408350
  66.1676990  51.8678326  62.5274072  66.8743758  51.3730356  62.6561007
  66.3564926  52.3087407  61.7976730  66.3004896  51.8596676  62.4383118
  62.2353665  57.5094156  50.0547506  62.6193044  58.0781055  49.5152282
  62.1712806  56.7843666  49.5753322  62.2827092  57.4869620  49.9041369
  65.7035095  47.6583844  55.5645268  66.2491055  48.3368931  55.6239237
  65.6451971  47.5171305  54.7046849  65.7751009  47.7375846  55.4457328
  58.8209170  55.1472910  50.9513620  58.9219533  54.3373264  51.2610748
  58.2250915  55.0529856  50.3213299  58.7481708  55.0137938  50.9039859
  67.4800164  49.0868451  46.4378996  67.3639689  49.8376137  46.8671134
  68.2756050  48.8292404  46.6875083  67.5804753  49.1603298  46.5383087
  58.6609909  60.0650499  52.3528476  59.3047365  60.5063663  52.7424635
  58.9866165  59.2603925  52.2658735  58.8041738  60.0115694  52.3973953
  59.3630489  53.0762474  47.7248338  59.6846330  53.6167681  47.1209646
  60.0102586  52.5059245  47.8570628  59.5056544  53.0721649  47.6555373
  61.6020132  51.4648914  47.7962516  62.0413768  50.8566015  48.2417289
  61.4524795  51.0856287  47.0247981  61.6441598  51.3187385  47.7481683
  59.0691775  50.0592926  54.9981342  59.7140778  49.5665369  54.6792290
  59.3093553  50.2017713  55.8247420  59.2002361  50.0070368  55.0730875
  61.6077867  52.9047832  54.6488234  61.8901110  52.1099238  54.4274990
  62.3364027  53.3828419  54.6693295  61.7567431  52.8582429  54.6191249
  59.5859061  40.4470866  51.8903999  59.2562391  40.8982009  51.2207698
  58.9104062  40.3687029  52.4377006  59.4369497  40.5022001  51.8727223
  65.2029469  49.8176095  44.7493285  65.1180764  50.6737062  44.8942854
  65.6913852  49.5420419  45.4175444  65.2618366  49.9033417  44.8695367
  66.7935468  36.4356389  50.1353610  66.4788909  37.1259867  50.5674032
  66.2762410  36.3801171  49.4339111  66.6699939  36.5291277  50.0950559
  66.1347902  46.4360890  46.2491020  65.6059374  46.6520523  46.9088327
  66.6572922  47.1297028  46.1691990  66.1336355  46.5704026  46.3346620
  71.5895955  52.0107194  51.6224065  70.7593658  52.2217838  51.7857481
  71.5405207  51.1844249  51.3466348  71.4602691  51.9196800  51.6061430
  53.5791539  56.0478867  51.8522160  53.0959117  56.7729357  51.8281744
  54.3914857  56.3454997  51.9632318  53.6282286  56.1981221  51.8649439
  59.6505693  54.8411048  54.4571974  59.1332634  54.4818463  53.8533282
  60.3480084  54.3173223  54.4678041  59.6771274  54.7108736  54.3702233
  63.3069285  55.2905862  60.4188147  63.3952631  55.1032003  61.2666358
  63.7358997  54.6443292  60.0192994  63.3831387  55.1668870  60.4859899
  60.8739744  54.5737022  59.4005810  60.3110579  54.1609632  59.9245471
  61.6360768  54.4989928  59.8198953  60.9034193  54.5014423  59.5398810
  71.0849913  44.6577595  55.4174486  70.2478335  44.7279782  55.6522081
  71.0538144  44.6602089  54.5448789  70.9568196  44.6687822  55.3234034
  57.4814643  46.8010630  61.1322855  57.6535146  46.6916525  61.9808136
  58.0184000  47.4465036  60.8954047  57.5859646  46.8802632  61.2227952
  56.3839214  53.1742271  55.8141353  56.9237439  53.0313402  56.4844726
  55.7009161  53.5739021  56.1825380  56.3631368  53.2121941  55.9675775
  61.8271799  37.9179884  47.1054084  62.5557959  37.7395839  46.6592240
  61.9166691  38.7597964  47.3161262  61.9478461  38.0163762  47.0707601
  65.8080099  48.8533271  51.0086378  66.5637614  49.2864786  51.0475286
  65.9142424  48.2038041  51.5821014  65.9350270  48.8210755  51.0984403
  68.8460270  52.6806548  51.7588781  68.4095502  52.6843291  52.5147752
  68.5123186  53.3612047  51.3268358  68.7322890  52.7819004  51.8069613
  63.4189344  54.7214881  63.0831931  64.2029761  54.8345729  63.4487673
  63.2185939  53.8956018  63.2790617  63.5055369  54.6161601  63.1666317
  68.7657753  39.7220376  54.0018209  69.4083662  39.7918481  54.5880124
  69.0180774  39.0549599  53.4997751  68.8979885  39.6346725  54.0145488
  63.5759737  56.6324983  56.7298387  62.7774983  56.3924483  56.9872255
  64.0245749  56.6839376  57.4765434  63.5234349  56.6047374  56.8783311
  71.9804617  49.3987468  50.6508418  72.6421051  48.8378137  50.5504326
  71.3396029  48.9039499  50.9761109  71.9833484  49.2423877  50.6840758
  62.8681424  52.6957600  42.9589341  63.2832573  52.3642624  42.2673837
  62.0373354  52.4626502  42.8309478  62.8069433  52.6128856  42.8380189
  68.2669447  50.4152851  50.3920407  68.5025036  50.5598050  49.5647257
  68.4159011  51.1795259  50.7851920  68.3235251  50.5491905  50.3284011
  70.0959904  49.2554517  48.2290011  70.4268121  49.7882157  47.6230105
  70.6692992  49.3093404  48.8851961  70.2293583  49.3424085  48.2367792
  62.6360474  50.3785428  64.6218575  61.8433455  50.6928940  64.8071194
  62.7509401  50.5936897  63.7839359  62.5355885  50.4569265  64.5256910
  65.3091793  47.1019419  48.9113591  65.4038648  47.8408713  49.3653216
  64.6850637  46.6736895  49.3448155  65.2300823  47.1480740  49.0421738
  63.5644267  50.2805632  59.5603872  64.1383129  49.6432876  59.7152435
  63.4859071  50.2809714  58.6913529  63.6377502  50.1870743  59.4550282
  65.5614814  48.9468159  42.1450543  65.4794977  49.0170346  43.0105530
  66.1994535  49.5097903  41.9534283  65.6434652  49.0407130  42.2440492
  58.9207986  48.7128897  51.6125069  58.6627230  47.8800632  51.5856368
  58.9756468  48.9386510  50.7717569  58.8907763  48.6226668  51.4845206
  64.0009036  40.8157348  51.7129162  63.2965362  40.3266533  51.8713081
  64.0494010  40.8279822  50.8417606  63.9039087  40.7446996  51.6068501
  61.5615986  44.7390009  56.9582342  61.1730419  44.3144227  56.3034533
  60.8970685  44.9872158  57.4659369  61.4062914  44.7128730  56.9370210
  71.2039256  44.4965014  49.7330172  70.9475820  43.6844955  49.5428055
  72.0468570  44.5042581  49.5060359  71.2905281  44.3777011  49.6714989
  65.3842348  38.4364638  54.4706326  65.7652860  37.7542809  54.8574201
  64.5805632  38.1474240  54.2881991  65.3218810  38.2931686  54.5010382
  68.8864415  51.6514610  59.5688725  68.6503052  50.8202674  59.4500785
  69.5307644  51.6000217  60.1543569  68.9459086  51.5212298  59.6374618
  58.5362833  52.4410131  50.2831461  59.1736780  52.2021878  50.8283255
  58.9617905  52.6447290  49.5484622  58.6938999  52.4361141  50.2548618
  53.2275475  54.6798467  54.1665765  53.2679621  54.9513318  53.3385545
  53.7869999  55.2040375  54.5823553  53.3158821  54.7974222  54.1057653
  59.3434188  40.9418836  64.3368935  59.0287629  41.7118399  64.0738497
  59.0224121  40.3789092  63.7521162  59.2493107  40.9729105  64.2110285
  69.9100835  51.4359058  55.6317019  69.6046653  52.1687115  55.9930335
  69.1907051  51.0296988  55.3509805  69.7588178  51.4840791  55.6430156
  60.9184305  52.9182553  51.9625247  60.9923313  52.7557725  52.8167097
  61.7353811  53.1072743  51.7185729  61.0500663  52.9219296  52.0523273
  75.6102628  48.0752059  54.9585363  75.5427128  48.0948018  54.0887950
  75.5958290  48.9182386  55.1841034  75.5981384  48.2025794  54.8637840
  66.0198974  39.4787217  58.2826453  66.7652566  39.2897027  57.8689878
  65.6036279  40.0045455  57.7240309  66.0683948  39.5289362  58.1391026
  59.4588891  55.8817297  46.6938721  59.7487189  55.4906278  45.9697947
  60.1892371  56.0634001  47.1343996  59.6095775  55.8511110  46.6521528
  73.3961245  46.8496445  53.2331958  73.9469166  46.2164514  53.4729050
  73.3805360  47.3811838  53.9247462  73.4746441  46.8345393  53.3710816
  60.0483636  50.6835042  57.7791851  59.5495329  51.3950810  57.8576740
  60.8583860  51.0035709  57.7410014  60.0939742  50.8361891  57.7848420
  57.3994806  57.8584679  49.7598871  57.1795102  57.5682034  50.5525538
  57.1789328  57.1999634  49.2316783  57.3342400  57.7184387  49.7987779
  67.0989651  45.0892779  52.3436554  66.7554417  44.3683114  52.6943804
  67.1982694  44.8806630  51.5014912  67.0631694  44.9516982  52.2708234
  59.5662762  59.2314069  48.5429563  60.2186820  58.6990511  48.7720589
  58.8688371  58.8782721  48.9297437  59.5593480  59.1003592  48.6341731
  67.5602680  51.5518483  47.8860542  68.1260713  52.2111693  47.8019085
  66.9130584  51.8968181  48.3576944  67.5481437  51.7000424  47.9433299
  58.9750694  43.5416087  63.0754150  58.1650470  43.8473867  62.9643992
  59.4525380  44.2621669  63.1906734  58.9254173  43.6930688  63.0761221
  57.8342253  52.7561808  53.3237053  57.3123007  52.8962100  54.0088917
  58.2216274  51.9972472  53.5139170  57.8145954  52.6647332  53.4538129
  64.0309258  54.4957267  47.3097621  63.7895934  53.7625128  46.9024686
  64.2110591  55.0444124  46.6563955  64.0216882  54.4679658  47.1527844
  59.2608579  49.7865827  48.7218544  59.0651362  50.3940561  48.1278847
  59.4842925  49.0933771  48.2410218  59.2643220  49.7743352  48.5634625
  65.6180617  43.0084364  54.2196097  64.7791717  43.0345643  53.9834360
  65.6884984  43.6555099  54.8001444  65.5049010  43.1080489  54.2705214
  64.0649895  39.9069741  48.9523713  64.7676248  39.7077489  48.4743671
  63.7994084  39.1345683  49.2592556  64.1296527  39.7632707  48.9269155
  69.4938140  48.2152350  51.5057339  69.4072115  48.3707776  52.3592118
  69.0388620  48.8590426  51.1316744  69.4141397  48.3328105  51.5764446
  58.8278451  41.1705026  58.0054594  58.6361648  41.1860160  58.8554017
  59.6777047  41.3668700  57.9821248  58.9254173  41.2019377  58.1277888
  63.3663956  45.5363097  50.1282898  63.1198671  45.4558848  50.9619687
  63.6949080  44.7516565  49.9345426  63.3785200  45.4089363  50.2230421
  67.2612005  52.2446457  53.9169680  67.1226365  52.9427503  54.4218422
  66.4812003  52.0895113  53.5605861  67.1255232  52.3246623  53.9395954
  65.5990090  48.5442832  60.1692061  65.5938129  47.6722649  60.1734488
  66.3051084  48.7431001  59.6961517  65.7035094  48.4446706  60.0999097
  59.3260984  48.2719816  59.5405881  59.4704359  48.8521024  58.9048991
  59.6736632  48.6496113  60.2455736  59.3988445  48.4140520  59.5504876
  61.4980901  47.4709984  57.3231013  60.7504215  47.6640999  56.9179291
  61.6522426  46.6455204  57.0855134  61.4103329  47.3775096  57.2276419
  58.3988739  56.4622588  56.4066908  58.5478302  55.9025504  55.7540313
  59.1788741  56.5414590  56.7899427  58.5362832  56.3908153  56.3663857
  68.7565378  51.6024711  44.6786179  68.3772187  50.8161849  44.6715468
  68.0931624  52.1511568  44.5357823  68.6023853  51.5669535  44.6566976
  60.9242039  56.6337231  57.6851399  60.8485710  55.9646041  58.2402187
  60.8531898  57.3355019  58.1992065  60.9022646  56.6382138  57.8428247
  61.7382678  41.3660535  58.2126417  62.1955292  42.0984509  58.3399209
  61.8139007  40.9427000  58.9713672  61.8173648  41.4117773  58.3427493
  66.2110004  34.5450410  52.0820260  66.3293572  35.0026874  51.3487562
  66.0372180  33.7395672  51.7956477  66.2029175  34.4944182  51.9321193
  61.5812286  55.1538230  48.5175005  62.3462177  54.8847873  48.1957669
  61.4790376  54.6688240  49.2345068  61.6793782  55.0427794  48.5754833
  59.6165056  43.3562639  55.0568241  58.8261131  43.1754099  55.3785576
  60.0125679  42.5789592  55.0398535  59.5581932  43.2150100  55.1020789
  64.1030947  52.1850413  40.4974954  64.8703932  52.2450538  40.0880806
  63.6562256  51.6130855  40.0131273  64.1504374  52.1086989  40.3652665
  65.0008742  50.9905069  52.7827687  64.3253744  50.7590301  53.2841074
  65.0101118  50.3826252  52.1569792  64.9027247  50.8663994  52.7643839
  62.1302886  45.8322898  59.5391740  62.0662028  46.6932855  59.4111876
  62.2700074  45.5154891  58.7387291  62.1418356  45.9123065  59.4019952
  67.0025477  53.8470202  45.0137865  67.0845314  54.6537188  44.6899315
  67.4875219  53.8666161  45.7378638  67.0862635  53.9690864  45.0724763
  60.8121980  48.5255038  53.6807943  60.3884229  48.7259537  52.9446961
  60.6366835  47.6783886  53.7932242  60.7232861  48.4303819  53.5881633
  60.3133674  60.0405551  56.1429400  60.8029604  59.3416340  55.9605064
  59.7417906  59.7429421  56.7305457  60.3018204  59.8931774  56.2030441
  66.5100677  52.6067620  65.0956190  67.3235542  52.3352769  65.2561323
  66.3495644  52.3075160  64.2916386  66.6070626  52.5222546  65.0001596
  60.8070020  53.7882324  45.2669306  60.8762840  52.9296863  45.4062307
  61.5858475  54.0054205  44.9388331  60.9322870  53.6935188  45.2386464
  63.7872839  43.2901277  58.0351579  64.0014809  42.6512191  57.4814933
  63.1706738  43.7347101  57.6059440  63.7278168  43.2611421  57.8902010
  65.1977507  56.2120025  49.4805800  64.8057299  55.9086741  48.7628666
  65.3530579  57.0489115  49.2910753  65.1631097  56.2903862  49.3462297
  65.9511927  44.8990342  58.9734886  65.1388609  44.5916233  59.0548059
  66.4101862  44.4189342  59.5377598  65.8992312  44.7826835  59.0689480
  65.3617182  52.7770014  49.4211830  65.0031837  52.9484657  50.1975863
  64.8755893  53.2383220  48.8639829  65.2375879  52.8708985  49.4537099
  63.1787568  36.4001213  53.0238922  62.3081126  36.3739934  52.9772231
  63.4327909  36.2278405  52.2064767  63.0881128  36.3711356  52.8959058
  63.0465435  46.3050414  63.7563588  63.5165066  46.9292530  64.1431462
  63.0927315  45.6367389  64.3156803  63.1233311  46.2985094  63.8963660
  60.2036708  38.4107441  54.4812392  59.6875197  37.7187633  54.6063971
  59.6430637  39.0778218  54.4274991  60.0443222  38.4070699  54.4918458
  62.2728942  38.9500401  56.3105244  61.8860695  38.9749433  57.0918774
  61.7861879  38.3842080  55.8579761  62.1441451  38.8696152  56.3593148
  66.5221921  53.6673910  60.3679031  67.1601642  53.1734106  60.0341487
  65.8796013  53.5951311  59.7831258  66.5216148  53.5832919  60.2321386
  68.2478921  45.5163056  54.9344947  67.8206529  45.4289405  54.1793046
  67.6104974  45.6240832  55.5199791  68.0908529  45.5195716  54.9090388
  61.9386084  35.8367387  58.6015504  62.5679201  36.3727687  58.3236575
  62.1071946  35.7444746  59.4529070  62.0563878  35.9028749  58.6864033
  61.7399998  40.6238581  60.8741916  62.5673428  40.3523730  60.9300530
  61.7607844  41.4199423  61.2305734  61.8652848  40.7018336  60.9357099
  66.5776178  54.3593718  57.0084388  67.3668556  54.0082783  57.1286469
  66.7519776  55.1730107  56.7461022  66.7196459  54.4279576  56.9872256
  56.3169488  47.7702444  54.0612177  55.4757495  47.6706318  54.2691070
  56.5259496  48.5397925  54.4126497  56.2234181  47.8694488  54.1439492
  65.4310002  38.3703275  51.5700806  65.6359595  38.3025583  52.4157803
  65.1036426  39.1762096  51.5021984  65.4125250  38.4789216  51.6860461
  60.1286153  45.6983843  53.3109774  59.8249291  45.1439832  53.9120182
  59.4265574  45.8776053  52.8237808  59.9802363  45.6428626  53.3279480
  58.1904504  52.9133564  58.0181872  58.0824859  52.9235626  58.8843930
  58.4000286  53.7388345  57.8286826  58.2054615  53.0374639  58.1185964
  68.6843690  38.9235039  51.0503572  68.0718003  39.4105442  51.4357303
  68.7807865  38.2478530  51.5941223  68.6081587  38.8953348  51.1882430
  56.2078296  50.1646207  55.4803810  55.6166229  50.8055705  55.4506825
  56.9699320  50.5883824  55.4535109  56.2326557  50.3222045  55.4718957
  56.6038919  41.3248204  56.1471827  57.0640400  41.3987134  56.8846951
  56.6495026  42.1229458  55.7971648  56.6789474  41.4542351  56.2044584
  58.2522269  41.9914899  60.7143854  57.8607834  41.3448246  61.1499632
  58.4208131  42.5826334  61.3338110  58.2193179  41.9829167  60.8706560
  72.3268718  49.9951976  56.4781088  72.3851841  50.4438625  57.2241064
  71.6935185  50.4050789  56.0411168  72.2420013  50.1225711  56.5233636
  65.9667812  55.6155518  52.9135834  65.7687501  56.1046333  52.2192045
  65.3455523  55.8196760  53.4919967  65.8455377  55.7172056  52.8959057
  61.9455366  39.1790674  52.2877940  61.0991411  39.3513482  52.1619289
  61.9426499  38.3740018  52.6243768  61.8202516  39.0851703  52.3189067
  63.0153667  42.9565888  53.1539998  62.5413621  42.4307650  53.6645309
  63.3871802  42.4095361  52.5854859  63.0003555  42.7981885  53.1455145
  69.2790397  48.0168264  54.5646778  69.0388620  47.1774679  54.5689205
  69.7582404  48.0968431  55.2887552  69.3142581  47.9049664  54.6721580
  64.9437166  43.8502443  46.2165751  64.4160185  43.9331187  45.5271460
  65.4032874  44.5920314  46.2130396  64.9339017  43.9723105  46.1140447
  71.2795584  44.7969721  52.5176037  71.0405354  44.7565555  51.6796822
  71.4429485  45.6440873  52.6441758  71.2685888  44.9161806  52.4129519
  67.8841614  49.1819670  58.4481082  68.6075813  48.7292197  58.2692102
  67.6191577  49.4624336  57.6653410  67.9522888  49.1570639  58.3059798
  64.4974249  52.4206006  45.3475408  65.2208448  52.8864119  45.2039982
  64.0574840  52.4879616  44.5973005  64.5389941  52.4989843  45.2160190
  63.6660404  49.2803549  56.5976097  63.0517397  48.7361599  56.8924733
  64.1827689  48.7667785  56.1181914  63.6516066  49.1239958  56.5700326
  62.9056701  50.3507819  54.3320396  62.4784309  49.7257537  53.8985831
  62.8981645  50.0682741  55.1579403  62.8415842  50.2160599  54.3900224
  63.9639531  37.5534227  57.9559620  63.4680092  37.7497902  57.2651186
  64.7208593  37.9526896  57.7848421  64.0026356  37.6411961  57.8279756
  61.2342411  41.2276573  54.5462930  61.2584898  40.6936686  53.8575710
  61.4853884  40.7193882  55.2088521  61.2752329  41.0737477  54.5427575
  57.5143733  39.9547391  53.9268674  57.5542104  40.4556598  54.6403382
  56.6893398  40.0457785  53.6574597  57.3983259  40.0429208  53.9919213
  59.6973346  49.5208131  62.0288969  58.8468976  49.6579846  62.1646614
  59.8601473  48.7871910  62.4736671  59.5957209  49.4322233  62.1144568
  58.9358096  46.4707901  56.2242573  58.1050026  46.6381719  56.0177821
  58.8809613  46.0943852  57.0091459  58.8047511  46.4397633  56.3091102
  56.7441879  39.9616794  61.8598984  57.3694583  39.4178927  62.1328416
  56.2892359  39.4811712  61.2906774  56.7690140  39.8106276  61.8160578
  70.3176928  48.1446081  56.9511632  70.9094769  48.7843332  56.9829830
  70.7535923  47.4469118  57.2403699  70.4695359  48.1364432  56.9992465
  62.1470318  52.5663454  57.5769526  61.6395409  53.1199300  58.0210157
  61.8496964  52.6271744  56.7588301  62.0275203  52.6569765  57.5217983
  64.3132500  40.9316773  56.4194189  64.7387572  40.4789300  55.8077715
  63.6989493  40.3776844  56.6958976  64.2861146  40.7830749  56.3699214
  64.7578098  56.4826711  45.5073470  64.0407408  56.3087574  45.0420707
  65.4084836  56.2479284  44.9748956  64.7479949  56.4222504  45.3602687
  62.7526723  37.4031873  49.8284766  62.1095041  37.2529519  50.3969904
  62.4126130  37.1574218  49.0633871  62.6071800  37.3443996  49.7987781
  67.3426070  45.3591300  49.2514775  66.6717259  45.9021002  49.1227840
  68.0365820  45.8286155  49.0096469  67.3454937  45.5089571  49.1970302
  61.3912803  57.4988012  54.4826533  61.1678458  56.7406841  54.8510559
  60.9022647  57.5286033  53.7606973  61.2856252  57.3910236  54.4303274
  67.5054197  41.8147183  52.1605148  67.8581807  41.3876906  52.8350947
  66.6468999  41.7298027  52.2906224  67.4303642  41.7391924  52.2800158
  65.5037463  45.0782552  56.1089990  65.4835390  44.8965847  56.9624769
  65.5516664  45.9494571  56.0849574  65.5072104  45.1799090  56.2313285
  63.4483793  51.6669744  62.0338467  63.4079648  51.0219421  61.4483622
  64.2607111  51.6106361  62.3463879  63.5626946  51.5628711  61.9935416
  60.0391260  57.7188470  51.9363618  59.6251659  57.0562600  51.5467459
  60.7238635  57.8666329  51.4159312  60.0789632  57.6429128  51.8020115
  63.4056554  56.8778555  52.6887234  63.0072838  56.9880826  51.9208054
  62.7907774  57.0860622  53.2713794  63.2555444  56.9252123  52.6618533
  68.9378257  36.9365595  53.0889460  68.4309122  36.2294735  53.0210638
  69.7345691  36.6058784  53.2190537  68.9805496  36.7838747  53.0988455
  64.8542273  43.4432208  48.9863124  64.6255966  43.4664909  48.1441482
  65.1140349  42.6189675  49.1058135  64.8588461  43.3248288  48.8788322
  59.1361501  45.2966681  58.5888224  58.6240405  44.6887864  58.9473256
  58.9640998  46.0123273  59.0562200  59.0351138  45.3129980  58.7104448
  53.9827216  43.7404256  61.2390586  53.8129806  44.4005631  60.6938793
  53.5393166  43.9510817  61.9603075  53.8926550  43.8690238  61.2652216
  71.1398397  51.4530522  46.0730325  71.5232003  52.2021878  46.3028422
  70.3442510  51.6996342  45.8142314  71.0792179  51.6000216  46.0687898
  63.0130572  43.2190925  61.0290480  63.5702002  42.9904735  60.3968945
  62.6891637  43.9796591  60.7525692  63.0476982  43.2974762  60.8946977
  60.7313689  46.3058579  61.9942487  61.4825016  46.6210255  62.3082041
  60.9236266  46.1037749  61.1676409  60.8705103  46.3225960  61.9185883
  67.5798979  42.4332145  49.2366282  67.5793206  42.2780801  50.0950559
  67.3755159  43.2795132  49.1807668  67.5498757  42.5352766  49.3554222
  65.3039831  47.1129647  52.8902489  65.7993497  46.3952642  52.8506510
  64.4939607  46.8100444  52.7756976  65.2583725  46.9627293  52.8676215
  67.3691650  49.8633334  55.5779618  67.7946722  49.3407756  55.0250043
  67.0048570  50.4614172  55.0568241  67.3778253  49.8743561  55.4188628
  57.0045730  58.1597552  54.3376963  57.3192289  58.9733940  54.3454745
  57.4139143  57.7747770  55.0059123  57.1113828  58.2226254  54.4381055
  63.9570250  53.5767598  51.9080775  64.4281428  54.2907861  52.0770761
  64.2930428  52.9766349  52.4440645  64.0765365  53.5939063  52.0113151
  66.0447234  55.1868912  64.0872848  66.1544200  54.3977472  64.4429595
  66.3738131  55.0974848  63.2847186  66.1099640  55.0574765  64.0215238
  60.8739745  38.3495069  58.8638870  61.0067650  37.5526062  59.1919846
  61.2584897  38.8761472  59.4437146  60.9496073  38.3094986  58.9982373
  64.5944196  53.3685533  58.6708468  64.0465142  52.7443416  58.4028533
  65.0557225  53.5579805  57.9552547  64.5811405  53.3044583  58.5258899
  63.9472100  35.2725395  55.4619964  63.1418063  35.1623125  55.7787802
  63.8178835  35.3737851  54.6049829  63.8092233  35.2709065  55.3828004
  67.4038060  41.4370887  56.0559660  66.8201049  41.9380094  55.6437228
  67.7242354  40.9300443  55.4223984  67.3651236  41.4362722  55.9018168
  58.5328191  38.3454244  57.1116764  59.0772604  38.0045371  57.7021106
  58.5865127  39.2039706  57.2538049  58.6217311  38.4209503  57.2198637
  54.3458750  52.1070660  53.9855572  54.9503607  52.0666494  53.3569393
  54.1386063  52.9541812  54.0159628  54.4047647  52.2258663  53.8971688
  64.1602522  54.3736605  55.2017809  64.9800896  54.2299571  55.4634104
  63.8796600  54.9982804  55.7434247  64.2399266  54.4446957  55.3205749
  73.8315857  61.1177108  52.9213616  72.9753753  61.2785606  52.9722733
  73.8783511  60.2469172  52.9418677  73.7114969  61.0127910  52.9319682
  68.2156997  70.6539826  48.6850848  67.4639897  70.2755364  48.4566893
  68.6643009  70.6858259  47.9369658  68.1706664  70.6025433  48.5408350
  76.6767678  63.1769152  55.5645268  77.2223638  63.8554239  55.6239237
  76.6184555  63.0356613  54.7046849  76.7483593  63.2561154  55.4457328
  69.7941753  70.6658218  50.9513620  69.8952116  69.8558572  51.2610748
  69.1983499  70.5715164  50.3213299  69.7214292  70.5323246  50.9039859
  62.9906798  66.6878505  50.5765954  62.7556982  65.8546157  50.4698223
  63.1292438  66.9683170  49.7627155  62.9762460  66.6062008  50.4408309
  65.2896885  58.8564235  53.4750262  64.6701917  58.2656882  53.3060276
  65.1880749  59.4475670  52.8414585  65.1834561  58.8568318  53.3555251
  70.3363073  68.5947782  47.7248338  70.6578914  69.1352989  47.1209646
  70.9835169  68.0244553  47.8570628  70.4789128  68.5906957  47.6555373
  72.3864781  60.5963777  47.8082725  73.0844945  60.7751905  48.3004188
  72.7017113  60.0734116  47.1853114  72.5360118  60.5457549  47.7884735
  65.0166018  62.4016517  55.7193830  64.8924715  62.9878962  56.3543649
  65.6684303  61.9076713  56.0206105  65.0939667  62.4155321  55.8579760
  72.5752716  66.9834222  47.7962516  73.0146352  66.3751323  48.2417289
  72.4257379  66.6041595  47.0247981  72.6174182  66.8372693  47.7481683
  70.0424359  65.5778234  54.9981342  70.6873362  65.0850677  54.6792290
  70.2826136  65.7203020  55.8247420  70.1734944  65.5255676  55.0730875
  72.5810450  68.4233140  54.6488234  72.8633693  67.6284545  54.4274990
  73.3096611  68.9013727  54.6693295  72.7300014  68.3767737  54.6191249
  70.5591644  55.9656174  51.8903999  70.2294974  56.4167317  51.2207698
  69.8836646  55.8872337  52.4377006  70.4102081  56.0207309  51.8727223
  76.1762053  65.3361403  44.7493285  76.0913348  66.1922370  44.8942854
  76.6646436  65.0605727  45.4175444  76.2350950  65.4218725  44.8695367
  77.7668052  51.9541697  50.1353610  77.4521493  52.6445175  50.5674032
  77.2494994  51.8986479  49.4339111  77.6432522  52.0476585  50.0950559
  77.1080486  61.9546197  46.2491020  76.5791957  62.1705831  46.9088327
  77.6305506  62.6482336  46.1691990  77.1068939  62.0889334  46.3346620
  68.9980094  65.8509414  45.0498488  68.4137309  66.3559446  45.4564352
  68.5950189  65.6251801  44.3095080  68.8519397  65.8917663  45.0003514
  64.5524122  71.5664175  51.8522160  64.0691701  72.2914665  51.8281744
  65.3647441  71.8640305  51.9632318  64.6014870  71.7166529  51.8649439
  70.6238276  70.3596356  54.4571974  70.1065218  70.0003771  53.8533282
  71.3212668  69.8358531  54.4678041  70.6503857  70.2294044  54.3702233
  73.4557308  62.0975066  43.5267409  73.6953312  62.3053050  42.7142752
  73.7773149  61.2932575  43.6356354  73.5394466  62.0089168  43.4227962
  68.7647598  54.0268462  47.3726947  69.5193566  54.3946779  47.1343997
  68.5875133  54.4008016  48.1406127  68.8502077  54.1366650  47.4511835
  67.4068320  72.0820351  52.0042440  68.1088899  71.5672340  52.0615196
  67.3265803  72.4094503  52.8089315  67.4992080  72.0534577  52.1315232
  68.4547226  62.3195938  61.1322855  68.6267730  62.2101833  61.9808136
  68.9916584  62.9650344  60.8954047  68.5592230  62.3987940  61.2227952
  67.1204663  56.4338781  44.0705060  66.9380236  56.6510662  43.2446053
  67.9830276  56.5477794  44.1263674  67.2209252  56.4828679  43.9559547
  66.7319095  68.2726703  51.5128048  67.5707994  68.5049636  51.5601809
  66.7630864  67.4031015  51.4435083  66.8600813  68.1783650  51.5092693
  67.3571798  68.6927578  55.8141353  67.8970023  68.5498709  56.4844726
  66.6741744  69.0924329  56.1825380  67.3363952  68.7307249  55.9675775
  72.8004382  53.4365192  47.1054084  73.5290543  53.2581147  46.6592240
  72.8899275  54.2783271  47.3161262  72.9211044  53.5349070  47.0707601
  76.7812683  64.3718579  51.0086378  77.5370198  64.8050093  51.0475286
  76.8875007  63.7223349  51.5821014  76.9082853  64.3396063  51.0984403
  62.7608943  64.9127869  55.9675775  62.4947358  64.0966986  56.1266765
  62.7747507  64.9581025  55.0971290  62.7233665  64.7984774  55.8629257
  66.6666690  59.7112954  42.5827533  65.9524867  59.4251133  42.9949965
  67.1510659  60.0509579  43.2233920  66.6326053  59.7194603  42.7383168
  67.5107549  58.4506248  58.6142783  66.8179346  57.9803227  58.8603514
  68.1267877  58.2244552  59.1884490  67.4992079  58.3473379  58.7351935
  73.8414008  68.2142908  42.9589341  74.2565156  67.8827931  42.2673837
  73.0105938  67.9811810  42.8309478  73.7802017  68.1314164  42.8380189
  63.1702357  65.6986649  53.2487519  62.9877930  65.6733535  52.3959811
  63.9052026  66.1685586  53.2876428  63.2516421  65.7648011  53.1285438
  66.2348108  62.4171652  59.7569628  66.9588081  62.4024682  60.2434523
  66.3364245  63.1267007  59.2591596  66.3566317  62.5196355  59.7548415
  76.2824377  62.6204727  48.9113591  76.3771231  63.3594021  49.3653216
  75.6583220  62.1922203  49.3448155  76.2033407  62.6666048  49.0421738
  63.1373267  62.5780149  53.3986586  63.7146770  62.4416600  54.0378831
  62.4387329  62.1215933  53.6532170  63.1194288  62.4902416  53.5308875
  76.5347398  64.4653467  42.1450543  76.4527561  64.5355654  43.0105530
  77.1727119  65.0283211  41.9534283  76.6167235  64.5592438  42.2440492
  69.8940569  64.2314205  51.6125069  69.6359813  63.3985940  51.5856368
  69.9489052  64.4571818  50.7717569  69.8640347  64.1411976  51.4845206
  74.9741619  56.3342656  51.7129162  74.2697946  55.8451841  51.8713081
  75.0226594  56.3465130  50.8417606  74.8771671  56.2632304  51.6068501
  68.8675281  61.7851967  52.0989964  68.2924873  61.9444136  52.7353925
  68.4910958  61.1487377  51.6358414  68.7278094  61.7149780  52.1244522
  72.5348570  60.2575317  56.9582342  72.1463003  59.8329534  56.3034533
  71.8703268  60.5057466  57.4659369  72.3795498  60.2314038  56.9370210
  58.6132100  61.4292042  50.1134404  58.6992352  61.0523911  50.8947934
  59.2407898  61.0552488  49.6354363  58.7188651  61.3177524  50.1579882
  76.3574932  53.9549946  54.4706326  76.7385443  53.2728117  54.8574201
  75.5538216  53.6659548  54.2881991  76.2951393  53.8116994  54.5010382
  73.6387508  64.4873921  45.1559149  74.4528147  64.7788814  45.0441920
  73.5746650  63.8333784  44.5817442  73.7490247  64.4339116  45.0547986
  69.5095417  67.9595439  50.2831461  70.1469363  67.7207186  50.8283255
  69.9350488  68.1632598  49.5484622  69.6671583  67.9546449  50.2548618
  64.2008059  70.1983775  54.1665765  64.2412204  70.4698626  53.3385545
  64.7602583  70.7225683  54.5823553  64.2891405  70.3159530  54.1057653
  70.1498232  63.1797729  44.6206351  70.5343384  62.9605435  45.3722896
  69.9009852  64.0060674  44.7507427  70.1700304  63.2695875  44.7507427
  70.3166772  56.4604144  64.3368935  70.0020213  57.2303706  64.0738497
  69.9956705  55.8974400  63.7521162  70.2225691  56.4914412  64.2110285
  71.8916888  68.4367861  51.9625247  71.9655897  68.2743033  52.8167097
  72.7086395  68.6258051  51.7185729  72.0233247  68.4404604  52.0523273
  65.6522645  68.7825724  48.9919691  64.8260763  69.0287461  48.8653970
  65.7134636  68.7037805  49.8581749  65.5396812  68.8070673  49.1008635
  67.8698669  54.8494665  49.9515131  67.0021094  54.9217265  50.0172740
  68.1573873  55.6516744  50.1403106  67.7838417  54.9788812  49.9889898
  76.9931558  54.9972525  58.2826453  77.7385150  54.8082335  57.8689878
  76.5768862  55.5230763  57.7240309  77.0416532  55.0474670  58.1391026
  70.4321474  71.4002604  46.6938721  70.7219773  71.0091586  45.9697947
  71.1624955  71.5819309  47.1343996  70.5828358  71.3696418  46.6521528
  71.0216219  66.2020350  57.7791851  70.5227913  66.9136118  57.8576740
  71.8316444  66.5221017  57.7410014  71.0672326  66.3547199  57.7848420
  68.3727390  73.3769987  49.7598871  68.1527685  73.0867342  50.5525538
  68.1521912  72.7184942  49.2316783  68.3074984  73.2369695  49.7987779
  67.2844337  65.4643303  52.0254572  66.9957586  64.8380775  52.5600300
  68.1527685  65.4063591  52.0919253  67.3704589  65.3630848  52.1145527
  78.0722235  60.6078087  52.3436554  77.7287001  59.8868422  52.6943804
  78.1715277  60.3991938  51.5014912  78.0364278  60.4702290  52.2708234
  67.4876610  67.1038554  47.9496937  68.2422578  67.4851594  48.1632400
  66.8947223  67.5549698  48.4043634  67.5113324  67.2267382  48.0479816
  69.9483277  59.0601395  63.0754150  69.1383053  59.3659174  62.9643992
  70.4257964  59.7806977  63.1906734  69.8986756  59.2115996  63.0761221
  68.8074837  68.2747116  53.3237053  68.2855590  68.4147407  54.0088917
  69.1948857  67.5157780  53.5139170  68.7878538  68.1832640  53.4538129
  65.7966021  58.3252925  47.3932007  65.5090817  57.9554195  46.6563955
  66.4836489  58.7947780  47.1315712  65.8554918  58.3399894  47.2447083
  70.2341163  65.3051135  48.7218544  70.0383945  65.9125869  48.1278847
  70.4575508  64.6119079  48.2410218  70.2375804  65.2928660  48.5634625
  68.6319693  62.1905873  48.8399412  69.3542344  62.3547031  48.3803218
  68.1527685  62.9115538  48.7338752  68.6683423  62.3204102  48.7565026
  76.5913200  58.5269672  54.2196097  75.7524301  58.5530950  53.9834360
  76.6617567  59.1740407  54.8001444  76.4781594  58.6265797  54.2705214
  66.2827309  64.5963945  57.9453552  66.7948406  64.8748198  57.2962312
  65.9963652  65.3353239  58.3116365  66.3162172  64.7466299  57.9043430
  75.0382478  55.4255049  48.9523713  75.7408831  55.2262797  48.4743671
  74.7726667  54.6530991  49.2592556  75.1029111  55.2818015  48.9269155
  63.3694216  59.1034137  48.2417288  63.4710352  59.9060298  48.5698264
  64.1650102  58.9021473  47.9440369  63.5022121  59.1920036  48.2452644
  69.8011035  56.6890334  58.0054594  69.6094232  56.7045468  58.8554017
  70.6509631  56.8854008  57.9821248  69.8986757  56.7204685  58.1277888
  64.1857948  59.2181315  55.9838410  64.0443439  58.3665256  56.1082918
  64.4698511  59.2609976  55.1600616  64.2065794  59.0981065  55.8806034
  74.3396540  61.0548405  50.1282898  74.0931254  60.9744156  50.9619687
  74.6681663  60.2701873  49.9345426  74.3517784  60.9274671  50.2230421
  70.2993567  63.7905124  59.5405881  70.4436943  64.3706332  58.9048991
  70.6469216  64.1681421  60.2455736  70.3721029  63.9325828  59.5504876
  72.4713485  62.9895292  57.3231013  71.7236799  63.1826307  56.9179291
  72.6255010  62.1640512  57.0855134  72.3835912  62.8960404  57.2276419
  72.7115262  56.8845843  58.2126417  73.1687876  57.6169817  58.3399209
  72.7871590  56.4612308  58.9713672  72.7906232  56.9303081  58.3427493
  64.9548253  57.1311663  59.3015860  64.4190442  56.5192021  59.6176628
  65.0166018  57.7059799  59.9549527  64.8843886  57.1258591  59.4451287
  77.1842588  50.0635718  52.0820260  77.3026156  50.5212182  51.3487562
  77.0104763  49.2580980  51.7956477  77.1761759  50.0129490  51.9321193
  72.5544870  70.6723538  48.5175005  73.3194761  70.4033181  48.1957669
  72.4522960  70.1873548  49.2345068  72.6526365  70.5613102  48.5754833
  70.5897640  58.8747947  55.0568241  69.7993714  58.6939407  55.3785576
  70.9858262  58.0974900  55.0398535  70.5314516  58.7335408  55.1020789
  75.0763530  67.7035721  40.4974954  75.8436516  67.7635846  40.0880806
  74.6294839  67.1316163  40.0131273  75.1236958  67.6272297  40.3652665
  75.9741326  66.5090377  52.7827687  75.2986328  66.2775609  53.2841074
  75.9833702  65.9011560  52.1569792  75.8759830  66.3849302  52.7643839
  73.1035470  61.3508206  59.5391740  73.0394611  62.2118163  59.4111876
  73.2432658  61.0340199  58.7387291  73.1150940  61.4308373  59.4019952
  71.7854564  64.0440345  53.6807943  71.3616813  64.2444845  52.9446961
  71.6099419  63.1969193  53.7932242  71.6965444  63.9489127  53.5881633
  67.0737009  64.5392397  49.1135915  67.2301628  64.4739200  49.9691907
  67.4137602  65.3140949  48.9014595  67.1470244  64.6441595  49.2090509
  73.6116153  63.9150281  47.9829278  74.1531699  63.4120662  48.4467899
  73.9262712  63.8615475  47.1718764  73.7380550  63.8329701  47.9313090
  71.7802603  69.3067632  45.2669306  71.8495423  68.4482171  45.4062307
  72.5591058  69.5239513  44.9388331  71.9055453  69.2120496  45.2386464
  74.7605423  58.8086585  58.0351579  74.9747392  58.1697499  57.4814933
  74.1439322  59.2532409  57.6059440  74.7010752  58.7796729  57.8902010
  63.6471270  61.7227347  49.4296682  64.0270235  62.1411892  48.7656950
  63.0726635  62.3040803  49.7365526  63.6182595  61.8705206  49.3773423
  76.9244511  60.4175650  58.9734886  76.1121192  60.1101541  59.0548059
  77.3834445  59.9374650  59.5377598  76.8724896  60.3012143  59.0689480
  76.3349765  68.2955322  49.4211830  75.9764420  68.4669965  50.1975863
  75.8488476  68.7568528  48.8639829  76.2108462  68.3894293  49.4537099
  74.1520151  51.9186521  53.0238922  73.2813709  51.8925242  52.9772231
  74.4060493  51.7463713  52.2064767  74.0613711  51.8896664  52.8959058
  71.1238131  63.9754488  41.9612065  71.4130656  64.7519370  42.2355639
  71.2109930  63.4643219  42.6626564  71.1792387  64.0146406  42.1054562
  71.1769292  53.9292749  54.4812392  70.6607780  53.2372941  54.6063971
  70.6163221  54.5963526  54.4274991  71.0175805  53.9256007  54.4918458
  73.2461525  54.4685709  56.3105244  72.8593278  54.4934741  57.0918774
  72.7594463  53.9027388  55.8579761  73.1174034  54.3881460  56.3593148
  72.9118667  51.3552695  58.6015504  73.5411785  51.8912995  58.3236575
  73.0804530  51.2630054  59.4529070  73.0296462  51.4214057  58.6864033
  72.7132582  56.1423889  60.8741916  73.5406011  55.8709038  60.9300530
  72.7340428  56.9384731  61.2305734  72.8385432  56.2203644  60.9357099
  67.2902072  63.2887752  54.0612177  66.4490078  63.1891626  54.2691070
  67.4992080  64.0583232  54.4126497  67.1966764  63.3879795  54.1439492
  64.7677639  60.9107289  51.8896927  64.3734336  60.9850301  51.1147037
  64.2117756  61.2965235  52.4405289  64.6280451  60.9789064  51.8564587
  76.4042586  53.8888583  51.5700806  76.6092179  53.8210891  52.4157803
  76.0769010  54.6947404  51.5021984  76.3857833  53.9974524  51.6860461
  71.1018737  61.2169151  53.3109774  70.7981874  60.6625140  53.9120182
  70.3998157  61.3961361  52.8237808  70.9534946  61.1613934  53.3279480
  70.1584834  58.5269671  47.8754476  70.4344568  57.8088584  47.4632044
  70.7583503  59.1254591  47.6675582  70.2878098  58.5090042  47.7835237
  69.1637088  68.4318872  58.0181872  69.0557443  68.4420934  58.8843930
  69.3732869  69.2573652  57.8286826  69.1787199  68.5559947  58.1185964
  73.6595354  56.1983189  46.1501071  74.1139101  56.3693749  46.8748916
  74.1335400  55.5851299  45.7498847  73.7963674  56.1334074  46.1974833
  67.1810880  65.6831514  55.4803810  66.5898813  66.3241013  55.4506825
  67.9431903  66.1069132  55.4535109  67.2059140  65.8407353  55.4718957
  67.5771502  56.8433512  56.1471827  68.0372984  56.9172442  56.8846951
  67.6227609  57.6414766  55.7971648  67.6522058  56.9727659  56.2044584
  69.2254852  57.5100207  60.7143854  68.8340417  56.8633554  61.1499632
  69.3940715  58.1011642  61.3338110  69.1925763  57.5014475  60.8706560
  71.0008374  62.9025723  47.2546078  71.7450419  63.2899999  47.4929028
  71.1469070  62.0583148  47.4186566  71.1318959  62.8356196  47.3140048
  72.9187950  54.6975982  52.2877940  72.0723995  54.8698790  52.1619289
  72.9159082  53.8925326  52.6243768  72.7935100  54.6037011  52.3189067
  73.9886250  58.4751196  53.1539998  73.5146204  57.9492958  53.6645309
  74.3604386  57.9280669  52.5854859  73.9736139  58.3167193  53.1455145
  64.3659280  60.4722703  58.5223543  65.2284893  60.3718412  58.4360873
  64.0351063  59.8917412  57.9609116  64.4444477  60.3714330  58.4268949
  75.9169750  59.3687751  46.2165751  75.3892768  59.4516495  45.5271460
  76.3765458  60.1105622  46.2130396  75.9071600  59.4908413  46.1140447
  67.7261066  59.2965152  55.1833962  67.1014136  59.3083544  54.5759914
  67.3906661  59.7725327  55.8325202  67.5846558  59.3683669  55.1890530
  67.9102815  57.6390270  41.2406647  67.5615619  58.2909996  41.7038196
  67.4299261  57.6247383  40.5130518  67.7873059  57.7333324  41.2017738
  64.4386742  67.3565612  56.6237726  63.9086666  66.6658051  56.6732701
  64.7111835  67.3475797  55.7950434  64.4011464  67.2532744  56.5085142
  75.4706832  67.9391314  45.3475408  76.1941031  68.4049427  45.2039982
  75.0307423  68.0064924  44.5973005  75.5122524  68.0175151  45.2160190
  74.6392987  64.7988857  56.5976097  74.0249980  64.2546907  56.8924733
  75.1560272  64.2853093  56.1181914  74.6248650  64.6425266  56.5700326
  73.8789285  65.8693127  54.3320396  73.4516893  65.2442845  53.8985831
  73.8714229  65.5868048  55.1579403  73.8148426  65.7345907  54.3900224
  66.9951812  60.9058300  57.4008830  67.1545298  60.1501624  57.8060552
  66.8144705  61.4549239  58.0549568  66.9917171  60.8752113  57.5571536
  74.9372115  53.0719535  57.9559620  74.4412676  53.2683209  57.2651186
  75.6941177  53.4712203  57.7848421  74.9758939  53.1597269  57.8279756
  72.2074994  56.7461881  54.5462930  72.2317481  56.2121993  53.8575710
  72.4586468  56.2379190  55.2088521  72.2484913  56.5922785  54.5427575
  59.7182584  64.0293376  53.9806074  59.6126033  63.9840220  53.1158158
  58.9682804  64.3747157  54.2620359  59.5918187  64.0734284  53.8943404
  68.4876316  55.4732699  53.9268674  68.5274688  55.9741906  54.6403382
  67.6625981  55.5643093  53.6574597  68.3715842  55.5614516  53.9919213
  69.9090680  61.9893209  56.2242573  69.0782609  62.1567027  56.0177821
  69.8542197  61.6129160  57.0091459  69.7780095  61.9582940  56.3091102
  67.7174463  55.4802102  61.8598984  68.3427166  54.9364235  62.1328416
  67.2624943  54.9997020  61.2906774  67.7422724  55.3291583  61.8160578
  68.2826724  60.2648801  46.7532691  68.4229685  60.7621265  47.4561332
  68.7809256  59.5635095  46.8946905  68.3767805  60.2350780  46.8784270
  68.3126946  61.1315912  44.0825268  68.9472025  61.7276337  44.0174730
  68.3952557  60.8319369  44.8971138  68.4183497  61.1756820  44.1928354
  69.8905929  57.0629887  44.0570710  70.2121770  56.5832970  43.4029972
  70.1532873  57.8729533  43.8661522  69.9771954  57.1119785  43.9326202
  75.2865084  56.4502081  56.4194189  75.7120155  55.9974608  55.8077715
  74.6722077  55.8962152  56.6958976  75.2593729  56.3016057  56.3699214
  64.8179934  63.3283753  47.3514814  65.3272163  63.9248260  47.7326119
  65.2914206  63.0609726  46.6691234  64.9623310  63.3769568  47.3069337
  73.7259307  52.9217181  49.8284766  73.0827625  52.7714827  50.3969904
  73.3858714  52.6759526  49.0633871  73.5804384  52.8629303  49.7987781
  67.1770466  59.9640011  50.2187994  66.4582455  60.3804144  50.4860858
  67.5482828  60.5294250  49.6679633  67.1262397  60.1089293  50.1770801
  76.4770046  60.5967860  56.1089990  76.4567974  60.4151155  56.9624769
  76.5249247  61.4679879  56.0849574  76.4804687  60.6984398  56.2313285
  72.9517040  59.0038011  45.5561374  72.3581879  59.3255007  45.0045941
  72.9892318  58.1579106  45.3482480  72.8691429  58.9262339  45.4444145
  75.8274857  58.9617515  48.9863124  75.5988550  58.9850217  48.1441482
  76.0872933  58.1374983  49.1058135  75.8321045  58.8433595  48.8788322
  70.1094085  60.8151989  58.5888224  69.5972988  60.2073171  58.9473256
  69.9373581  61.5308581  59.0562200  70.0083722  60.8315288  58.7104448
  64.9559800  59.2589564  61.2390586  64.7862390  59.9190939  60.6938793
  64.5125750  59.4696125  61.9603075  64.8659133  59.3875546  61.2652216
  68.8819619  57.4994062  50.2817320  69.3576985  57.8611142  49.6467501
  68.3808219  58.1550529  50.5617462  68.8784978  57.6488251  50.2294061
  73.9863155  58.7376233  61.0290480  74.5434586  58.5090043  60.3968945
  73.6624220  59.4981899  60.7525692  74.0209566  58.8160070  60.8946977
  61.8561864  62.1636429  56.4979076  61.3088584  61.4937075  56.6159944
  62.6454242  61.7966277  56.5622543  61.8914048  62.0101416  56.5247776
  70.9246272  59.6435262  43.6490704  71.3045237  59.6614891  42.8641818
  70.1838868  60.0889250  43.5281551  70.8715110  59.7117036  43.5154272
  78.5531563  57.9517453  49.2366282  78.5525789  57.7966109  50.0950559
  78.3487743  58.7980440  49.1807668  78.5231341  58.0538074  49.3554222
  60.6148834  61.3757237  53.6525099  60.4370595  60.9233846  54.3780015
  60.3267856  62.1783399  53.8363576  60.5461787  61.4279795  53.7868602
  76.2772415  62.6314955  52.8902489  76.7726080  61.9137950  52.8506510
  75.4672191  62.3285752  52.7756976  76.2316308  62.4812601  52.8676215
  71.7231026  66.4812768  45.0399494  70.9142349  66.1579441  44.9932803
  72.2305935  65.7745990  44.9727742  71.6780693  66.3294084  45.0229788
  62.3521304  63.9084961  50.7646858  61.4866823  63.8970651  50.6529629
  62.4520119  63.7215184  51.6117997  62.2395471  63.8791022  50.8735802
  67.9778313  73.6782860  54.3376963  68.2924872  74.4919248  54.3454745
  68.3871727  73.2933078  55.0059123  68.0846411  73.7411562  54.4381055
  74.9302833  69.0952906  51.9080775  75.4014011  69.8093169  52.0770761
  75.2663012  68.4951657  52.4440645  75.0497948  69.1124371  52.0113151
  71.8472328  53.8680377  58.8638870  71.9800234  53.0711370  59.1919846
  72.2317481  54.3946780  59.4437146  71.9228657  53.8280294  58.9982373
  74.9204683  50.7910703  55.4619964  74.1150647  50.6808433  55.7787802
  74.7911419  50.8923159  54.6049829  74.7824816  50.7894373  55.3828004
  70.9165443  55.8696790  46.3318335  71.7381137  56.0395103  46.0900030
  70.4535094  56.0244051  45.6084633  70.9696605  55.9178523  46.1889980
  69.5060775  53.8639552  57.1116764  70.0505188  53.5230679  57.7021106
  69.5597711  54.7225014  57.2538049  69.5949894  53.9394811  57.2198637
  65.3191334  67.6255968  53.9855572  65.9236191  67.5851802  53.3569393
  65.1118646  68.4727120  54.0159628  65.3780231  67.7443971  53.8971688
  60.5542616  66.6090586  53.8554495  60.4566894  65.7986857  54.1644552
  61.3371486  66.5882379  53.4700763  60.6558752  66.4857676  53.8441358
  34.9910070   1.0362033  35.6190894  34.2392970   0.6577572  35.3906939
  35.4396082   1.0680467  34.8709705  34.9459737   0.9847640  35.4748397
  40.4435030   1.4587403  31.0476442  40.1086399   2.1364324  30.6120664
  40.9561901   1.0692714  30.4593313  40.4700611   1.5011981  30.8963233
  39.9839322   3.4101671  36.9887553  40.3678701   3.9788570  36.4492328
  39.9198463   2.6851182  36.5093369  40.0312749   3.3877135  36.8381416
  36.5694826   1.0480425  37.8853667  36.6705189   0.2380779  38.1950795
  35.9736572   0.9537372  37.2553345  36.4967365   0.9145453  37.8379905
  36.4095566   5.9658015  39.2868523  37.0533022   6.4071179  39.6764681
  36.7351822   5.1611441  39.1998782  36.5527395   5.9123209  39.3314000
  29.7659871  -2.9299288  37.5106001  29.5310055  -3.7631636  37.4038269
  29.9045512  -2.6494622  36.6967202  29.7515533  -3.0115785  37.3748356
  37.1116146  -1.0230011  34.6588385  37.4331987  -0.4824803  34.0549693
  37.7588242  -1.5933239  34.7910674  37.2542201  -1.0270835  34.5895420
  31.3277195   1.9486383  38.7862207  30.8444774   2.6736872  38.7621790
  32.1400514   2.2462513  38.8972364  31.3767943   2.0988736  38.7989486
  37.3991350   0.7418563  41.3912021  36.8818291   0.3825978  40.7873329
  38.0965741   0.2180738  41.4018087  37.4256931   0.6116251  41.3042280
  41.0554942   1.1913378  47.3528194  41.1438287   1.0039518  48.2006405
  41.4844654   0.5450807  46.9533041  41.1317044   1.0676385  47.4199946
  38.6225401   0.4744537  46.3345856  38.0596236   0.0617147  46.8585518
  39.3846425   0.3997443  46.7539000  38.6519850   0.4021938  46.4738857
  34.1821393   2.4642559  38.9382487  34.8841972   1.9494548  38.9955243
  34.1018876   2.7916710  39.7429362  34.2745153   2.4356785  39.0655279
  33.5072168  -1.3451089  38.4468095  34.3461068  -1.1128157  38.4941856
  33.5383937  -2.2146778  38.3775130  33.6353886  -1.4394143  38.4432739
  34.1324871  -0.9250214  42.7481400  34.6723096  -1.0679083  43.4184773
  33.4494817  -0.5253463  43.1165426  34.1117025  -0.8870543  42.9015822
  41.1675001   0.6222397  50.0171978  41.9515417   0.7353244  50.3827720
  40.9671595  -0.2036466  50.2130664  41.2541026   0.5169116  50.1006364
  41.3245394   2.5332499  43.6638433  40.5260640   2.2931999  43.9212302
  41.7731406   2.5846891  44.4105481  41.2720005   2.5054890  43.8123358
  29.9455430  -3.9191144  40.1827566  29.7631003  -3.9444258  39.3299858
  30.6805099  -3.4492206  40.2216475  30.0269494  -3.8529782  40.0625484
  36.2848490  -1.6582354  37.2171508  36.9222437  -1.8970606  37.7623301
  36.7103561  -1.4545195  36.4824669  36.4424656  -1.6631344  37.1888665
  30.9761132   0.5805983  41.1005812  31.0165277   0.8520834  40.2725591
  31.5355656   1.1047891  41.5163600  31.0644478   0.6981738  41.0397700
  38.6669962  -1.1809931  38.8965294  38.7408970  -1.3434759  39.7507144
  39.4839468  -0.9919742  38.6525776  38.7986320  -1.1773189  38.9863320
  32.4275718  -0.8352068  35.9259738  31.6013836  -0.5890331  35.7994017
  32.4887710  -0.9139988  36.7921796  32.3149885  -0.8107119  36.0348682
  37.2074547   1.7824812  33.6278768  37.4972846   1.3913793  32.9037994
  37.9378028   1.9641517  34.0684043  37.3581432   1.7518626  33.5861575
  35.1480463   3.7592194  36.6938917  34.9280758   3.4689549  37.4865584
  34.9274985   3.1007149  36.1656830  35.0828057   3.6191903  36.7327826
  37.3148419   5.1321584  35.4769610  37.9672477   4.5998027  35.7060636
  36.6174027   4.7790237  35.8637484  37.3079137   5.0011107  35.5681778
  34.2629684  -2.5139238  34.8836984  35.0175652  -2.1326199  35.0972447
  33.6700296  -2.0628094  35.3383681  34.2866397  -2.3910411  34.9819863
  35.5827910  -1.3430677  40.2577100  35.0608664  -1.2030385  40.9428964
  35.9701930  -2.1020013  40.4479217  35.5631611  -1.4345153  40.3878176
  41.7794915   0.3964782  34.2437668  41.5381591  -0.3367357  33.8364733
  41.9596248   0.9451639  33.5904002  41.7702539   0.3687174  34.0867891
  36.1474396   2.3630103  43.3406955  36.2963959   1.8033019  42.6880359
  36.9274398   2.4422105  43.7239474  36.2848489   2.2915669  43.3003904
  38.6727696   2.5344746  44.6191446  38.5971367   1.8653557  45.1742234
  38.6017555   3.2362534  45.1332112  38.6508303   2.5389653  44.7768294
  39.3297943   1.0545745  35.4515052  40.0947834   0.7855389  35.1297716
  39.2276033   0.5695755  36.1685115  39.4279439   0.9435310  35.5094879
  38.0619330   5.9413066  43.0769447  38.5515261   5.2423855  42.8945111
  37.4903563   5.6436936  43.6645504  38.0503860   5.7939290  43.1370487
  38.5555676  -0.3110161  32.2009353  38.6248497  -1.1695622  32.3402353
  39.3344131  -0.0938280  31.8728378  38.6808526  -0.4057297  32.1726510
  42.9463164   2.1127541  36.4145846  42.5542956   1.8094256  35.6968713
  43.1016236   2.9496631  36.2250800  42.9116754   2.1911377  36.2802344
  35.9390161  -1.1858921  44.9521919  35.8310516  -1.1756858  45.8183977
  36.1485942  -0.3604140  44.7626873  35.9540272  -1.0617846  45.0526010
  31.2139815  -2.2612181  43.5577773  30.6839740  -2.9519742  43.6072747
  31.4864908  -2.2701995  42.7290481  31.1764537  -2.3645049  43.4425189
  26.4935657  -5.5884416  40.9146121  26.3879106  -5.6337572  40.0498205
  25.7435877  -5.2430636  41.1960406  26.3671260  -5.5443508  40.8283451
  39.8955975  -1.5329031  44.5109573  39.3881066  -0.9793184  44.9550203
  39.5982621  -1.4720741  43.6928347  39.7760860  -1.4422720  44.4558030
  42.5063755   2.3834227  32.4413516  41.7893065   2.2095089  31.9760754
  43.1570493   2.1486799  31.9089002  42.4965606   2.3230019  32.2942734
  39.1398460   3.3995527  41.4166580  38.9164115   2.6414356  41.7850606
  38.6508303   3.4293548  40.6947019  39.0341909   3.2917752  41.3643321
  37.7876917   3.6195985  38.8703664  37.3737316   2.9570116  38.4807506
  38.4724291   3.7673844  38.3499358  37.8275289   3.5436643  38.7360161
  41.1542211   2.7786071  39.6227281  40.7558494   2.8888341  38.8548101
  40.5393431   2.9868137  40.2053841  41.0041101   2.8259639  39.5958580
  34.7531387   4.0605067  41.2717010  35.0677946   4.8741455  41.2794792
  35.1624800   3.6755286  41.9399169  34.8599485   4.1233769  41.3721102
  43.7932891   1.0876427  51.0212894  43.9029856   0.2984988  51.3769642
  44.1223788   0.9982363  50.2187232  43.8585297   0.9582280  50.9555285
  32.0944407  -1.9921825  40.9195619  32.6989264  -2.0325990  40.2909439
  31.8871719  -1.1450673  40.9499675  32.1533304  -1.8733822  40.8311735
  41.9088179   0.2744121  42.1357856  42.7286553   0.1307087  42.3974151
  41.6282257   0.8990319  42.6774294  41.9884922   0.3454473  42.2545796
  27.3295689  -3.0087207  40.7894542  27.2319967  -3.8190936  41.0984599
  28.1124559  -3.0295414  40.4040810  27.4311826  -3.1320117  40.7781405
  58.3801829   7.9308972  35.1000732  58.3495834   8.7853609  35.2719002
  58.9783178   7.6304265  35.6586876  58.4638987   8.0125469  35.2075535
  51.5801514   7.0184623  39.8553663  50.7239410   7.1793122  39.9062780
  51.6269168   6.1476687  39.8758724  51.4600626   6.9135425  39.8659729
  54.8895231  13.2871149  49.4614119  55.5961998  12.7923180  49.5901053
  55.0783166  13.7280230  48.7316777  55.0223136  13.2789499  49.3723164
  51.4167614  16.9772711  31.0476442  51.0818982  17.6549632  30.6120664
  51.9294484  16.5878022  30.4593313  51.4433195  17.0197289  30.8963233
  50.9571905  18.9286979  36.9887553  51.3411284  19.4973878  36.4492328
  50.8931046  18.2036490  36.5093369  51.0045332  18.9062443  36.8381416
  54.4253335   9.0776667  42.4985314  54.9709295   9.7561754  42.5579284
  54.3670212   8.9364128  41.6386896  54.4969250   9.1568669  42.3797375
  56.2018404  10.5061274  33.3719042  56.0857930  11.2568960  33.8011180
  56.9974291  10.2485228  33.6215129  56.3022993  10.5796121  33.4723134
  40.7392454  12.5886020  37.5106001  40.5042639  11.7553672  37.4038269
  40.8778095  12.8690686  36.6967202  40.7248117  12.5069523  37.3748356
  43.0382542   4.7571751  40.4090308  42.4187573   4.1664398  40.2400323
  42.9366405   5.3483186  39.7754632  42.9320217   4.7575833  40.2895298
  50.1350437   6.4971292  34.7422771  50.8330602   6.6759420  35.2344235
  50.4502770   5.9741632  34.1193161  50.2845775   6.4465064  34.7224782
  42.7651675   8.3024032  42.6533877  42.6410372   8.8886478  43.2883696
  43.4169959   7.8084228  42.9546152  42.8425324   8.3162837  42.7919807
  47.7910016  11.4785749  41.9321388  48.4359018  10.9858192  41.6132337
  48.0311793  11.6210536  42.7587467  47.9220601  11.4263191  42.0070922
  50.3296107  14.3240655  41.5828281  50.6119350  13.5292061  41.3615037
  51.0582268  14.8021242  41.6033342  50.4785671  14.2775252  41.5531296
  48.3077301   1.8663689  38.8244046  47.9780631   2.3174833  38.1547745
  47.6322303   1.7879852  39.3717052  48.1587737   1.9214824  38.8067269
  53.9247709  11.2368919  31.6833332  53.8399005  12.0929885  31.8282901
  54.4132093  10.9613243  32.3515491  53.9836607  11.3226240  31.8035414
  54.8566143   7.8553713  33.1831067  54.3277614   8.0713346  33.8428373
  55.3791163   8.5489851  33.1032037  54.8554596   7.9896850  33.2686666
  60.3114196  13.4300017  38.5564112  59.4811899  13.6410661  38.7197528
  60.2623448  12.6037072  38.2806395  60.1820931  13.3389624  38.5401477
  46.7465750  11.7516930  31.9838535  46.1622966  12.2566961  32.3904399
  46.3435846  11.5259316  31.2435127  46.6005054  11.7925178  31.9343560
  52.0287525  16.7098685  47.3528194  52.1170871  16.5224826  48.2006405
  52.4577238  16.0636115  46.9533041  52.1049627  16.5861693  47.4199946
  51.2042965   7.9982582  30.4607456  51.4438969   8.2060565  29.6482799
  51.5258806   7.1940090  30.5696400  51.2880123   7.9096683  30.3568009
  59.8068154   6.0770418  42.3514533  58.9696575   6.1472605  42.5862128
  59.7756385   6.0794913  41.4788835  59.6786436   6.0880645  42.2574081
  46.2032883   8.2203454  48.0662902  46.3753387   8.1109348  48.9148183
  46.7402240   8.8657859  47.8294094  46.3077887   8.2995455  48.1567998
  44.8690320   2.3346296  31.0045107  44.6865893   2.5518177  30.1786100
  45.7315933   2.4485309  31.0603721  44.9694909   2.3836194  30.8899594
  54.5298340  10.2726094  37.9426425  55.2855855  10.7057609  37.9815333
  54.6360664   9.6230864  38.5161061  54.6568510  10.2403578  38.0324450
  57.5678511  14.0999372  38.6928827  57.1313743  14.1036114  39.4487799
  57.2341426  14.7804871  38.2608405  57.4541131  14.2011827  38.7409660
  52.1407584  16.1407704  50.0171978  52.9248001  16.2538552  50.3827720
  51.9404179  15.3148842  50.2130664  52.2273610  16.0354424  50.1006364
  40.5094600  10.8135385  42.9015822  40.2433015   9.9974501  43.0606812
  40.5233164  10.8588540  42.0311337  40.4719322  10.6992289  42.7969304
  44.4152347   5.6120469  29.5167580  43.7010524   5.3258649  29.9290012
  44.8996315   5.9517095  30.1573967  44.3811710   5.6202119  29.6723215
  45.2593206   4.3513763  45.5482829  44.5665003   3.8810743  45.7943561
  45.8753534   4.1252067  46.1224537  45.2477736   4.2480895  45.6691982
  60.7022857  10.8180292  37.5848465  61.3639291  10.2570960  37.4844373
  60.0614269  10.3232322  37.9101156  60.7051724  10.6616701  37.6180805
  51.5899665  14.1150423  29.8929388  52.0050813  13.7835447  29.2013884
  50.7591594  13.8819325  29.7649525  51.5287673  14.0321679  29.7720235
  40.9188013  11.5994164  40.1827566  40.7363587  11.5741050  39.3299858
  41.6537682  12.0693102  40.2216475  41.0002077  11.6655526  40.0625484
  56.9887688  11.8345674  37.3260454  57.2243277  11.9790873  36.4987304
  57.1377251  12.5988082  37.7191967  57.0453491  11.9684728  37.2624057
  43.9833765   8.3179167  46.6909675  44.7073737   8.3032197  47.1774569
  44.0849902   9.0274522  46.1931643  44.1051974   8.4203870  46.6888461
  58.8178144  10.6747340  35.1630057  59.1486362  11.2074980  34.5570152
  59.3911233  10.7286228  35.8192008  58.9511824  10.7616909  35.1707839
  51.3578715  11.7978251  51.5558622  50.5651695  12.1121763  51.7411241
  51.4727642  12.0129720  50.7179406  51.2574125  11.8762088  51.4596956
  54.0310034   8.5212243  35.8453637  54.1256888   9.2601537  36.2993263
  53.4068877   8.0929718  36.2788202  53.9519064   8.5673563  35.9761785
  52.2862507  11.6998455  46.4943918  52.8601369  11.0625699  46.6492482
  52.2077311  11.7002538  45.6253576  52.3595742  11.6063567  46.3890329
  40.8858924   8.4787665  40.3326633  41.4632426   8.3424115  40.9718878
  40.1872986   8.0223449  40.5872217  40.8679945   8.3909931  40.4648922
  54.2833055  10.3660982  29.0790589  54.2013217  10.4363170  29.9445576
  54.9212775  10.9290726  28.8874330  54.3652892  10.4599953  29.1780539
  47.6426226  10.1321720  38.5465116  47.3845470   9.2993455  38.5196415
  47.6974709  10.3579333  37.7057616  47.6126004  10.0419492  38.4185253
  46.6160938   7.6859483  39.0330010  46.0410529   7.8451651  39.6693971
  46.2396614   7.0494892  38.5698461  46.4763750   7.6157296  39.0584569
  50.2834227   6.1582832  43.8922389  49.8948660   5.7337050  43.2374580
  49.6188925   6.4064982  44.3999416  50.1281155   6.1321553  43.8710257
  36.3617757   7.3299558  37.0474451  36.4478009   6.9531426  37.8287981
  36.9893554   6.9560003  36.5694409  36.4674308   7.2185040  37.0919928
  51.3873165  10.3881437  32.0899196  52.2013804  10.6796329  31.9781967
  51.3232306   9.7341299  31.5157489  51.4975904  10.3346631  31.9888033
  57.6082655  13.0707433  46.5028772  57.3721293  12.2395498  46.3840832
  58.2525884  13.0193040  47.0883616  57.6677326  12.9405121  46.5714665
  47.8983888   9.0805244  31.5546397  48.2829041   8.8612951  32.3062942
  47.6495509   9.9068189  31.6847474  47.9185961   9.1703390  31.6847474
  48.0652429   2.3611659  51.2708982  47.7505870   3.1311222  51.0078544
  47.7442361   1.7981915  50.6861209  47.9711348   2.3921928  51.1450332
  58.6319076  12.8551882  42.5657066  58.3264893  13.5879938  42.9270382
  57.9125292  12.4489811  42.2849852  58.4806418  12.9033615  42.5770203
  64.3320868   9.4944882  41.8925410  64.2645368   9.5140841  41.0227997
  64.3176530  10.3375209  42.1181081  64.3199624   9.6218617  41.7977887
  43.4008302  14.6833240  35.9259738  42.5746420  14.9294977  35.7994017
  43.4620293  14.6045320  36.7921796  43.2882469  14.7078189  36.0348682
  45.6184326   0.7502181  36.8855178  44.7506751   0.8224780  36.9512787
  45.9059530   1.5524259  37.0743153  45.5324074   0.8796328  36.9229944
  62.1179485   8.2689268  40.1672005  62.6687407   7.6357337  40.4069097
  62.1023601   8.8004661  40.8587509  62.1964682   8.2538217  40.3050863
  48.7701876  12.1027866  44.7131898  48.2713570  12.8143633  44.7916787
  49.5802100  12.4228532  44.6750061  48.8157983  12.2554714  44.7188467
  45.0329994  11.3650819  38.9594619  44.7443242  10.7388290  39.4940346
  45.9013342  11.3071106  39.0259300  45.1190246  11.2638363  39.0485574
  55.8207892   6.5085602  39.2776601  55.4772657   5.7875937  39.6283851
  55.9200934   6.2999453  38.4354959  55.7849934   6.3709805  39.2048281
  56.2820921  12.9711306  34.8200589  56.8478953  13.6304516  34.7359132
  55.6348824  13.3161004  35.2916991  56.2699677  13.1193247  34.8773346
  47.6968934   4.9608910  50.0094196  46.8868710   5.2666690  49.8984039
  48.1743621   5.6814492  50.1246780  47.6472413   5.1123511  50.0101267
  43.5451678   4.2260440  34.3272054  43.2576474   3.8561710  33.5904001
  44.2322146   4.6955295  34.0655759  43.6040575   4.2407409  34.1787130
  52.7527499  15.9150090  34.2437668  52.5114175  15.1817951  33.8364733
  52.9328832  16.4636947  33.5904002  52.7435123  15.8872482  34.0867891
  46.3805349   8.0913388  35.7739459  47.1028001   8.2554546  35.3143265
  45.9013342   8.8123053  35.6678799  46.4169080   8.2211618  35.6905073
  54.3398857   4.4277187  41.1536144  53.5009958   4.4538466  40.9174407
  54.4103224   5.0747922  41.7341490  54.2267250   4.5273313  41.2045261
  44.0312966  10.4971460  44.8793599  44.5434063  10.7755714  44.2302359
  43.7449309  11.2360755  45.2456412  44.0647829  10.6473814  44.8383477
  58.2156381   9.6345174  38.4397386  58.1290355   9.7900600  39.2932164
  57.7606861  10.2783249  38.0656791  58.1359637   9.7520929  38.5104492
  41.1179872   5.0041652  35.1757335  41.2196009   5.8067814  35.5038311
  41.9135759   4.8028988  34.8780416  41.2507778   5.0927551  35.1792691
  47.5496691   2.5897849  44.9394640  47.3579888   2.6052983  45.7894064
  48.3995287   2.7861523  44.9161295  47.6472413   2.6212200  45.0617935
  41.9343604   5.1188831  42.9178457  41.7929096   4.2672771  43.0422965
  42.2184168   5.1617491  42.0940663  41.9551451   4.9988581  42.8146081
  52.0882197   6.9555921  37.0622945  51.8416911   6.8751672  37.8959734
  52.4167320   6.1709389  36.8685473  52.1003440   6.8282186  37.1570468
  55.9830246  13.6639280  40.8509726  55.8444605  14.3620326  41.3558469
  55.2030244  13.5087937  40.4945908  55.8473473  13.7439447  40.8736000
  54.3208331   9.9635655  47.1032108  54.3156369   9.0915472  47.1074534
  55.0269325  10.1623825  46.6301564  54.4253335   9.8639530  47.0339143
  48.0479224   9.6912639  46.4745928  48.1922600  10.2713847  45.8389038
  48.3954873  10.0688936  47.1795783  48.1206685   9.8333343  46.4844923
  50.2199141   8.8902808  44.2571060  49.4722456   9.0833822  43.8519338
  50.3740667   8.0648027  44.0195181  50.1321569   8.7967919  44.1616466
  57.4783618  13.0217534  31.6126226  57.0990427  12.2354672  31.6055515
  56.8149864  13.5704391  31.4697870  57.3242093  12.9862358  31.5907022
  50.4600918   2.7853358  45.1466463  50.9173533   3.5177333  45.2739256
  50.5357247   2.3619824  45.9053719  50.5391888   2.8310597  45.2767540
  42.7033910   3.0319178  46.2355907  42.1676099   2.4199536  46.5516674
  42.7651674   3.6067314  46.8889574  42.6329542   3.0266106  46.3791334
  48.3383296   4.7755462  41.9908288  47.5479371   4.5946922  42.3125623
  48.7343919   3.9982415  41.9738582  48.2800173   4.6342923  42.0360836
  52.8249187  13.6043237  27.4315001  53.5922172  13.6643362  27.0220853
  52.3780496  13.0323678  26.9471320  52.8722614  13.5279812  27.2992711
  53.7226983  12.4097893  39.7167733  53.0471985  12.1783125  40.2181120
  53.7319359  11.8019075  39.0909838  53.6245487  12.2856818  39.6983886
  50.8521127   7.2515721  46.4731786  50.7880268   8.1125678  46.3451923
  50.9918314   6.9347715  45.6727338  50.8636597   7.3315888  46.3359999
  55.7243717  15.2663025  31.9477911  55.8063555  16.0730011  31.6239362
  56.2093459  15.2858984  32.6718685  55.8080875  15.3883687  32.0064810
  49.5340221   9.9447861  40.6147989  49.1102470  10.1452360  39.8787008
  49.3585076   9.0976709  40.7272289  49.4451101   9.8496642  40.5221679
  44.8222666  10.4399912  36.0475962  44.9787285  10.3746715  36.9031954
  45.1623259  11.2148465  35.8354641  44.8955900  10.5449110  36.1430556
  51.3601810   9.8157796  34.9169325  51.9017356   9.3128177  35.3807946
  51.6748369   9.7622991  34.1058810  51.4866207   9.7337217  34.8653137
  55.2318918  14.0260443  52.0296237  56.0453783  13.7545592  52.1901370
  55.0713884  13.7267983  51.2256433  55.3288866  13.9415369  51.9341643
  52.5091080   4.7094100  44.9691626  52.7233049   4.0705015  44.4154980
  51.8924979   5.1539924  44.5399487  52.4496409   4.6804244  44.8242057
  53.9195747  17.6312849  36.4145846  53.5275539  17.3279564  35.6968713
  54.0748820  18.4681939  36.2250800  53.8849337  17.7096685  36.2802344
  41.3956927   7.6234863  36.3636729  41.7755892   8.0419408  35.6996996
  40.8212292   8.2048318  36.6705572  41.3668252   7.7712722  36.3113470
  54.6730168   6.3183166  45.9074933  53.8606849   6.0109056  45.9888105
  55.1320102   5.8382166  46.4717645  54.6210552   6.2019658  46.0029527
  54.0835422  14.1962837  36.3551877  53.7250077  14.3677480  37.1315909
  53.5974133  14.6576043  35.7979875  53.9594119  14.2901809  36.3877146
  48.8723788   9.8762003  28.8952111  49.1616312  10.6526885  29.1695686
  48.9595586   9.3650734  29.5966611  48.9278044   9.9153921  29.0394609
  51.7683675   7.7243237  50.6903635  52.2383306   8.3485353  51.0771509
  51.8145555   7.0560212  51.2496850  51.8451551   7.7177917  50.8303706
  55.2440162  15.0866733  47.3019078  55.8819882  14.5926929  46.9681534
  54.6014253  15.0144134  46.7171305  55.2434388  15.0025742  47.1661433
  56.9697162   6.9355879  41.8684993  56.5424770   6.8482228  41.1133093
  56.3323215   7.0433655  42.4539838  56.8126769   6.9388539  41.8430435
  55.2994418  15.7786542  43.9424435  56.0886796  15.4275606  44.0626516
  55.4738016  16.5922930  43.6801068  55.4414700  15.8472399  43.9212303
  45.0387729   9.1895267  40.9952223  44.1975735   9.0899142  41.2031117
  45.2477737   9.9590748  41.3466544  44.9452421   9.2887311  41.0779538
  42.5163296   6.8114804  38.8236974  42.1219993   6.8857816  38.0487084
  41.9603412   7.1972751  39.3745336  42.3766108   6.8796579  38.7904634
  48.8504393   7.1176667  40.2449821  48.5467531   6.5632655  40.8460229
  48.1483814   7.2968877  39.7577855  48.7020603   7.0621449  40.2619527
  47.9070491   4.4277186  34.8094523  48.1830225   3.7096099  34.3972090
  48.5069160   5.0262106  34.6015629  48.0363755   4.4097557  34.7175284
  44.9296536  11.5839030  42.4143856  44.3384470  12.2248528  42.3846871
  45.6917560  12.0076647  42.3875156  44.9544797  11.7414868  42.4059004
  45.3257159   2.7441027  43.0811874  45.7858641   2.8179957  43.8186998
  45.3713266   3.5422282  42.7311695  45.4007715   2.8735175  43.1384630
  46.9740509   3.4107722  47.6483901  46.5826074   2.7641069  48.0839679
  47.1426372   4.0019158  48.2678156  46.9411419   3.4021990  47.8046607
  61.0486958  11.4144799  43.4121135  61.1070082  11.8631448  44.1581111
  60.4153426  11.8243612  42.9751215  60.9638253  11.5418534  43.4573683
  54.6886053  17.0348341  39.8475881  54.4905741  17.5239156  39.1532092
  54.0673764  17.2389583  40.4260014  54.5673617  17.1364880  39.8299104
  48.7494031   8.8033238  34.1886125  49.4936076   9.1907514  34.4269075
  48.8954727   7.9590664  34.3526613  48.8804616   8.7363711  34.2480095
  51.7371907   4.3758711  40.0880044  51.2631861   3.8500474  40.5985355
  52.1090043   3.8288184  39.5194906  51.7221796   4.2174708  40.0795192
  42.1144937   6.3730218  45.4563590  42.9770550   6.2725927  45.3700920
  41.7836720   5.7924927  44.8949162  42.1930133   6.2721845  45.3608996
  58.0008637   9.4361087  41.4986825  57.7606860   8.5967502  41.5029251
  58.4800645   9.5161254  42.2227598  58.0360821   9.3242487  41.6061627
  53.6655407   5.2695266  33.1505798  53.1378425   5.3524010  32.4611507
  54.1251115   6.0113138  33.1470443  53.6557257   5.3915928  33.0480493
  60.0013825   6.2162544  39.4516084  59.7623594   6.1758378  38.6136869
  60.1647726   7.0633696  39.5781805  59.9904128   6.3354629  39.3469566
  56.6059855  10.6012494  45.3821129  57.3294054  10.1485020  45.2032149
  56.3409817  10.8817159  44.5993457  56.6741128  10.5763462  45.2399845
  45.4746723   5.1972667  42.1174008  44.8499793   5.2091059  41.5099961
  45.1392318   5.6732842  42.7665249  45.3332215   5.2691184  42.1230577
  45.6588472   3.5397786  28.1746693  45.3101276   4.1917511  28.6378243
  45.1784918   3.5254899  27.4470565  45.5358716   3.6340839  28.1357785
  42.1872399  13.2573127  43.5577773  41.6572323  12.5665566  43.6072747
  42.4597492  13.2483313  42.7290481  42.1497121  13.1540259  43.4425189
  53.2192489  13.8398830  32.2815455  53.9426688  14.3056943  32.1380029
  52.7793080  13.9072439  31.5313052  53.2608181  13.9182666  32.1500237
  52.3878644  10.6996372  43.5316144  51.7735637  10.1554422  43.8264780
  52.9045929  10.1860608  43.0521960  52.3734307  10.5432781  43.5040373
  51.6274941  11.7700642  41.2660443  51.2002549  11.1450361  40.8325878
  51.6199886  11.4875564  42.0919450  51.5634082  11.6353423  41.3240270
  44.7437468   6.8065815  44.3348877  44.9030955   6.0509139  44.7400599
  44.5630362   7.3556755  44.9889615  44.7402827   6.7759629  44.4911583
  49.9560651   2.6469396  41.4802977  49.9803138   2.1129509  40.7915757
  50.2072125   2.1386705  42.1428567  49.9970570   2.4930300  41.4767622
  37.4668241   9.9300891  40.9146121  37.3611690   9.8847736  40.0498205
  36.7168461  10.2754672  41.1960406  37.3403844   9.9741800  40.8283451
  46.2361973   1.3740215  40.8608721  46.2760345   1.8749421  41.5743429
  45.4111638   1.4650608  40.5914644  46.1201499   1.4622031  40.9259259
  48.4191586  10.9400955  48.9629016  47.5687217  11.0772669  49.0986661
  48.5819714  10.2064733  49.4076717  48.3175450  10.8515056  49.0484615
  47.6576337   7.8900725  43.1582620  46.8268266   8.0574542  42.9517868
  47.6027854   7.5136675  43.9431505  47.5265751   7.8590456  43.2431148
  45.4660120   1.3809617  48.7939031  46.0912823   0.8371750  49.0668463
  45.0110600   0.9004535  48.2246821  45.4908380   1.2299099  48.7500625
  46.0312380   6.1656316  33.6872738  46.1715342   6.6628780  34.3901379
  46.5294913   5.4642610  33.8286952  46.1253461   6.1358295  33.8124317
  46.0612603   7.0323427  31.0165315  46.6957682   7.6283852  30.9514776
  46.1438214   6.7326885  31.8311185  46.1669154   7.0764335  31.1268401
  59.0395169   9.5638904  43.8851679  59.6313009  10.2036155  43.9169877
  59.4754163   8.8661941  44.1743746  59.1913600   9.5557255  43.9332511
  47.6391586   2.9637402  30.9910757  47.9607427   2.4840485  30.3370019
  47.9018529   3.7737049  30.8001568  47.7257611   3.0127300  30.8666249
  50.8688558  13.9856277  44.5109573  50.3613650  14.5392124  44.9550203
  50.5715205  14.0464567  43.6928347  50.7493443  14.0762588  44.4558030
  42.5665591   9.2291268  34.2854861  43.0757820   9.8255775  34.6666166
  43.0399863   8.9617241  33.6031280  42.7108966   9.2777083  34.2409383
  53.4796339  17.9019535  32.4413516  52.7625648  17.7280397  31.9760754
  54.1303076  17.6672107  31.9089002  53.4698189  17.8415327  32.2942734
  56.0644310   6.7784123  36.1854821  55.3935500   7.3213825  36.0567887
  56.7584060   7.2478978  35.9436516  56.0673177   6.9282394  36.1310349
  44.9256122   5.8647526  37.1528041  44.2068112   6.2811659  37.4200905
  45.2968485   6.4301765  36.6019679  44.8748054   6.0096808  37.1110848
  54.2255703   6.4975375  43.0430037  54.2053631   6.3158670  43.8964816
  54.2734904   7.3687394  43.0189620  54.2290344   6.5991914  43.1653332
  52.1702033  13.0862567  48.9678513  52.1297888  12.4412244  48.3823669
  52.9825351  13.0299185  49.2803925  52.2845187  12.9821534  48.9275463
  52.1274795  18.2971378  39.6227281  51.7291078  18.4073649  38.8548101
  51.5126014  18.5053445  40.2053841  51.9773684  18.3444946  39.5958580
  50.7002697   4.9045526  32.4901421  50.1067536   5.2262523  31.9385988
  50.7377975   4.0586622  32.2822527  50.6177086   4.8269855  32.3784192
  53.5760513   4.8625031  35.9203171  53.3474206   4.8857732  35.0781529
  53.8358590   4.0382498  36.0398181  53.5806701   4.7441111  35.8128369
  47.8579742   6.7159504  45.5228271  47.3458645   6.1080687  45.8813302
  47.6859238   7.4316096  45.9902247  47.7569379   6.7322803  45.6444495
  42.7045457   5.1597079  48.1730633  42.5348047   5.8198454  47.6278839
  42.2611406   5.3703640  48.8943122  42.6144790   5.2883061  48.1992262
  46.6305276   3.4001577  37.2157367  47.1062642   3.7618657  36.5807548
  46.1293876   4.0558045  37.4957509  46.6270635   3.5495766  37.1634107
  59.8616637  12.8723345  33.0070372  60.2450243  13.6214701  33.2368469
  59.0660751  13.1189165  32.7482361  59.8010420  13.0193039  33.0027945
  51.7348812   4.6383748  47.9630527  52.2920242   4.4097558  47.3308992
  51.4109877   5.3989414  47.6865739  51.7695222   4.7167585  47.8287024
  39.6047521   8.0643945  43.4319123  39.0574240   7.3944590  43.5499991
  40.3939899   7.6973793  43.4962590  39.6399705   7.9108931  43.4587823
  49.4531929   7.7251402  48.9282534  50.2043256   8.0403079  49.2422088
  49.6454506   7.5230573  48.1016455  49.5923344   7.7418784  48.8525929
  48.6731929   5.5442777  30.5830750  49.0530894   5.5622406  29.7981865
  47.9324525   5.9896766  30.4621598  48.6200767   5.6124552  30.4494319
  38.3634491   7.2764753  40.5865146  38.1856252   6.8241362  41.3120061
  38.0753513   8.0790914  40.7703623  38.2947444   7.3287310  40.7208649
  54.0258072   8.5322470  39.8242536  54.5211737   7.8145465  39.7846556
  53.2157847   8.2293268  39.7097023  53.9801965   8.3820116  39.8016262
  49.4716683  12.3820283  31.9739540  48.6628006  12.0586957  31.9272850
  49.9791592  11.6753505  31.9067789  49.4266350  12.2301600  31.9569835
  40.1006960   9.8092476  37.6986905  39.2352480   9.7978167  37.5869676
  40.2005776   9.6222699  38.5458044  39.9881127   9.7798538  37.8075849
  56.0909890  11.2826157  42.5119665  56.5164962  10.7600579  41.9590090
  55.7266810  11.8806995  41.9908288  56.0996493  11.2936384  42.3528675
  52.6788490  14.9960422  38.8420822  53.1499668  15.7100684  39.0110807
  53.0148668  14.3959172  39.3780692  52.7983605  15.0131886  38.9453198
  54.7665475  16.6061735  51.0212894  54.8762440  15.8170296  51.3769642
  55.0956371  16.5167671  50.2187232  54.8317880  16.4767588  50.9555285
  53.3162436  14.7878356  45.6048515  52.7683382  14.1636239  45.3368580
  53.7775465  14.9772628  44.8892594  53.3029646  14.7237406  45.4598946
  48.6651100   1.7704305  33.2658382  49.4866794   1.9402618  33.0240077
  48.2020751   1.9251566  32.5424680  48.7182262   1.8186038  33.1230026
  43.0676990  13.5263483  40.9195619  43.6721848  13.4859317  40.2909439
  42.8604303  14.3734635  40.9499675  43.1265888  13.6451486  40.8311735
  38.3028273  12.5098101  40.7894542  38.2052551  11.6994372  41.0984599
  39.0857142  12.4889894  40.4040810  38.4044409  12.3865191  40.7781405
  69.3534413  23.4494280  35.1000732  69.3228417  24.3038917  35.2719002
  69.9515762  23.1489573  35.6586876  69.4371571  23.5310777  35.2075535
  62.5534098  22.5369931  39.8553663  61.6971993  22.6978429  39.9062780
  62.6001752  21.6661995  39.8758724  62.4333209  22.4320733  39.8659729
  65.8627814  28.8056457  49.4614119  66.5694582  28.3108488  49.5901053
  66.0515750  29.2465538  48.7316777  65.9955720  28.7974807  49.3723164
  62.3900197  32.4958019  31.0476442  62.0551566  33.1734940  30.6120664
  62.9027068  32.1063330  30.4593313  62.4165778  32.5382597  30.8963233
  61.9304489  34.4472287  36.9887553  62.3143868  35.0159186  36.4492328
  61.8663630  33.7221798  36.5093369  61.9777916  34.4247751  36.8381416
  65.3985919  24.5961975  42.4985314  65.9441879  25.2747062  42.5579284
  65.3402795  24.4549436  41.6386896  65.4701833  24.6753977  42.3797375
  58.5159994  32.0851041  37.8853667  58.6170357  31.2751395  38.1950795
  57.9201739  31.9907988  37.2553345  58.4432532  31.9516069  37.8379905
  67.1750987  26.0246582  33.3719042  67.0590513  26.7754268  33.8011180
  67.9706874  25.7670536  33.6215129  67.2755577  26.0981429  33.4723134
  54.0115125  20.2757058  40.4090308  53.3920157  19.6849706  40.2400323
  53.9098989  20.8668494  39.7754632  53.9052801  20.2761141  40.2895298
  59.0581313  30.0140605  34.6588385  59.3797154  30.5545813  34.0549693
  59.7053409  29.4437377  34.7910674  59.2007368  30.0099780  34.5895420
  61.1083021  22.0156600  34.7422771  61.8063186  22.1944728  35.2344235
  61.4235354  21.4926940  34.1193161  61.2578358  21.9650372  34.7224782
  53.7384258  23.8209340  42.6533877  53.6142955  24.4071786  43.2883696
  54.3902543  23.3269536  42.9546152  53.8157908  23.8348145  42.7919807
  61.2970956  28.4027045  34.7302563  61.7364592  27.7944146  35.1757336
  61.1475619  28.0234419  33.9588028  61.3392422  28.2565516  34.6821730
  58.7642599  26.9971057  41.9321388  59.4091602  26.5043500  41.6132337
  59.0044376  27.1395844  42.7587467  58.8953185  26.9448499  42.0070922
  61.3028691  29.8425963  41.5828281  61.5851934  29.0477369  41.3615037
  62.0314851  30.3206550  41.6033342  61.4518254  29.7960560  41.5531296
  59.2809885  17.3848997  38.8244046  58.9513215  17.8360140  38.1547745
  58.6054886  17.3065160  39.3717052  59.1320321  17.4400132  38.8067269
  64.8980293  26.7554227  31.6833332  64.8131588  27.6115193  31.8282901
  65.3864676  26.4798551  32.3515491  64.9569190  26.8411548  31.8035414
  66.4886292  13.3734520  37.0693657  66.1739733  14.0637998  37.5014079
  65.9713234  13.3179302  36.3679157  66.3650763  13.4669408  37.0290606
  65.8298726  23.3739021  33.1831067  65.3010198  23.5898654  33.8428373
  66.3523746  24.0675159  33.1032037  65.8287179  23.5082158  33.2686666
  71.2846779  28.9485325  38.5564112  70.4544482  29.1595969  38.7197528
  71.2356031  28.1222380  38.2806395  71.1553515  28.8574931  38.5401477
  57.7198334  27.2702237  31.9838535  57.1355549  27.7752269  32.3904399
  57.3168429  27.0444624  31.2435127  57.5737638  27.3110486  31.9343560
  59.3456517  31.7789179  41.3912021  58.8283458  31.4196594  40.7873329
  60.0430908  31.2551354  41.4018087  59.3722098  31.6486867  41.3042280
  63.0020109  32.2283993  47.3528194  63.0903455  32.0410134  48.2006405
  63.4309821  31.5821423  46.9533041  63.0782211  32.1047001  47.4199946
  60.5690568  31.5115153  46.3345856  60.0061403  31.0987763  46.8585518
  61.3311592  31.4368059  46.7539000  60.5985017  31.4392554  46.4738857
  62.1775548  23.5167890  30.4607456  62.4171552  23.7245873  29.6482799
  62.4991389  22.7125398  30.5696400  62.2612706  23.4281991  30.3568009
  57.4865839  15.4461285  34.3066994  58.2411807  15.8139602  34.0684044
  57.3093373  15.8200840  35.0746173  57.5720317  15.5559473  34.3851882
  70.7800737  21.5955726  42.3514533  69.9429158  21.6657913  42.5862128
  70.7488968  21.5980221  41.4788835  70.6519020  21.6065953  42.2574081
  57.1765466  23.7388761  48.0662902  57.3485970  23.6294656  48.9148183
  57.7134824  24.3843167  47.8294094  57.2810470  23.8180763  48.1567998
  55.8422903  17.8531604  31.0045107  55.6598477  18.0703485  30.1786100
  56.7048516  17.9670617  31.0603721  55.9427493  17.9021502  30.8899594
  56.0790038  30.1120402  42.7481400  56.6188263  29.9691533  43.4184773
  55.3959985  30.5117152  43.1165426  56.0582192  30.1500073  42.9015822
  61.5222623  14.8558015  34.0394131  62.2508783  14.6773970  33.5932287
  61.6117515  15.6976095  34.2501309  61.6429285  14.9541893  34.0047648
  65.5030923  25.7911402  37.9426425  66.2588438  26.2242917  37.9815333
  65.6093248  25.1416172  38.5161061  65.6301094  25.7588886  38.0324450
  68.5411094  29.6184680  38.6928827  68.1046326  29.6221422  39.4487799
  68.2074010  30.2990179  38.2608405  68.4273714  29.7197135  38.7409660
  63.1140168  31.6593012  50.0171978  63.8980585  31.7723860  50.3827720
  62.9136762  30.8334150  50.2130664  63.2006193  31.5539732  50.1006364
  51.4827183  26.3320693  42.9015822  51.2165599  25.5159809  43.0606812
  51.4965748  26.3773848  42.0311337  51.4451906  26.2177597  42.7969304
  68.4608577  16.6598507  40.9358255  69.1034486  16.7296612  41.5220171
  68.7131598  15.9927730  40.4337797  68.5930709  16.5724856  40.9485535
  55.3884930  21.1305777  29.5167580  54.6743107  20.8443956  29.9290012
  55.8728899  21.4702403  30.1573967  55.3544294  21.1387427  29.6723215
  56.2325790  19.8699071  45.5482829  55.5397587  19.3996050  45.7943561
  56.8486117  19.6437375  46.1224537  56.2210320  19.7666203  45.6691982
  63.2710561  33.5703114  43.6638433  62.4725807  33.3302615  43.9212302
  63.7196573  33.6217507  44.4105481  63.2185173  33.5425506  43.8123358
  71.6755441  26.3365599  37.5848465  72.3371875  25.7756268  37.4844373
  71.0346853  25.8417630  37.9101156  71.6784308  26.1802009  37.6180805
  62.5632248  29.6335731  29.8929388  62.9783397  29.3020755  29.2013884
  61.7324178  29.4004633  29.7649525  62.5020257  29.5506987  29.7720235
  67.9620271  27.3530982  37.3260454  68.1975860  27.4976181  36.4987304
  68.1109835  28.1173390  37.7191967  68.0186075  27.4870036  37.2624057
  54.9566349  23.8364475  46.6909675  55.6806321  23.8217505  47.1774569
  55.0582485  24.5459830  46.1931643  55.0784558  23.9389178  46.6888461
  69.7910728  26.1932648  35.1630057  70.1218945  26.7260288  34.5570152
  70.3643816  26.2471536  35.8192008  69.9244407  26.2802217  35.1707839
  62.3311298  27.3163559  51.5558622  61.5384279  27.6307071  51.7411241
  62.4460225  27.5315028  50.7179406  62.2306709  27.3947396  51.4596956
  65.0042617  24.0397551  35.8453637  65.0989471  24.7786845  36.2993263
  64.3801461  23.6115026  36.2788202  64.9251647  24.0858871  35.9761785
  63.2595091  27.2183763  46.4943918  63.8333953  26.5811007  46.6492482
  63.1809895  27.2187846  45.6253576  63.3328326  27.1248875  46.3890329
  65.2565638  25.8846290  29.0790589  65.1745801  25.9548477  29.9445576
  65.8945359  26.4476034  28.8874330  65.3385476  25.9785261  29.1780539
  58.6158810  25.6507028  38.5465116  58.3578054  24.8178763  38.5196415
  58.6707292  25.8764641  37.7057616  58.5858587  25.5604800  38.4185253
  63.6959860  17.7535479  38.6469208  62.9916186  17.2644664  38.8053128
  63.7444834  17.7657953  37.7757653  63.5989911  17.6825127  38.5408548
  57.5893522  23.2044791  39.0330010  57.0143113  23.3636959  39.6693971
  57.2129198  22.5680200  38.5698461  57.4496334  23.1342604  39.0584569
  61.2566810  21.6768140  43.8922389  60.8681243  21.2522358  43.2374580
  60.5921509  21.9250290  44.3999416  61.1013738  21.6506861  43.8710257
  70.8990080  21.4343145  36.6670219  70.6426644  20.6223086  36.4768102
  71.7419393  21.4420712  36.4400406  70.9856105  21.3155142  36.6055036
  65.0793172  15.3742769  41.4046373  65.4603684  14.6920940  41.7914247
  64.2756456  15.0852371  41.2222038  65.0169634  15.2309817  41.4350429
  62.3605749  25.9066745  32.0899196  63.1746387  26.1981637  31.9781967
  62.2964890  25.2526607  31.5157489  62.4708488  25.8531939  31.9888033
  68.5815239  28.5892741  46.5028772  68.3453876  27.7580806  46.3840832
  69.2258468  28.5378348  47.0883616  68.6409910  28.4590429  46.5714665
  58.2313657  29.3788262  37.2171508  58.8687604  29.1400010  37.7623301
  58.6568728  29.5825421  36.4824669  58.3889823  29.3739272  37.1888665
  58.8716472  24.5990552  31.5546397  59.2561625  24.3798259  32.3062942
  58.6228092  25.4253497  31.6847474  58.8918544  24.6888698  31.6847474
  59.0385012  17.8796967  51.2708982  58.7238453  18.6496530  51.0078544
  58.7174945  17.3167223  50.6861209  58.9443931  17.9107236  51.1450332
  69.6051659  28.3737189  42.5657066  69.2997476  29.1065246  42.9270382
  68.8857875  27.9675119  42.2849852  69.4539002  28.4218922  42.5770203
  60.6135129  29.8560685  38.8965294  60.6874137  29.6935857  39.7507144
  61.4304635  30.0450874  38.6525776  60.7451487  29.8597427  38.9863320
  75.3053452  25.0130190  41.8925410  75.2377952  25.0326149  41.0227997
  75.2909114  25.8560517  42.1181081  75.2932208  25.1403925  41.7977887
  56.5916909  16.2687489  36.8855178  55.7239335  16.3410088  36.9512787
  56.8792114  17.0709567  37.0743153  56.5056657  16.3981636  36.9229944
  65.7149798  16.4165348  45.2166500  66.4603390  16.2275158  44.8029925
  65.2987103  16.9423586  44.6580356  65.7634772  16.4667493  45.0731073
  59.1539715  32.8195428  33.6278768  59.4438013  32.4284409  32.9037994
  59.8843195  33.0012133  34.0684043  59.3046599  32.7889241  33.5861575
  73.0912069  23.7874576  40.1672005  73.6419990  23.1542645  40.4069097
  73.0756184  24.3189969  40.8587509  73.1697265  23.7723525  40.3050863
  59.7434460  27.6213174  44.7131898  59.2446153  28.3328941  44.7916787
  60.5534684  27.9413840  44.6750061  59.7890566  27.7740022  44.7188467
  56.0062577  26.8836127  38.9594619  55.7175826  26.2573598  39.4940346
  56.8745925  26.8256414  39.0259300  56.0922829  26.7823671  39.0485574
  66.7940475  22.0270910  39.2776601  66.4505241  21.3061245  39.6283851
  66.8933518  21.8184761  38.4354959  66.7582518  21.8895113  39.2048281
  59.2613586  36.1692200  35.4769610  59.9137644  35.6368642  35.7060636
  58.5639195  35.8160852  35.8637484  59.2544304  36.0381723  35.5681778
  56.2094851  28.5231378  34.8836984  56.9640819  28.9044417  35.0972447
  55.6165463  28.9742521  35.3383681  56.2331564  28.6460205  34.9819863
  67.2553504  28.4896614  34.8200589  67.8211537  29.1489824  34.7359132
  66.6081408  28.8346312  35.2916991  67.2432261  28.6378555  34.8773346
  58.6701518  20.4794218  50.0094196  57.8601293  20.7851998  49.8984039
  59.1476204  21.1999800  50.1246780  58.6204996  20.6308819  50.0101267
  57.5293077  29.6939939  40.2577100  57.0073831  29.8340231  40.9428964
  57.9167098  28.9350603  40.4479217  57.5096778  29.6025463  40.3878176
  54.5184261  19.7445748  34.3272054  54.2309057  19.3747018  33.5904001
  55.2054730  20.2140603  34.0655759  54.5773159  19.7592717  34.1787130
  63.7260082  31.4335398  34.2437668  63.4846758  30.7003259  33.8364733
  63.9061415  31.9822255  33.5904002  63.7167706  31.4057789  34.0867891
  58.9559403  26.7243958  35.6558591  58.7602186  27.3318693  35.0618893
  59.1793749  26.0311902  35.1750264  58.9594044  26.7121484  35.4974671
  57.3537933  23.6098696  35.7739459  58.0760585  23.7739854  35.3143265
  56.8745926  24.3308361  35.6678799  57.3901664  23.7396926  35.6905073
  65.3131441  19.9462495  41.1536144  64.4742541  19.9723774  40.9174407
  65.3835808  20.5933230  41.7341490  65.1999834  20.0458621  41.2045261
  55.0045550  26.0156768  44.8793599  55.5166647  26.2941022  44.2302359
  54.7181892  26.7546062  45.2456412  55.0380413  26.1659122  44.8383477
  63.7600719  16.8447872  35.8863760  64.4627072  16.6455620  35.4083718
  63.4944908  16.0723814  36.1932603  63.8247351  16.7010838  35.8609201
  69.1888964  25.1530482  38.4397386  69.1022939  25.3085908  39.2932164
  68.7339444  25.7968557  38.0656791  69.1092221  25.2706237  38.5104492
  52.0912456  20.5226960  35.1757335  52.1928592  21.3253122  35.5038311
  52.8868343  20.3214296  34.8780416  52.2240362  20.6112859  35.1792691
  58.5229275  18.1083157  44.9394640  58.3312472  18.1238291  45.7894064
  59.3727871  18.3046831  44.9161295  58.6204997  18.1397508  45.0617935
  52.9076188  20.6374138  42.9178457  52.7661680  19.7858079  43.0422965
  53.1916751  20.6802799  42.0940663  52.9284034  20.5173888  42.8146081
  63.0614780  22.4741229  37.0622945  62.8149495  22.3936980  37.8959734
  63.3899903  21.6894697  36.8685473  63.0736024  22.3467494  37.1570468
  66.9562829  29.1824588  40.8509726  66.8177189  29.8805634  41.3558469
  66.1762827  29.0273244  40.4945908  66.8206056  29.2624755  40.8736000
  65.2940914  25.4820963  47.1032108  65.2888953  24.6100780  47.1074534
  66.0001908  25.6809133  46.6301564  65.3985918  25.3824838  47.0339143
  59.0211808  25.2097947  46.4745928  59.1655183  25.7899155  45.8389038
  59.3687456  25.5874244  47.1795783  59.0939269  25.3518651  46.4844923
  58.0939563  33.4000719  43.3406955  58.2429126  32.8403635  42.6880359
  58.8739565  33.4792721  43.7239474  58.2313656  33.3286285  43.3003904
  68.4516202  28.5402842  31.6126226  68.0723011  27.7539980  31.6055515
  67.7882447  29.0889699  31.4697870  68.2974677  28.5047666  31.5907022
  60.6192863  33.5715362  44.6191446  60.5436534  32.9024173  45.1742234
  60.5482722  34.2733150  45.1332112  60.5973470  33.5760269  44.7768294
  61.4333502  18.3038666  45.1466463  61.8906116  19.0362641  45.2739256
  61.5089831  17.8805132  45.9053719  61.5124472  18.3495904  45.2767540
  53.6766493  18.5504486  46.2355907  53.1408683  17.9384844  46.5516674
  53.7384258  19.1252622  46.8889574  53.6062126  18.5451414  46.3791334
  65.9060828  11.4828542  39.0160306  66.0244396  11.9405005  38.2827609
  65.7323004  10.6773803  38.7296524  65.8979999  11.4322314  38.8661240
  61.2763110  32.0916361  35.4515052  62.0413001  31.8226005  35.1297716
  61.1741200  31.6066371  36.1685115  61.3744606  31.9805925  35.5094879
  59.3115880  20.2940770  41.9908288  58.5211955  20.1132230  42.3125623
  59.7076503  19.5167723  41.9738582  59.2532756  20.1528231  42.0360836
  63.7981771  29.1228545  27.4315001  64.5654756  29.1828670  27.0220853
  63.3513080  28.5508986  26.9471320  63.8455198  29.0465120  27.2992711
  64.6959566  27.9283200  39.7167733  64.0204568  27.6968433  40.2181120
  64.7051942  27.3204383  39.0909838  64.5978071  27.8042126  39.6983886
  61.8253710  22.7701029  46.4731786  61.7612851  23.6310986  46.3451923
  61.9650898  22.4533023  45.6727338  61.8369180  22.8501196  46.3359999
  66.6976301  30.7848333  31.9477911  66.7796138  31.5915319  31.6239362
  67.1826043  30.8044292  32.6718685  66.7813459  30.9068995  32.0064810
  60.5072804  25.4633169  40.6147989  60.0835053  25.6637668  39.8787008
  60.3317659  24.6162017  40.7272289  60.4183685  25.3681950  40.5221679
  55.7955249  25.9585220  36.0475962  55.9519868  25.8932023  36.9031954
  56.1355842  26.7333773  35.8354641  55.8688484  26.0634418  36.1430556
  62.3334394  25.3343104  34.9169325  62.8749939  24.8313485  35.3807946
  62.6480953  25.2808298  34.1058810  62.4598791  25.2522525  34.8653137
  66.2051501  29.5445751  52.0296237  67.0186366  29.2730900  52.1901370
  66.0446467  29.2453291  51.2256433  66.3021450  29.4600677  51.9341643
  60.5020843  30.7260455  32.2009353  60.5713664  29.8674994  32.3402353
  61.2809299  30.9432336  31.8728378  60.6273694  30.6313319  32.1726510
  63.4823663  20.2279408  44.9691626  63.6965633  19.5890322  44.4154980
  62.8657562  20.6725232  44.5399487  63.4228992  20.1989552  44.8242057
  64.8928331  33.1498157  36.4145846  64.5008123  32.8464872  35.6968713
  65.0481403  33.9867247  36.2250800  64.8581921  33.2281993  36.2802344
  52.3689511  23.1420171  36.3636729  52.7488475  23.5604716  35.6996996
  51.7944875  23.7233626  36.6705572  52.3400836  23.2898029  36.3113470
  65.6462751  21.8368473  45.9074933  64.8339433  21.5294364  45.9888105
  66.1052686  21.3567474  46.4717645  65.5943136  21.7204966  46.0029527
  65.0568006  29.7148145  36.3551877  64.6982661  29.8862788  37.1315909
  64.5706717  30.1761351  35.7979875  64.9326703  29.8087116  36.3877146
  62.8738392  13.3379344  39.9578968  62.0031950  13.3118065  39.9112278
  63.1278733  13.1656536  39.1404814  62.7831952  13.3089488  39.8299105
  59.8456371  25.3947311  28.8952111  60.1348896  26.1712193  29.1695686
  59.9328170  24.8836042  29.5966611  59.9010627  25.4339229  29.0394609
  62.7416259  23.2428545  50.6903635  63.2115890  23.8670661  51.0771509
  62.7878139  22.5745520  51.2496850  62.8184134  23.2363225  50.8303706
  59.8987532  15.3485572  41.4152439  59.3826021  14.6565764  41.5404018
  59.3381461  16.0156349  41.3615037  59.7394046  15.3448830  41.4258505
  61.9679766  15.8878532  43.2445291  61.5811519  15.9127564  44.0258821
  61.4812703  15.3220211  42.7919808  61.8392275  15.8074283  43.2933195
  66.2172745  30.6052041  47.3019078  66.8552466  30.1112237  46.9681534
  65.5746837  30.5329442  46.7171305  66.2166972  30.5211050  47.1661433
  67.9429745  22.4541187  41.8684993  67.5157353  22.3667536  41.1133093
  67.3055798  22.5618963  42.4539838  67.7859352  22.4573847  41.8430435
  61.6336907  12.7745518  45.5355551  62.2630025  13.3105818  45.2576622
  61.8022770  12.6822877  46.3869117  61.7514702  12.8406880  45.6204079
  61.4350822  17.5616713  47.8081963  62.2624252  17.2901861  47.8640577
  61.4558668  18.3577554  48.1645781  61.5603672  17.6396467  47.8697146
  66.2727002  31.2971850  43.9424435  67.0619380  30.9460914  44.0626516
  66.4470600  32.1108238  43.6801068  66.4147283  31.3657707  43.9212303
  56.0120312  24.7080575  40.9952223  55.1708319  24.6084450  41.2031117
  56.2210320  25.4776056  41.3466544  55.9185005  24.8072619  41.0779538
  53.4895879  22.3300112  38.8236974  53.0952577  22.4043124  38.0487084
  52.9335996  22.7158059  39.3745336  53.3498691  22.3981887  38.7904634
  65.1260826  15.3081406  38.5040853  65.3310419  15.2403714  39.3497850
  64.7987250  16.1140228  38.4362030  65.1076074  15.4167347  38.6200508
  59.8236977  22.6361975  40.2449821  59.5200115  22.0817963  40.8460229
  59.1216398  22.8154185  39.7577855  59.6753187  22.5806757  40.2619527
  58.8803074  19.9462494  34.8094523  59.1562808  19.2281407  34.3972090
  59.4801743  20.5447414  34.6015629  59.0096339  19.9282865  34.7175284
  57.8855328  29.8511695  44.9521919  57.7775683  29.8613757  45.8183977
  58.0951110  30.6766476  44.7626873  57.9005439  29.9752770  45.0526010
  68.3794514  15.8613171  37.9843618  67.7668827  16.3483573  38.3697350
  68.4758689  15.1856661  38.5281270  68.3032411  15.8331479  38.1222477
  62.3813595  17.6176012  33.0841118  62.8357341  17.7886572  33.8088962
  62.8553640  17.0044122  32.6838894  62.5181915  17.5526897  33.1314879
  55.9029120  27.1024338  42.4143856  55.3117053  27.7433836  42.3846871
  56.6650144  27.5261955  42.3875156  55.9277381  27.2600176  42.4059004
  56.2989743  18.2626335  43.0811874  56.7591224  18.3365265  43.8186998
  56.3445850  19.0607589  42.7311695  56.3740298  18.3920483  43.1384630
  57.9473093  18.9293030  47.6483901  57.5558658  18.2826377  48.0839679
  58.1158955  19.5204466  48.2678156  57.9144003  18.9207298  47.8046607
  72.0219542  26.9330107  43.4121135  72.0802665  27.3816756  44.1581111
  71.3886009  27.3428920  42.9751215  71.9370837  27.0603842  43.4573683
  65.6618636  32.5533649  39.8475881  65.4638325  33.0424464  39.1532092
  65.0406347  32.7574891  40.4260014  65.5406201  32.6550188  39.8299104
  59.7226615  24.3218546  34.1886125  60.4668660  24.7092822  34.4269075
  59.8687311  23.4775971  34.3526613  59.8537200  24.2549019  34.2480095
  61.6406190  16.1168805  39.2217986  60.7942235  16.2891613  39.0959336
  61.6377323  15.3118149  39.5583815  61.5153340  16.0229834  39.2529113
  62.7104490  19.8944019  40.0880044  62.2364445  19.3685781  40.5985355
  63.0822626  19.3473492  39.5194906  62.6954379  19.7360016  40.0795192
  53.0877521  21.8915526  45.4563590  53.9503134  21.7911235  45.3700920
  52.7569304  21.3110235  44.8949162  53.1662717  21.7907153  45.3608996
  68.9741221  24.9546395  41.4986825  68.7339444  24.1152810  41.5029251
  69.4533228  25.0346562  42.2227598  69.0093405  24.8427795  41.6061627
  64.6387990  20.7880574  33.1505798  64.1111009  20.8709318  32.4611507
  65.0983698  21.5298445  33.1470443  64.6289841  20.9101236  33.0480493
  70.9746408  21.7347852  39.4516084  70.7356178  21.6943686  38.6136869
  71.1380309  22.5819004  39.5781805  70.9636712  21.8539937  39.3469566
  67.5792438  26.1197802  45.3821129  68.3026637  25.6670328  45.2032149
  67.3142401  26.4002467  44.5993457  67.6473712  26.0948770  45.2399845
  56.4479307  20.7157975  42.1174008  55.8232377  20.7276367  41.5099961
  56.1124901  21.1918150  42.7665249  56.3064798  20.7876492  42.1230577
  56.6321055  19.0583094  28.1746693  56.2833860  19.7102819  28.6378243
  56.1517501  19.0440207  27.4470565  56.5091299  19.1526147  28.1357785
  53.1604982  28.7758435  43.5577773  52.6304907  28.0850874  43.6072747
  53.4330075  28.7668621  42.7290481  53.1229704  28.6725567  43.4425189
  64.1925073  29.3584138  32.2815455  64.9159272  29.8242251  32.1380029
  63.7525664  29.4257747  31.5313052  64.2340765  29.4367974  32.1500237
  63.3611228  26.2181680  43.5316144  62.7468221  25.6739730  43.8264780
  63.8778513  25.7045916  43.0521960  63.3466890  26.0618089  43.5040373
  62.6007525  27.2885950  41.2660443  62.1735133  26.6635668  40.8325878
  62.5932469  27.0060872  42.0919450  62.5366666  27.1538730  41.3240270
  55.7170052  22.3251123  44.3348877  55.8763539  21.5694447  44.7400599
  55.5362946  22.8742062  44.9889615  55.7135411  22.2944937  44.4911583
  63.6590355  14.4912358  44.8899666  63.1630916  14.6876033  44.1991233
  64.4159417  14.8905027  44.7188468  63.6977180  14.5790092  44.7619803
  60.9293235  18.1654704  41.4802977  60.9535722  17.6314817  40.7915757
  61.1804708  17.6572013  42.1428567  60.9703153  18.0115608  41.4767622
  57.2094557  16.8925523  40.8608721  57.2492928  17.3934729  41.5743429
  56.3844221  16.9835916  40.5914644  57.0934083  16.9807339  40.9259259
  59.3924170  26.4586263  48.9629016  58.5419800  26.5957977  49.0986661
  59.5552297  25.7250041  49.4076717  59.2908033  26.3700364  49.0484615
  58.6308920  23.4086032  43.1582620  57.8000850  23.5759850  42.9517868
  58.5760437  23.0321983  43.9431505  58.4998335  23.3775764  43.2431148
  56.4392703  16.8994925  48.7939031  57.0645407  16.3557058  49.0668463
  55.9843183  16.4189843  48.2246821  56.4640964  16.7484407  48.7500625
  57.0044964  21.6841624  33.6872738  57.1447925  22.1814088  34.3901379
  57.5027497  20.9827918  33.8286952  57.0986045  21.6543603  33.8124317
  57.0345186  22.5508735  31.0165315  57.6690266  23.1469160  30.9514776
  57.1170797  22.2512193  31.8311185  57.1401737  22.5949643  31.1268401
  70.0127752  25.0824212  43.8851679  70.6045592  25.7221463  43.9169877
  70.4486747  24.3847249  44.1743746  70.1646183  25.0742563  43.9332511
  58.6124169  18.4822710  30.9910757  58.9340010  18.0025793  30.3370019
  58.8751113  19.2922356  30.8001568  58.6990195  18.5312608  30.8666249
  61.8421142  29.5041585  44.5109573  61.3346233  30.0577432  44.9550203
  61.5447788  29.5649875  43.6928347  61.7226027  29.5947896  44.4558030
  64.0083324  17.8694904  43.3534236  64.4338396  17.4167431  42.7417762
  63.3940317  17.3154975  43.6299023  63.9811970  17.7208881  43.3039261
  53.5398174  24.7476576  34.2854861  54.0490404  25.3441083  34.6666166
  54.0132447  24.4802549  33.6031280  53.6841550  24.7962391  34.2409383
  64.4528922  33.4204842  32.4413516  63.7358232  33.2465705  31.9760754
  65.1035660  33.1857415  31.9089002  64.4430773  33.3600635  32.2942734
  62.4477547  14.3410004  36.7624813  61.8045865  14.1907651  37.3309951
  62.1076954  14.0952349  35.9973917  62.3022624  14.2822127  36.7327828
  67.0376894  22.2969431  36.1854821  66.3668083  22.8399133  36.0567887
  67.7316644  22.7664286  35.9436516  67.0405761  22.4467702  36.1310349
  61.0863627  34.4366143  41.4166580  60.8629282  33.6784972  41.7850606
  60.5973471  34.4664164  40.6947019  60.9807076  34.3288368  41.3643321
  67.2005021  18.7525315  39.0945195  67.5532631  18.3255038  39.7690993
  66.3419823  18.6676158  39.2246271  67.1254466  18.6770055  39.2140205
  55.8988706  21.3832834  37.1528041  55.1800695  21.7996967  37.4200905
  56.2701068  21.9487073  36.6019679  55.8480638  21.5282116  37.1110848
  65.1988287  22.0160683  43.0430037  65.1786214  21.8343978  43.8964816
  65.2467488  22.8872702  43.0189620  65.2022928  22.1177221  43.1653332
  63.1434617  28.6047875  48.9678513  63.1030472  27.9597552  48.3823669
  63.9557935  28.5484493  49.2803925  63.2577770  28.5006842  48.9275463
  59.7342084  34.6566601  38.8703664  59.3202483  33.9940731  38.4807506
  60.4189458  34.8044460  38.3499358  59.7740456  34.5807259  38.7360161
  63.1007378  33.8156686  39.6227281  62.7023662  33.9258957  38.8548101
  62.4858598  34.0238753  40.2053841  62.9506268  33.8630254  39.5958580
  61.6735280  20.4230834  32.4901421  61.0800120  20.7447831  31.9385988
  61.7110558  19.5771930  32.2822527  61.5909670  20.3455162  32.3784192
  58.8312325  22.2344812  45.5228271  58.3191228  21.6265995  45.8813302
  58.6591822  22.9501404  45.9902247  58.7301962  22.2508111  45.6444495
  53.6778040  20.6782387  48.1730633  53.5080630  21.3383762  47.6278839
  53.2343990  20.8888948  48.8943122  53.5877374  20.8068369  48.1992262
  57.6037859  18.9186885  37.2157367  58.0795226  19.2803965  36.5807548
  57.1026459  19.5743353  37.4957509  57.6003218  19.0681074  37.1634107
  70.8349221  28.3908653  33.0070372  71.2182827  29.1400009  33.2368469
  70.0393334  28.6374473  32.7482361  70.7743003  28.5378347  33.0027945
  62.7081396  20.1569056  47.9630527  63.2652826  19.9282866  47.3308992
  62.3842461  20.9174722  47.6865739  62.7427806  20.2352893  47.8287024
  60.4264513  23.2436710  48.9282534  61.1775840  23.5588387  49.2422088
  60.6187089  23.0415881  48.1016455  60.5655927  23.2604092  48.8525929
  59.6464513  21.0628085  30.5830750  60.0263477  21.0807714  29.7981865
  58.9057109  21.5082074  30.4621598  59.5933350  21.1309859  30.4494319
  67.2749803  19.3710276  36.1706329  67.2744030  19.2158933  37.0290606
  67.0705983  20.2173263  36.1147715  67.2449581  19.4730897  36.2894269
  64.9990655  24.0507778  39.8242536  65.4944321  23.3330773  39.7846556
  64.1890431  23.7478576  39.7097023  64.9534548  23.9005424  39.8016262
  60.4449267  27.9005591  31.9739540  59.6360589  27.5772265  31.9272850
  60.9524176  27.1938813  31.9067789  60.3998933  27.7486907  31.9569835
  67.0642474  26.8011465  42.5119665  67.4897546  26.2785887  41.9590090
  66.6999394  27.3992303  41.9908288  67.0729077  26.8121692  42.3528675
  63.6521074  30.5145730  38.8420822  64.1232252  31.2285992  39.0110807
  63.9881252  29.9144480  39.3780692  63.7716189  30.5317194  38.9453198
  65.7398058  32.1247043  51.0212894  65.8495024  31.3355604  51.3769642
  66.0688955  32.0352979  50.2187232  65.8050464  31.9952896  50.9555285
  60.5690568  15.2873200  45.7978917  60.7018474  14.4904194  46.1259893
  60.9535721  15.8139603  46.3777193  60.6446897  15.2473117  45.9322420
  64.2895020  30.3063664  45.6048515  63.7415966  29.6821547  45.3368580
  64.7508049  30.4957936  44.8892594  64.2762229  30.2422714  45.4598946
  63.6422924  12.2103526  42.3960010  62.8368887  12.1001256  42.7127849
  63.5129659  12.3115982  41.5389876  63.5043056  12.2087196  42.3168051
  67.0988884  18.3749018  42.9899707  66.5151873  18.8758225  42.5777275
  67.4193178  17.8678574  42.3564031  67.0602060  18.3740853  42.8358214
  59.6383683  17.2889613  33.2658382  60.4599378  17.4587926  33.0240077
  59.1753334  17.4436874  32.5424680  59.6914846  17.3371346  33.1230026
  58.2279015  15.2832375  44.0456811  58.7723428  14.9423502  44.6361153
  58.2815951  16.1417837  44.1878095  58.3168135  15.3587635  44.1538684
  54.0409574  29.0448791  40.9195619  54.6454431  29.0044625  40.2909439
  53.8336887  29.8919943  40.9499675  54.0998471  29.1636794  40.8311735
  63.8553346  31.3114736  42.1357856  64.6751720  31.1677702  42.3974151
  63.5747424  31.9360935  42.6774294  63.9350090  31.3825088  42.2545796
  73.5266681  38.0555239  39.8553663  72.6704577  38.2163737  39.9062780
  73.5734335  37.1847303  39.8758724  73.4065793  37.9506041  39.8659729
  67.9107821  47.5917957  35.6190894  67.1590721  47.2133495  35.3906939
  68.3593833  47.6236391  34.8709705  67.8657488  47.5403564  35.4748397
  76.8360398  44.3241765  49.4614119  77.5427165  43.8293796  49.5901053
  77.0248333  44.7650846  48.7316777  76.9688304  44.3160115  49.3723164
  73.3632781  48.0143327  31.0476442  73.0284149  48.6920248  30.6120664
  73.8759651  47.6248638  30.4593313  73.3898362  48.0567905  30.8963233
  72.9037072  49.9657595  36.9887553  73.2876452  50.5344494  36.4492328
  72.8396213  49.2407106  36.5093369  72.9510499  49.9433059  36.8381416
  76.3718502  40.1147283  42.4985314  76.9174462  40.7932370  42.5579284
  76.3135379  39.9734744  41.6386896  76.4434417  40.1939285  42.3797375
  69.4892577  47.6036349  37.8853667  69.5902940  46.7936703  38.1950795
  68.8934323  47.5093296  37.2553345  69.4165116  47.4701377  37.8379905
  69.3293317  52.5213938  39.2868523  69.9730772  52.9627102  39.6764681
  69.6549572  51.7167365  39.1998782  69.4725146  52.4679133  39.3314000
  64.9847709  35.7942366  40.4090308  64.3652741  35.2035014  40.2400323
  64.8831573  36.3853802  39.7754632  64.8785385  35.7946449  40.2895298
  70.0313897  45.5325913  34.6588385  70.3529738  46.0731121  34.0549693
  70.6785993  44.9622685  34.7910674  70.1739952  45.5285088  34.5895420
  72.0815605  37.5341908  34.7422771  72.7795769  37.7130036  35.2344235
  72.3967937  37.0112247  34.1193161  72.2310942  37.4835680  34.7224782
  72.2703540  43.9212353  34.7302563  72.7097175  43.3129454  35.1757336
  72.1208203  43.5419727  33.9588028  72.3125006  43.7750824  34.6821730
  69.7375183  42.5156365  41.9321388  70.3824186  42.0228808  41.6132337
  69.9776960  42.6581152  42.7587467  69.8685768  42.4633807  42.0070922
  72.2761274  45.3611271  41.5828281  72.5584517  44.5662677  41.3615037
  73.0047435  45.8391858  41.6033342  72.4250838  45.3145868  41.5531296
  70.2542468  32.9034305  38.8244046  69.9245798  33.3545448  38.1547745
  69.5787470  32.8250468  39.3717052  70.1052905  32.9585440  38.8067269
  75.8712877  42.2739534  31.6833332  75.7864172  43.1300501  31.8282901
  76.3597260  41.9983859  32.3515491  75.9301774  42.3596856  31.8035414
  77.4618876  28.8919828  37.0693657  77.1472317  29.5823306  37.5014079
  76.9445818  28.8364610  36.3679157  77.3383346  28.9854716  37.0290606
  76.8031310  38.8924329  33.1831067  76.2742781  39.1083962  33.8428373
  77.3256330  39.5860467  33.1032037  76.8019763  39.0267466  33.2686666
  68.6930918  42.7887545  31.9838535  68.1088133  43.2937577  32.3904399
  68.2901013  42.5629932  31.2435127  68.5470221  42.8295794  31.9343560
  64.2474946  48.5042307  38.7862207  63.7642524  49.2292796  38.7621790
  65.0598264  48.8018437  38.8972364  64.2965694  48.6544660  38.7989486
  70.3189100  47.2974487  41.3912021  69.8016042  46.9381902  40.7873329
  71.0163492  46.7736662  41.4018087  70.3454681  47.1672175  41.3042280
  73.9752692  47.7469301  47.3528194  74.0636038  47.5595442  48.2006405
  74.4042405  47.1006731  46.9533041  74.0514795  47.6232309  47.4199946
  71.5423152  47.0300461  46.3345856  70.9793987  46.6173071  46.8585518
  72.3044176  46.9553367  46.7539000  71.5717601  46.9577862  46.4738857
  73.1508132  39.0353197  30.4607456  73.3904136  39.2431181  29.6482799
  73.4723973  38.2310706  30.5696400  73.2345290  38.9467299  30.3568009
  68.4598422  30.9646593  34.3066994  69.2144390  31.3324910  34.0684044
  68.2825957  31.3386148  35.0746173  68.5452901  31.0744781  34.3851882
  67.1019143  49.0198482  38.9382487  67.8039723  48.5050472  38.9955243
  67.0216627  49.3472634  39.7429362  67.1942904  48.9912709  39.0655279
  68.1498050  39.2574069  48.0662902  68.3218554  39.1479964  48.9148183
  68.6867408  39.9028475  47.8294094  68.2543054  39.3366071  48.1567998
  66.8155487  33.3716912  31.0045107  66.6331060  33.5888793  30.1786100
  67.6781100  33.4855925  31.0603721  66.9160076  33.4206810  30.8899594
  67.0522622  45.6305710  42.7481400  67.5920847  45.4876841  43.4184773
  66.3692568  46.0302460  43.1165426  67.0314776  45.6685381  42.9015822
  72.4955206  30.3743323  34.0394131  73.2241367  30.1959278  33.5932287
  72.5850099  31.2161403  34.2501309  72.6161868  30.4727201  34.0047648
  76.4763507  41.3096710  37.9426425  77.2321022  41.7428225  37.9815333
  76.5825831  40.6601480  38.5161061  76.6033677  41.2774194  38.0324450
  74.0872752  47.1778320  50.0171978  74.8713168  47.2909168  50.3827720
  73.8869346  46.3519457  50.2130664  74.1738777  47.0725040  50.1006364
  66.3617514  36.6491085  29.5167580  65.6475691  36.3629264  29.9290012
  66.8461483  36.9887711  30.1573967  66.3276877  36.6572735  29.6723215
  67.2058373  35.3884379  45.5482829  66.5130170  34.9181358  45.7943561
  67.8218701  35.1622683  46.1224537  67.1942903  35.2851511  45.6691982
  74.2443145  49.0888422  43.6638433  73.4458391  48.8487922  43.9212302
  74.6929156  49.1402815  44.4105481  74.1917756  49.0610814  43.8123358
  73.5364832  45.1521039  29.8929388  73.9515980  44.8206063  29.2013884
  72.7056761  44.9189941  29.7649525  73.4752841  45.0692295  29.7720235
  65.9298932  39.3549783  46.6909675  66.6538905  39.3402813  47.1774569
  66.0315069  40.0645138  46.1931643  66.0517141  39.4574486  46.6888461
  73.3043882  42.8348867  51.5558622  72.5116863  43.1492379  51.7411241
  73.4192809  43.0500336  50.7179406  73.2039292  42.9132704  51.4596956
  75.9775201  39.5582858  35.8453637  76.0722055  40.2972153  36.2993263
  75.3534044  39.1300334  36.2788202  75.8984231  39.6044179  35.9761785
  74.2327675  42.7369071  46.4943918  74.8066536  42.0996315  46.6492482
  74.1542478  42.7373153  45.6253576  74.3060909  42.6434182  46.3890329
  76.2298222  41.4031598  29.0790589  76.1478385  41.4733785  29.9445576
  76.8677942  41.9661342  28.8874330  76.3118059  41.4970569  29.1780539
  69.5891393  41.1692336  38.5465116  69.3310637  40.3364071  38.5196415
  69.6439876  41.3949949  37.7057616  69.5591171  41.0790107  38.4185253
  74.6692443  33.2720787  38.6469208  73.9648770  32.7829972  38.8053128
  74.7177418  33.2843261  37.7757653  74.5722495  33.2010435  38.5408548
  68.5626105  38.7230099  39.0330010  67.9875697  38.8822267  39.6693971
  68.1861782  38.0865508  38.5698461  68.4228918  38.6527912  39.0584569
  72.2299394  37.1953448  43.8922389  71.8413827  36.7707666  43.2374580
  71.5654092  37.4435598  44.3999416  72.0746322  37.1692169  43.8710257
  76.0525755  30.8928077  41.4046373  76.4336267  30.2106248  41.7914247
  75.2489040  30.6037679  41.2222038  75.9902217  30.7495125  41.4350429
  73.3338332  41.4252053  32.0899196  74.1478971  41.7166945  31.9781967
  73.2697473  40.7711915  31.5157489  73.4441071  41.3717247  31.9888033
  69.2046240  44.8973570  37.2171508  69.8420187  44.6585318  37.7623301
  69.6301312  45.1010729  36.4824669  69.3622407  44.8924580  37.1888665
  69.8449055  40.1175860  31.5546397  70.2294208  39.8983566  32.3062942
  69.5960676  40.9438805  31.6847474  69.8651128  40.2074006  31.6847474
  70.0117596  33.3982275  51.2708982  69.6971037  34.1681838  51.0078544
  69.6907528  32.8352531  50.6861209  69.9176515  33.4292544  51.1450332
  71.5867712  45.3745993  38.8965294  71.6606721  45.2121164  39.7507144
  72.4037219  45.5636182  38.6525776  71.7184071  45.3782735  38.9863320
  67.5649493  31.7872796  36.8855178  66.6971918  31.8595396  36.9512787
  67.8524697  32.5894875  37.0743153  67.4789241  31.9166944  36.9229944
  76.6882382  31.9350656  45.2166500  77.4335974  31.7460466  44.8029925
  76.2719686  32.4608894  44.6580356  76.7367356  31.9852801  45.0731073
  70.1272298  48.3380736  33.6278768  70.4170597  47.9469717  32.9037994
  70.8575779  48.5197441  34.0684043  70.2779182  48.3074549  33.5861575
  70.7167043  43.1398482  44.7131898  70.2178737  43.8514249  44.7916787
  71.5267268  43.4599148  44.6750061  70.7623150  43.2925330  44.7188467
  68.0678214  50.3148118  36.6938917  67.8478509  50.0245473  37.4865584
  67.8472736  49.6563073  36.1656830  68.0025808  50.1747826  36.7327826
  77.7673059  37.5456218  39.2776601  77.4237825  36.8246553  39.6283851
  77.8666101  37.3370069  38.4354959  77.7315102  37.4080421  39.2048281
  70.2346169  51.6877508  35.4769610  70.8870227  51.1553950  35.7060636
  69.5371778  51.3346160  35.8637484  70.2276887  51.5567031  35.5681778
  69.6434101  35.9979526  50.0094196  68.8333877  36.3037306  49.8984039
  70.1208788  36.7185108  50.1246780  69.5937580  36.1494127  50.0101267
  68.5025661  45.2125247  40.2577100  67.9806414  45.3525539  40.9428964
  68.8899681  44.4535911  40.4479217  68.4829362  45.1210771  40.3878176
  65.4916845  35.2631056  34.3272054  65.2041641  34.8932326  33.5904001
  66.1787313  35.7325911  34.0655759  65.5505742  35.2778025  34.1787130
  74.6992666  46.9520706  34.2437668  74.4579342  46.2188567  33.8364733
  74.8793999  47.5007563  33.5904002  74.6900290  46.9243097  34.0867891
  69.9291986  42.2429266  35.6558591  69.7334769  42.8504001  35.0618893
  70.1526332  41.5497210  35.1750264  69.9326628  42.2306792  35.4974671
  68.3270517  39.1284004  35.7739459  69.0493168  39.2925162  35.3143265
  67.8478509  39.8493669  35.6678799  68.3634247  39.2582234  35.6905073
  76.2864024  35.4647803  41.1536144  75.4475125  35.4909082  40.9174407
  76.3568391  36.1118538  41.7341490  76.1732418  35.5643929  41.2045261
  65.9778133  41.5342076  44.8793599  66.4899230  41.8126330  44.2302359
  65.6914476  42.2731370  45.2456412  66.0112996  41.6844430  44.8383477
  74.7333302  32.3633180  35.8863760  75.4359655  32.1640928  35.4083718
  74.4677491  31.5909122  36.1932603  74.7979935  32.2196146  35.8609201
  63.0645040  36.0412268  35.1757335  63.1661176  36.8438430  35.5038311
  63.8600926  35.8399604  34.8780416  63.1972945  36.1298167  35.1792691
  69.4961859  33.6268465  44.9394640  69.3045056  33.6423599  45.7894064
  70.3460455  33.8232139  44.9161295  69.5937581  33.6582816  45.0617935
  63.8808772  36.1559446  42.9178457  63.7394263  35.3043387  43.0422965
  64.1649335  36.1988107  42.0940663  63.9016618  36.0359196  42.8146081
  74.0347364  37.9926537  37.0622945  73.7882078  37.9122288  37.8959734
  74.3632487  37.2080004  36.8685473  74.0468608  37.8652802  37.1570468
  77.9295413  44.7009896  40.8509726  77.7909772  45.3990942  41.3558469
  77.1495411  44.5458552  40.4945908  77.7938640  44.7810063  40.8736000
  76.2673498  41.0006271  47.1032108  76.2621536  40.1286088  47.1074534
  76.9734492  41.1994440  46.6301564  76.3718502  40.9010145  47.0339143
  69.9944391  40.7283255  46.4745928  70.1387767  41.3084463  45.8389038
  70.3420040  41.1059552  47.1795783  70.0671853  40.8703959  46.4844923
  72.1664309  39.9273424  44.2571060  71.4187623  40.1204438  43.8519338
  72.3205834  39.1018643  44.0195181  72.0786736  39.8338535  44.1616466
  69.0672146  48.9186027  43.3406955  69.2161710  48.3588943  42.6880359
  69.8472148  48.9978029  43.7239474  69.2046240  48.8471592  43.3003904
  71.5925447  49.0900670  44.6191446  71.5169118  48.4209480  45.1742234
  71.5215306  49.7918458  45.1332112  71.5706054  49.0945577  44.7768294
  72.4066086  33.8223974  45.1466463  72.8638700  34.5547949  45.2739256
  72.4822414  33.3990440  45.9053719  72.4857055  33.8681212  45.2767540
  64.6499077  34.0689794  46.2355907  64.1141266  33.4570152  46.5516674
  64.7116842  34.6437930  46.8889574  64.5794710  34.0636722  46.3791334
  76.8793412  27.0013849  39.0160306  76.9976980  27.4590313  38.2827609
  76.7055587  26.1959111  38.7296524  76.8712583  26.9507622  38.8661240
  72.2495694  47.6101669  35.4515052  73.0145585  47.3411312  35.1297716
  72.1473784  47.1251679  36.1685115  72.3477189  47.4991233  35.5094879
  70.2848464  35.8126078  41.9908288  69.4944538  35.6317538  42.3125623
  70.6809086  35.0353031  41.9738582  70.2265340  35.6713539  42.0360836
  74.7714354  44.6413853  27.4315001  75.5387339  44.7013977  27.0220853
  74.3245663  44.0694294  26.9471320  74.8187782  44.5650428  27.2992711
  75.6692150  43.4468508  39.7167733  74.9937152  43.2153741  40.2181120
  75.6784526  42.8389691  39.0909838  75.5710654  43.3227434  39.6983886
  72.7986294  38.2886337  46.4731786  72.7345435  39.1496294  46.3451923
  72.9383482  37.9718331  45.6727338  72.8101764  38.3686504  46.3359999
  77.6708884  46.3033641  31.9477911  77.7528722  47.1100627  31.6239362
  78.1558627  46.3229600  32.6718685  77.7546042  46.4254303  32.0064810
  71.4805388  40.9818477  40.6147989  71.0567637  41.1822976  39.8787008
  71.3050243  40.1347325  40.7272289  71.3916268  40.8867258  40.5221679
  70.9817081  52.4968990  43.0769447  71.4713011  51.7979779  42.8945111
  70.4101313  52.1992860  43.6645504  70.9701611  52.3495213  43.1370487
  66.7687833  41.4770528  36.0475962  66.9252452  41.4117331  36.9031954
  67.1088426  42.2519081  35.8354641  66.8421068  41.5819726  36.1430556
  73.3066977  40.8528412  34.9169325  73.8482523  40.3498793  35.3807946
  73.6213536  40.7993606  34.1058810  73.4331374  40.7707833  34.8653137
  77.1784085  45.0631059  52.0296237  77.9918950  44.7916208  52.1901370
  77.0179051  44.7638599  51.2256433  77.2754033  44.9785985  51.9341643
  71.4753427  46.2445763  32.2009353  71.5446247  45.3860302  32.3402353
  72.2541882  46.4617644  31.8728378  71.6006277  46.1498627  32.1726510
  74.4556247  35.7464716  44.9691626  74.6698216  35.1075630  44.4154980
  73.8390146  36.1910540  44.5399487  74.3961576  35.7174860  44.8242057
  75.8660915  48.6683465  36.4145846  75.4740706  48.3650180  35.6968713
  76.0213987  49.5052554  36.2250800  75.8314504  48.7467301  36.2802344
  63.3422094  38.6605479  36.3636729  63.7221059  39.0790024  35.6996996
  62.7677459  39.2418934  36.6705572  63.3133419  38.8083337  36.3113470
  76.6195335  37.3553781  45.9074933  75.8072016  37.0479672  45.9888105
  77.0785269  36.8752782  46.4717645  76.5675719  37.2390274  46.0029527
  76.0300589  45.2333453  36.3551877  75.6715244  45.4048096  37.1315909
  75.5439300  45.6946659  35.7979875  75.9059286  45.3272424  36.3877146
  73.8470975  28.8564652  39.9578968  72.9764533  28.8303373  39.9112278
  74.1011317  28.6841844  39.1404814  73.7564535  28.8274796  39.8299105
  70.8188955  40.9132619  28.8952111  71.1081480  41.6897501  29.1695686
  70.9060754  40.4021350  29.5966611  70.8743211  40.9524537  29.0394609
  70.8720116  30.8670880  41.4152439  70.3558604  30.1751072  41.5404018
  70.3114045  31.5341657  41.3615037  70.7126629  30.8634138  41.4258505
  72.9412349  31.4063840  43.2445291  72.5544102  31.4312872  44.0258821
  72.4545287  30.8405519  42.7919808  72.8124858  31.3259591  43.2933195
  77.1905329  46.1237349  47.3019078  77.8285049  45.6297545  46.9681534
  76.5479420  46.0514750  46.7171305  77.1899555  46.0396358  47.1661433
  72.6069491  28.2930826  45.5355551  73.2362609  28.8291126  45.2576622
  72.7755354  28.2008185  46.3869117  72.7247286  28.3592188  45.6204079
  72.4083406  33.0802021  47.8081963  73.2356835  32.8087169  47.8640577
  72.4291252  33.8762862  48.1645781  72.5336256  33.1581775  47.8697146
  77.2459585  46.8157158  43.9424435  78.0351963  46.4646222  44.0626516
  77.4203183  47.6293546  43.6801068  77.3879867  46.8843015  43.9212303
  66.9852896  40.2265883  40.9952223  66.1440902  40.1269757  41.2031117
  67.1942904  40.9961364  41.3466544  66.8917588  40.3257927  41.0779538
  64.4628463  37.8485420  38.8236974  64.0685160  37.9228432  38.0487084
  63.9068580  38.2343367  39.3745336  64.3231275  37.9167195  38.7904634
  76.0993409  30.8266714  38.5040853  76.3043003  30.7589022  39.3497850
  75.7719833  31.6325536  38.4362030  76.0808657  30.9352655  38.6200508
  70.7969561  38.1547283  40.2449821  70.4932698  37.6003271  40.8460229
  70.0948981  38.3339492  39.7577855  70.6485770  38.0992065  40.2619527
  69.8535658  35.4647802  34.8094523  70.1295392  34.7466715  34.3972090
  70.4534327  36.0632722  34.6015629  69.9828922  35.4468173  34.7175284
  68.8587912  45.3697003  44.9521919  68.7508267  45.3799065  45.8183977
  69.0683693  46.1951784  44.7626873  68.8738023  45.4938078  45.0526010
  73.3546178  33.1361320  33.0841118  73.8089925  33.3071880  33.8088962
  73.8286224  32.5229430  32.6838894  73.4914498  33.0712205  33.1314879
  67.2722326  33.7811643  43.0811874  67.7323808  33.8550573  43.8186998
  67.3178433  34.5792897  42.7311695  67.3472882  33.9105790  43.1384630
  68.9205676  34.4478338  47.6483901  68.5291241  33.8011685  48.0839679
  69.0891539  35.0389774  48.2678156  68.8876586  34.4392606  47.8046607
  76.6351220  48.0718957  39.8475881  76.4370909  48.5609772  39.1532092
  76.0138931  48.2760199  40.4260014  76.5138784  48.1735495  39.8299104
  70.6959198  39.8403854  34.1886125  71.4401243  40.2278130  34.4269075
  70.8419894  38.9961279  34.3526613  70.8269783  39.7734327  34.2480095
  72.6138774  31.6354113  39.2217986  71.7674819  31.8076921  39.0959336
  72.6109906  30.8303457  39.5583815  72.4885924  31.5415142  39.2529113
  73.6837074  35.4129327  40.0880044  73.2097028  34.8871089  40.5985355
  74.0555210  34.8658800  39.5194906  73.6686963  35.2545324  40.0795192
  64.0610104  37.4100834  45.4563590  64.9235717  37.3096543  45.3700920
  63.7301887  36.8295543  44.8949162  64.1395301  37.3092461  45.3608996
  75.6120574  36.3065882  33.1505798  75.0843592  36.3894626  32.4611507
  76.0716282  37.0483753  33.1470443  75.6022424  36.4286544  33.0480493
  67.4211890  36.2343283  42.1174008  66.7964960  36.2461675  41.5099961
  67.0857485  36.7103458  42.7665249  67.2797382  36.3061800  42.1230577
  67.6053639  34.5768402  28.1746693  67.2566443  35.2288127  28.6378243
  67.1250085  34.5625515  27.4470565  67.4823883  34.6711455  28.1357785
  75.1657656  44.8769445  32.2815455  75.8891855  45.3427558  32.1380029
  74.7258247  44.9443055  31.5313052  75.2073348  44.9553282  32.1500237
  74.3343811  41.7366988  43.5316144  73.7200804  41.1925038  43.8264780
  74.8511096  41.2231224  43.0521960  74.3199474  41.5803397  43.5040373
  73.5740108  42.8071258  41.2660443  73.1467717  42.1820976  40.8325878
  73.5665053  42.5246180  42.0919450  73.5099250  42.6724038  41.3240270
  66.6902636  37.8436431  44.3348877  66.8496122  37.0879755  44.7400599
  66.5095529  38.3927370  44.9889615  66.6867995  37.8130245  44.4911583
  74.6322939  30.0097666  44.8899666  74.1363500  30.2061341  44.1991233
  75.3892001  30.4090335  44.7188468  74.6709763  30.0975400  44.7619803
  71.9025818  33.6840012  41.4802977  71.9268305  33.1500125  40.7915757
  72.1537292  33.1757321  42.1428567  71.9435737  33.5300916  41.4767622
  68.1827140  32.4110831  40.8608721  68.2225512  32.9120037  41.5743429
  67.3576805  32.5021224  40.5914644  68.0666666  32.4992647  40.9259259
  70.3656753  41.9771571  48.9629016  69.5152384  42.1143285  49.0986661
  70.5284881  41.2435349  49.4076717  70.2640617  41.8885672  49.0484615
  69.6041504  38.9271340  43.1582620  68.7733433  39.0945158  42.9517868
  69.5493021  38.5507291  43.9431505  69.4730919  38.8961072  43.2431148
  67.4125287  32.4180233  48.7939031  68.0377990  31.8742366  49.0668463
  66.9575767  31.9375151  48.2246821  67.4373548  32.2669715  48.7500625
  67.9777548  37.2026932  33.6872738  68.1180509  37.6999396  34.3901379
  68.4760080  36.5013226  33.8286952  68.0718629  37.1728911  33.8124317
  68.0077770  38.0694043  31.0165315  68.6422849  38.6654468  30.9514776
  68.0903381  37.7697501  31.8311185  68.1134321  38.1134951  31.1268401
  69.5856753  34.0008018  30.9910757  69.9072594  33.5211101  30.3370019
  69.8483697  34.8107664  30.8001568  69.6722778  34.0497916  30.8666249
  72.8153726  45.0226893  44.5109573  72.3078817  45.5762740  44.9550203
  72.5180372  45.0835183  43.6928347  72.6958611  45.1133204  44.4558030
  74.9815908  33.3880212  43.3534236  75.4070979  32.9352739  42.7417762
  74.3672901  32.8340283  43.6299023  74.9544553  33.2394189  43.3039261
  75.4261506  48.9390150  32.4413516  74.7090816  48.7651013  31.9760754
  76.0768244  48.7042723  31.9089002  75.4163356  48.8785943  32.2942734
  73.4210131  29.8595312  36.7624813  72.7778449  29.7092958  37.3309951
  73.0809538  29.6137657  35.9973917  73.2755208  29.8007435  36.7327828
  78.0109477  37.8154739  36.1854821  77.3400667  38.3584441  36.0567887
  78.7049227  38.2849594  35.9436516  78.0138345  37.9653010  36.1310349
  72.0596211  49.9551451  41.4166580  71.8361865  49.1970280  41.7850606
  71.5706054  49.9849472  40.6947019  71.9539660  49.8473675  41.3643321
  78.1737605  34.2710623  39.0945195  78.5265215  33.8440345  39.7690993
  77.3152406  34.1861466  39.2246271  78.0987049  34.1955363  39.2140205
  66.8721290  36.9018142  37.1528041  66.1533279  37.3182275  37.4200905
  67.2433652  37.4672381  36.6019679  66.8213221  37.0467424  37.1110848
  76.1720870  37.5345991  43.0430037  76.1518798  37.3529286  43.8964816
  76.2200071  38.4058010  43.0189620  76.1755511  37.6362529  43.1653332
  74.1167200  44.1233183  48.9678513  74.0763055  43.4782860  48.3823669
  74.9290519  44.0669801  49.2803925  74.2310354  44.0192150  48.9275463
  70.7074668  50.1751909  38.8703664  70.2935066  49.5126039  38.4807506
  71.3922042  50.3229768  38.3499358  70.7473040  50.0992567  38.7360161
  74.0739962  49.3341994  39.6227281  73.6756245  49.4444265  38.8548101
  73.4591182  49.5424061  40.2053841  73.9238851  49.3815562  39.5958580
  72.6467864  35.9416142  32.4901421  72.0532703  36.2633139  31.9385988
  72.6843142  35.0957238  32.2822527  72.5642253  35.8640470  32.3784192
  75.5225681  35.8995647  35.9203171  75.2939374  35.9228348  35.0781529
  75.7823757  35.0753114  36.0398181  75.5271869  35.7811727  35.8128369
  69.8044909  37.7530120  45.5228271  69.2923812  37.1451303  45.8813302
  69.6324405  38.4686712  45.9902247  69.7034546  37.7693419  45.6444495
  64.6510624  36.1967695  48.1730633  64.4813214  36.8569070  47.6278839
  64.2076574  36.4074256  48.8943122  64.5609957  36.3253677  48.1992262
  68.5770443  34.4372193  37.2157367  69.0527809  34.7989273  36.5807548
  68.0759043  35.0928661  37.4957509  68.5735802  34.5866382  37.1634107
  73.6813979  35.6754364  47.9630527  74.2385409  35.4468174  47.3308992
  73.3575044  36.4360030  47.6865739  73.7160389  35.7538201  47.8287024
  71.3997097  38.7622018  48.9282534  72.1508424  39.0773694  49.2422088
  71.5919673  38.5601189  48.1016455  71.5388511  38.7789399  48.8525929
  70.6197096  36.5813393  30.5830750  70.9996061  36.5993022  29.7981865
  69.8789692  37.0267382  30.4621598  70.5665934  36.6495167  30.4494319
  78.2482387  34.8895584  36.1706329  78.2476613  34.7344241  37.0290606
  78.0438567  35.7358571  36.1147715  78.2182165  34.9916205  36.2894269
  75.9723239  39.5693086  39.8242536  76.4676904  38.8516081  39.7846556
  75.1623015  39.2663883  39.7097023  75.9267132  39.4190732  39.8016262
  71.4181850  43.4190899  31.9739540  70.6093173  43.0957573  31.9272850
  71.9256759  42.7124121  31.9067789  71.3731517  43.2672215  31.9569835
  78.0375058  42.3196773  42.5119665  78.4630129  41.7971195  41.9590090
  77.6731977  42.9177611  41.9908288  78.0461660  42.3307000  42.3528675
  67.6729137  50.6160991  41.2717010  67.9875696  51.4297379  41.2794792
  68.0822551  50.2311209  41.9399169  67.7797235  50.6789693  41.3721102
  74.6253657  46.0331038  38.8420822  75.0964835  46.7471300  39.0110807
  74.9613836  45.4329788  39.3780692  74.7448772  46.0502502  38.9453198
  76.7130642  47.6432351  51.0212894  76.8227607  46.8540911  51.3769642
  77.0421538  47.5538287  50.2187232  76.7783047  47.5138204  50.9555285
  71.5423152  30.8058508  45.7978917  71.6751058  30.0089502  46.1259893
  71.9268305  31.3324911  46.3777193  71.6179481  30.7658425  45.9322420
  75.2627603  45.8248972  45.6048515  74.7148549  45.2006855  45.3368580
  75.7240632  46.0143244  44.8892594  75.2494813  45.7608022  45.4598946
  74.6155507  27.7288834  42.3960010  73.8101471  27.6186564  42.7127849
  74.4862243  27.8301290  41.5389876  74.4775640  27.7272504  42.3168051
  78.0721468  33.8934326  42.9899707  77.4884457  34.3943533  42.5777275
  78.3925762  33.3863882  42.3564031  78.0334643  33.8926161  42.8358214
  70.6116267  32.8074921  33.2658382  71.4331961  32.9773234  33.0240077
  70.1485918  32.9622182  32.5424680  70.6647429  32.8556654  33.1230026
  69.2011599  30.8017683  44.0456811  69.7456012  30.4608810  44.6361153
  69.2548535  31.6603145  44.1878095  69.2900718  30.8772943  44.1538684
  74.8285930  46.8300044  42.1357856  75.6484304  46.6863010  42.3974151
  74.5480007  47.4546243  42.6774294  74.9082673  46.9010396  42.2545796
  73.6590205  59.1441944  37.5106001  73.4240390  58.3109596  37.4038269
  73.7975846  59.4246609  36.6967202  73.6445868  59.0625447  37.3748356
  75.9580293  51.3127674  40.4090308  75.3385324  50.7220322  40.2400323
  75.8564156  51.9039110  39.7754632  75.8517968  51.3131757  40.2895298
  75.6849426  54.8579956  42.6533877  75.5608122  55.4442401  43.2883696
  76.3367710  54.3640152  42.9546152  75.7623075  54.8718760  42.7919807
  75.2207530  64.0227614  38.7862207  74.7375108  64.7478104  38.7621790
  76.0330848  64.3203745  38.8972364  75.2698278  64.1729968  38.7989486
  77.7888070  48.8902220  31.0045107  77.6063644  49.1074101  30.1786100
  78.6513684  49.0041233  31.0603721  77.8892660  48.9392118  30.8899594
  77.4002502  60.7290142  38.4468095  78.2391402  60.9613075  38.4941856
  77.4314272  59.8594454  38.3775130  77.5284220  60.6347089  38.4432739
  78.0255205  61.1491018  42.7481400  78.5653430  61.0062149  43.4184773
  77.3425152  61.5487768  43.1165426  78.0047359  61.1870688  42.9015822
  73.4292351  57.3691308  42.9015822  73.1630766  56.5530425  43.0606812
  73.4430915  57.4144464  42.0311337  73.3917073  57.2548213  42.7969304
  77.3350098  52.1676393  29.5167580  76.6208275  51.8814572  29.9290012
  77.8194066  52.5073019  30.1573967  77.3009461  52.1758042  29.6723215
  73.8385764  58.1550088  40.1827566  73.6561337  58.1296974  39.3299858
  74.5735433  58.6249026  40.2216475  73.9199828  58.2211450  40.0625484
  76.9031516  54.8735091  46.6909675  77.6271488  54.8588121  47.1774569
  77.0047652  55.5830446  46.1931643  77.0249725  54.9759794  46.6888461
  73.8056675  55.0343588  40.3326633  74.3830177  54.8980039  40.9718878
  73.1070736  54.5779373  40.5872217  73.7877696  54.9465855  40.4648922
  69.2815508  53.8855481  37.0474451  69.3675760  53.5087350  37.8287981
  69.9091305  53.5115927  36.5694409  69.3872059  53.7740964  37.0919928
  74.8691466  62.6547214  41.1005812  74.9095612  62.9262065  40.2725591
  75.4285990  63.1789122  41.5163600  74.9574812  62.7722969  41.0397700
  76.3206053  61.2389163  35.9259738  75.4944170  61.4850901  35.7994017
  76.3818044  61.1601244  36.7921796  76.2080220  61.2634112  36.0348682
  76.4649429  50.7816364  34.3272054  76.1774224  50.4117634  33.5904001
  77.1519897  51.2511219  34.0655759  76.5238326  50.7963333  34.1787130
  76.9510717  57.0527384  44.8793599  77.4631814  57.3311638  44.2302359
  76.6647059  57.7916678  45.2456412  76.9845580  57.2029738  44.8383477
  74.0377623  51.5597576  35.1757335  74.1393760  52.3623738  35.5038311
  74.8333510  51.3584912  34.8780416  74.1705529  51.6483475  35.1792691
  74.8541355  51.6744754  42.9178457  74.7126847  50.8228695  43.0422965
  75.1381919  51.7173415  42.0940663  74.8749201  51.5544504  42.8146081
  75.6231660  49.5875102  46.2355907  75.0873850  48.9755460  46.5516674
  75.6849425  50.1623238  46.8889574  75.5527293  49.5822030  46.3791334
  77.7420416  56.9955836  36.0475962  77.8985035  56.9302639  36.9031954
  78.0821009  57.7704389  35.8354641  77.8153651  57.1005034  36.1430556
  74.3154678  54.1790787  36.3636729  74.6953643  54.5975331  35.6996996
  73.7410043  54.7604242  36.6705572  74.2866003  54.3268645  36.3113470
  77.9585479  55.7451191  40.9952223  77.1173486  55.6455065  41.2031117
  78.1675487  56.5146672  41.3466544  77.8650172  55.8443235  41.0779538
  75.4361046  53.3670728  38.8236974  75.0417744  53.4413740  38.0487084
  74.8801163  53.7528675  39.3745336  75.2963859  53.4352503  38.7904634
  77.8494287  58.1394954  42.4143856  77.2582220  58.7804452  42.3846871
  78.6115311  58.5632571  42.3875156  77.8742548  58.2970792  42.4059004
  78.2454910  49.2996951  43.0811874  78.7056392  49.3735881  43.8186998
  78.2911017  50.0978205  42.7311695  78.3205465  49.4291098  43.1384630
  75.0342688  52.9286142  45.4563590  75.8968301  52.8281851  45.3700920
  74.7034471  52.3480851  44.8949162  75.1127884  52.8277769  45.3608996
  78.3944474  51.7528591  42.1174008  77.7697544  51.7646983  41.5099961
  78.0590069  52.2288766  42.7665249  78.2529966  51.8247108  42.1230577
  78.5786222  50.0953709  28.1746693  78.2299027  50.7473435  28.6378243
  78.0982668  50.0810823  27.4470565  78.4556466  50.1896763  28.1357785
  75.1070149  59.8129051  43.5577773  74.5770074  59.1221490  43.6072747
  75.3795243  59.8039236  42.7290481  75.0694872  59.7096183  43.4425189
  77.6635219  53.3621739  44.3348877  77.8228706  52.6065063  44.7400599
  77.4828113  53.9112678  44.9889615  77.6600578  53.3315553  44.4911583
  70.3865992  56.4856815  40.9146121  70.2809441  56.4403660  40.0498205
  69.6366212  56.8310596  41.1960406  70.2601594  56.5297723  40.8283451
  75.4863341  55.7847192  34.2854861  75.9955571  56.3811699  34.6666166
  75.9597614  55.5173165  33.6031280  75.6306717  55.8333007  34.2409383
  77.8453873  52.4203450  37.1528041  77.1265862  52.8367583  37.4200905
  78.2166235  52.9857689  36.6019679  77.7945805  52.5652732  37.1110848
  75.6243207  51.7153003  48.1730633  75.4545798  52.3754378  47.6278839
  75.1809157  51.9259564  48.8943122  75.5342541  51.8438985  48.1992262
  72.5245272  54.6199869  43.4319123  71.9771991  53.9500514  43.5499991
  73.3137650  54.2529716  43.4962590  72.5597455  54.4664855  43.4587823
  71.2832241  53.8320676  40.5865146  71.1054002  53.3797285  41.3120061
  70.9951263  54.6346838  40.7703623  71.2145194  53.8843234  40.7208649
  73.0204711  56.3648400  37.6986905  72.1550231  56.3534091  37.5869676
  73.1203527  56.1778623  38.5458044  72.9078878  56.3354461  37.8075849
  75.9874741  60.0819407  40.9195619  76.5919599  60.0415241  40.2909439
  75.7802054  60.9290559  40.9499675  76.0463638  60.2007410  40.8311735
  71.2226023  59.0654025  40.7894542  71.1250301  58.2550296  41.0984599
  72.0054893  59.0445818  40.4040810  71.3242160  58.9421115  40.7781405
  56.6326061   9.0110780  22.5530941  55.8808961   8.6326319  22.3246986
  57.0812073   9.0429214  21.8049752  56.5875728   8.9596387  22.4088443
  62.0851021   9.4336150  17.9816488  61.7502390  10.1113071  17.5460710
  62.5977892   9.0441461  17.3933360  62.1116602   9.4760728  17.8303280
  61.6255313  11.3850418  23.9227600  62.0094692  11.9537317  23.3832375
  61.5614454  10.6599929  23.4433416  61.6728740  11.3625882  23.7721462
  58.2110818   9.0229172  24.8193714  58.3121181   8.2129526  25.1290842
  57.6152563   8.9286119  24.1893392  58.1383356   8.8894201  24.7719952
  58.0511557  13.9406762  26.2208570  58.6949013  14.3819926  26.6104728
  58.3767813  13.1360188  26.1338829  58.1943386  13.8871956  26.2654047
  51.4075862   5.0449459  24.4446047  51.1726046   4.2117111  24.3378316
  51.5461503   5.3254125  23.6307248  51.3931524   4.9632962  24.3088402
  58.7532137   6.9518736  21.5928432  59.0747978   7.4923944  20.9889740
  59.4004233   6.3815508  21.7250721  58.8958192   6.9477912  21.5235467
  60.9979515   6.7804094  28.5168328  61.2802758   5.9855500  28.2955084
  61.7265675   7.2584682  28.5373389  61.1469078   6.7338691  28.4871343
  52.9693187   9.9235130  25.7202254  52.4860765  10.6485619  25.6961837
  53.7816505  10.2211260  25.8312411  53.0183934  10.0737483  25.7329533
  59.0407341   8.7167310  28.3252068  58.5234282   8.3574725  27.7213376
  59.7381732   8.1929485  28.3358134  59.0672922   8.5864998  28.2382327
  62.6970933   9.1662125  34.2868241  62.7854278   8.9788265  35.1346451
  63.1260645   8.5199554  33.8873088  62.7733035   9.0425132  34.3539993
  60.2641392   8.4493285  33.2685903  59.7012227   8.0365894  33.7925564
  61.0262416   8.3746190  33.6879047  60.2935841   8.3770685  33.4078904
  55.8237384  10.4391306  25.8722533  56.5257963   9.9243295  25.9295290
  55.7434867  10.7665457  26.6769409  55.9161144  10.4105532  25.9995326
  55.1488159   6.6297658  25.3808141  55.9877059   6.8620590  25.4281903
  55.1799928   5.7601969  25.3115177  55.2769877   6.5354604  25.3772786
  55.7740862   7.0498533  29.6821447  56.3139087   6.9069664  30.3524819
  55.0910809   7.4495284  30.0505473  55.7533016   7.0878204  29.8355869
  62.8090992   8.5971144  36.9512025  63.5931409   8.7101991  37.3167767
  62.6087586   7.7712281  37.1470710  62.8957017   8.4917863  37.0346411
  51.1778007   3.2698824  29.8355869  50.9116423   2.4537940  29.9946859
  51.1916571   3.3151979  28.9651384  51.1402730   3.1555728  29.7309350
  62.9661385  10.5081246  30.5978480  62.1676631  10.2680746  30.8552349
  63.4147397  10.5595639  31.3445528  62.9135996  10.4803637  30.7463404
  51.5871421   4.0557603  27.1167613  51.4046994   4.0304489  26.2639905
  52.3221090   4.5256541  27.1556522  51.6685485   4.1218965  26.9965531
  57.9264481   6.3166393  24.1511555  58.5638428   6.0778141  24.6963348
  58.3519552   6.5203552  23.4164715  58.0840647   6.3117403  24.1228712
  52.6177123   8.5554730  28.0345859  52.6581268   8.8269581  27.2065638
  53.1771647   9.0796638  28.4503646  52.7060469   8.6730485  27.9737747
  60.3085953   6.7938816  25.8305341  60.3824961   6.6313988  26.6847191
  61.1255459   6.9829005  25.5865823  60.4402311   6.7975558  25.9203367
  54.0691709   7.1396679  22.8599785  53.2429827   7.3858416  22.7334063
  54.1303701   7.0608760  23.7261843  53.9565876   7.1641628  22.9688729
  58.8490538   9.7573559  20.5618814  59.1388837   9.3662540  19.8378041
  59.5794019   9.9390264  21.0024090  58.9997423   9.7267373  20.5201621
  56.7896454  11.7340941  23.6278964  56.5696749  11.4438296  24.4205631
  56.5690976  11.0755896  23.0996877  56.7244048  11.5940650  23.6667873
  58.9564410  13.1070331  22.4109657  59.6088468  12.5746774  22.6400683
  58.2590019  12.7538984  22.7977531  58.9495128  12.9759854  22.5021824
  55.9045675   5.4609509  21.8177031  56.6591643   5.8422548  22.0312493
  55.3116287   5.9120653  22.2723727  55.9282388   5.5838336  21.9159909
  57.2243901   6.6318070  27.1917146  56.7024655   6.7718362  27.8769011
  57.6117922   5.8728735  27.3819264  57.2047602   6.5403594  27.3218223
  63.4210906   8.3713529  21.1777715  63.1797582   7.6381390  20.7704780
  63.6012239   8.9200386  20.5244048  63.4118530   8.3435921  21.0207938
  57.7890387  10.3378850  30.2747002  57.9379950   9.7781766  29.6220406
  58.5690389  10.4170852  30.6579521  57.9264480  10.2664416  30.2343951
  60.3143687  10.5093493  31.5531493  60.2387358   9.8402304  32.1082281
  60.2433546  11.2111281  32.0672159  60.2924294  10.5138400  31.7108341
  60.9713934   9.0294492  22.3855099  61.7363825   8.7604136  22.0637763
  60.8692024   8.5444502  23.1025161  61.0695430   8.9184057  22.4434926
  59.7035322  13.9161813  30.0109493  60.1931252  13.2172602  29.8285158
  59.1319554  13.6185683  30.5985551  59.6919851  13.7688037  30.0710534
  60.1971667   7.6638586  19.1349400  60.2664488   6.8053125  19.2742400
  60.9760123   7.8810467  18.8068424  60.3224517   7.5691450  19.1066557
  64.5879155  10.0876288  23.3485893  64.1958947   9.7843003  22.6308759
  64.7432227  10.9245378  23.1590847  64.5532745  10.1660124  23.2142390
  65.9677826   8.2349981  30.8764481  66.7570204   7.8839046  30.9966563
  66.1421424   9.0486369  30.6141115  66.1098107   8.3035838  30.8552349
  57.5806152   6.7889826  31.8861966  57.4726507   6.7991889  32.7524024
  57.7901933   7.6144607  31.6966919  57.5956263   6.9130901  31.9866057
  55.5979944   4.0402469  29.3483903  55.0067877   4.6811967  29.3186918
  56.3600968   4.4640086  29.3215203  55.6228205   4.1978307  29.3399050
  65.3569460   9.4911780  26.7815928  65.1589149   9.9802595  26.0872139
  64.7357171   9.6953022  27.3600061  65.2357025   9.5928319  26.7639151
  52.8555806   5.7136566  30.4917819  52.3255731   5.0229005  30.5412794
  53.1280899   5.7046752  29.6630528  52.8180528   5.6103698  30.3765235
  48.1351648   2.3864331  27.8486168  48.0295097   2.3411175  26.9838252
  47.3851868   2.7318111  28.1300453  48.0087251   2.4305239  27.7623497
  61.5371966   6.4419716  31.4449620  61.0297057   6.9955563  31.8890250
  61.2398612   6.5028006  30.6268394  61.4176851   6.5326027  31.3898076
  64.1479746  10.3582974  19.3753563  63.4309056  10.1843836  18.9100800
  64.7986484  10.1235546  18.8429049  64.1381597  10.2978766  19.2282781
  60.7814451  11.3744274  28.3506626  60.5580106  10.6163103  28.7190653
  60.2924295  11.4042295  27.6287066  60.6757900  11.2666499  28.2983367
  59.4292908  11.5944732  25.8043711  59.0153307  10.9318863  25.4147553
  60.1140282  11.7422591  25.2839405  59.4691280  11.5185390  25.6700208
  62.7958202  10.7534818  26.5567328  62.3974486  10.8637088  25.7888148
  62.1809422  10.9616884  27.1393887  62.6457092  10.8008386  26.5298627
  56.3947378  12.0353814  28.2057057  56.7093937  12.8490202  28.2134839
  56.8040791  11.6504033  28.8739216  56.5015476  12.0982516  28.3061149
  63.3471897   7.4523861  25.7760869  63.8183076   8.1664123  25.9450854
  63.6832076   6.8522611  26.3120739  63.4667012   7.4695325  25.8793245
  65.4348882   9.0625174  37.9552941  65.5445848   8.2733735  38.3109688
  65.7639779   8.9731110  37.1527279  65.5001288   8.9331027  37.8895332
  53.7360398   5.9826922  27.8535666  54.3405255   5.9422757  27.2249486
  53.5287710   6.8298074  27.8839721  53.7949295   6.1014925  27.7651782
  63.5504170   8.2492868  29.0697903  64.3702544   8.1055834  29.3314198
  63.2698248   8.8739066  29.6114341  63.6300913   8.3203220  29.1885842
  48.9711680   4.9661540  27.7234589  48.8735958   4.1557811  28.0324645
  49.7540550   4.9453333  27.3380857  49.0727817   4.8428630  27.7121452
  73.2217505  14.9933370  26.7893710  72.3655401  15.1541869  26.8402826
  73.2685159  14.1225434  26.8098771  73.1016617  14.8884172  26.7999776
  67.6058645  24.5296088  22.5530941  66.8541545  24.1511627  22.3246986
  68.0544657  24.5614522  21.8049752  67.5608312  24.4781695  22.4088443
  76.5311222  21.2619896  36.3954166  77.2377989  20.7671927  36.5241100
  76.7199157  21.7028977  35.6656824  76.6639127  21.2538246  36.3063211
  73.0583605  24.9521458  17.9816488  72.7234973  25.6298379  17.5460710
  73.5710475  24.5626769  17.3933360  73.0849186  24.9946036  17.8303280
  72.5987896  26.9035726  23.9227600  72.9827276  27.4722625  23.3832375
  72.5347037  26.1785237  23.4433416  72.6461323  26.8811190  23.7721462
  76.0669326  17.0525414  29.4325361  76.6125286  17.7310501  29.4919331
  76.0086203  16.9112875  28.5726943  76.1385241  17.1317416  29.3137422
  69.1843401  24.5414480  24.8193714  69.2853764  23.7314834  25.1290842
  68.5885146  24.4471427  24.1893392  69.1115940  24.4079508  24.7719952
  77.8434395  18.4810021  20.3059089  77.7273921  19.2317707  20.7351227
  78.6390282  18.2233975  20.5555176  77.9438984  18.5544868  20.4063181
  69.0244141  29.4592070  26.2208570  69.6681596  29.9005234  26.6104728
  69.3500396  28.6545496  26.1338829  69.1675969  29.4057264  26.2654047
  62.3808445  20.5634767  24.4446047  62.1458630  19.7302419  24.3378316
  62.5194086  20.8439433  23.6307248  62.3664108  20.4818270  24.3088402
  64.6798533  12.7320498  27.3430355  64.0603565  12.1413145  27.1740370
  64.5782397  13.3231933  26.7094678  64.5736208  12.7324580  27.2235345
  69.7264721  22.4704044  21.5928432  70.0480562  23.0109252  20.9889740
  70.3736817  21.9000816  21.7250721  69.8690776  22.4663220  21.5235467
  71.7766429  14.4720039  21.6762818  72.4746593  14.6508167  22.1684281
  72.0918761  13.9490379  21.0533208  71.9261766  14.4213811  21.6564828
  64.4067666  16.2772779  29.5873924  64.2826363  16.8635225  30.2223743
  65.0585950  15.7832975  29.8886199  64.4841315  16.2911584  29.7259853
  71.9654364  20.8590484  21.6642610  72.4047999  20.2507585  22.1097382
  71.8159027  20.4797858  20.8928075  72.0075830  20.7128955  21.6161777
  69.4326007  19.4534496  28.8661435  70.0775009  18.9606939  28.5472384
  69.6727784  19.5959283  29.6927513  69.5636592  19.4011938  28.9410968
  71.9712098  22.2989402  28.5168328  72.2535341  21.5040808  28.2955084
  72.6998259  22.7769990  28.5373389  72.1201662  22.2523999  28.4871343
  69.9493292   9.8412436  25.7584093  69.6196622  10.2923580  25.0887792
  69.2738294   9.7628599  26.3057099  69.8003728   9.8963571  25.7407316
  75.5663701  19.2117666  18.6173379  75.4814996  20.0678632  18.7622948
  76.0548084  18.9361990  19.2855538  75.6252598  19.2974987  18.7375460
  76.4982134  15.8302460  20.1171114  75.9693605  16.0462093  20.7768420
  77.0207154  16.5238598  20.0372083  76.4970587  15.9645597  20.2026713
  68.3881742  19.7265677  18.9178582  67.8038957  20.2315708  19.3244446
  67.9851837  19.5008063  18.1775174  68.2421045  19.7673925  18.8683607
  63.9425770  25.4420438  25.7202254  63.4593348  26.1670927  25.6961837
  64.7549088  25.7396568  25.8312411  63.9916518  25.5922791  25.7329533
  70.0139924  24.2352618  28.3252068  69.4966866  23.8760033  27.7213376
  70.7114315  23.7114793  28.3358134  70.0405505  24.1050306  28.2382327
  73.6703516  24.6847432  34.2868241  73.7586862  24.4973573  35.1346451
  74.0993229  24.0384862  33.8873088  73.7465619  24.5610440  34.3539993
  71.2373976  23.9678592  33.2685903  70.6744811  23.5551202  33.7925564
  71.9994999  23.8931498  33.6879047  71.2668425  23.8955993  33.4078904
  66.7969967  25.9576614  25.8722533  67.4990547  25.4428603  25.9295290
  66.7167450  26.2850765  26.6769409  66.8893728  25.9290840  25.9995326
  67.8448874  16.1952201  35.0002949  68.0169378  16.0858095  35.8488230
  68.3818231  16.8406606  34.7634141  67.9493878  16.2744202  35.0908045
  66.5106311  10.3095043  17.9385154  66.3281884  10.5266924  17.1126146
  67.3731924  10.4234056  17.9943768  66.6110900  10.3584941  17.8239641
  66.1220743  22.1482966  25.3808141  66.9609642  22.3805898  25.4281903
  66.1532512  21.2787277  25.3115177  66.2502460  22.0539912  25.3772786
  66.7473446  22.5683841  29.6821447  67.2871671  22.4254972  30.3524819
  66.0643392  22.9680592  30.0505473  66.7265600  22.6063512  29.8355869
  76.1714331  18.2474841  24.8766471  76.9271846  18.6806356  24.9155380
  76.2776655  17.5979611  25.4501107  76.2984501  18.2152325  24.9664497
  73.7823575  24.1156452  36.9512025  74.5663992  24.2287299  37.3167767
  73.5820170  23.2897589  37.1470710  73.8689601  24.0103171  37.0346411
  62.1510591  18.7884132  29.8355869  61.8849006  17.9723248  29.9946859
  62.1649155  18.8337287  28.9651384  62.1135313  18.6741036  29.7309350
  66.0568338  13.5869216  16.4507627  65.3426515  13.3007396  16.8630059
  66.5412307  13.9265842  17.0914014  66.0227701  13.5950866  16.6063262
  66.9009197  12.3262510  32.4822876  66.2080994  11.8559490  32.7283608
  67.5169525  12.1000814  33.0564583  66.8893727  12.2229642  32.6032029
  73.9393969  26.0266554  30.5978480  73.1409215  25.7866054  30.8552349
  74.3879980  26.0780946  31.3445528  73.8868580  25.9988945  30.7463404
  73.2315656  22.0899170  16.8269435  73.6466804  21.7584194  16.1353931
  72.4007585  21.8568072  16.6989571  73.1703665  22.0070426  16.7060282
  62.5604005  19.5742911  27.1167613  62.3779578  19.5489797  26.2639905
  63.2953673  20.0441849  27.1556522  62.6418068  19.6404273  26.9965531
  65.6249756  16.2927914  33.6249721  66.3489729  16.2780945  34.1114616
  65.7265893  17.0023269  33.1271690  65.7467965  16.3952617  33.6228508
  72.9994706  19.7726998  38.4898668  72.2067686  20.0870510  38.6751288
  73.1143633  19.9878467  37.6519453  72.8990116  19.8510835  38.3937003
  75.6726025  16.4960990  22.7793684  75.7672879  17.2350284  23.2333310
  75.0484868  16.0678465  23.2128249  75.5935055  16.5422310  22.9101832
  73.9278498  19.6747202  33.4283965  74.5017360  19.0374446  33.5832529
  73.8493302  19.6751285  32.5593623  74.0011733  19.5812314  33.3230376
  62.5274915  16.4536412  27.2666679  63.1048418  16.3172862  27.9058925
  61.8288977  15.9972196  27.5212264  62.5095936  16.3658678  27.3988969
  69.2842217  18.1070467  25.4805163  69.0261461  17.2742202  25.4536462
  69.3390700  18.3328080  24.6397663  69.2541995  18.0168239  25.3525299
  68.2576929  15.6608230  25.9670057  67.6826520  15.8200398  26.6034018
  67.8812606  15.0243639  25.5038508  68.1179742  15.5906043  25.9924616
  71.9250218  14.1331579  30.8262436  71.5364651  13.7085797  30.1714627
  71.2604916  14.3813729  31.3339462  71.7697146  14.1070300  30.8050304
  58.0033748  15.3048305  23.9814498  58.0894000  14.9280173  24.7628028
  58.6309546  14.9308750  23.5034456  58.1090299  15.1933787  24.0259975
  73.0289156  18.3630184  19.0239243  73.8429795  18.6545076  18.9122014
  72.9648297  17.7090046  18.4497536  73.1391895  18.3095378  18.9228080
  68.8997064  21.8351701  24.1511555  69.5371011  21.5963449  24.6963348
  69.3252136  22.0388860  23.4164715  69.0573231  21.8302711  24.1228712
  63.5909707  24.0740038  28.0345859  63.6313852  24.3454889  27.2065638
  64.1504231  24.5981946  28.4503646  63.6793053  24.1915793  27.9737747
  69.5399879  17.0553991  18.4886444  69.9245032  16.8361698  19.2402989
  69.2911500  17.8816936  18.6187521  69.5601952  17.1452137  18.6187521
  69.7068420  10.3360406  38.2049028  69.3921861  11.1059969  37.9418591
  69.3858352   9.7730662  37.6201255  69.6127339  10.3670675  38.0790378
  71.2818536  22.3124124  25.8305341  71.3557545  22.1499296  26.6847191
  72.0988043  22.5014313  25.5865823  71.4134895  22.3160866  25.9203367
  65.0424293  22.6581987  22.8599785  64.2162411  22.9043724  22.7334063
  65.1036284  22.5794067  23.7261843  64.9298460  22.6826936  22.9688729
  67.2600317   8.7250928  23.8195225  66.3922742   8.7973527  23.8852834
  67.5475521   9.5273007  24.0083200  67.1740065   8.8545075  23.8569991
  69.8223122  25.2758867  20.5618814  70.1121420  24.8847848  19.8378041
  70.5526603  25.4575572  21.0024090  69.9730006  25.2452681  20.5201621
  70.4117867  20.0776613  31.6471945  69.9129561  20.7892380  31.7256833
  71.2218092  20.3977279  31.6090107  70.4573974  20.2303461  31.6528513
  67.7629038  27.2526249  23.6278964  67.5429333  26.9623604  24.4205631
  67.5423560  26.5941204  23.0996877  67.6976632  27.1125958  23.6667873
  66.6745985  19.3399566  25.8934666  66.3859233  18.7137037  26.4280393
  67.5429333  19.2819853  25.9599346  66.7606237  19.2387110  25.9825620
  77.4623883  14.4834349  26.2116648  77.1188648  13.7624684  26.5623897
  77.5616925  14.2748200  25.3695006  77.4265925  14.3458552  26.1388328
  69.9296993  28.6255639  22.4109657  70.5821051  28.0932081  22.6400683
  69.2322602  28.2724291  22.7977531  69.9227711  28.4945162  22.5021824
  66.8778258  20.9794817  21.8177031  67.6324226  21.3607856  22.0312493
  66.2848871  21.4305960  22.2723727  66.9014972  21.1023644  21.9159909
  77.9236912  20.9460053  21.7540636  78.4894944  21.6053263  21.6699179
  77.2764815  21.2909751  22.2257038  77.9115668  21.0941995  21.8113392
  69.3384925  12.9357657  36.9434243  68.5284701  13.2415437  36.8324085
  69.8159612  13.6563239  37.0586827  69.2888404  13.0872258  36.9441314
  68.1976485  22.1503378  27.1917146  67.6757238  22.2903670  27.8769011
  68.5850505  21.3914042  27.3819264  68.1780186  22.0588902  27.3218223
  65.1867669  12.2009187  21.2612101  64.8992465  11.8310457  20.5244048
  65.8738137  12.6704042  20.9995806  65.2456566  12.2156156  21.1127177
  74.3943490  23.8898837  21.1777715  74.1530166  23.1566698  20.7704780
  74.5744823  24.4385694  20.5244048  74.3851114  23.8621229  21.0207938
  69.6242810  19.1807397  22.5898637  69.4285593  19.7882132  21.9958940
  69.8477156  18.4875341  22.1090311  69.6277451  19.1684923  22.4314718
  68.0221340  16.0662135  22.7079506  68.7443992  16.2303293  22.2483312
  67.5429333  16.7871800  22.6018845  68.0585071  16.1960365  22.6245120
  75.9814848  12.4025934  28.0876191  75.1425949  12.4287213  27.8514454
  76.0519215  13.0496669  28.6681537  75.8683242  12.5022060  28.1385307
  65.6728957  18.4720207  31.8133646  66.1850054  18.7504461  31.1642405
  65.3865300  19.2109502  32.1796459  65.7063820  18.6222561  31.7723524
  62.7595863  12.9790399  22.1097382  62.8612000  13.7816561  22.4378357
  63.5551750  12.7777735  21.8120463  62.8923769  13.0676298  22.1132737
  69.1912683  10.5646596  31.8734687  68.9995880  10.5801731  32.7234111
  70.0411278  10.7610270  31.8501342  69.2888404  10.5960947  31.9957982
  63.5759596  13.0937578  29.8518504  63.4345087  12.2421518  29.9763012
  63.8600159  13.1366238  29.0280710  63.5967442  12.9737328  29.7486128
  73.7298188  14.9304668  23.9962992  73.4832902  14.8500419  24.8299781
  74.0583311  14.1458136  23.8025519  73.7419431  14.8030933  24.0910515
  77.6246237  21.6388027  27.7849773  77.4860596  22.3369073  28.2898515
  76.8446235  21.4836684  27.4285955  77.4889464  21.7188194  27.8076047
  75.9624322  17.9384402  34.0372155  75.9572360  17.0664219  34.0414581
  76.6685316  18.1372572  33.5641611  76.0669326  17.8388277  33.9679190
  69.6895215  17.6661386  33.4085975  69.8338591  18.2462595  32.7729085
  70.0370864  18.0437683  34.1135830  69.7622677  17.8082090  33.4184970
  71.8615133  16.8651555  31.1911107  71.1138447  17.0582569  30.7859385
  72.0156658  16.0396774  30.9535228  71.7737560  16.7716666  31.0956512
  68.7622970  25.8564158  30.2747002  68.9112534  25.2967074  29.6220406
  69.5422972  25.9356160  30.6579521  68.8997064  25.7849724  30.2343951
  71.2876271  26.0278801  31.5531493  71.2119942  25.3587612  32.1082281
  71.2166130  26.7296589  32.0672159  71.2656878  26.0323708  31.7108341
  72.1016910  10.7602105  32.0806510  72.5589524  11.4926080  32.2079303
  72.1773238  10.3368571  32.8393766  72.1807879  10.8059344  32.2107587
  64.3449901  11.0067925  33.1695954  63.8092090  10.3948283  33.4856721
  64.4067666  11.5816061  33.8229621  64.2745533  11.0014853  33.3131381
  71.9446518  24.5479800  22.3855099  72.7096409  24.2789444  22.0637763
  71.8424608  24.0629810  23.1025161  72.0428013  24.4369365  22.4434926
  69.9799287  12.7504209  28.9248334  69.1895362  12.5695669  29.2465670
  70.3759910  11.9731162  28.9078629  69.9216164  12.6091670  28.9700883
  75.3642974  20.3846640  26.6507780  74.6887976  20.1531872  27.1521167
  75.3735350  19.7767822  26.0249885  75.2661478  20.2605565  26.6323932
  72.4937118  15.2264469  33.4071833  72.4296259  16.0874425  33.2791970
  72.6334306  14.9096462  32.6067385  72.5052588  15.3064635  33.2700046
  77.3659708  23.2411772  18.8817958  77.4479546  24.0478758  18.5579409
  77.8509451  23.2607731  19.6058732  77.4496866  23.3632434  18.9404857
  71.1756212  17.9196608  27.5488036  70.7518461  18.1201107  26.8127054
  71.0001067  17.0725456  27.6612336  71.0867092  17.8245389  27.4561726
  70.6767905  29.4347121  30.0109493  71.1663835  28.7357910  29.8285158
  70.1052137  29.1370991  30.5985551  70.6652435  29.2873344  30.0710534
  66.4638657  18.4148659  22.9816009  66.6203276  18.3495462  23.8372001
  66.8039250  19.1897212  22.7694688  66.5371891  18.5197857  23.0770603
  73.0017801  17.7906543  21.8509372  73.5433347  17.2876924  22.3147992
  73.3164360  17.7371738  21.0398857  73.1282198  17.7085964  21.7993184
  76.8734909  22.0009190  38.9636284  77.6869774  21.7294339  39.1241417
  76.7129875  21.7016730  38.1596480  76.9704857  21.9164116  38.8681690
  71.1704251  23.1823894  19.1349400  71.2397071  22.3238433  19.2742400
  71.9492706  23.3995775  18.8068424  71.2957101  23.0876758  19.1066557
  74.1507071  12.6842847  31.9031672  74.3649040  12.0453762  31.3495026
  73.5340970  13.1288671  31.4739534  74.0912400  12.6552991  31.7582103
  75.5611739  25.6061596  23.3485893  75.1691530  25.3028311  22.6308759
  75.7164811  26.4430686  23.1590847  75.5265328  25.6845432  23.2142390
  63.0372918  15.5983610  23.2976776  63.4171883  16.0168155  22.6337043
  62.4628283  16.1797065  23.6045619  63.0084243  15.7461469  23.2453517
  76.3146159  14.2931913  32.8414979  75.5022840  13.9857803  32.9228152
  76.7736093  13.8130913  33.4057692  76.2626543  14.1768405  32.9369574
  75.7251413  22.1711585  23.2891924  75.3666068  22.3426227  24.0655956
  75.2390124  22.6324790  22.7319922  75.6010110  22.2650556  23.3217193
  70.5139779  17.8510750  15.8292158  70.8032304  18.6275632  16.1035732
  70.6011578  17.3399481  16.5306657  70.5694035  17.8902668  15.9734656
  73.4099666  15.6991984  37.6243682  73.8799297  16.3234100  38.0111556
  73.4561546  15.0308960  38.1836896  73.4867542  15.6926664  37.7643753
  76.8856153  23.0615480  34.2359125  77.5235873  22.5675676  33.9021581
  76.2430244  22.9892881  33.6511351  76.8850379  22.9774489  34.1001480
  78.6113153  14.9104626  28.8025040  78.1840761  14.8230975  28.0473140
  77.9739206  15.0182402  29.3879884  78.4542760  14.9137286  28.7770482
  76.9410409  23.7535289  30.8764481  77.7302787  23.4024353  30.9966563
  77.1154007  24.5671677  30.6141115  77.0830691  23.8221146  30.8552349
  66.6803720  17.1644014  27.9292270  65.8391726  17.0647889  28.1371164
  66.8893728  17.9339495  28.2806591  66.5868412  17.2636058  28.0119585
  64.1579287  14.7863551  25.7577021  63.7635984  14.8606563  24.9827131
  63.6019403  15.1721498  26.3085383  64.0182099  14.8545326  25.7244681
  70.4920385  15.0925414  27.1789868  70.1883522  14.5381402  27.7800275
  69.7899805  15.2717624  26.6917902  70.3436594  15.0370196  27.1959573
  69.5486482  12.4025933  21.7434570  69.8246216  11.6844846  21.3312137
  70.1485151  13.0010853  21.5355676  69.6779746  12.3846304  21.6515331
  68.5538736  22.3075134  31.8861966  68.4459090  22.3177197  32.7524024
  68.7634517  23.1329915  31.6966919  68.5688847  22.4316209  31.9866057
  66.5712528  19.5587777  29.3483903  65.9800461  20.1997275  29.3186918
  67.3333551  19.9825394  29.3215203  66.5960788  19.7163615  29.3399050
  66.9673150  10.7189775  30.0151921  67.4274632  10.7928704  30.7527045
  67.0129257  11.5171029  29.6651742  67.0423706  10.8483922  30.0724677
  68.6156500  11.3856469  34.5823948  68.2242065  10.7389817  35.0179726
  68.7842363  11.9767905  35.2018203  68.5827410  11.3770737  34.7386654
  76.3302044  25.0097088  26.7815928  76.1321732  25.4987903  26.0872139
  75.7089755  25.2138330  27.3600061  76.2089608  25.1113627  26.7639151
  70.3910022  16.7781985  21.1226172  71.1352067  17.1656261  21.3609122
  70.5370718  15.9339411  21.2866660  70.5220607  16.7112458  21.1820142
  73.3787898  12.3507458  27.0220091  72.9047852  11.8249221  27.5325402
  73.7506034  11.8036931  26.4534953  73.3637787  12.1923455  27.0135238
  63.7560928  14.3478965  32.3903637  64.6186541  14.2474674  32.3040967
  63.4252711  13.7673674  31.8289209  63.8346125  14.2470592  32.2949043
  67.1162714  13.1721414  29.0514055  66.4915784  13.1839806  28.4440008
  66.7808309  13.6481589  29.7005295  66.9748206  13.2439931  29.0570624
  67.3004463  11.5146533  15.1086740  66.9517267  12.1666258  15.5718290
  66.8200909  11.5003646  14.3810611  67.1774707  11.6089586  15.0697831
  63.8288390  21.2321874  30.4917819  63.2988314  20.5414313  30.5412794
  64.1013483  21.2232060  29.6630528  63.7913112  21.1289006  30.3765235
  74.8608480  21.8147577  19.2155502  75.5842679  22.2805690  19.0720075
  74.4209071  21.8821186  18.4653099  74.9024172  21.8931413  19.0840283
  74.0294635  18.6745119  30.4656191  73.4151628  18.1303169  30.7604826
  74.5461920  18.1609355  29.9862007  74.0150298  18.5181528  30.4380419
  73.2690932  19.7449389  28.2000490  72.8418540  19.1199108  27.7665925
  73.2615877  19.4624311  29.0259497  73.2050074  19.6102170  28.2580317
  66.3853460  14.7814562  31.2688924  66.5446946  14.0257886  31.6740646
  66.2046353  15.3305502  31.9229661  66.3818818  14.7508376  31.4251630
  71.5976642  10.6218143  28.4143024  71.6219129  10.0878256  27.7255804
  71.8488116  10.1135452  29.0768614  71.6386561  10.4679047  28.4107668
  59.1084232  17.9049638  27.8486168  59.0027681  17.8596483  26.9838252
  58.3584452  18.2503419  28.1300453  58.9819835  17.9490547  27.7623497
  67.8777964   9.3488962  27.7948768  67.9176336   9.8498168  28.5083475
  67.0527629   9.4399355  27.5254691  67.7617490   9.4370778  27.8599306
  70.0607577  18.9149702  35.8969063  69.2103208  19.0521416  36.0326707
  70.2235705  18.1813480  36.3416764  69.9591441  18.8263803  35.9824662
  69.2992328  15.8649472  30.0922667  68.4684257  16.0323290  29.8857915
  69.2443845  15.4885422  30.8771552  69.1681743  15.8339203  30.1771195
  67.1076111   9.3558364  35.7279078  67.7328814   8.8120497  36.0008510
  66.6526591   8.8753282  35.1586868  67.1324372   9.2047846  35.6840672
  67.6728372  14.1405063  20.6212785  67.8131333  14.6377527  21.3241426
  68.1710904  13.4391358  20.7626998  67.7669452  14.1107042  20.7464364
  67.7028594  15.0072174  17.9505362  68.3373673  15.6032599  17.8854823
  67.7854205  14.7075632  18.7651232  67.8085145  15.0513082  18.0608448
  69.2807577  10.9386150  17.9250803  69.6023418  10.4589232  17.2710066
  69.5434521  11.7485796  17.7341615  69.3673602  10.9876047  17.8006296
  72.5104550  21.9605024  31.4449620  72.0029641  22.5140871  31.8890250
  72.2131196  22.0213314  30.6268394  72.3909434  22.0511335  31.3898076
  64.2081582  17.2040015  21.2194908  64.7173811  17.8004522  21.6006213
  64.6815854  16.9365989  20.5371327  64.3524957  17.2525830  21.1749430
  75.1212330  25.8768282  19.3753563  74.4041640  25.7029144  18.9100800
  75.7719067  25.6420854  18.8429049  75.1114180  25.8164074  19.2282781
  77.7060301  14.7532870  23.1194868  77.0351491  15.2962572  22.9907934
  78.4000051  15.2227725  22.8776563  77.7089169  14.9031141  23.0650396
  71.7547035  26.8929582  28.3506626  71.5312689  26.1348411  28.7190653
  71.2656878  26.9227603  27.6287066  71.6490484  26.7851807  28.2983367
  66.5672114  13.8396273  24.0868088  65.8484103  14.2560406  24.3540951
  66.9384476  14.4050512  23.5359726  66.5164045  13.9845555  24.0450895
  75.8671694  14.4724122  29.9770084  75.8469622  14.2907418  30.8304863
  75.9150895  15.3436141  29.9529667  75.8706335  14.5740661  30.0993378
  73.8118024  21.0611314  35.9018560  73.7713879  20.4160991  35.3163716
  74.6241342  21.0047932  36.2143972  73.9261178  20.9570281  35.8615509
  70.4025492  27.1130040  25.8043711  69.9885890  26.4504170  25.4147553
  71.0872866  27.2607899  25.2839405  70.4423863  27.0370698  25.6700208
  73.7690786  26.2720126  26.5567328  73.3707069  26.3822396  25.7888148
  73.1542005  26.4802192  27.1393887  73.6189675  26.3193694  26.5298627
  72.3418688  12.8794273  19.4241467  71.7483527  13.2011270  18.8726034
  72.3793966  12.0335369  19.2162574  72.2593077  12.8018602  19.3124239
  75.2176504  12.8373778  22.8543218  74.9890197  12.8606479  22.0121576
  75.4774581  12.0131245  22.9738228  75.2222693  12.7189858  22.7468415
  69.4995733  14.6908251  32.4568318  68.9874636  14.0829434  32.8153349
  69.3275229  15.4064843  32.9242294  69.3985370  14.7071550  32.5784542
  64.3461448  13.1345826  35.1070680  64.1764038  13.7947201  34.5618886
  63.9027397  13.3452387  35.8283169  64.2560781  13.2631808  35.1332309
  68.2721267  11.3750324  24.1497413  68.7478633  11.7367404  23.5147594
  67.7709867  12.0306792  24.4297556  68.2686626  11.5244513  24.0974154
  73.3764803  12.6132496  34.8970573  73.9336233  12.3846305  34.2649039
  73.0525868  13.3738161  34.6205786  73.4111213  12.6916332  34.7627071
  61.2463512  16.0392692  30.3659169  60.6990232  15.3693337  30.4840038
  62.0355890  15.6722540  30.4302637  61.2815696  15.8857678  30.3927870
  71.0947921  15.7000149  35.8622581  71.8459248  16.0151826  36.1762135
  71.2870497  15.4979320  35.0356502  71.2339335  15.7167531  35.7865976
  70.3147920  13.5191524  17.5170797  70.6946885  13.5371153  16.7321912
  69.5740516  13.9645513  17.3961645  70.2616758  13.5873299  17.3834365
  60.0050482  15.2513500  27.5205193  59.8272243  14.7990109  28.2460108
  59.7169504  16.0539661  27.7043670  59.9363435  15.3036057  27.6548695
  75.6674063  16.5071217  26.7582583  76.1627728  15.7894212  26.7186603
  74.8573838  16.2042015  26.6437070  75.6217956  16.3568863  26.7356309
  71.1132674  20.3569030  18.9079587  70.3043997  20.0335704  18.8612897
  71.6207583  19.6502252  18.8407836  71.0682341  20.2050347  18.8909882
  61.7422951  17.7841223  24.6326952  60.8768471  17.7726914  24.5209723
  61.8421767  17.5971446  25.4798091  61.6297118  17.7547285  24.7415896
  77.7325882  19.2574904  29.4459712  78.1580953  18.7349326  28.8930137
  77.3682801  19.8555742  28.9248335  77.7412484  19.2685131  29.2868721
  67.3679961  27.5539122  28.2057057  67.6826520  28.3675510  28.2134839
  67.7773375  27.1689341  28.8739216  67.4748059  27.6167824  28.3061149
  74.3204481  22.9709169  25.7760869  74.7915659  23.6849431  25.9450854
  74.6564660  22.3707919  26.3120739  74.4399596  22.9880633  25.8793245
  76.4081466  24.5810482  37.9552941  76.5178431  23.7919043  38.3109688
  76.7372362  24.4916418  37.1527279  76.4733871  24.4516335  37.8895332
  74.9578427  22.7627103  32.5388562  74.4099373  22.1384986  32.2708627
  75.4191456  22.9521375  31.8232641  74.9445637  22.6986153  32.3938993
  70.3067091   9.7453052  20.1998429  71.1282785   9.9151365  19.9580124
  69.8436742   9.9000313  19.4764726  70.3598253   9.7934785  20.0570073
  64.7092982  21.5012230  27.8535666  65.3137839  21.4608065  27.2249486
  64.5020294  22.3483382  27.8839721  64.7681879  21.6200233  27.7651782
  74.5236754  23.7678176  29.0697903  75.3435127  23.6241142  29.3314198
  74.2430831  24.3924374  29.6114341  74.6033497  23.8388528  29.1885842
  59.9444264  20.4846848  27.7234589  59.8468542  19.6743119  28.0324645
  60.7273133  20.4638641  27.3380857  60.0460400  20.3613938  27.7121452
  73.3541029  36.0820075  24.4446047  73.1191213  35.2487727  24.3378316
  73.4926670  36.3624741  23.6307248  73.3396692  36.0003578  24.3088402
  75.6531117  28.2505805  27.3430355  75.0336148  27.6598453  27.1740370
  75.5514980  28.8417241  26.7094678  75.5468792  28.2509888  27.2235345
  75.3800250  31.7958087  29.5873924  75.2558946  32.3820533  30.2223743
  76.0318534  31.3018283  29.8886199  75.4573899  31.8096892  29.7259853
  74.9158354  40.9605746  25.7202254  74.4325932  41.6856235  25.6961837
  75.7281672  41.2581876  25.8312411  74.9649101  41.1108099  25.7329533
  77.7702551  41.4761922  25.8722533  78.4723130  40.9613911  25.9295290
  77.6900034  41.8036073  26.6769409  77.8626311  41.4476148  25.9995326
  77.4838894  25.8280351  17.9385154  77.3014468  26.0452232  17.1126146
  78.3464507  25.9419364  17.9943768  77.5843484  25.8770249  17.8239641
  77.0953326  37.6668274  25.3808141  77.9342226  37.8991206  25.4281903
  77.1265096  36.7972585  25.3115177  77.2235044  37.5725220  25.3772786
  77.7206029  38.0869149  29.6821447  78.2604254  37.9440280  30.3524819
  77.0375976  38.4865900  30.0505473  77.6998183  38.1248820  29.8355869
  73.1243174  34.3069440  29.8355869  72.8581590  33.4908556  29.9946859
  73.1381739  34.3522595  28.9651384  73.0867897  34.1926344  29.7309350
  77.0300921  29.1054524  16.4507627  76.3159099  28.8192703  16.8630059
  77.5144890  29.4451150  17.0914014  76.9960285  29.1136174  16.6063262
  77.8741781  27.8447818  32.4822876  77.1813578  27.3744798  32.7283608
  78.4902108  27.6186122  33.0564583  77.8626311  27.7414950  32.6032029
  73.5336588  35.0928219  27.1167613  73.3512161  35.0675105  26.2639905
  74.2686257  35.5627157  27.1556522  73.6150652  35.1589581  26.9965531
  76.5982340  31.8113222  33.6249721  77.3222312  31.7966252  34.1114616
  76.6998476  32.5208577  33.1271690  76.7200549  31.9137925  33.6228508
  73.5007498  31.9721720  27.2666679  74.0781001  31.8358170  27.9058925
  72.8021560  31.5157504  27.5212264  73.4828520  31.8843986  27.3988969
  68.9766332  30.8233613  23.9814498  69.0626584  30.4465481  24.7628028
  69.6042129  30.4494058  23.5034456  69.0822883  30.7119095  24.0259975
  74.5642290  39.5925346  28.0345859  74.6046436  39.8640197  27.2065638
  75.1236814  40.1167254  28.4503646  74.6525636  39.7101101  27.9737747
  76.0156877  38.1767295  22.8599785  75.1894994  38.4229032  22.7334063
  76.0768868  38.0979375  23.7261843  75.9031044  38.2012244  22.9688729
  78.2332900  24.2436236  23.8195225  77.3655326  24.3158835  23.8852834
  78.5208105  25.0458314  24.0083200  78.1472648  24.3730383  23.8569991
  78.7361621  42.7711557  23.6278964  78.5161917  42.4808912  24.4205631
  78.5156143  42.1126512  23.0996877  78.6709215  42.6311266  23.6667873
  77.6478568  34.8584874  25.8934666  77.3591817  34.2322345  26.4280393
  78.5161916  34.8005161  25.9599346  77.7338820  34.7572418  25.9825620
  77.8510842  36.4980125  21.8177031  78.6056810  36.8793164  22.0312493
  77.2581454  36.9491268  22.2723727  77.8747555  36.6208952  21.9159909
  76.1600252  27.7194495  21.2612101  75.8725048  27.3495765  20.5244048
  76.8470721  28.1889350  20.9995806  76.2189150  27.7341464  21.1127177
  76.6461541  33.9905515  31.8133646  77.1582638  34.2689769  31.1642405
  76.3597883  34.7294810  32.1796459  76.6796404  34.1407869  31.7723524
  73.7328447  28.4975707  22.1097382  73.8344583  29.3001869  22.4378357
  74.5284334  28.2963043  21.8120463  73.8656353  28.5861606  22.1132737
  74.5492179  28.6122886  29.8518504  74.4077671  27.7606826  29.9763012
  74.8332743  28.6551546  29.0280710  74.5700025  28.4922636  29.7486128
  75.3182484  26.5253233  33.1695954  74.7824674  25.9133591  33.4856721
  75.3800249  27.1001369  33.8229621  75.2478117  26.5200161  33.3131381
  77.4371240  33.9333967  22.9816009  77.5935859  33.8680770  23.8372001
  77.7771833  34.7082520  22.7694688  77.5104475  34.0383165  23.0770603
  74.0105502  31.1168918  23.2976776  74.3904467  31.5353463  22.6337043
  73.4360867  31.6982373  23.6045619  73.9816827  31.2646776  23.2453517
  77.6536303  32.6829322  27.9292270  76.8124310  32.5833197  28.1371164
  77.8626311  33.4524803  28.2806591  77.5600996  32.7821366  28.0119585
  75.1311870  30.3048859  25.7577021  74.7368568  30.3791871  24.9827131
  74.5751987  30.6906806  26.3085383  74.9914683  30.3730634  25.7244681
  77.5445111  35.0773085  29.3483903  76.9533044  35.7182583  29.3186918
  78.3066135  35.5010702  29.3215203  77.5693372  35.2348923  29.3399050
  77.9405734  26.2375082  30.0151921  78.4007215  26.3114012  30.7527045
  77.9861841  27.0356337  29.6651742  78.0156289  26.3669230  30.0724677
  74.7293512  29.8664273  32.3903637  75.5919125  29.7659982  32.3040967
  74.3985295  29.2858982  31.8289209  74.8078708  29.7655900  32.2949043
  78.0895298  28.6906722  29.0514055  77.4648368  28.7025114  28.4440008
  77.7540893  29.1666897  29.7005295  77.9480790  28.7625239  29.0570624
  78.2737046  27.0331841  15.1086740  77.9249851  27.6851566  15.5718290
  77.7933492  27.0188954  14.3810611  78.1507290  27.1274894  15.0697831
  74.8020973  36.7507182  30.4917819  74.2720898  36.0599621  30.5412794
  75.0746067  36.7417368  29.6630528  74.7645696  36.6474314  30.3765235
  77.3586043  30.2999870  31.2688924  77.5179530  29.5443194  31.6740646
  77.1778937  30.8490809  31.9229661  77.3551402  30.2693684  31.4251630
  70.0816815  33.4234946  27.8486168  69.9760265  33.3781791  26.9838252
  69.3317035  33.7688727  28.1300453  69.9552418  33.4675855  27.7623497
  78.0808695  24.8743672  35.7279078  78.7061398  24.3305805  36.0008510
  77.6259174  24.3938590  35.1586868  78.1056955  24.7233154  35.6840672
  75.1814165  32.7225323  21.2194908  75.6906395  33.3189830  21.6006213
  75.6548438  32.4551296  20.5371327  75.3257541  32.7711138  21.1749430
  77.5404697  29.3581581  24.0868088  76.8216686  29.7745714  24.3540951
  77.9117059  29.9235820  23.5359726  77.4896629  29.5030863  24.0450895
  75.3194031  28.6531134  35.1070680  75.1496621  29.3132509  34.5618886
  74.8759981  28.8637695  35.8283169  75.2293365  28.7817116  35.1332309
  72.2196096  31.5578000  30.3659169  71.6722815  30.8878645  30.4840038
  73.0088474  31.1907848  30.4302637  72.2548279  31.4042986  30.3927870
  70.9783065  30.7698807  27.5205193  70.8004826  30.3175416  28.2460108
  70.6902087  31.5724969  27.7043670  70.9096018  30.8221365  27.6548695
  72.7155535  33.3026531  24.6326952  71.8501055  33.2912222  24.5209723
  72.8154351  33.1156754  25.4798091  72.6029702  33.2732592  24.7415896
  78.3412545  43.0724430  28.2057057  78.6559104  43.8860818  28.2134839
  78.7505958  42.6874649  28.8739216  78.4480643  43.1353132  28.3061149
  75.6825565  37.0197538  27.8535666  76.2870422  36.9793372  27.2249486
  75.4752878  37.8668690  27.8839721  75.7414462  37.1385541  27.7651782
  70.9176847  36.0032156  27.7234589  70.8201125  35.1928427  28.0324645
  71.7005717  35.9823949  27.3380857  71.0192984  35.8799246  27.7121452
   4.5102797  22.7448749  60.9585999   4.4796801  23.5993386  61.1304269
   5.1084146  22.4444042  61.5172143   4.5939955  22.8265246  61.0660802
   2.3319371  25.3201051  59.2304309   2.2158897  26.0708737  59.6596447
   3.1275258  25.0625005  59.4800396   2.4323961  25.3935898  59.3308401
   0.9867110  22.6693490  59.0416334   0.4578582  22.8853123  59.7013640
   1.5092130  23.3629628  58.9617303   0.9855563  22.8036627  59.1271933
   6.4415163  28.2439794  64.4149379   5.6112866  28.4550438  64.5782795
   6.3924415  27.4176849  64.1391662   6.3121898  28.1529401  64.3986744
   3.6979478  28.9139149  64.5514094   3.2614710  28.9175891  65.3073066
   3.3642394  29.5944648  64.1193672   3.5842098  29.0151604  64.5994927
   6.8323824  25.6320069  63.4433732   7.4940259  25.0710737  63.3429640
   6.1915236  25.1372099  63.7686423   6.8352692  25.4756478  63.4766072
   3.1188655  26.6485451  63.1845720   3.3544244  26.7930650  62.3572571
   3.2678219  27.4127859  63.5777234   3.1754458  26.7824505  63.1209324
   4.9479112  25.4887117  61.0215324   5.2787329  26.0214757  60.4155419
   5.5212200  25.5426005  61.6777275   5.0812791  25.5756686  61.0293106
   2.4121888  27.7851083  60.6785856   2.9779921  28.4444293  60.5944399
   1.7649792  28.1300781  61.1502258   2.4000645  27.9333024  60.7358612
   3.6084586  27.8357311  57.4711492   3.2291395  27.0494449  57.4640782
   2.9450831  28.3844168  57.3283137   3.4543061  27.8002135  57.4492289
   1.8544685  30.0802802  57.8063178   1.9364522  30.8869788  57.4824629
   2.3394427  30.0998761  58.5303952   1.9381843  30.2023464  57.8650077
   5.9917605  27.6863122  58.8655638   6.3751211  28.4354478  59.0953735
   5.1961718  27.9328942  58.6067627   5.9311387  27.8332816  58.8613212
  15.4835380  38.2634057  60.9585999  15.4529385  39.1178694  61.1304269
  16.0816729  37.9629350  61.5172143  15.5672538  38.3450554  61.0660802
   8.6835065  37.3509708  65.7138930   7.8272961  37.5118206  65.7648046
   8.7302719  36.4801772  65.7343991   8.5634177  37.2460510  65.7244996
   3.0676205  46.8872426  61.4776161   2.3159105  46.5087964  61.2492206
   3.5162217  46.9190860  60.7294972   3.0225872  46.8358033  61.3333663
  11.9928782  43.6196234  75.3199386  12.6995549  43.1248265  75.4486320
  12.1816717  44.0605315  74.5902044  12.1256687  43.6114584  75.2308431
   8.5201165  47.3097796  56.9061708   8.1852533  47.9874717  56.4705931
   9.0328035  46.9203107  56.3178580   8.5466746  47.3522374  56.7548500
   8.0605456  49.2612064  62.8472820   8.4444836  49.8298963  62.3077595
   7.9964597  48.5361575  62.3678636   8.1078883  49.2387528  62.6966683
  11.5286886  39.4101752  68.3570581  12.0742846  40.0886839  68.4164551
  11.4703763  39.2689213  67.4972163  11.6002801  39.4893754  68.2382642
   4.6460961  46.8990818  63.7438934   4.7471324  46.0891172  64.0536062
   4.0502706  46.8047765  63.1138612   4.5733500  46.7655846  63.6965172
  13.3051955  40.8386359  59.2304309  13.1891481  41.5894045  59.6596447
  14.1007842  40.5810313  59.4800396  13.4056544  40.9121206  59.3308401
   4.4861701  51.8168407  65.1453790   5.1299156  52.2581571  65.5349948
   4.8117956  51.0121834  65.0584049   4.6293529  51.7633602  65.1899267
   5.1882281  44.8280382  60.5173652   5.5098122  45.3685590  59.9134960
   5.8354377  44.2577154  60.6495941   5.3308336  44.8239557  60.4480687
   7.2383989  36.8296377  60.6008038   7.9364153  37.0084505  61.0929502
   7.5536321  36.3066717  59.9778428   7.3879326  36.7790149  60.5810048
   7.4271924  43.2166822  60.5887830   7.8665559  42.6083923  61.0342602
   7.2776587  42.8374196  59.8173295   7.4693390  43.0705293  60.5406997
   4.8943567  41.8110834  67.7906655   5.5392569  41.3183277  67.4717604
   5.1345344  41.9535621  68.6172733   5.0254152  41.7588276  67.8656188
   7.4329658  44.6565740  67.4413548   7.7152901  43.8617146  67.2200304
   8.1615819  45.1346327  67.4618609   7.5819222  44.6100337  67.4116563
   5.4110852  32.1988774  64.6829313   5.0814182  32.6499917  64.0133012
   4.7355854  32.1204937  65.2302319   5.2621288  32.2539909  64.6652536
  11.0281261  41.5694004  57.5418599  10.9432556  42.4254970  57.6868168
  11.5165644  41.2938328  58.2100758  11.0870158  41.6551325  57.6620680
  12.6187260  28.1874297  62.9278924  12.3040701  28.8777775  63.3599346
  12.1014202  28.1319079  62.2264424  12.4951730  28.2809185  62.8875873
  11.9599694  38.1878798  59.0416334  11.4311165  38.4038431  59.7013640
  12.4824714  38.8814936  58.9617303  11.9588147  38.3221935  59.1271933
  17.4147747  43.7625102  64.4149379  16.5845450  43.9735746  64.5782795
  17.3656999  42.9362157  64.1391662  17.2854482  43.6714708  64.3986744
   3.8499302  42.0842014  57.8423802   3.2656517  42.5892046  58.2489666
   3.4469397  41.8584401  57.1020394   3.7038605  42.1250263  57.7928827
   5.4757484  46.5928956  67.2497288   4.9584426  46.2336371  66.6458596
   6.1731875  46.0691131  67.2603354   5.5023065  46.4626644  67.1627547
   9.1321076  47.0423770  73.2113461   9.2204422  46.8549911  74.0591671
   9.5610789  46.3961200  72.8118308   9.2083179  46.9186778  73.2785213
   8.3076516  38.3307667  56.3192723   8.5472520  38.5385650  55.5068066
   8.6292357  37.5265175  56.4281667   8.3913674  38.2421768  56.2153276
   3.6166806  30.2601062  60.1652261   4.3712774  30.6279379  59.9269311
   3.4394341  30.6340617  60.9331440   3.7021285  30.3699250  60.2437149
   2.2587527  48.3152952  64.7967753   2.9608107  47.8004941  64.8540510
   2.1785010  48.6427103  65.6014629   2.3511288  48.2867178  64.9240546
  16.9101705  36.4095503  68.2099800  16.0730126  36.4797690  68.4447394
  16.8789936  36.4119998  67.3374102  16.7819987  36.4205730  68.1159348
   1.9723871  32.6671381  56.8630374   1.7899444  32.8843262  56.0371366
   2.8349484  32.7810394  56.9188988   2.0728460  32.7161279  56.7484861
   1.5838303  44.5059304  64.3053361   2.4227202  44.7382236  64.3527123
   1.6150072  43.6363615  64.2360397   1.7120020  44.4116250  64.3018006
   2.2091006  44.9260179  68.6066667   2.7489231  44.7831310  69.2770039
   1.5260952  45.3256929  68.9750693   2.1883160  44.9639850  68.7601089
   7.6523590  29.6697792  59.8979397   8.3809750  29.4913747  59.4517554
   7.7418483  30.5115872  60.1086576   7.7730252  29.7681670  59.8632915
  11.6331891  40.6051179  63.8011691  12.3889406  41.0382694  63.8400600
  11.7394215  39.9555949  64.3746327  11.7602061  40.5728663  63.8909717
  14.6712062  44.4324457  64.5514094  14.2347294  44.4361199  65.3073066
  14.3374977  45.1129956  64.1193672  14.5574682  44.5336912  64.5994927
  14.5909545  31.4738284  66.7943522  15.2335453  31.5436389  67.3805438
  14.8432565  30.8067507  66.2923064  14.7231677  31.3864633  66.8070802
   1.5185898  35.9445554  55.3752847   0.8044075  35.6583733  55.7875279
   2.0029867  36.2842180  56.0159234   1.4845261  35.9527204  55.5308482
   9.4011529  48.3842891  69.5223700   8.6026775  48.1442392  69.7797569
   9.8497540  48.4357284  70.2690748   9.3486140  48.3565283  69.6708625
  17.8056408  41.1505376  63.4433732  18.4672842  40.5896045  63.3429640
  17.1647820  40.6557407  63.7686423  17.8085276  40.9941786  63.4766072
   8.6933216  44.4475508  55.7514655   9.1084364  44.1160532  55.0599151
   7.8625145  44.2144410  55.6234791   8.6321225  44.3646764  55.6305502
  14.0921239  42.1670759  63.1845720  14.3276828  42.3115958  62.3572571
  14.2410802  42.9313167  63.5777234  14.1487042  42.3009813  63.1209324
  15.9211695  41.0072425  61.0215324  16.2519913  41.5400065  60.4155419
  16.4944784  41.0611313  61.6777275  16.0545375  41.0941994  61.0293106
  11.1343585  38.8537328  61.7038904  11.2290439  39.5926622  62.1578530
  10.5102428  38.4254803  62.1373469  11.0552615  38.8998648  61.8347052
   9.3896058  42.0323540  72.3529185   9.9634920  41.3950784  72.5077749
   9.3110862  42.0327623  71.4838843   9.4629293  41.9388652  72.2475596
  11.3866606  40.6986067  54.9375856  11.3046768  40.7688254  55.8030843
  12.0246326  41.2615811  54.7459597  11.4686443  40.7925038  55.0365806
   4.7459777  40.4646805  64.4050383   4.4879021  39.6318540  64.3781682
   4.8008260  40.6904418  63.5642883   4.7159555  40.3744577  64.2770519
   9.8260827  32.5675256  64.5054475   9.1217154  32.0784441  64.6638394
   9.8745802  32.5797730  63.6342920   9.7290879  32.4964904  64.3993815
   3.7194489  38.0184568  64.8915277   3.1444081  38.1776736  65.5279238
   3.3430166  37.3819977  64.4283728   3.5797302  37.9482381  64.9169836
   7.3867778  36.4907917  69.7507656   6.9982211  36.0662135  69.0959847
   6.7222476  36.7390067  70.2584682   7.2314706  36.4646638  69.7295524
  17.0291047  36.2482922  62.5255486  16.7727612  35.4362863  62.3353369
  17.8720361  36.2560489  62.2985673  17.1157072  36.1294919  62.4640303
  11.2094139  30.1882546  67.2631640  11.5904651  29.5060717  67.6499514
  10.4057424  29.8992148  67.0807304  11.1470601  30.0449594  67.2935696
   8.4906716  40.7206522  57.9484463   9.3047355  41.0121414  57.8367234
   8.4265857  40.0666384  57.3742756   8.6009455  40.6671716  57.8473300
  14.7116206  43.4032518  72.3614038  14.4754844  42.5720583  72.2426099
  15.3559435  43.3518125  72.9468883  14.7710877  43.2730206  72.4299932
   5.0017439  39.4130329  57.4131664   5.3862592  39.1938036  58.1648209
   4.7529060  40.2393274  57.5432741   5.0219512  39.5028475  57.5432741
  15.7352627  43.1876966  68.4242333  15.4298444  43.9205023  68.7855648
  15.0158843  42.7814896  68.1435119  15.5839969  43.2358699  68.4355470
   6.7436096  44.6700462  64.7550561   6.8175105  44.5075634  65.6092411
   7.5605603  44.8590651  64.5111043   6.8752455  44.6737204  64.8448587
  21.4354419  39.8269967  67.7510677  21.3678919  39.8465926  66.8813264
  21.4210081  40.6700294  67.9766348  21.4233176  39.9543702  67.6563154
   2.7217877  31.0827265  62.7440445   1.8540302  31.1549865  62.8098054
   3.0093081  31.8849344  62.9328420   2.6357625  31.2121413  62.7815211
  11.8450766  31.2305125  71.0751767  12.5904358  31.0414935  70.6615192
  11.4288070  31.7563363  70.5165623  11.8935740  31.2807270  70.9316340
   5.2840682  47.6335205  59.4864034   5.5738980  47.2424186  58.7623261
   6.0144163  47.8151910  59.9269310   5.4347566  47.6029018  59.4446841
  19.2213036  38.6014353  66.0257272  19.7720958  37.9682422  66.2654364
  19.2057152  39.1329746  66.7172776  19.2998233  38.5863302  66.1636130
   5.8735427  42.4352951  70.5717165   5.3747121  43.1468718  70.6502053
   6.6835652  42.7553617  70.5335327   5.9191534  42.5879799  70.5773734
   3.2246598  49.6102587  62.5524184   3.0046893  49.3199942  63.3450851
   3.0041120  48.9517542  62.0242097   3.1594192  49.4702296  62.5913093
   2.1363545  41.6975904  64.8179886   1.8476793  41.0713375  65.3525613
   3.0046893  41.6396191  64.8844566   2.2223797  41.5963448  64.9070840
  12.9241443  36.8410687  65.1361868  12.5806209  36.1201022  65.4869117
  13.0234485  36.6324538  64.2940226  12.8883485  36.7034890  65.0633548
   5.3914553  50.9831977  61.3354877   6.0438611  50.4508419  61.5645903
   4.6940162  50.6300629  61.7222751   5.3845271  50.8521500  61.4267044
   2.3395818  43.3371155  60.7422251   3.0941786  43.7184194  60.9557713
   1.7466431  43.7882298  61.1968947   2.3632532  43.4599982  60.8405129
  13.3854472  43.3036391  60.6785856  13.9512504  43.9629601  60.5944399
  12.7382375  43.6486089  61.1502258  13.3733228  43.4518332  60.7358612
   3.6594045  44.5079716  66.1162366   3.1374798  44.6480008  66.8014231
   4.0468065  43.7490380  66.3064484   3.6397746  44.4165240  66.2463443
   9.8561050  46.2475175  60.1022935   9.6147726  45.5143036  59.6950000
  10.0362383  46.7962032  59.4489268   9.8468674  46.2197566  59.9453158
   5.0860370  41.5383735  61.5143857   4.8903153  42.1458470  60.9204160
   5.3094716  40.8451679  61.0335531   5.0895011  41.5261261  61.3559938
   3.4838900  38.4238473  61.6324726   4.2061552  38.5879631  61.1728532
   3.0046893  39.1448138  61.5264065   3.5202631  38.5536703  61.5490340
  11.4432408  34.7602272  67.0121411  10.6043509  34.7863551  66.7759674
  11.5136775  35.4073007  67.5926757  11.3300802  34.8598398  67.0630528
   9.8901686  31.6587649  61.7449027  10.5928039  31.4595397  61.2668985
   9.6245875  30.8863591  62.0517870   9.9548319  31.5150615  61.7194468
  15.3189932  39.9670259  64.2982652  15.2323906  40.1225685  65.1517431
  14.8640412  40.6108334  63.9242057  15.2393189  40.0846014  64.3689759
   9.1915748  37.2881006  62.9208212   8.9450462  37.2076757  63.7545001
   9.5200871  36.5034474  62.7270739   9.2036991  37.1607271  63.0155735
  13.0863797  43.9964365  66.7094993  12.9478156  44.6945411  67.2143736
  12.3063795  43.8413021  66.3531175  12.9507024  44.0764532  66.7321267
  11.4241882  40.2960740  72.9617375  11.4189920  39.4240557  72.9659801
  12.1302876  40.4948910  72.4886831  11.5286886  40.1964615  72.8924410
   5.1512775  40.0237724  72.3331195   5.2956151  40.6038932  71.6974305
   5.4988424  40.4014021  73.0381050   5.2240237  40.1658428  72.3430190
   7.3232693  39.2227893  70.1156327   6.5756007  39.4158907  69.7104605
   7.4774218  38.3973112  69.8780448   7.2355120  39.1293004  70.0201732
   4.2240530  48.2140496  69.1992222   4.3730094  47.6543412  68.5465626
   5.0040532  48.2932498  69.5824741   4.3614624  48.1426062  69.1589171
  14.5817170  43.3542619  57.4711492  14.2023978  42.5679757  57.4640782
  13.9183415  43.9029476  57.3283137  14.4275644  43.3187443  57.4492289
   6.7493831  48.3855139  70.4776713   6.6737502  47.7163950  71.0327501
   6.6783690  49.0872927  70.9917379   6.7274438  48.3900046  70.6353561
  12.0361796  26.2968319  64.8745573  12.1545364  26.7544782  64.1412876
  11.8623971  25.4913580  64.5881791  12.0280966  26.2462091  64.7246507
   7.4064078  46.9056138  61.3100319   8.1713969  46.6365782  60.9882983
   7.3042168  46.4206148  62.0270381   7.5045573  46.7945702  61.3680146
   5.4416847  35.1080547  67.8493554   4.6512922  34.9272007  68.1710890
   5.8377470  34.3307500  67.8323849   5.3833724  34.9668008  67.8946103
   9.9282738  43.9368322  53.2900268  10.6955723  43.9968447  52.8806120
   9.4814047  43.3648763  52.8056586   9.9756166  43.8604897  53.1577978
  10.8260534  42.7422977  65.5753000  10.1505536  42.5108210  66.0766387
  10.8352910  42.1344160  64.9495105  10.7279038  42.6181903  65.5569152
   7.9554678  37.5840806  72.3317053   7.8913819  38.4450763  72.2037190
   8.0951866  37.2672800  71.5312605   7.9670148  37.6640973  72.1945266
  12.8277268  45.5988110  57.8063178  12.9097106  46.4055096  57.4824629
  13.3127011  45.6184069  58.5303952  12.9114426  45.7208772  57.8650077
   6.6373772  40.2772946  66.4733256   6.2136021  40.4777445  65.7372274
   6.4618627  39.4301794  66.5857556   6.5484652  40.1821727  66.3806946
   1.9256217  40.7724997  61.9061229   2.0820836  40.7071800  62.7617221
   2.2656810  41.5473550  61.6939908   1.9989451  40.8774195  62.0015823
   8.4635361  40.1482881  60.7754592   9.0050907  39.6453262  61.2393212
   8.7781920  40.0948075  59.9644077   8.5899758  40.0662302  60.7238404
  12.3352469  44.3585528  77.8881504  13.1487334  44.0870677  78.0486637
  12.1747435  44.0593068  77.0841700  12.4322417  44.2740454  77.7926910
   6.6321811  45.5400232  58.0594620   6.7014631  44.6814771  58.1987620
   7.4110266  45.7572113  57.7313644   6.7574661  45.4453096  58.0311777
   9.6124631  35.0419185  70.8276892   9.8266600  34.4030099  70.2740246
   8.9958530  35.4865009  70.3984754   9.5529960  35.0129329  70.6827323
  11.0229299  47.9637934  62.2731113  10.6309090  47.6604649  61.5553979
  11.1782371  48.8007024  62.0836067  10.9882888  48.0421770  62.1387610
  11.7763719  36.6508250  71.7660199  10.9640400  36.3434141  71.8473372
  12.2353653  36.1707251  72.3302912  11.7244103  36.5344743  71.8614794
  11.1868973  44.5287922  62.2137144  10.8283628  44.7002565  62.9901176
  10.7007684  44.9901128  61.6565142  11.0627670  44.6226893  62.2462413
   9.0039359  28.1519121  65.8164235   8.1332917  28.1257842  65.7697545
   9.2579701  27.9796313  64.9990081   8.9132919  28.1229265  65.6884372
   5.9757339  40.2087088  54.7537378   6.2649864  40.9851970  55.0280952
   6.0629138  39.6975819  55.4551877   6.0311595  40.2479006  54.8979876
   6.0288500  30.1625349  67.2737706   5.5126988  29.4705541  67.3989285
   5.4682429  30.8296126  67.2200304   5.8695013  30.1588607  67.2843772
  12.3473713  45.4191818  73.1604345  12.9853433  44.9252014  72.8266801
  11.7047804  45.3469219  72.5756572  12.3467939  45.3350827  73.0246700
  14.0730713  37.2680964  67.7270260  13.6458321  37.1807313  66.9718360
  13.4356766  37.3758740  68.3125104  13.9160320  37.2713624  67.7015702
  12.4027969  46.1111627  69.8009701  13.1920347  45.7600691  69.9211783
  12.5771567  46.9248015  69.5386335  12.5448251  46.1797484  69.7797569
   2.1421280  39.5220352  66.8537490   1.3009286  39.4224227  67.0616384
   2.3511288  40.2915833  67.2051811   2.0485972  39.6212396  66.9364805
  11.2561793  30.1221183  64.3626120  11.4611387  30.0543491  65.2083117
  10.9288217  30.9280005  64.2947297  11.2377041  30.2307124  64.4785775
   5.9537945  37.4501752  66.1035088   5.6501082  36.8957740  66.7045495
   5.2517365  37.6293962  65.6163122   5.8054154  37.3946534  66.1204793
   5.0104042  34.7602271  60.6679790   5.2863776  34.0421184  60.2557357
   5.6102711  35.3587191  60.4600896   5.1397306  34.7422642  60.5760551
  14.5095481  30.6752948  63.8428885  13.8969795  31.1623350  64.2282617
  14.6059656  29.9996438  64.3866536  14.4333379  30.6471256  63.9807743
   8.5114562  32.4315789  58.9426385   8.9658309  32.6026349  59.6674229
   8.9854608  31.8183899  58.5424160   8.6482882  32.3666674  58.9900146
   2.0330088  41.9164115  68.2729123   1.4418021  42.5573613  68.2432138
   2.7951111  42.3401732  68.2460423   2.0578348  42.0739953  68.2644270
  18.1520509  41.7469884  69.2706401  18.2103633  42.1956533  70.0166378
  17.5186977  42.1568697  68.8336481  18.0671804  41.8743619  69.3158950
  11.7919604  47.3673426  65.7061148  11.5939292  47.8564241  65.0117359
  11.1707315  47.5714668  66.2845281  11.6707168  47.4689965  65.6884371
   5.8527582  39.1358323  60.0471392   6.5969627  39.5232599  60.2854342
   5.9988278  38.2915748  60.2111880   5.9838167  39.0688796  60.1065362
   7.7707158  30.9308582  65.0803253   6.9243203  31.1031390  64.9544603
   7.7678290  30.1257926  65.4169082   7.6454308  30.8369611  65.1114380
   8.8405458  34.7083796  65.9465311   8.3665412  34.1825558  66.4570622
   9.2123594  34.1613269  65.3780173   8.8255347  34.5499793  65.9380458
  15.1042189  39.7686172  67.3572092  14.8640411  38.9292587  67.3614518
  15.5834196  39.8486339  68.0812865  15.1394372  39.6567572  67.4646894
  10.7688958  35.6020351  59.0091065  10.2411976  35.6849095  58.3196774
  11.2284666  36.3438222  59.0055710  10.7590808  35.7241013  58.9065760
  17.1047376  36.5487629  65.3101351  16.8657146  36.5083463  64.4722135
  17.2681277  37.3958781  65.4367072  17.0937679  36.6679714  65.2054833
  13.7093406  40.9337579  71.2406396  14.4327605  40.4810105  71.0617416
  13.4443368  41.2142244  70.4578724  13.7774679  40.9088547  71.0985111
   2.5780274  35.5297752  67.9759275   1.9533344  35.5416144  67.3685228
   2.2425869  36.0057927  68.6250515   2.4365766  35.6016269  67.9815844
   2.7622023  33.8722871  54.0331960   2.4134827  34.5242596  54.4963510
   2.2818469  33.8579984  53.3055831   2.6392267  33.9665924  53.9943051
  10.3226040  44.1723915  58.1400722  11.0460239  44.6382028  57.9965295
   9.8826631  44.2397524  57.3898319  10.3641732  44.2507751  58.0085503
   9.4912195  41.0321457  69.3901411   8.8769188  40.4879507  69.6850046
  10.0079480  40.5185693  68.9107227   9.4767858  40.8757866  69.3625639
   8.7308492  42.1025727  67.1245710   8.3036100  41.4775445  66.6911145
   8.7233437  41.8200649  67.9504717   8.6667634  41.9678507  67.1825537
   7.0594202  32.9794481  67.3388244   7.0836689  32.4454594  66.6501024
   7.3105676  32.4711790  68.0013834   7.1004121  32.8255385  67.3352888
   3.3395524  31.7065300  66.7193988   3.3793896  32.2074506  67.4328695
   2.5145189  31.7975693  66.4499911   3.2235050  31.7947116  66.7844526
   4.7609888  38.2225809  69.0167887   3.9301817  38.3899627  68.8103135
   4.7061405  37.8461760  69.8016772   4.6299303  38.1915541  69.1016415
   3.1345932  36.4981401  59.5458005   3.2748893  36.9953865  60.2486646
   3.6328464  35.7967695  59.6872218   3.2287012  36.4683380  59.6709584
   3.1646154  37.3648512  56.8750582   3.7991233  37.9608937  56.8100043
   3.2471765  37.0651970  57.6896452   3.2702705  37.4089420  56.9853668
  16.1428720  39.8963989  69.7436946  16.7346560  40.5361240  69.7755144
  16.5787714  39.1987026  70.0329013  16.2947151  39.8882340  69.7917778
   4.7425137  33.2962487  56.8496024   5.0640978  32.8165570  56.1955286
   5.0052081  34.1062133  56.6586835   4.8291162  33.3452385  56.7251516
   7.9722110  44.3181362  70.3694840   7.4647201  44.8717209  70.8135470
   7.6748756  44.3789652  69.5513614   7.8526995  44.4087673  70.3143296
  10.1384292  32.6834681  69.2119503  10.5639363  32.2307208  68.6003029
   9.5241285  32.1294752  69.4884290  10.1112937  32.5348658  69.1624528
  10.5829890  48.2344619  58.2998783   9.8659200  48.0605482  57.8346020
  11.2336627  47.9997192  57.7674269  10.5731740  48.1740412  58.1528001
   8.5778515  29.1549781  62.6210080   7.9346833  29.0047428  63.1895218
   8.2377922  28.9092126  61.8559184   8.4323592  29.0961904  62.5913095
  13.1677861  37.1109208  62.0440088  12.4969051  37.6538910  61.9153154
  13.8617611  37.5804063  61.8021783  13.1706729  37.2607479  61.9895616
   7.2164595  49.2505920  67.2751846   6.9930249  48.4924749  67.6435873
   6.7274438  49.2803941  66.5532286   7.1108044  49.1428145  67.2228587
  13.3305989  33.5665092  64.9530461  13.6833599  33.1394815  65.6276260
  12.4720790  33.4815935  65.0831538  13.2555433  33.4909832  65.0725472
   2.0289674  36.1972611  63.0113308   1.3101663  36.6136744  63.2786172
   2.4002036  36.7626850  62.4604946   1.9781605  36.3421893  62.9696115
  11.3289254  36.8300460  68.9015304  11.3087182  36.6483755  69.7550083
  11.3768455  37.7012479  68.8774887  11.3323895  36.9316998  69.0238598
   9.2735584  43.4187652  74.8263780   9.2331439  42.7737329  74.2408936
  10.0858902  43.3624270  75.1389192   9.3878738  43.3146619  74.7860729
   5.8643052  49.4706378  64.7288931   5.4503450  48.8080508  64.3392773
   6.5490426  49.6184237  64.2084625   5.9041423  49.3947036  64.5945428
   9.2308346  48.6296463  65.4812548   8.8324629  48.7398734  64.7133368
   8.6159565  48.8378530  66.0639107   9.0807235  48.6770031  65.4543847
   7.8036248  35.2370611  58.3486687   7.2101087  35.5587608  57.7971254
   7.8411526  34.3911707  58.1407794   7.7210637  35.1594939  58.2369459
  14.7630049  28.6883503  65.8814774  14.2560913  27.9812643  65.8135951
  15.5597482  28.3576692  66.0115851  14.8057288  28.5356655  65.8913769
  10.6794064  35.1950116  61.7788438  10.4507758  35.2182817  60.9366796
  10.9392141  34.3707583  61.8983448  10.6840253  35.0766196  61.6713635
   3.7338827  33.7326662  63.0742633   4.2096193  34.0943742  62.4392814
   3.2327427  34.3883130  63.3542776   3.7304186  33.8820851  63.0219374
  16.9650189  43.2048430  58.8655638  17.3483794  43.9539786  59.0953735
  16.1694302  43.4514250  58.6067627  16.9043971  43.3518124  58.8613212
   5.7765480  35.8767862  56.4416017   6.1564445  35.8947491  55.6567132
   5.0358076  36.3221851  56.3206865   5.7234318  35.9449636  56.3079585
  13.4050771  34.1850053  62.0291596  13.4044997  34.0298710  62.8875872
  13.2006951  35.0313040  61.9732982  13.3750549  34.2870674  62.1479535
  11.1291623  38.8647555  65.6827803  11.6245288  38.1470550  65.6431823
  10.3191398  38.5618352  65.5682290  11.0835516  38.7145201  65.6601529
   6.5750234  42.7145368  57.8324807   5.7661557  42.3912042  57.7858117
   7.0825143  42.0078590  57.7653056   6.5299901  42.5626684  57.8155102
  13.1943442  41.6151242  68.3704932  13.6198513  41.0925664  67.8175357
  12.8300361  42.2132080  67.8493555  13.2030044  41.6261469  68.2113941
   2.8297521  49.9115460  67.1302277   3.1444080  50.7251848  67.1380059
   3.2390935  49.5265678  67.7984436   2.9365619  49.9744162  67.2306369
   9.7822041  45.3285507  64.7006089  10.2533219  46.0425769  64.8696074
  10.1182220  44.7284257  65.2365959   9.9017156  45.3456971  64.8038465
  10.4195987  45.1203441  71.4633782   9.8716933  44.4961324  71.1953847
  10.8809016  45.3097713  70.7477861  10.4063197  45.0562491  71.3184213
  13.2289852  33.1888795  68.8484974  12.6452841  33.6898002  68.4362541
  13.5494146  32.6818351  68.2149297  13.1903027  33.1880630  68.6943481
   5.7684651  32.1029390  59.1243649   6.5900345  32.2727703  58.8825344
   5.3054302  32.2576651  58.4009946   5.8215813  32.1511123  58.9815293
   9.9854314  46.1254513  67.9943123  10.8052687  45.9817479  68.2559418
   9.7048391  46.7500712  68.5359561  10.0651057  46.1964865  68.1131062
  26.4567964  53.7819365  60.9585999  26.4261968  54.6364002  61.1304269
  27.0549313  53.4814658  61.5172143  26.5405122  53.8635862  61.0660802
  19.6567649  52.8695016  65.7138930  18.8005544  53.0303514  65.7648046
  19.7035303  51.9987080  65.7343991  19.5366760  52.7645818  65.7244996
  14.0408789  62.4057734  61.4776161  13.2891688  62.0273272  61.2492206
  14.4894800  62.4376168  60.7294972  13.9958455  62.3543341  61.3333663
  22.9661365  59.1381542  75.3199386  23.6728133  58.6433573  75.4486320
  23.1549301  59.5790623  74.5902044  23.0989271  59.1299892  75.2308431
  19.4933748  62.8283104  56.9061708  19.1585117  63.5060025  56.4705931
  20.0060619  62.4388415  56.3178580  19.5199330  62.8707682  56.7548500
  19.0338040  64.7797372  62.8472820  19.4177419  65.3484271  62.3077595
  18.9697181  64.0546883  62.3678636  19.0811467  64.7572836  62.6966683
  22.5019470  54.9287060  68.3570581  23.0475430  55.6072147  68.4164551
  22.4436346  54.7874521  67.4972163  22.5735384  55.0079062  68.2382642
  15.6193545  62.4176126  63.7438934  15.7203908  61.6076480  64.0536062
  15.0235290  62.3233073  63.1138612  15.5466083  62.2841154  63.6965172
  24.2784539  56.3571667  59.2304309  24.1624064  57.1079353  59.6596447
  25.0740425  56.0995620  59.4800396  24.3789128  56.4306514  59.3308401
  15.4594284  67.3353715  65.1453790  16.1031740  67.7766879  65.5349948
  15.7850540  66.5307142  65.0584049  15.6026113  67.2818910  65.1899267
   8.8158589  58.4396413  63.3691267   8.5808773  57.6064065  63.2623536
   8.9544230  58.7201078  62.5552468   8.8014252  58.3579916  63.2333622
  11.1148677  50.6082143  66.2675575  10.4953708  50.0174791  66.0985590
  11.0132540  51.1993579  65.6339898  11.0086352  50.6086226  66.1480565
  16.1614864  60.3465690  60.5173652  16.4830705  60.8870898  59.9134960
  16.8086961  59.7762462  60.6495941  16.3040919  60.3424865  60.4480687
  18.2116572  52.3481685  60.6008038  18.9096737  52.5269813  61.0929502
  18.5268905  51.8252024  59.9778428  18.3611909  52.2975457  60.5810048
  10.8417810  54.1534425  68.5119144  10.7176506  54.7396871  69.1468963
  11.4936094  53.6594621  68.8131419  10.9191459  54.1673229  68.6505073
  18.4004508  58.7352130  60.5887830  18.8398143  58.1269231  61.0342602
  18.2509170  58.3559504  59.8173295  18.4425973  58.5890601  60.5406997
  15.8676151  57.3296142  67.7906655  16.5125153  56.8368585  67.4717604
  16.1077928  57.4720929  68.6172733  15.9986736  57.2773584  67.8656188
  18.4062242  60.1751048  67.4413548  18.6885485  59.3802454  67.2200304
  19.1348402  60.6531635  67.4618609  18.5551806  60.1285645  67.4116563
  16.3843436  47.7174082  64.6829313  16.0546766  48.1685225  64.0133012
  15.7088438  47.6390245  65.2302319  16.2353872  47.7725217  64.6652536
  22.0013844  57.0879311  57.5418599  21.9165139  57.9440278  57.6868168
  22.4898227  56.8123636  58.2100758  22.0602741  57.1736633  57.6620680
  23.5919843  43.7059605  62.9278924  23.2773284  44.3963083  63.3599346
  23.0746785  43.6504387  62.2264424  23.4684314  43.7994493  62.8875873
  22.9332277  53.7064106  59.0416334  22.4043749  53.9223739  59.7013640
  23.4557297  54.4000244  58.9617303  22.9320730  53.8407243  59.1271933
  28.3880330  59.2810410  64.4149379  27.5578033  59.4921054  64.5782795
  28.3389583  58.4547465  64.1391662  28.2587066  59.1900016  64.3986744
  14.8231885  57.6027322  57.8423802  14.2389100  58.1077354  58.2489666
  14.4201980  57.3769709  57.1020394  14.6771189  57.6435571  57.7928827
  10.3775914  63.3182084  64.6447474   9.8943492  64.0432573  64.6207057
  11.1899232  63.6158214  64.7557631  10.4266661  63.4684437  64.6574753
  16.4490068  62.1114264  67.2497288  15.9317009  61.7521679  66.6458596
  17.1464459  61.5876439  67.2603354  16.4755649  61.9811952  67.1627547
  20.1053660  62.5609078  73.2113461  20.1937006  62.3735219  74.0591671
  20.5343372  61.9146508  72.8118308  20.1815762  62.4372086  73.2785213
  19.2809100  53.8492974  56.3192723  19.5205103  54.0570958  55.5068066
  19.6024941  53.0450483  56.4281667  19.3646257  53.7607076  56.2153276
  14.5899390  45.7786370  60.1652261  15.3445358  46.1464687  59.9269311
  14.4126924  46.1525925  60.9331440  14.6753868  45.8884558  60.2437149
  13.2320111  63.8338259  64.7967753  13.9340690  63.3190249  64.8540510
  13.1517594  64.1612411  65.6014629  13.3243871  63.8052486  64.9240546
  27.8834289  51.9280811  68.2099800  27.0462710  51.9982998  68.4447394
  27.8522519  51.9305306  67.3374102  27.7552571  51.9391038  68.1159348
  14.2799018  54.0713846  73.9248169  14.4519521  53.9619741  74.7733450
  14.8168375  54.7168252  73.6879361  14.3844022  54.1505848  74.0153265
  12.9456454  48.1856689  56.8630374  12.7632028  48.4028570  56.0371366
  13.8082067  48.2995702  56.9188988  13.0461044  48.2346587  56.7484861
  12.5570886  60.0244611  64.3053361  13.3959786  60.2567544  64.3527123
  12.5882656  59.1548923  64.2360397  12.6852604  59.9301558  64.3018006
  13.1823589  60.4445487  68.6066667  13.7221814  60.3016618  69.2770039
  12.4993536  60.8442237  68.9750693  13.1615743  60.4825158  68.7601089
  18.6256174  45.1883100  59.8979397  19.3542334  45.0099055  59.4517554
  18.7151067  46.0301180  60.1086576  18.7462836  45.2866978  59.8632915
  22.6064474  56.1236487  63.8011691  23.3621989  56.5568002  63.8400600
  22.7126799  55.4741257  64.3746327  22.7334645  56.0913971  63.8909717
  25.6444645  59.9509765  64.5514094  25.2079877  59.9546507  65.3073066
  25.3107561  60.6315263  64.1193672  25.5307265  60.0522220  64.5994927
  25.5642128  46.9923592  66.7943522  26.2068037  47.0621697  67.3805438
  25.8165149  46.3252815  66.2923064  25.6964260  46.9049941  66.8070802
  12.4918481  51.4630862  55.3752847  11.7776659  51.1769041  55.7875279
  12.9762450  51.8027488  56.0159234  12.4577845  51.4712512  55.5308482
  13.3359341  50.2024156  71.4068096  12.6431138  49.7321135  71.6528828
  13.9519668  49.9762460  71.9809803  13.3243871  50.0991288  71.5277249
  20.3744112  63.9028199  69.5223700  19.5759358  63.6627699  69.7797569
  20.8230124  63.9542592  70.2690748  20.3218724  63.8750591  69.6708625
  28.7788992  56.6690684  63.4433732  29.4405426  56.1081353  63.3429640
  28.1380404  56.1742715  63.7686423  28.7817859  56.5127093  63.4766072
  19.6665799  59.9660816  55.7514655  20.0816948  59.6345840  55.0599151
  18.8357729  59.7329718  55.6234791  19.6053808  59.8832072  55.6305502
   8.9954148  57.4504557  66.0412833   8.8129721  57.4251443  65.1885125
   9.7303817  57.9203495  66.0801742   9.0768212  57.5165919  65.9210751
  25.0653822  57.6856067  63.1845720  25.3009412  57.8301266  62.3572571
  25.2143386  58.4498475  63.5777234  25.1219626  57.8195121  63.1209324
  12.0599900  54.1689560  72.5494941  12.7839872  54.1542590  73.0359836
  12.1616036  54.8784915  72.0516910  12.1818109  54.2714263  72.5473728
  26.8944279  56.5257733  61.0215324  27.2252496  57.0585373  60.4155419
  27.4677367  56.5796621  61.6777275  27.0277958  56.6127302  61.0293106
  22.1076168  54.3722635  61.7038904  22.2023023  55.1111930  62.1578530
  21.4835012  53.9440111  62.1373469  22.0285198  54.4183956  61.8347052
  20.3628642  57.5508848  72.3529185  20.9367504  56.9136092  72.5077749
  20.2843446  57.5512930  71.4838843  20.4361877  57.4573959  72.2475596
   8.9625058  54.3298058  66.1911899   9.5398561  54.1934508  66.8304145
   8.2639120  53.8733842  66.4457484   8.9446080  54.2420324  66.3234189
  22.3599190  56.2171375  54.9375856  22.2779352  56.2873562  55.8030843
  22.9978910  56.7801119  54.7459597  22.4419027  56.3110346  55.0365806
  15.7192361  55.9832113  64.4050383  15.4611605  55.1503848  64.3781682
  15.7740843  56.2089726  63.5642883  15.6892139  55.8929884  64.2770519
  20.7993411  48.0860564  64.5054475  20.0949738  47.5969749  64.6638394
  20.8478385  48.0983038  63.6342920  20.7023462  48.0150212  64.3993815
  14.6927073  53.5369876  64.8915277  14.1176664  53.6962044  65.5279238
  14.3162749  52.9005285  64.4283728  14.5529885  53.4667689  64.9169836
  18.3600361  52.0093225  69.7507656  17.9714794  51.5847443  69.0959847
  17.6955060  52.2575375  70.2584682  18.2047289  51.9831946  69.7295524
  28.0023631  51.7668230  62.5255486  27.7460195  50.9548171  62.3353369
  28.8452945  51.7745797  62.2985673  28.0889656  51.6480227  62.4640303
   4.4383892  53.1809950  62.9059718   4.5244144  52.8041819  63.6873248
   5.0659689  52.8070396  62.4279676   4.5440443  53.0695433  62.9505195
  22.1826723  45.7067854  67.2631640  22.5637235  45.0246025  67.6499514
  21.3790007  45.4177456  67.0807304  22.1203185  45.5634902  67.2935696
  19.4639300  56.2391830  57.9484463  20.2779939  56.5306722  57.8367234
  19.3998441  55.5851692  57.3742756  19.5742039  56.1857024  57.8473300
  25.6848790  58.9217826  72.3614038  25.4487427  58.0905890  72.2426099
  26.3292019  58.8703433  72.9468883  25.7443461  58.7915514  72.4299932
  15.3347208  59.7113347  63.0756775  15.9721155  59.4725094  63.6208568
  15.7602280  59.9150506  62.3409935  15.4923374  59.7064357  63.0473932
  15.9750023  54.9315637  57.4131664  16.3595176  54.7123343  58.1648209
  15.7261643  55.7578582  57.5432741  15.9952096  55.0213783  57.5432741
  16.1418563  48.2122052  77.1294248  15.8272004  48.9821615  76.8663811
  15.8208496  47.6492308  76.5446475  16.0477482  48.2432321  77.0035598
  26.7085211  58.7062274  68.4242333  26.4031028  59.4390331  68.7855648
  25.9891426  58.3000204  68.1435119  26.5572553  58.7544007  68.4355470
  17.7168680  60.1885770  64.7550561  17.7907688  60.0260941  65.6092411
  18.5338186  60.3775959  64.5111043  17.8485039  60.1922512  64.8448587
  32.4087003  55.3455275  67.7510677  32.3411503  55.3651234  66.8813264
  32.3942665  56.1885602  67.9766348  32.3965759  55.4729010  67.6563154
  11.4774437  60.5343632  61.7845005  10.6512554  60.7805370  61.6579283
  11.5386428  60.4555713  62.6507063  11.3648604  60.5588581  61.8933949
  13.6950460  46.6012573  62.7440445  12.8272886  46.6735173  62.8098054
  13.9825665  47.4034652  62.9328420  13.6090208  46.7306721  62.7815211
  22.8183349  46.7490433  71.0751767  23.5636941  46.5600243  70.6615192
  22.4020654  47.2748671  70.5165623  22.8668323  46.7992578  70.9316340
  16.2573266  63.1520513  59.4864034  16.5471564  62.7609494  58.7623261
  16.9876746  63.3337218  59.9269310  16.4080150  63.1214326  59.4446841
  30.1945620  54.1199661  66.0257272  30.7453542  53.4867730  66.2654364
  30.1789735  54.6515054  66.7172776  30.2730816  54.1048609  66.1636130
  16.8468011  57.9538259  70.5717165  16.3479704  58.6654026  70.6502053
  17.6568235  58.2738925  70.5335327  16.8924118  58.1065107  70.5773734
  14.1979181  65.1287895  62.5524184  13.9779477  64.8385250  63.3450851
  13.9773703  64.4702850  62.0242097  14.1326775  64.9887603  62.5913093
  13.1096128  57.2161212  64.8179886  12.8209377  56.5898683  65.3525613
  13.9779476  57.1581499  64.8844566  13.1956380  57.1148756  64.9070840
  23.8974026  52.3595995  65.1361868  23.5538792  51.6386330  65.4869117
  23.9967069  52.1509846  64.2940226  23.8616069  52.2220198  65.0633548
  16.3647137  66.5017285  61.3354877  17.0171195  65.9693727  61.5645903
  15.6672746  66.1485937  61.7222751  16.3577855  66.3706808  61.4267044
  13.3128402  58.8556463  60.7422251  14.0674370  59.2369502  60.9557713
  12.7199014  59.3067606  61.1968947  13.3365115  58.9785290  60.8405129
  24.3587055  58.8221699  60.6785856  24.9245088  59.4814909  60.5944399
  23.7114959  59.1671397  61.1502258  24.3465812  58.9703640  60.7358612
  15.7735069  50.8119303  75.8679463  14.9634845  51.1177083  75.7569306
  16.2509756  51.5324885  75.9832047  15.7238548  50.9633904  75.8686534
  14.6326628  60.0265024  66.1162366  14.1107382  60.1665316  66.8014231
  15.0200649  59.2675688  66.3064484  14.6130329  59.9350548  66.2463443
  11.6217812  50.0770833  60.1857321  11.3342608  49.7072103  59.4489268
  12.3088281  50.5465688  59.9241026  11.6806710  50.0917802  60.0372397
  20.8293633  61.7660483  60.1022935  20.5880309  61.0328344  59.6950000
  21.0094966  62.3147340  59.4489268  20.8201257  61.7382874  59.9453158
  16.0592954  57.0569043  61.5143857  15.8635737  57.6643778  60.9204160
  16.2827300  56.3636987  61.0335531  16.0627595  57.0446569  61.3559938
  14.4571484  53.9423781  61.6324726  15.1794136  54.1064939  61.1728532
  13.9779477  54.6633446  61.5264065  14.4935215  54.0722010  61.5490340
  22.4164992  50.2787580  67.0121411  21.5776092  50.3048859  66.7759674
  22.4869359  50.9258315  67.5926757  22.3033385  50.3783706  67.0630528
  20.8634270  47.1772957  61.7449027  21.5660623  46.9780705  61.2668985
  20.5978459  46.4048899  62.0517870  20.9280902  47.0335923  61.7194468
  26.2922515  55.4855566  64.2982652  26.2056490  55.6410993  65.1517431
  25.8372995  56.1293642  63.9242057  26.2125772  55.6031322  64.3689759
   9.1946007  50.8552045  61.0342602   9.2962143  51.6578207  61.3623577
   9.9901894  50.6539381  60.7365683   9.3273913  50.9437944  61.0377957
  15.6262826  48.4408242  70.7979907  15.4346023  48.4563376  71.6479331
  16.4761422  48.6371916  70.7746562  15.7238548  48.4722593  70.9203202
  10.0109739  50.9699223  68.7763724   9.8695231  50.1183164  68.9008232
  10.2950303  51.0127884  67.9525930  10.0317585  50.8498973  68.6731348
  20.1648332  52.8066314  62.9208212  19.9183046  52.7262065  63.7545001
  20.4933455  52.0219781  62.7270739  20.1769575  52.6792579  63.0155735
  24.0596380  59.5149673  66.7094993  23.9210740  60.2130719  67.2143736
  23.2796378  59.3598329  66.3531175  23.9239607  59.5949840  66.7321267
  22.3974465  55.8146048  72.9617375  22.3922504  54.9425865  72.9659801
  23.1035459  56.0134217  72.4886831  22.5019469  55.7149922  72.8924410
  16.1245359  55.5423032  72.3331195  16.2688735  56.1224240  71.6974305
  16.4721007  55.9199329  73.0381050  16.1972820  55.6843736  72.3430190
  18.2965276  54.7413201  70.1156327  17.5488590  54.9344215  69.7104605
  18.4506801  53.9158420  69.8780448  18.2087704  54.6478312  70.0201732
  15.1973114  63.7325804  69.1992222  15.3462678  63.1728720  68.5465626
  15.9773116  63.8117806  69.5824741  15.3347207  63.6611369  69.1589171
  25.5549753  58.8727927  57.4711492  25.1756562  58.0865065  57.4640782
  24.8915999  59.4214784  57.3283137  25.4008228  58.8372751  57.4492289
  17.7226414  63.9040447  70.4776713  17.6470086  63.2349257  71.0327501
  17.6516274  64.6058235  70.9917379  17.7007021  63.9085354  70.6353561
  18.5367053  48.6363751  71.0051730  18.9939667  49.3687726  71.1324523
  18.6123382  48.2130217  71.7638986  18.6158023  48.6820989  71.1352807
  10.7800044  48.8829571  72.0941174  10.2442234  48.2709929  72.4101941
  10.8417809  49.4577707  72.7474841  10.7095677  48.8776499  72.2376601
  23.0094379  41.8153626  64.8745573  23.1277947  42.2730090  64.1412876
  22.8356555  41.0098888  64.5881791  23.0013550  41.7647399  64.7246507
  18.3796661  62.4241446  61.3100319  19.1446552  62.1551089  60.9882983
  18.2774751  61.9391456  62.0270381  18.4778157  62.3131010  61.3680146
  16.4149431  50.6265855  67.8493554  15.6245506  50.4457315  68.1710890
  16.8110054  49.8492808  67.8323849  16.3566307  50.4853316  67.8946103
  20.9015322  59.4553630  53.2900268  21.6688307  59.5153754  52.8806120
  20.4546631  58.8834071  52.8056586  20.9488749  59.3790205  53.1577978
  21.7993117  58.2608285  65.5753000  21.1238119  58.0293518  66.0766387
  21.8085493  57.6529468  64.9495105  21.7011622  58.1367211  65.5569152
  18.9287261  53.1026114  72.3317053  18.8646403  53.9636071  72.2037190
  19.0684449  52.7858108  71.5312605  18.9402731  53.1826281  72.1945266
  23.8009852  61.1173418  57.8063178  23.8829689  61.9240404  57.4824629
  24.2859594  61.1369377  58.5303952  23.8847010  61.2394080  57.8650077
  17.6106355  55.7958254  66.4733256  17.1868604  55.9962753  65.7372274
  17.4351210  54.9487102  66.5857556  17.5217236  55.7007035  66.3806946
  12.8988800  56.2910305  61.9061229  13.0553419  56.2257108  62.7617221
  13.2389393  57.0658858  61.6939908  12.9722035  56.3959503  62.0015823
  19.4367945  55.6668189  60.7754592  19.9783490  55.1638570  61.2393212
  19.7514504  55.6133383  59.9644077  19.5632342  55.5847610  60.7238404
  23.3085052  59.8770836  77.8881504  24.1219918  59.6055985  78.0486637
  23.1480019  59.5778376  77.0841700  23.4055001  59.7925762  77.7926910
  17.6054395  61.0585540  58.0594620  17.6747215  60.2000079  58.1987620
  18.3842850  61.2757421  57.7313644  17.7307245  60.9638404  58.0311777
  20.5857214  50.5604493  70.8276892  20.7999184  49.9215407  70.2740246
  19.9691113  51.0050317  70.3984754  20.5262543  50.5314637  70.6827323
  21.9961882  63.4823241  62.2731113  21.6041674  63.1789957  61.5553979
  22.1514954  64.3192331  62.0836067  21.9615472  63.5607078  62.1387610
   9.4723062  53.4745256  62.2221996   9.8522027  53.8929801  61.5582263
   8.8978427  54.0558711  62.5290839   9.4434387  53.6223114  62.1698737
  22.7496302  52.1693558  71.7660199  21.9372984  51.8619449  71.8473372
  23.2086237  51.6892559  72.3302912  22.6976687  52.0530051  71.8614794
  22.1601557  60.0473230  62.2137144  21.8016212  60.2187873  62.9901176
  21.6740268  60.5086436  61.6565142  22.0360254  60.1412201  62.2462413
  19.9771943  43.6704429  65.8164235  19.1065501  43.6443150  65.7697545
  20.2312284  43.4981621  64.9990081  19.8865503  43.6414573  65.6884372
  16.9489922  55.7272396  54.7537378  17.2382447  56.5037278  55.0280952
  17.0361721  55.2161127  55.4551877  17.0044179  55.7664314  54.8979876
  19.8449810  53.5753630  76.5488902  20.3149441  54.1995746  76.9356776
  19.8911690  52.9070605  77.1082116  19.9217686  53.5688310  76.6888973
  17.0021083  45.6810657  67.2737706  16.4859572  44.9890849  67.3989285
  16.4415012  46.3481434  67.2200304  16.8427597  45.6773915  67.2843772
  19.0713317  46.2203617  69.1030558  18.6845070  46.2452649  69.8844088
  18.5846254  45.6545296  68.6505075  18.9425826  46.1399368  69.1518462
  23.3206296  60.9377126  73.1604345  23.9586017  60.4437322  72.8266801
  22.6780388  60.8654527  72.5756572  23.3200523  60.8536135  73.0246700
  25.0463296  52.7866272  67.7270260  24.6190904  52.6992621  66.9718360
  24.4089349  52.8944048  68.3125104  24.8892904  52.7898932  67.7015702
  18.7370459  43.1070603  71.3940818  19.3663577  43.6430903  71.1161888
  18.9056321  43.0147962  72.2454384  18.8548253  43.1731965  71.4789346
  18.5384373  47.8941798  73.6667230  19.3657803  47.6226946  73.7225844
  18.5592219  48.6902639  74.0231048  18.6637223  47.9721552  73.7282413
  23.3760553  61.6296935  69.8009701  24.1652931  61.2785999  69.9211783
  23.5504151  62.4433323  69.5386335  23.5180835  61.6982792  69.7797569
  13.1153863  55.0405660  66.8537490  12.2741870  54.9409534  67.0616384
  13.3243871  55.8101141  67.2051811  13.0218556  55.1397704  66.9364805
  10.5929430  52.6625197  64.6822241  10.1986128  52.7368209  63.9072351
  10.0369547  53.0483144  65.2330603  10.4532243  52.7306972  64.6489901
  22.2294377  45.6406491  64.3626120  22.4343970  45.5728799  65.2083117
  21.9020801  46.4465313  64.2947297  22.2109625  45.7492432  64.4785775
  16.9270528  52.9687060  66.1035088  16.6233666  52.4143048  66.7045495
  16.2249949  53.1479269  65.6163122  16.7786738  52.9131842  66.1204793
  15.9836625  50.2787579  60.6679790  16.2596360  49.5606492  60.2557357
  16.5835295  50.8772499  60.4600896  16.1129890  50.2607950  60.5760551
  25.4828065  46.1938256  63.8428885  24.8702378  46.6808658  64.2282617
  25.5792240  45.5181746  64.3866536  25.4065962  46.1656564  63.9807743
  19.4847146  47.9501097  58.9426385  19.9390892  48.1211657  59.6674229
  19.9587191  47.3369207  58.5424160  19.6215466  47.8851982  58.9900146
  13.0062671  57.4349423  68.2729123  12.4150604  58.0758921  68.2432138
  13.7683695  57.8587040  68.2460423  13.0310932  57.5925261  68.2644270
  13.4023294  48.5951420  68.9397141  13.8624775  48.6690350  69.6772265
  13.4479401  49.3932674  68.5896962  13.4773849  48.7245567  68.9969897
  15.0506644  49.2618115  73.5069168  14.6592209  48.6151462  73.9424946
  15.2192506  49.8529551  74.1263423  15.0177554  49.2532383  73.6631874
  29.1253093  57.2655192  69.2706401  29.1836216  57.7141841  70.0166378
  28.4919560  57.6754005  68.8336481  29.0404388  57.3928927  69.3158950
  22.7652187  62.8858734  65.7061148  22.5671876  63.3749549  65.0117359
  22.1439898  63.0899976  66.2845281  22.6439752  62.9875272  65.6884371
  16.8260166  54.6543631  60.0471392  17.5702211  55.0417907  60.2854342
  16.9720862  53.8101056  60.2111880  16.9570751  54.5874104  60.1065362
  18.7439741  46.4493890  65.0803253  17.8975786  46.6216698  64.9544603
  18.7410874  45.6443234  65.4169082  18.6186891  46.3554919  65.1114380
  19.8138042  50.2269104  65.9465311  19.3397996  49.7010866  66.4570622
  20.1856177  49.6798577  65.3780173  19.7987931  50.0685101  65.9380458
  10.1911072  52.2240611  71.3148857  11.0536685  52.1236320  71.2286187
   9.8602855  51.6435320  70.7534429  10.2696268  52.1232238  71.2194263
  26.0774772  55.2871480  67.3572092  25.8372995  54.4477895  67.3614518
  26.5566779  55.3671647  68.0812865  26.1126956  55.1752880  67.4646894
  21.7421541  51.1205659  59.0091065  21.2144560  51.2034403  58.3196774
  22.2017249  51.8623530  59.0055710  21.7323392  51.2426321  58.9065760
  28.0779959  52.0672937  65.3101351  27.8389729  52.0268771  64.4722135
  28.2413860  52.9144089  65.4367072  28.0670263  52.1865022  65.2054833
  24.6825989  56.4522886  71.2406396  25.4060188  55.9995413  71.0617416
  24.4175952  56.7327552  70.4578724  24.7507263  56.4273855  71.0985111
  13.5512858  51.0483060  67.9759275  12.9265928  51.0601452  67.3685228
  13.2158453  51.5243235  68.6250515  13.4098350  51.1201577  67.9815844
  13.7354606  49.3908179  54.0331960  13.3867411  50.0427904  54.4963510
  13.2551052  49.3765292  53.3055831  13.6124850  49.4851232  53.9943051
  21.2958624  59.6909222  58.1400722  22.0192823  60.1567335  57.9965295
  20.8559215  59.7582832  57.3898319  21.3374316  59.7693059  58.0085503
  20.4644779  56.5506765  69.3901411  19.8501772  56.0064815  69.6850046
  20.9812064  56.0371001  68.9107227  20.4500441  56.3943174  69.3625639
  19.7041076  57.6211035  67.1245710  19.2768684  56.9960753  66.6911145
  19.6966020  57.3385957  67.9504717  19.6400217  57.4863815  67.1825537
  12.8203603  52.6576208  70.1934144  12.9797090  51.9019532  70.5985866
  12.6396497  53.2067147  70.8474881  12.8168962  52.6270022  70.3496850
  20.7623906  44.8237443  70.7484933  20.2664467  45.0201118  70.0576500
  21.5192968  45.2230112  70.5773735  20.8010731  44.9115177  70.6205070
  18.0326786  48.4979789  67.3388244  18.0569273  47.9639902  66.6501024
  18.2838259  47.9897098  68.0013834  18.0736704  48.3440693  67.3352888
  14.3128108  47.2250608  66.7193988  14.3526479  47.7259814  67.4328695
  13.4877773  47.3161001  66.4499911  14.1967634  47.3132424  66.7844526
  15.7342471  53.7411117  69.0167887  14.9034401  53.9084935  68.8103135
  15.6793988  53.3647068  69.8016772  15.6031886  53.7100849  69.1016415
  13.5426255  47.2320010  74.6524298  14.1678958  46.6882143  74.9253730
  13.0876734  46.7514928  74.0832088  13.5674515  47.0809492  74.6085892
  14.1078515  52.0166709  59.5458005  14.2481476  52.5139173  60.2486646
  14.6061048  51.3153003  59.6872218  14.2019596  51.9868688  59.6709584
  14.1378737  52.8833820  56.8750582  14.7723817  53.4794245  56.8100043
  14.2204348  52.5837278  57.6896452  14.2435288  52.9274728  56.9853668
  27.1161303  55.4149297  69.7436946  27.7079144  56.0546548  69.7755144
  27.5520298  54.7172334  70.0329013  27.2679734  55.4067648  69.7917778
  15.7157720  48.8147795  56.8496024  16.0373561  48.3350878  56.1955286
  15.9784664  49.6247441  56.6586835  15.8023746  48.8637693  56.7251516
  18.9454693  59.8366670  70.3694840  18.4379784  60.3902517  70.8135470
  18.6481339  59.8974960  69.5513614  18.8259578  59.9272981  70.3143296
  21.1116875  48.2019989  69.2119503  21.5371947  47.7492516  68.6003029
  20.4973868  47.6480060  69.4884290  21.0845521  48.0533966  69.1624528
  10.6431725  55.0801661  60.1440128  11.1523955  55.6766168  60.5251433
  11.1165998  54.8127634  59.4616547  10.7875101  55.1287476  60.0994650
  21.5562473  63.7529927  58.2998783  20.8391783  63.5790790  57.8346020
  22.2069211  63.5182500  57.7674269  21.5464324  63.6925720  58.1528001
  19.5511098  44.6735089  62.6210080  18.9079416  44.5232735  63.1895218
  19.2110505  44.4277434  61.8559184  19.4056176  44.6147212  62.5913095
  24.1410445  52.6294516  62.0440088  23.4701635  53.1724218  61.9153154
  24.8350195  53.0989371  61.8021783  24.1439312  52.7792787  61.9895616
  18.1897178  64.7691228  67.2751846  17.9662833  64.0110057  67.6435873
  17.7007022  64.7989249  66.5532286  18.0840627  64.6613452  67.2228587
  24.3038572  49.0850400  64.9530461  24.6566182  48.6580122  65.6276260
  23.4453374  49.0001243  65.0831538  24.2288017  49.0095140  65.0725472
  13.0022257  51.7157919  63.0113308  12.2834246  52.1322052  63.2786172
  13.3734619  52.2812158  62.4604946  12.9514189  51.8607201  62.9696115
  22.3021838  52.3485768  68.9015304  22.2819765  52.1669063  69.7550083
  22.3501039  53.2197787  68.8774887  22.3056479  52.4502306  69.0238598
  20.2468168  58.9372960  74.8263780  20.2064023  58.2922637  74.2408936
  21.0591486  58.8809578  75.1389192  20.3611321  58.8331927  74.7860729
  16.8375635  64.9891686  64.7288931  16.4236034  64.3265816  64.3392773
  17.5223010  65.1369545  64.2084625  16.8774007  64.9132344  64.5945428
  20.2040929  64.1481771  65.4812548  19.8057213  64.2584042  64.7133368
  19.5892149  64.3563838  66.0639107  20.0539819  64.1955339  65.4543847
  18.7768831  50.7555919  58.3486687  18.1833671  51.0772916  57.7971254
  18.8144109  49.9097015  58.1407794  18.6943221  50.6780247  58.2369459
  25.7362632  44.2068811  65.8814774  25.2293497  43.4997951  65.8135951
  26.5330066  43.8762000  66.0115851  25.7789871  44.0541963  65.8913769
  21.6526648  50.7135424  61.7788438  21.4240341  50.7368125  60.9366796
  21.9124724  49.8892891  61.8983448  21.6572836  50.5951504  61.6713635
  15.9345876  52.5669897  71.3813538  15.4224780  51.9591080  71.7398569
  15.7625373  53.2826489  71.8487514  15.8335514  52.5833196  71.5029762
  14.7071411  49.2511970  63.0742633  15.1828777  49.6129050  62.4392814
  14.2060010  49.9068438  63.3542776  14.7036770  49.4006159  63.0219374
  27.9382772  58.7233738  58.8655638  28.3216378  59.4725094  59.0953735
  27.1426885  58.9699558  58.6067627  27.8776554  58.8703432  58.8613212
  19.8114947  50.4894141  73.8215793  20.3686377  50.2607951  73.1894259
  19.4876012  51.2499807  73.5451006  19.8461357  50.5677978  73.6872291
  17.5298064  53.5761795  74.7867801  18.2809391  53.8913471  75.1007355
  17.7220641  53.3740966  73.9601722  17.6689478  53.5929176  74.7111196
  16.7498064  51.3953170  56.4416017  17.1297029  51.4132799  55.6567132
  16.0090660  51.8407159  56.3206865  16.6966901  51.4634944  56.3079585
  24.3783354  49.7035361  62.0291596  24.3777581  49.5484018  62.8875872
  24.1739534  50.5498348  61.9732982  24.3483132  49.8055982  62.1479535
   6.4400625  53.1275145  66.4450413   6.2622386  52.6751754  67.1705328
   6.1519647  53.9301307  66.6288890   6.3713578  53.1797703  66.5793915
  22.1024206  54.3832863  65.6827803  22.5977872  53.6655858  65.6431823
  21.2923982  54.0803660  65.5682290  22.0568100  54.2330509  65.6601529
  17.5482818  58.2330676  57.8324807  16.7394141  57.9097350  57.7858117
  18.0557727  57.5263898  57.7653056  17.5032485  58.0811992  57.8155102
   8.1773095  55.6602869  63.5572172   7.3118615  55.6488560  63.4454943
   8.2771911  55.4733092  64.4043311   8.0647262  55.6308930  63.6661116
  24.1676025  57.1336550  68.3704932  24.5931097  56.6110972  67.8175357
  23.8032945  57.7317388  67.8493555  24.1762628  57.1446777  68.2113941
  13.8030105  65.4300768  67.1302277  14.1176664  66.2437156  67.1380059
  14.2123518  65.0450986  67.7984436  13.9098203  65.4929470  67.2306369
  20.7554625  60.8470815  64.7006089  21.2265803  61.5611077  64.8696074
  21.0914803  60.2469565  65.2365959  20.8749740  60.8642279  64.8038465
  17.6724120  45.6198285  71.6564184  17.8052025  44.8229279  71.9845159
  18.0569272  46.1464688  72.2362460  17.7480448  45.5798202  71.7907687
  21.3928571  60.6388749  71.4633782  20.8449517  60.0146632  71.1953847
  21.8541600  60.8283021  70.7477861  21.3795780  60.5747799  71.3184213
  20.7456475  42.5428611  68.2545277  19.9402438  42.4326341  68.5713115
  20.6163210  42.6441067  67.3975143  20.6076608  42.5412281  68.1753318
  24.2022435  48.7074103  68.8484974  23.6185424  49.2083310  68.4362541
  24.5226729  48.2003659  68.2149297  24.1635611  48.7065938  68.6943481
  16.7417234  47.6214698  59.1243649  17.5632929  47.7913011  58.8825344
  16.2786885  47.7761959  58.4009946  16.7948397  47.6696431  58.9815293
  15.3312566  45.6157460  69.9042078  15.8756979  45.2748587  70.4946419
  15.3849502  46.4742922  70.0463362  15.4201686  45.6912720  70.0123951
  11.1443125  59.3773876  66.7780886  11.7487982  59.3369710  66.1494706
  10.9370438  60.2245028  66.8084941  11.2032022  59.4961879  66.6897002
  20.9586897  61.6439821  67.9943123  21.7785271  61.5002787  68.2559418
  20.6780975  62.2686020  68.5359561  21.0383641  61.7150173  68.1131062
  37.4300548  69.3004673  60.9585999  37.3994552  70.1549310  61.1304269
  38.0281896  68.9999966  61.5172143  37.5137705  69.3821170  61.0660802
  30.6300232  68.3880324  65.7138930  29.7738128  68.5488822  65.7648046
  30.6767886  67.5172388  65.7343991  30.5099344  68.2831126  65.7244996
  33.4752053  70.4472368  68.3570581  34.0208014  71.1257455  68.4164551
  33.4168930  70.3059829  67.4972163  33.5467968  70.5264370  68.2382642
  35.2517122  71.8756975  59.2304309  35.1356648  72.6264661  59.6596447
  36.0473009  71.6180928  59.4800396  35.3521712  71.9491822  59.3308401
  19.7891173  73.9581721  63.3691267  19.5541357  73.1249373  63.2623536
  19.9276813  74.2386386  62.5552468  19.7746835  73.8765224  63.2333622
  22.0881260  66.1267451  66.2675575  21.4686292  65.5360099  66.0985590
  21.9865124  66.7178886  65.6339898  21.9818936  66.1271534  66.1480565
  27.1347448  75.8650998  60.5173652  27.4563289  76.4056205  59.9134960
  27.7819544  75.2947770  60.6495941  27.2773503  75.8610173  60.4480687
  29.1849156  67.8666993  60.6008038  29.8829320  68.0455121  61.0929502
  29.5001488  67.3437332  59.9778428  29.3344493  67.8160765  60.5810048
  21.8150393  69.6719733  68.5119144  21.6909090  70.2582178  69.1468963
  22.4668678  69.1779929  68.8131419  21.8924042  69.6858537  68.6505073
  29.3737091  74.2537438  60.5887830  29.8130727  73.6454539  61.0342602
  29.2241754  73.8744811  59.8173295  29.4158557  74.1075909  60.5406997
  26.8408734  72.8481450  67.7906655  27.4857737  72.3553893  67.4717604
  27.0810511  72.9906237  68.6172733  26.9719319  72.7958892  67.8656188
  29.3794825  75.6936356  67.4413548  29.6618068  74.8987762  67.2200304
  30.1080986  76.1716943  67.4618609  29.5284389  75.6470953  67.4116563
  27.3576019  63.2359390  64.6829313  27.0279349  63.6870533  64.0133012
  26.6821021  63.1575553  65.2302319  27.2086456  63.2910525  64.6652536
  32.9746428  72.6064619  57.5418599  32.8897723  73.4625586  57.6868168
  33.4630811  72.3308943  58.2100758  33.0335325  72.6921941  57.6620680
  34.5652427  59.2244913  62.9278924  34.2505868  59.9148391  63.3599346
  34.0479369  59.1689695  62.2264424  34.4416898  59.3179801  62.8875873
  33.9064861  69.2249414  59.0416334  33.3776332  69.4409047  59.7013640
  34.4289881  69.9185552  58.9617303  33.9053314  69.3592550  59.1271933
  39.3612914  74.7995718  64.4149379  38.5310617  75.0106362  64.5782795
  39.3122166  73.9732773  64.1391662  39.2319649  74.7085324  64.3986744
  25.7964469  73.1212630  57.8423802  25.2121684  73.6262662  58.2489666
  25.3934564  72.8955017  57.1020394  25.6503772  73.1620879  57.7928827
  30.2541683  69.3678282  56.3192723  30.4937687  69.5756266  55.5068066
  30.5757524  68.5635791  56.4281667  30.3378841  69.2792384  56.2153276
  25.5631973  61.2971678  60.1652261  26.3177941  61.6649995  59.9269311
  25.3859508  61.6711233  60.9331440  25.6486452  61.4069866  60.2437149
  38.8566872  67.4466119  68.2099800  38.0195293  67.5168306  68.4447394
  38.8255103  67.4490613  67.3374102  38.7285154  67.4576346  68.1159348
  25.2531601  69.5899154  73.9248169  25.4252105  69.4805049  74.7733450
  25.7900959  70.2353560  73.6879361  25.3576605  69.6691156  74.0153265
  23.9189038  63.7041997  56.8630374  23.7364611  63.9213878  56.0371366
  24.7814651  63.8181010  56.9188988  24.0193627  63.7531895  56.7484861
  23.5303470  75.5429919  64.3053361  24.3692369  75.7752852  64.3527123
  23.5615239  74.6734231  64.2360397  23.6585188  75.4486866  64.3018006
  29.5988757  60.7068408  59.8979397  30.3274918  60.5284363  59.4517554
  29.6883650  61.5486488  60.1086576  29.7195419  60.8052286  59.8632915
  33.5797058  71.6421795  63.8011691  34.3354573  72.0753310  63.8400600
  33.6859382  70.9926565  64.3746327  33.7067228  71.6099279  63.8909717
  36.6177229  75.4695072  64.5514094  36.1812461  75.4731815  65.3073066
  36.2840144  76.1500571  64.1193672  36.5039849  75.5707528  64.5994927
  36.5374712  62.5108900  66.7943522  37.1800620  62.5807005  67.3805438
  36.7897733  61.8438123  66.2923064  36.6696844  62.4235249  66.8070802
  23.4651065  66.9816170  55.3752847  22.7509242  66.6954349  55.7875279
  23.9495034  67.3212796  56.0159234  23.4310428  66.9897819  55.5308482
  24.3091924  65.7209464  71.4068096  23.6163721  65.2506443  71.6528828
  24.9252252  65.4947768  71.9809803  24.2976454  65.6176595  71.5277249
  39.7521575  72.1875992  63.4433732  40.4138009  71.6266661  63.3429640
  39.1112987  71.6928023  63.7686423  39.7550443  72.0312401  63.4766072
  30.6398383  75.4846124  55.7514655  31.0549531  75.1531148  55.0599151
  29.8090313  75.2515026  55.6234791  30.5786392  75.4017380  55.6305502
  19.9686732  72.9689865  66.0412833  19.7862305  72.9436751  65.1885125
  20.7036401  73.4388803  66.0801742  20.0500796  73.0351227  65.9210751
  36.0386406  73.2041375  63.1845720  36.2741995  73.3486574  62.3572571
  36.1875970  73.9683783  63.5777234  36.0952209  73.3380429  63.1209324
  23.0332483  69.6874868  72.5494941  23.7572456  69.6727898  73.0359836
  23.1348620  70.3970223  72.0516910  23.1550692  69.7899571  72.5473728
  37.8676863  72.0443041  61.0215324  38.1985080  72.5770681  60.4155419
  38.4409951  72.0981928  61.6777275  38.0010542  72.1312610  61.0293106
  33.0808752  69.8907943  61.7038904  33.1755606  70.6297237  62.1578530
  32.4567595  69.4625419  62.1373469  33.0017782  69.9369264  61.8347052
  19.9357642  69.8483365  66.1911899  20.5131145  69.7119816  66.8304145
  19.2371704  69.3919150  66.4457484  19.9178663  69.7605632  66.3234189
  33.3331773  71.7356683  54.9375856  33.2511936  71.8058870  55.8030843
  33.9711494  72.2986427  54.7459597  33.4151610  71.8295654  55.0365806
  26.6924944  71.5017421  64.4050383  26.4344189  70.6689156  64.3781682
  26.7473427  71.7275034  63.5642883  26.6624722  71.4115192  64.2770519
  31.7725994  63.6045872  64.5054475  31.0682321  63.1155057  64.6638394
  31.8210969  63.6168346  63.6342920  31.6756046  63.5335520  64.3993815
  25.6659656  69.0555184  64.8915277  25.0909248  69.2147352  65.5279238
  25.2895333  68.4190593  64.4283728  25.5262469  68.9852997  64.9169836
  29.3332945  67.5278533  69.7507656  28.9447378  67.1032751  69.0959847
  28.6687643  67.7760682  70.2584682  29.1779873  67.5017254  69.7295524
  38.9756214  67.2853538  62.5255486  38.7192779  66.4733479  62.3353369
  39.8185528  67.2931105  62.2985673  39.0622240  67.1665535  62.4640303
  15.4116475  68.6995258  62.9059718  15.4976727  68.3227127  63.6873248
  16.0392273  68.3255704  62.4279676  15.5173026  68.5880741  62.9505195
  33.1559307  61.2253162  67.2631640  33.5369818  60.5431333  67.6499514
  32.3522591  60.9362764  67.0807304  33.0935768  61.0820210  67.2935696
  30.4371883  71.7577137  57.9484463  31.2512522  72.0492030  57.8367234
  30.3731025  71.1037000  57.3742756  30.5474622  71.7042332  57.8473300
  26.3079792  75.2298655  63.0756775  26.9453738  74.9910402  63.6208568
  26.7334863  75.4335814  62.3409935  26.4655958  75.2249665  63.0473932
  26.9482607  70.4500945  57.4131664  27.3327759  70.2308651  58.1648209
  26.6994227  71.2763890  57.5432741  26.9684679  70.5399091  57.5432741
  27.1151147  63.7307360  77.1294248  26.8004588  64.5006923  76.8663811
  26.7941080  63.1677616  76.5446475  27.0210066  63.7617629  77.0035598
  28.6901264  75.7071078  64.7550561  28.7640272  75.5446249  65.6092411
  29.5070770  75.8961267  64.5111043  28.8217622  75.7107820  64.8448587
  24.6683044  62.1197881  62.7440445  23.8005469  62.1920481  62.8098054
  24.9558248  62.9219960  62.9328420  24.5822792  62.2492028  62.7815211
  33.7915933  62.2675741  71.0751767  34.5369525  62.0785551  70.6615192
  33.3753237  62.7933979  70.5165623  33.8400907  62.3177886  70.9316340
  41.1678204  69.6384969  66.0257272  41.7186125  69.0053038  66.2654364
  41.1522319  70.1700362  66.7172776  41.2463400  69.6233917  66.1636130
  27.8200594  73.4723566  70.5717165  27.3212288  74.1839334  70.6502053
  28.6300819  73.7924233  70.5335327  27.8656701  73.6250415  70.5773734
  24.0828712  72.7346519  64.8179886  23.7941961  72.1083991  65.3525613
  24.9512060  72.6766807  64.8844566  24.1688964  72.6334064  64.9070840
  34.8706610  67.8781303  65.1361868  34.5271376  67.1571638  65.4869117
  34.9699652  67.6695154  64.2940226  34.8348653  67.7405506  65.0633548
  24.2860985  74.3741771  60.7422251  25.0406953  74.7554810  60.9557713
  23.6931598  74.8252914  61.1968947  24.3097699  74.4970598  60.8405129
  35.3319639  74.3407007  60.6785856  35.8977672  75.0000217  60.5944399
  34.6847542  74.6856705  61.1502258  35.3198395  74.4888948  60.7358612
  26.7467652  66.3304611  75.8679463  25.9367428  66.6362391  75.7569306
  27.2242339  67.0510193  75.9832047  26.6971131  66.4819212  75.8686534
  25.6059212  75.5450332  66.1162366  25.0839966  75.6850624  66.8014231
  25.9933232  74.7860996  66.3064484  25.5862913  75.4535856  66.2463443
  22.5950396  65.5956141  60.1857321  22.3075192  65.2257411  59.4489268
  23.2820864  66.0650996  59.9241026  22.6539293  65.6103110  60.0372397
  31.8026217  77.2845791  60.1022935  31.5612893  76.5513652  59.6950000
  31.9827550  77.8332648  59.4489268  31.7933841  77.2568182  59.9453158
  27.0325538  72.5754351  61.5143857  26.8368320  73.1829085  60.9204160
  27.2559883  71.8822295  61.0335531  27.0360179  72.5631876  61.3559938
  25.4304068  69.4609089  61.6324726  26.1526720  69.6250247  61.1728532
  24.9512060  70.1818754  61.5264065  25.4667798  69.5907318  61.5490340
  33.3897575  65.7972888  67.0121411  32.5508676  65.8234167  66.7759674
  33.4601942  66.4443623  67.5926757  33.2765969  65.8969013  67.0630528
  31.8366853  62.6958265  61.7449027  32.5393206  62.4966013  61.2668985
  31.5711042  61.9234207  62.0517870  31.9013486  62.5521231  61.7194468
  37.2655099  71.0040874  64.2982652  37.1789074  71.1596300  65.1517431
  36.8105579  71.6478950  63.9242057  37.1858356  71.1216630  64.3689759
  20.1678591  66.3737353  61.0342602  20.2694727  67.1763515  61.3623577
  20.9634477  66.1724689  60.7365683  20.3006496  66.4623252  61.0377957
  26.5995410  63.9593550  70.7979907  26.4078607  63.9748684  71.6479331
  27.4494006  64.1557224  70.7746562  26.6971132  63.9907901  70.9203202
  20.9842323  66.4884531  68.7763724  20.8427815  65.6368472  68.9008232
  21.2682886  66.5313192  67.9525930  21.0050169  66.3684281  68.6731348
  31.1380915  68.3251622  62.9208212  30.8915629  68.2447372  63.7545001
  31.4666038  67.5405089  62.7270739  31.1502159  68.1977887  63.0155735
  35.0328964  75.0334981  66.7094993  34.8943323  75.7316027  67.2143736
  34.2528962  74.8783637  66.3531175  34.8972191  75.1135148  66.7321267
  27.0977942  71.0608340  72.3331195  27.2421318  71.6409548  71.6974305
  27.4453591  71.4384637  73.0381050  27.1705404  71.2029044  72.3430190
  29.2697860  70.2598508  70.1156327  28.5221174  70.4529523  69.7104605
  29.4239385  69.4343728  69.8780448  29.1820287  70.1663620  70.0201732
  36.5282337  74.3913235  57.4711492  36.1489145  73.6050373  57.4640782
  35.8648582  74.9400092  57.3283137  36.3740812  74.3558059  57.4492289
  29.5099637  64.1549059  71.0051730  29.9672251  64.8873034  71.1324523
  29.5855966  63.7315524  71.7638986  29.5890607  64.2006297  71.1352807
  21.7532628  64.4014879  72.0941174  21.2174817  63.7895237  72.4101941
  21.8150393  64.9763015  72.7474841  21.6828261  64.3961807  72.2376601
  33.9826963  57.3338934  64.8745573  34.1010531  57.7915398  64.1412876
  33.8089138  56.5284196  64.5881791  33.9746134  57.2832707  64.7246507
  27.3882015  66.1451163  67.8493554  26.5978089  65.9642623  68.1710890
  27.7842637  65.3678116  67.8323849  27.3298891  66.0038624  67.8946103
  31.8747905  74.9738937  53.2900268  32.6420891  75.0339062  52.8806120
  31.4279214  74.4019379  52.8056586  31.9221333  74.8975513  53.1577978
  32.7725701  73.7793593  65.5753000  32.0970703  73.5478826  66.0766387
  32.7818077  73.1714776  64.9495105  32.6744206  73.6552518  65.5569152
  29.9019845  68.6211422  72.3317053  29.8378986  69.4821379  72.2037190
  30.0417033  68.3043415  71.5312605  29.9135315  68.7011589  72.1945266
  34.7742436  76.6358726  57.8063178  34.8562273  77.4425712  57.4824629
  35.2592178  76.6554685  58.5303952  34.8579593  76.7579388  57.8650077
  28.5838939  71.3143562  66.4733256  28.1601188  71.5148061  65.7372274
  28.4083794  70.4672410  66.5857556  28.4949819  71.2192343  66.3806946
  23.8721384  71.8095613  61.9061229  24.0286003  71.7442416  62.7617221
  24.2121977  72.5844166  61.6939908  23.9454619  71.9144811  62.0015823
  30.4100528  71.1853497  60.7754592  30.9516074  70.6823878  61.2393212
  30.7247087  71.1318691  59.9644077  30.5364925  71.1032918  60.7238404
  28.5786978  76.5770848  58.0594620  28.6479798  75.7185387  58.1987620
  29.3575433  76.7942729  57.7313644  28.7039828  76.4823712  58.0311777
  31.5589798  66.0789801  70.8276892  31.7731767  65.4400715  70.2740246
  30.9423697  66.5235625  70.3984754  31.4995127  66.0499945  70.6827323
  20.4455645  68.9930563  62.2221996  20.8254610  69.4115108  61.5582263
  19.8711010  69.5744019  62.5290839  20.4166970  69.1408422  62.1698737
  33.7228886  67.6878866  71.7660199  32.9105568  67.3804757  71.8473372
  34.1818820  67.2077866  72.3302912  33.6709271  67.5715359  71.8614794
  33.1334140  75.5658538  62.2137144  32.7748795  75.7373181  62.9901176
  32.6472851  76.0271744  61.6565142  33.0092837  75.6597509  62.2462413
  30.9504526  59.1889737  65.8164235  30.0798084  59.1628458  65.7697545
  31.2044868  59.0166929  64.9990081  30.8598087  59.1599880  65.6884372
  27.9222506  71.2457704  54.7537378  28.2115031  72.0222586  55.0280952
  28.0094305  70.7346435  55.4551877  27.9776762  71.2849622  54.8979876
  27.9753667  61.1995965  67.2737706  27.4592156  60.5076157  67.3989285
  27.4147596  61.8666742  67.2200304  27.8160180  61.1959223  67.2843772
  30.0445900  61.7388925  69.1030558  29.6577654  61.7637957  69.8844088
  29.5578838  61.1730604  68.6505075  29.9158409  61.6584676  69.1518462
  36.0195880  68.3051580  67.7270260  35.5923488  68.2177929  66.9718360
  35.3821933  68.4129356  68.3125104  35.8625487  68.3084240  67.7015702
  29.7103042  58.6255911  71.3940818  30.3396160  59.1616211  71.1161888
  29.8788905  58.5333270  72.2454384  29.8280837  58.6917273  71.4789346
  29.5116957  63.4127105  73.6667230  30.3390386  63.1412254  73.7225844
  29.5324803  64.2087947  74.0231048  29.6369807  63.4906860  73.7282413
  24.0886447  70.5590968  66.8537490  23.2474453  70.4594842  67.0616384
  24.2976455  71.3286449  67.2051811  23.9951139  70.6583012  66.9364805
  21.5662014  68.1810505  64.6822241  21.1718712  68.2553517  63.9072351
  21.0102131  68.5668452  65.2330603  21.4264826  68.2492280  64.6489901
  33.2026961  61.1591799  64.3626120  33.4076554  61.0914107  65.2083117
  32.8753385  61.9650620  64.2947297  33.1842208  61.2677740  64.4785775
  27.9003112  68.4872367  66.1035088  27.5966249  67.9328356  66.7045495
  27.1982532  68.6664577  65.6163122  27.7519322  68.4317150  66.1204793
  26.9569209  65.7972887  60.6679790  27.2328943  65.0791800  60.2557357
  27.5567878  66.3957807  60.4600896  27.0862473  65.7793258  60.5760551
  36.4560648  61.7123563  63.8428885  35.8434962  62.1993966  64.2282617
  36.5524823  61.0367054  64.3866536  36.3798546  61.6841872  63.9807743
  30.4579729  63.4686405  58.9426385  30.9123476  63.6396965  59.6674229
  30.9319775  62.8554515  58.5424160  30.5948049  63.4037290  58.9900146
  23.9795255  72.9534731  68.2729123  23.3883188  73.5944229  68.2432138
  24.7416278  73.3772348  68.2460423  24.0043515  73.1110569  68.2644270
  24.3755877  64.1136728  68.9397141  24.8357359  64.1875658  69.6772265
  24.4211984  64.9117982  68.5896962  24.4506433  64.2430875  68.9969897
  26.0239227  64.7803423  73.5069168  25.6324792  64.1336770  73.9424946
  26.1925090  65.3714858  74.1263423  25.9910138  64.7717691  73.6631874
  33.7384771  78.4044042  65.7061148  33.5404460  78.8934857  65.0117359
  33.1172482  78.6085284  66.2845281  33.6172335  78.5060580  65.6884371
  27.7992749  70.1728939  60.0471392  28.5434794  70.5603215  60.2854342
  27.9453445  69.3286364  60.2111880  27.9303334  70.1059412  60.1065362
  29.7172325  61.9679198  65.0803253  28.8708370  62.1402006  64.9544603
  29.7143457  61.1628542  65.4169082  29.5919475  61.8740227  65.1114380
  30.7870625  65.7454412  65.9465311  30.3130579  65.2196174  66.4570622
  31.1588761  65.1983885  65.3780173  30.7720514  65.5870409  65.9380458
  21.1643655  67.7425919  71.3148857  22.0269268  67.6421628  71.2286187
  20.8335438  67.1620628  70.7534429  21.2428852  67.6417546  71.2194263
  37.0507356  70.8056788  67.3572092  36.8105579  69.9663203  67.3614518
  37.5299363  70.8856955  68.0812865  37.0859539  70.6938188  67.4646894
  32.7154125  66.6390967  59.0091065  32.1877143  66.7219711  58.3196774
  33.1749833  67.3808838  59.0055710  32.7055975  66.7611629  58.9065760
  39.0512543  67.5858245  65.3101351  38.8122313  67.5454079  64.4722135
  39.2146444  68.4329397  65.4367072  39.0402846  67.7050330  65.2054833
  24.5245441  66.5668368  67.9759275  23.8998511  66.5786760  67.3685228
  24.1891036  67.0428543  68.6250515  24.3830933  66.6386885  67.9815844
  24.7087190  64.9093486  54.0331960  24.3599994  65.5613212  54.4963510
  24.2283636  64.8950600  53.3055831  24.5857434  65.0036540  53.9943051
  32.2691207  75.2094530  58.1400722  32.9925406  75.6752643  57.9965295
  31.8291798  75.2768140  57.3898319  32.3106900  75.2878367  58.0085503
  31.4377362  72.0692073  69.3901411  30.8234355  71.5250123  69.6850046
  31.9544647  71.5556309  68.9107227  31.4233025  71.9128482  69.3625639
  30.6773660  73.1396343  67.1245710  30.2501268  72.5146061  66.6911145
  30.6698604  72.8571265  67.9504717  30.6132801  73.0049123  67.1825537
  23.7936187  68.1761516  70.1934144  23.9529673  67.4204840  70.5985866
  23.6129080  68.7252455  70.8474881  23.7901546  68.1455330  70.3496850
  31.7356490  60.3422751  70.7484933  31.2397051  60.5386426  70.0576500
  32.4925552  60.7415420  70.5773735  31.7743314  60.4300485  70.6205070
  29.0059369  64.0165097  67.3388244  29.0301856  63.4825210  66.6501024
  29.2570843  63.5082406  68.0013834  29.0469288  63.8626001  67.3352888
  25.2860691  62.7435915  66.7193988  25.3259063  63.2445122  67.4328695
  24.4610356  62.8346309  66.4499911  25.1700217  62.8317732  66.7844526
  26.7075055  69.2596425  69.0167887  25.8766985  69.4270243  68.8103135
  26.6526572  68.8832376  69.8016772  26.5764470  69.2286157  69.1016415
  24.5158838  62.7505318  74.6524298  25.1411541  62.2067451  74.9253730
  24.0609318  62.2700236  74.0832088  24.5407099  62.5994800  74.6085892
  25.0811099  67.5352017  59.5458005  25.2214060  68.0324481  60.2486646
  25.5793631  66.8338311  59.6872218  25.1752180  67.5053996  59.6709584
  25.1111321  68.4019128  56.8750582  25.7456401  68.9979553  56.8100043
  25.1936932  68.1022585  57.6896452  25.2167872  68.4460036  56.9853668
  26.6890304  64.3333103  56.8496024  27.0106145  63.8536186  56.1955286
  26.9517248  65.1432749  56.6586835  26.7756329  64.3823001  56.7251516
  29.9187277  75.3551978  70.3694840  29.4112368  75.9087824  70.8135470
  29.6213923  75.4160268  69.5513614  29.7992162  75.4458289  70.3143296
  32.0849459  63.7205297  69.2119503  32.5104530  63.2677824  68.6003029
  31.4706452  63.1665368  69.4884290  32.0578104  63.5719273  69.1624528
  21.6164309  70.5986969  60.1440128  22.1256538  71.1951476  60.5251433
  22.0898581  70.3312942  59.4616547  21.7607685  70.6472784  60.0994650
  30.5243682  60.1920397  62.6210080  29.8812000  60.0418043  63.1895218
  30.1843089  59.9462742  61.8559184  30.3788759  60.1332520  62.5913095
  35.1143028  68.1479824  62.0440088  34.4434218  68.6909526  61.9153154
  35.8082778  68.6174679  61.8021783  35.1171896  68.2978095  61.9895616
  35.2771156  64.6035707  64.9530461  35.6298766  64.1765430  65.6276260
  34.4185957  64.5186551  65.0831538  35.2020600  64.5280448  65.0725472
  23.9754841  67.2343227  63.0113308  23.2566830  67.6507360  63.2786172
  24.3467203  67.7997466  62.4604946  23.9246772  67.3792509  62.9696115
  33.2754421  67.8671076  68.9015304  33.2552349  67.6854371  69.7550083
  33.3233622  68.7383095  68.8774887  33.2789062  67.9687614  69.0238598
  29.7501415  66.2741227  58.3486687  29.1566254  66.5958224  57.7971254
  29.7876693  65.4282323  58.1407794  29.6675804  66.1965555  58.2369459
  36.7095216  59.7254119  65.8814774  36.2026080  59.0183259  65.8135951
  37.5062649  59.3947308  66.0115851  36.7522455  59.5727271  65.8913769
  32.6259232  66.2320732  61.7788438  32.3972925  66.2553433  60.9366796
  32.8857308  65.4078199  61.8983448  32.6305420  66.1136812  61.6713635
  26.9078460  68.0855205  71.3813538  26.3957363  67.4776388  71.7398569
  26.7357956  68.8011797  71.8487514  26.8068097  68.1018504  71.5029762
  25.6803994  64.7697278  63.0742633  26.1561360  65.1314358  62.4392814
  25.1792594  65.4253745  63.3542776  25.6769353  64.9191467  63.0219374
  38.9115356  74.2419046  58.8655638  39.2948961  74.9910402  59.0953735
  38.1159469  74.4884866  58.6067627  38.8509138  74.3888740  58.8613212
  30.7847530  66.0079449  73.8215793  31.3418961  65.7793259  73.1894259
  30.4608595  66.7685115  73.5451006  30.8193941  66.0863286  73.6872291
  27.7230647  66.9138478  56.4416017  28.1029612  66.9318107  55.6567132
  26.9823243  67.3592467  56.3206865  27.6699485  66.9820252  56.3079585
  35.3515938  65.2220669  62.0291596  35.3510164  65.0669325  62.8875872
  35.1472118  66.0683656  61.9732982  35.3215716  65.3241290  62.1479535
  17.4133209  68.6460453  66.4450413  17.2354970  68.1937062  67.1705328
  17.1252231  69.4486615  66.6288890  17.3446162  68.6983011  66.5793915
  33.0756790  69.9018171  65.6827803  33.5710455  69.1841166  65.6431823
  32.2656566  69.5988968  65.5682290  33.0300683  69.7515817  65.6601529
  28.5215401  73.7515984  57.8324807  27.7126724  73.4282657  57.7858117
  29.0290310  73.0449206  57.7653056  28.4765068  73.5997300  57.8155102
  19.1505679  71.1788177  63.5572172  18.2851198  71.1673868  63.4454943
  19.2504495  70.9918400  64.4043311  19.0379846  71.1494238  63.6661116
  35.1408609  72.6521858  68.3704932  35.5663680  72.1296280  67.8175357
  34.7765529  73.2502696  67.8493555  35.1495211  72.6632085  68.2113941
  31.7287208  76.3656122  64.7006089  32.1998386  77.0796385  64.8696074
  32.0647387  75.7654873  65.2365959  31.8482323  76.3827587  64.8038465
  28.6456703  61.1383593  71.6564184  28.7784609  60.3414586  71.9845159
  29.0301856  61.6649996  72.2362460  28.7213032  61.0983510  71.7907687
  31.7189058  58.0613919  68.2545277  30.9135022  57.9511649  68.5713115
  31.5895794  58.1626375  67.3975143  31.5809191  58.0597589  68.1753318
  35.1755019  64.2259411  68.8484974  34.5918008  64.7268618  68.4362541
  35.4959313  63.7188967  68.2149297  35.1368194  64.2251246  68.6943481
  27.7149818  63.1400006  59.1243649  28.5365512  63.3098319  58.8825344
  27.2519469  63.2947267  58.4009946  27.7680980  63.1881739  58.9815293
  26.3045150  61.1342768  69.9042078  26.8489563  60.7933895  70.4946419
  26.3582086  61.9928230  70.0463362  26.3934269  61.2098027  70.0123951
  31.9319481  77.1625129  67.9943123  32.7517855  77.0188095  68.2559418
  31.6513558  77.7871328  68.5359561  32.0116224  77.2335481  68.1131062
  38.3308603  78.7544698  64.6829313  38.0011933  79.2055841  64.0133012
  37.6553605  78.6760861  65.2302319  38.1819039  78.8095833  64.6652536
  45.5385011  74.7430221  62.9278924  45.2238452  75.4333699  63.3599346
  45.0211952  74.6875003  62.2264424  45.4149481  74.8365109  62.8875873
  36.5364557  76.8156986  60.1652261  37.2910525  77.1835303  59.9269311
  36.3592092  77.1896540  60.9331440  36.6219035  76.9255174  60.2437149
  34.8921622  79.2227305  56.8630374  34.7097195  79.4399186  56.0371366
  35.7547235  79.3366318  56.9188988  34.9926211  79.2717203  56.7484861
  40.5721341  76.2253716  59.8979397  41.3007501  76.0469671  59.4517554
  40.6616234  77.0671796  60.1086576  40.6928003  76.3237594  59.8632915
  35.6415628  77.6383189  62.7440445  34.7738053  77.7105789  62.8098054
  35.9290832  78.4405268  62.9328420  35.5555376  77.7677336  62.7815211
  42.8099437  78.2143573  61.7449027  43.5125790  78.0151321  61.2668985
  42.5443626  77.4419515  62.0517870  42.8746069  78.0706539  61.7194468
  44.9559546  72.8524242  64.8745573  45.0743114  73.3100706  64.1412876
  44.7821722  72.0469504  64.5881791  44.9478717  72.8018014  64.7246507
  41.9237110  74.7075045  65.8164235  41.0530668  74.6813766  65.7697545
  42.1777451  74.5352237  64.9990081  41.8330670  74.6785188  65.6884372
  41.4312313  78.9871713  58.9426385  41.8856059  79.1582273  59.6674229
  41.9052359  78.3739823  58.5424160  41.5680633  78.9222598  58.9900146
  40.6904908  77.4864506  65.0803253  39.8440953  77.6587314  64.9544603
  40.6876041  76.6813850  65.4169082  40.5652058  77.3925535  65.1114380
  37.6622888  79.8518411  56.8496024  37.9838729  79.3721494  56.1955286
  37.9249831  80.6618057  56.6586835  37.7488913  79.9008309  56.7251516
  41.4976265  75.7105705  62.6210080  40.8544583  75.5603351  63.1895218
  41.1575672  75.4648050  61.8559184  41.3521343  75.6517827  62.5913095
  38.6882402  78.6585314  59.1243649  39.5098096  78.8283627  58.8825344
  38.2252052  78.8132575  58.4009946  38.7413564  78.7067047  58.9815293
  15.1786204  15.2012188  47.8926046  15.1480209  16.0556825  48.0644315
  15.7767553  14.9007481  48.4512190  15.2623362  15.2828685  48.0000848
   8.3785889  14.2887839  52.6478977   7.5223785  14.4496338  52.6988093
   8.4253543  13.4179903  52.6684038   8.2585001  14.1838641  52.6585043
   2.7627029  23.8250557  48.4116208   2.0109928  23.4466096  48.1832253
   3.2113041  23.8568991  47.6635018   2.7176696  23.7736164  48.2673710
  11.6879606  20.5574365  62.2539433  12.3946373  20.0626396  62.3826367
  11.8767541  20.9983447  61.5242091  11.8207511  20.5492715  62.1648478
   8.2151989  24.2475927  43.8401755   7.8803357  24.9252848  43.4045977
   8.7278859  23.8581238  43.2518627   8.2417570  24.2900505  43.6888547
   7.7556280  26.1990195  49.7812867   8.1395659  26.7677094  49.2417642
   7.6915421  25.4739706  49.3018683   7.8029707  26.1765659  49.6306729
  11.2237710  16.3479883  55.2910628  11.7693670  17.0264970  55.3504598
  11.1654587  16.2067344  54.4312210  11.2953625  16.4271885  55.1722689
   4.3411785  23.8368949  50.6778981   4.4422148  23.0269303  50.9876108
   3.7453530  23.7425896  50.0478659   4.2684324  23.7033978  50.6305219
  13.0002779  17.7764490  46.1644356  12.8842305  18.5272176  46.5936494
  13.7958666  17.5188444  46.4140443  13.1007368  17.8499337  46.2648448
   4.1812525  28.7546539  52.0793837   4.8249980  29.1959703  52.4689995
   4.5068780  27.9499965  51.9924095   4.3244353  28.7011733  52.1239314
   4.8833104  21.7658513  47.4513698   5.2048946  22.3063721  46.8475006
   5.5305201  21.1955285  47.5835988   5.0259160  21.7617689  47.3820734
   6.9334812  13.7674508  47.5348085   7.6314977  13.9462636  48.0269548
   7.2487145  13.2444848  46.9118474   7.0830150  13.7168280  47.5150095
   7.1222748  20.1544953  47.5227877   7.5616383  19.5462054  47.9682649
   6.9727411  19.7752327  46.7513342   7.1644214  20.0083425  47.4747044
   4.5894391  18.7488965  54.7246702   5.2343393  18.2561408  54.4057651
   4.8296168  18.8913752  55.5512780   4.7204976  18.6966407  54.7996235
   7.1280482  21.5943871  54.3753595   7.4103725  20.7995277  54.1540350
   7.8566643  22.0724459  54.3958656   7.2770046  21.5478468  54.3456610
  10.7232084  18.5072135  44.4758646  10.6383380  19.3633101  44.6208215
  11.2116468  18.2316459  45.1440805  10.7820982  18.5929456  44.5960727
  12.3138084   5.1252428  49.8618970  11.9991525   5.8155907  50.2939393
  11.7965026   5.0697210  49.1604471  12.1902554   5.2187317  49.8215919
  11.6550518  15.1256929  45.9756381  11.1261989  15.3416562  46.6353687
  12.1775538  15.8193067  45.8957350  11.6538971  15.2600066  46.0611980
  17.1098571  20.7003233  51.3489425  16.2796274  20.9113877  51.5122842
  17.0607823  19.8740288  51.0731709  16.9805306  20.6092840  51.3326791
   3.5450125  19.0220146  44.7763849   2.9607341  19.5270177  45.1829713
   3.1420221  18.7962533  44.0360441   3.3989429  19.0628394  44.7268874
   5.1708308  23.5307087  54.1837335   4.6535250  23.1714502  53.5798643
   5.8682699  23.0069262  54.1943401   5.1973889  23.4004775  54.0967594
   8.8271900  23.9801902  60.1453508   8.9155246  23.7928042  60.9931718
   9.2561613  23.3339331  59.7458355   8.9034002  23.8564909  60.2125259
   6.3942360  23.2633062  59.1271170   5.8313195  22.8505671  59.6510831
   7.1563383  23.1885967  59.5464313   6.4236809  23.1910462  59.2664170
   8.0027340  15.2685798  43.2532769   8.2423344  15.4763781  42.4408113
   8.3243181  14.4643306  43.3621714   8.0864498  15.1799899  43.1493323
   1.9538351  25.2531083  51.7307800   2.6558931  24.7383072  51.7880557
   1.8735834  25.5805234  52.5354675   2.0462112  25.2245309  51.8580592
  16.6052529  13.3473634  55.1439847  15.7680950  13.4175821  55.3787441
  16.5740760  13.3498129  54.2714149  16.4770811  13.3583861  55.0499395
   1.2789127  21.4437435  51.2393408   2.1178026  21.6760367  51.2867170
   1.3100896  20.5741746  51.1700444   1.4070844  21.3494381  51.2358053
   1.9041830  21.8638310  55.5406714   2.4440055  21.7209441  56.2110086
   1.2211776  22.2635061  55.9090740   1.8833984  21.9017981  55.6941136
  11.3282715  17.5429310  50.7351738  12.0840230  17.9760825  50.7740647
  11.4345039  16.8934080  51.3086374  11.4552885  17.5106794  50.8249764
  14.3662886  21.3702588  51.4854141  13.9298118  21.3739330  52.2413113
  14.0325801  22.0508087  51.0533719  14.2525506  21.4715044  51.5334974
   8.9391959  23.4110921  62.8097291   9.7232376  23.5241768  63.1753034
   8.7388554  22.5852058  63.0055977   9.0257985  23.3057640  62.8931678
  14.2860369   8.4116416  53.7283569  14.9286277   8.4814520  54.3145484
  14.5383389   7.7445638  53.2263111  14.4182501   8.3242764  53.7410848
   1.2136722  12.8823685  42.3092893   0.4994899  12.5961865  42.7215326
   1.6980691  13.2220311  42.9499281   1.1796085  12.8905335  42.4648528
  17.5007232  18.0883508  50.3773778  18.1623666  17.5274176  50.2769687
  16.8598644  17.5935538  50.7026470  17.5036100  17.9319917  50.4106119
   8.3884040  21.3853639  42.6854702   8.8035188  21.0538663  41.9939197
   7.5575969  21.1522541  42.5574838   8.3272048  21.3024895  42.5645549
  13.7872063  19.1048890  50.1185767  14.0227652  19.2494089  49.2912618
  13.9361626  19.8691298  50.5117281  13.8437866  19.2387944  50.0549371
  15.6162519  17.9450556  47.9555371  15.9470737  18.4778196  47.3495466
  16.1895608  17.9989444  48.6117322  15.7496199  18.0320125  47.9633153
  10.8294409  15.7915459  48.6378951  10.9241263  16.5304753  49.0918577
  10.2053252  15.3632934  49.0713516  10.7503439  15.8376779  48.7687099
   9.0846882  18.9701671  59.2869232   9.6585744  18.3328915  59.4417796
   9.0061686  18.9705754  58.4178890   9.1580117  18.8766783  59.1815643
  11.0817430  17.6364198  41.8715903  10.9997592  17.7066386  42.7370890
  11.7197150  18.1993942  41.6799644  11.1637267  17.7303170  41.9705853
   4.4410601  17.4024936  51.3390429   4.1829845  16.5696671  51.3121729
   4.4959084  17.6282549  50.4982930   4.4110379  17.3122708  51.2110566
   9.5211651   9.5053387  51.4394522   8.8167978   9.0162573  51.5978441
   9.5696626   9.5175862  50.5682967   9.4241703   9.4343035  51.3333862
   3.4145313  14.9562699  51.8255324   2.8394904  15.1154867  52.4619285
   3.0380989  14.3198108  51.3623775   3.2748126  14.8860512  51.8509883
   7.0818602  13.4286048  56.6847703   6.6933035  13.0040266  56.0299894
   6.4173300  13.6768198  57.1924729   6.9265530  13.4024769  56.6635571
  16.7241871  13.1861053  49.4595533  16.4678436  12.3740994  49.2693415
  17.5671185  13.1938620  49.2325720  16.8107896  13.0673050  49.3980350
  10.9044963   7.1260677  54.1971687  11.2855475   6.4438848  54.5839561
  10.1008248   6.8370279  54.0147351  10.8421425   6.9827725  54.2275743
   8.1857540  17.6584653  44.8824510   8.9998179  17.9499546  44.7707281
   8.1216681  17.0044515  44.3082803   8.2960279  17.6049847  44.7813347
  14.4067030  20.3410649  59.2954085  14.1705668  19.5098714  59.1766146
  15.0510259  20.2896256  59.8808929  14.4661701  20.2108337  59.3639979
   4.0565448  21.1306170  50.0096822   4.6939395  20.8917918  50.5548615
   4.4820520  21.3343329  49.2749982   4.2141615  21.1257180  49.9813979
   4.6968263  16.3508460  44.3471711   5.0813416  16.1316167  45.0988256
   4.4479884  17.1771405  44.4772787   4.7170336  16.4406606  44.4772787
  15.4303451  20.1255098  55.3582380  15.1249268  20.8583154  55.7195695
  14.7109667  19.7193027  55.0775166  15.2790793  20.1736831  55.3695517
   6.4386920  21.6078593  51.6890608   6.5125929  21.4453765  52.5432458
   7.2556427  21.7968782  51.4451090   6.5703279  21.6115335  51.7788634
  21.1305243  16.7648098  54.6850724  21.0629743  16.7844057  53.8153311
  21.1160905  17.6078426  54.9106395  21.1183999  16.8921833  54.5903201
   4.9791506  24.5713336  46.4204081   5.2689804  24.1802317  45.6963308
   5.7094987  24.7530041  46.8609357   5.1298390  24.5407150  46.3786888
  18.9163860  15.5392485  52.9597318  19.4671782  14.9060554  53.1994410
  18.9007976  16.0707877  53.6512823  18.9949057  15.5241433  53.0976177
   5.5686251  19.3731082  57.5057212   5.0697945  20.0846850  57.5842100
   6.3786475  19.6931748  57.4675374   5.6142358  19.5257930  57.5113780
   2.9197422  26.5480718  49.4864231   2.6997717  26.2578073  50.2790898
   2.6991944  25.8895673  48.9582143   2.8545016  26.4080427  49.5253140
   1.8314369  18.6354035  51.7519933   1.5427617  18.0091506  52.2865660
   2.6997717  18.5774322  51.8184613   1.9174621  18.5341579  51.8410887
  12.6192267  13.7788818  52.0701915  12.2757032  13.0579153  52.4209164
  12.7185309  13.5702669  51.2280273  12.5834309  13.6413021  51.9973595
   5.0865377  27.9210108  48.2694923   5.7389435  27.3886551  48.4985949
   4.3890986  27.5678761  48.6562797   5.0796095  27.7899631  48.3607091
   2.0346642  20.2749286  47.6762298   2.7892610  20.6562325  47.8897760
   1.4417255  20.7260430  48.1308994   2.0583356  20.3978113  47.7745176
  13.0805296  20.2414522  47.6125903  13.6463328  20.9007732  47.5284446
  12.4333199  20.5864220  48.0842305  13.0684052  20.3896464  47.6698659
   3.3544869  21.4457847  53.0502413   2.8325622  21.5858139  53.7354278
   3.7418889  20.6868512  53.2404530   3.3348570  21.3543371  53.1803490
   9.5511874  23.1853306  47.0362982   9.3098550  22.4521167  46.6290047
   9.7313207  23.7340163  46.3829315   9.5419498  23.1575698  46.8793205
   4.7811194  18.4761866  48.4483904   4.5853977  19.0836601  47.8544207
   5.0045540  17.7829810  47.9675578   4.7845835  18.4639392  48.2899985
   3.1789724  15.3616604  48.5664773   3.9012376  15.5257762  48.1068579
   2.6997717  16.0826269  48.4604112   3.2153455  15.4914834  48.4830387
  11.1383232  11.6980403  53.9461457  10.2994333  11.7241682  53.7099721
  11.2087599  12.3451138  54.5266804  11.0251625  11.7976529  53.9970574
   0.8297341  17.7674677  57.6718912   1.3418438  18.0458930  57.0227672
   0.5433684  18.5063971  58.0381725   0.8632204  17.9177030  57.6308790
   9.5852510   8.5965780  48.6789073  10.2878863   8.3973528  48.2009032
   9.3196699   7.8241722  48.9857917   9.6499143   8.4528746  48.6534515
  15.0140756  16.9048390  51.2322699  14.9274730  17.0603816  52.0857478
  14.5591236  17.5486465  50.8582104  14.9344012  17.0224145  51.3029806
   8.8866572  14.2259137  49.8548259   8.6401286  14.1454888  50.6885048
   9.2151695  13.4412605  49.6610786   8.8987815  14.0985402  49.9495782
  12.7814621  20.9342496  53.6435040  12.6428980  21.6323542  54.1483782
  12.0014619  20.7791153  53.2871222  12.6457848  21.0142663  53.6661314
  11.1192706  17.2338872  59.8957422  11.1140744  16.3618688  59.8999848
  11.8253700  17.4327041  59.4226877  11.2237710  17.1342746  59.8264457
   4.8463599  16.9615855  59.2671242   4.9906975  17.5417064  58.6314352
   5.1939248  17.3392152  59.9721096   4.9191060  17.1036559  59.2770237
   7.0183516  16.1606024  57.0496373   6.2706831  16.3537038  56.6444651
   7.1725042  15.3351243  56.8120495   6.9305944  16.0671135  56.9541779
   3.9191354  25.1518627  56.1332269   4.0680918  24.5921543  55.4805673
   4.6991356  25.2310629  56.5164787   4.0565448  25.0804193  56.0929218
  14.2767994  20.2920750  44.4051539  13.8974802  19.5057888  44.3980829
  13.6134239  20.8407607  44.2623183  14.1226468  20.2565574  44.3832336
   6.4444655  25.3233270  57.4116759   6.3688326  24.6542081  57.9667548
   6.3734514  26.0251058  57.9257426   6.4225262  25.3278177  57.5693608
   7.1014902  23.8434269  48.2440365   7.8664793  23.5743913  47.9223030
   6.9992992  23.3584279  48.9610428   7.1996397  23.7323834  48.3020193
   5.1367671  12.0458678  54.7833601   4.3463746  11.8650139  55.1050937
   5.5328294  11.2685631  54.7663896   5.0784548  11.9046139  54.8286149
   9.6233562  20.8746453  40.2240315  10.3906547  20.9346578  39.8146167
   9.1764871  20.3026894  39.7396633   9.6706989  20.7983028  40.0918025
  10.5211358  19.6801109  52.5093047   9.8456360  19.4486341  53.0106434
  10.5303734  19.0722292  51.8835152  10.4229862  19.5560034  52.4909199
   7.6505502  14.5218938  59.2657100   7.5864643  15.3828894  59.1377237
   7.7902689  14.2050931  58.4652651   7.6620972  14.6019104  59.1285313
  12.5228092  22.5366241  44.7403225  12.6047930  23.3433227  44.4164676
  13.0077835  22.5562200  45.4643999  12.6065250  22.6586903  44.7990124
   6.3324596  17.2151077  53.4073303   5.9086845  17.4155576  52.6712321
   6.1569451  16.3679925  53.5197603   6.2435476  17.1199858  53.3146993
   5.8336289  28.7301590  55.8694760   6.3232219  28.0312379  55.6870425
   5.2620521  28.4325460  56.4570818   5.8220819  28.5827814  55.9295801
   1.6207041  17.7103128  48.8401275   1.7771660  17.6449931  49.6957268
   1.9607634  18.4851681  48.6279955   1.6940275  17.8152326  48.9355870
   8.1586185  17.0861012  47.7094639   8.7001731  16.5831393  48.1733259
   8.4732744  17.0326207  46.8984124   8.2850582  17.0040433  47.6578451
  12.0303293  21.2963659  64.8221551  12.8438158  21.0248808  64.9826683
  11.8698259  20.9971199  64.0181747  12.1273241  21.2118585  64.7266957
   6.3272635  22.4778363  44.9934667   6.3965455  21.6192902  45.1327667
   7.1061090  22.6950244  44.6653691   6.4525485  22.3831227  44.9651824
   9.3075455  11.9797316  57.7616939   9.5217424  11.3408231  57.2080293
   8.6909354  12.4243140  57.3324801   9.2480784  11.9507460  57.6167370
  10.7180122  24.9016065  49.2071160  10.3259914  24.5982780  48.4894026
  10.8733195  25.7385155  49.0176114  10.6833712  24.9799901  49.0727657
  11.4714543  13.5886382  58.7000246  10.6591224  13.2812272  58.7813419
  11.9304477  13.1085382  59.2642958  11.4194927  13.4722874  58.7954840
  10.8819797  21.4666054  49.1477191  10.5234452  21.6380696  49.9241223
  10.3958508  21.9279259  48.5905189  10.7578494  21.5605025  49.1802460
   5.6708163  17.1465219  41.6877425   5.9600687  17.9230101  41.9620999
   5.7579962  16.6353950  42.3891924   5.7262419  17.1857137  41.8319923
  12.0424537  22.3569950  60.0944391  12.6804257  21.8630145  59.7606848
  11.3998628  22.2847350  59.5096618  12.0418763  22.2728958  59.9586746
  13.7681537  14.2059095  54.6610307  13.3409145  14.1185444  53.9058407
  13.1307590  14.3136871  55.2465151  13.6111144  14.2091755  54.6355749
  12.0978793  23.0489758  56.7349748  12.8871171  22.6978823  56.8551830
  12.2722391  23.8626146  56.4726382  12.2399075  23.1175615  56.7137616
   1.8372104  16.4598484  53.7877537   0.9960110  16.3602358  53.9956431
   2.0462112  17.2293964  54.1391858   1.7436796  16.5590527  53.8704852
  10.9512617   7.0599315  51.2966167  11.1562211   6.9921622  52.1423164
  10.6239041   7.8658136  51.2287344  10.9327865   7.1685255  51.4125822
   5.6488768  14.3879883  53.0375135   5.3451906  13.8335871  53.6385542
   4.9468189  14.5672093  52.5503169   5.5004978  14.3324665  53.0544840
   4.7054866  11.6980403  47.6019836   4.9814600  10.9799315  47.1897404
   5.3053535  12.2965322  47.3940943   4.8348130  11.6800773  47.5100598
   3.7107120  21.6029603  57.7447232   3.6027474  21.6131666  58.6109290
   3.9202901  22.4284384  57.5552186   3.7257231  21.7270678  57.8451324
  14.2046305   7.6131079  50.7768932  13.5920619   8.1001481  51.1622664
  14.3010480   6.9374570  51.3206583  14.1284203   7.5849387  50.9147790
   8.2065386   9.3693920  45.8766431   8.6609133   9.5404480  46.6014276
   8.6805432   8.7562031  45.4764207   8.3433706   9.3044805  45.9240193
   1.7280911  18.8542246  55.2069170   1.1368845  19.4951744  55.1772185
   2.4901935  19.2779863  55.1800469   1.7529172  19.0118084  55.1984317
  17.8471333  18.6848016  56.2046448  17.9054457  19.1334664  56.9506425
  17.2137801  19.0946828  55.7676528  17.7622628  18.8121750  56.2498997
  11.4870428  24.3051557  52.6401194  11.2890116  24.7942372  51.9457406
  10.8658139  24.5092799  53.2185328  11.3657992  24.4068096  52.6224418
   5.5478406  16.0736454  46.9811439   6.2920451  16.4610731  47.2194389
   5.6939102  15.2293880  47.1451926   5.6788991  16.0066927  47.0405408
   8.5356282  11.6461928  52.8805358   8.0616236  11.1203690  53.3910669
   8.9074418  11.0991400  52.3120220   8.5206171  11.4877924  52.8720505
  14.7993013  16.7064303  54.2912139  14.5591235  15.8670718  54.2954565
  15.2785020  16.7864470  55.0152912  14.8345196  16.5945703  54.3986941
  10.4639782  12.5398482  45.9431112   9.9362800  12.6227226  45.2536821
  10.9235490  13.2816354  45.9395756  10.4541632  12.6619145  45.8405807
  16.7998200  13.4865760  52.2441398  16.5607970  13.4461595  51.4062182
  16.9632101  14.3336912  52.3707119  16.7888503  13.6057845  52.1394880
  13.4044230  17.8715710  58.1746443  14.1278429  17.4188236  57.9957463
  13.1394192  18.1520375  57.3918771  13.4725503  17.8466678  58.0325158
   2.2731098  12.4675883  54.9099322   1.6484168  12.4794275  54.3025275
   1.9376693  12.9436058  55.5590562   2.1316590  12.5394400  54.9155891
  10.0176864  21.1102046  45.0740769  10.7411063  21.5760159  44.9305342
   9.5777455  21.1775655  44.3238366  10.0592556  21.1885882  44.9425550
   9.1863019  17.9699588  56.3241458   8.5720012  17.4257638  56.6190093
   9.7030304  17.4563824  55.8447274   9.1718682  17.8135997  56.2965686
   8.4259316  19.0403858  54.0585756   7.9986924  18.4153577  53.6251192
   8.4184261  18.7578780  54.8844764   8.3618458  18.9056639  54.1165584
   6.7545026   9.9172613  54.2728290   6.7787513   9.3832725  53.5841070
   7.0056500   9.4089921  54.9353881   6.7954945   9.7633516  54.2692935
   4.4560712  15.1603941  55.9507934   3.6252641  15.3277759  55.7443182
   4.4012229  14.7839891  56.7356819   4.3250127  15.1293672  56.0356462
   2.8296755  13.4359532  46.4798052   2.9699717  13.9331996  47.1826693
   3.3279288  12.7345827  46.6212265   2.9237836  13.4061511  46.6049631
   2.8596978  14.3026643  43.8090628   3.4942057  14.8987068  43.7440090
   2.9422589  14.0030101  44.6236498   2.9653529  14.3467551  43.9193715
  15.8379544  16.8342121  56.6776993  16.4297384  17.4739371  56.7095191
  16.2738538  16.1365157  56.9669059  15.9897975  16.8260471  56.7257825
   4.4375961  10.2340619  43.7836070   4.7591802   9.7543701  43.1295333
   4.7002904  11.0440265  43.5926882   4.5241986  10.2830517  43.6591562
   7.6672933  21.2559493  57.3034886   7.1598025  21.8095340  57.7475517
   7.3699580  21.3167783  56.4853661   7.5477818  21.3465804  57.2483343
   9.8335116   9.6212813  56.1459549  10.2590187   9.1685339  55.5343076
   9.2192109   9.0672883  56.4224337   9.8063761   9.4726789  56.0964575
  10.2780714  25.1722751  45.2338830   9.5610024  24.9983613  44.7686067
  10.9287451  24.9375323  44.7014316  10.2682564  25.1118543  45.0868048
  12.8628685  14.0487339  48.9780135  12.1919875  14.5917041  48.8493201
  13.5568435  14.5182195  48.7361830  12.8657553  14.1985610  48.9235663
   6.9115419  26.1884051  54.2091893   6.6881073  25.4302880  54.5775920
   6.4225262  26.2182072  53.4872333   6.8058868  26.0806276  54.1568634
  13.0256812  10.5043223  51.8870508  13.3784423  10.0772946  52.5616307
  12.1671614  10.4194066  52.0171585  12.9506257  10.4287963  52.0065519
   1.7240497  13.1350743  49.9453355   1.0052487  13.5514875  50.2126218
   2.0952860  13.7004981  49.3944993   1.6732429  13.2800024  49.9036162
  11.0240078  13.7678591  55.8355351  11.0038006  13.5861887  56.6890129
  11.0719279  14.6390610  55.8114934  11.0274719  13.8695130  55.9578645
   8.9686408  20.3565783  61.7603827   8.9282263  19.7115460  61.1748983
   9.7809726  20.3002401  62.0729239   9.0829562  20.2524750  61.7200776
   5.5593876  26.4084509  51.6628978   5.1454274  25.7458640  51.2732820
   6.2441250  26.5562368  51.1424672   5.5992247  26.3325167  51.5285475
   8.9259170  25.5674595  52.4152595   8.5275453  25.6776865  51.6473415
   8.3110389  25.7756661  52.9979154   8.7758059  25.6148163  52.3883894
   7.4987072  12.1748742  45.2826734   6.9051911  12.4965739  44.7311301
   7.5362350  11.3289838  45.0747840   7.4161461  12.0973071  45.1709506
  14.4580873   5.6261635  52.8154821  13.9511737   4.9190774  52.7475998
  15.2548306   5.2954824  52.9455897  14.5008112   5.4734786  52.8253816
  10.3744888  12.1328247  48.7128484  10.1458581  12.1560948  47.8706843
  10.6342965  11.3085714  48.8323495  10.3791076  12.0144327  48.6053682
   3.4289651  10.6704793  50.0082680   3.9047017  11.0321873  49.3732861
   2.9278251  11.3261261  50.2882823   3.4255010  10.8198982  49.9559421
  16.6601013  20.1426561  45.7995685  17.0434618  20.8917917  46.0293782
  15.8645126  20.3892381  45.5407674  16.5994795  20.2896255  45.7953259
   5.4716304  12.8145993  43.3756064   5.8515269  12.8325622  42.5907179
   4.7308900  13.2599982  43.2546911   5.4185142  12.8827768  43.2419632
  13.1001595  11.1228184  48.9631643  13.0995821  10.9676841  49.8215919
  12.8957775  11.9691171  48.9073028  13.0701372  11.2248805  49.0819582
  10.8242447  15.8025686  52.6167850  11.3196112  15.0848681  52.5771870
  10.0142222  15.4996484  52.5022337  10.7786340  15.6523332  52.5941576
   6.2701058  19.6523499  44.7664854   5.4612381  19.3290173  44.7198164
   6.7775967  18.9456721  44.6993103   6.2250725  19.5004816  44.7495149
  12.8894266  18.5529374  55.3044978  13.3149337  18.0303795  54.7515403
  12.5251185  19.1510211  54.7833601  12.8980868  18.5639601  55.1453988
   2.5248345  26.8493591  54.0642324   2.8394904  27.6629979  54.0720106
   2.9341759  26.4643810  54.7324483   2.6316443  26.9122293  54.1646416
   9.4772865  22.2663638  51.6346136   9.9484043  22.9803900  51.8036121
   9.8133043  21.6662388  52.1706005   9.5967980  22.2835102  51.7378512
  11.5649850  23.8764951  63.8138208  11.6746815  23.0873512  64.1694955
  11.8940746  23.7870887  63.0112546  11.6302255  23.7470804  63.7480599
  10.1146811  22.0581572  58.3973829   9.5667757  21.4339456  58.1293894
  10.5759840  22.2475844  57.6817908  10.1014021  21.9940622  58.2524260
  12.9240676  10.1266926  55.7825021  12.3403664  10.6276133  55.3702588
  13.2444970   9.6196483  55.1489344  12.8853851  10.1258761  55.6283528
   5.4635475   9.0407521  46.0583696   6.2851169   9.2105834  45.8165391
   5.0005126   9.1954782  45.3349993   5.5166637   9.0889254  45.9155340
   9.6805138  23.0632645  54.9283170  10.5003511  22.9195611  55.1899465
   9.3999215  23.6878843  55.4699608   9.7601881  23.1342997  55.0471109
  26.1518788  30.7197496  47.8926046  26.1212792  31.5742133  48.0644315
  26.7500137  30.4192789  48.4512190  26.2355946  30.8013993  48.0000848
  19.3518473  29.8073147  52.6478977  18.4956368  29.9681646  52.6988093
  19.3986127  28.9365211  52.6684038  19.2317584  29.7023949  52.6585043
  13.7359613  39.3435865  48.4116208  12.9842512  38.9651404  48.1832253
  14.1845624  39.3754299  47.6635018  13.6909279  39.2921472  48.2673710
  22.6612189  36.0759673  62.2539433  23.3678957  35.5811704  62.3826367
  22.8500125  36.5168754  61.5242091  22.7940095  36.0678023  62.1648478
  19.1884572  39.7661235  43.8401755  18.8535941  40.4438156  43.4045977
  19.7011443  39.3766546  43.2518627  19.2150154  39.8085813  43.6888547
  18.7288864  41.7175503  49.7812867  19.1128243  42.2862402  49.2417642
  18.6648005  40.9925014  49.3018683  18.7762291  41.6950967  49.6306729
  22.1970294  31.8665191  55.2910628  22.7426254  32.5450278  55.3504598
  22.1387170  31.7252652  54.4312210  22.2686208  31.9457193  55.1722689
  15.3144369  39.3554257  50.6778981  15.4154732  38.5454611  50.9876108
  14.7186114  39.2611204  50.0478659  15.2416907  39.2219285  50.6305219
  23.9735362  33.2949798  46.1644356  23.8574888  34.0457484  46.5936494
  24.7691249  33.0373752  46.4140443  24.0739952  33.3684645  46.2648448
  15.1545108  44.2731847  52.0793837  15.7982564  44.7145011  52.4689995
  15.4801364  43.4685273  51.9924095  15.2976937  44.2197041  52.1239314
   8.5109413  35.3774544  50.3031314   8.2759597  34.5442196  50.1963583
   8.6495054  35.6579210  49.4892515   8.4965075  35.2958047  50.1673669
  10.8099500  27.5460275  53.2015622  10.1904532  26.9552922  53.0325637
  10.7083364  28.1371710  52.5679945  10.7037176  27.5464357  53.0820611
  15.8565688  37.2843821  47.4513698  16.1781529  37.8249029  46.8475006
  16.5037785  36.7140593  47.5835988  15.9991743  37.2802997  47.3820734
  17.9067396  29.2859816  47.5348085  18.6047561  29.4647944  48.0269548
  18.2219729  28.7630156  46.9118474  18.0562733  29.2353588  47.5150095
  10.5368633  31.0912556  55.4459191  10.4127330  31.6775002  56.0809010
  11.1886918  30.5972752  55.7471466  10.6142283  31.1051361  55.5845120
  18.0955331  35.6730261  47.5227877  18.5348967  35.0647362  47.9682649
  17.9459994  35.2937635  46.7513342  18.1376797  35.5268732  47.4747044
  15.5626974  34.2674273  54.7246702  16.2075977  33.7746716  54.4057651
  15.8028752  34.4099060  55.5512780  15.6937560  34.2151715  54.7996235
  18.1013066  37.1129179  54.3753595  18.3836309  36.3180585  54.1540350
  18.8299226  37.5909766  54.3958656  18.2502630  37.0663776  54.3456610
  16.0794260  24.6552213  51.6169360  15.7497590  25.1063357  50.9473058
  15.4039261  24.5768376  52.1642366  15.9304696  24.7103348  51.5992583
  21.6964668  34.0257443  44.4758646  21.6115963  34.8818409  44.6208215
  22.1849051  33.7501767  45.1440805  21.7553565  34.1114764  44.5960727
  23.2870667  20.6437736  49.8618970  22.9724108  21.3341214  50.2939393
  22.7697609  20.5882518  49.1604471  23.1635138  20.7372624  49.8215919
  22.6283101  30.6442237  45.9756381  22.0994573  30.8601870  46.6353687
  23.1508121  31.3378375  45.8957350  22.6271554  30.7785374  46.0611980
  14.5182709  34.5405454  44.7763849  13.9339924  35.0455485  45.1829713
  14.1152804  34.3147840  44.0360441  14.3722013  34.5813702  44.7268874
  10.0726738  40.2560215  51.5787520   9.5894316  40.9810704  51.5547104
  10.8850056  40.5536345  51.6897678  10.1217485  40.4062568  51.5914800
  16.1440892  39.0492395  54.1837335  15.6267833  38.6899810  53.5798643
  16.8415283  38.5254570  54.1943401  16.1706473  38.9190083  54.0967594
  19.8004484  39.4987209  60.1453508  19.8887830  39.3113350  60.9931718
  20.2294196  38.8524639  59.7458355  19.8766586  39.3750217  60.2125259
  17.3674943  38.7818369  59.1271170  16.8045778  38.3690979  59.6510831
  18.1295967  38.7071275  59.5464313  17.3969392  38.7095770  59.2664170
  18.9759923  30.7871106  43.2532769  19.2155927  30.9949089  42.4408113
  19.2975764  29.9828614  43.3621714  19.0597081  30.6985207  43.1493323
  14.2850214  22.7164501  47.0992307  15.0396182  23.0842818  46.8609358
  14.1077748  23.0904056  47.8671487  14.3704692  22.8262689  47.1777196
  12.9270935  40.7716391  51.7307800  13.6291514  40.2568380  51.7880557
  12.8468418  41.0990542  52.5354675  13.0194695  40.7430617  51.8580592
  27.5785112  28.8658942  55.1439847  26.7413534  28.9361129  55.3787441
  27.5473343  28.8683437  54.2714149  27.4503395  28.8769169  55.0499395
  13.9749841  31.0091978  60.8588215  14.1470345  30.8997872  61.7073497
  14.5119199  31.6546383  60.6219408  14.0794845  31.0883979  60.9493312
  12.6407278  25.1234820  43.7970420  12.4582852  25.3406701  42.9711413
  13.5032891  25.2373833  43.8529035  12.7411868  25.1724718  43.6824907
  12.2521710  36.9622743  51.2393408  13.0910610  37.1945675  51.2867170
  12.2833480  36.0927054  51.1700444  12.3803428  36.8679689  51.2358053
  12.8774413  37.3823618  55.5406714  13.4172638  37.2394749  56.2110086
  12.1944360  37.7820369  55.9090740  12.8566567  37.4203289  55.6941136
  18.3206998  22.1261231  46.8319444  19.0493158  21.9477186  46.3857600
  18.4101890  22.9679311  47.0426622  18.4413660  22.2245109  46.7972962
  22.3015298  33.0614618  50.7351738  23.0572813  33.4946133  50.7740647
  22.4077623  32.4119388  51.3086374  22.4285469  33.0292102  50.8249764
  25.3395469  36.8887896  51.4854141  24.9030701  36.8924638  52.2413113
  25.0058385  37.5693395  51.0533719  25.2258089  36.9900351  51.5334974
  19.9124543  38.9296229  62.8097291  20.6964960  39.0427076  63.1753034
  19.7121138  38.1037366  63.0055977  19.9990568  38.8242948  62.8931678
   8.2811558  33.6023909  55.6941135   8.0149974  32.7863025  55.8532126
   8.2950123  33.6477064  54.8236651   8.2436281  33.4880813  55.5894617
  25.2592952  23.9301723  53.7283569  25.9018861  23.9999828  54.3145484
  25.5115973  23.2630946  53.2263111  25.3915084  23.8428072  53.7410848
  12.1869305  28.4008993  42.3092893  11.4727483  28.1147173  42.7215326
  12.6713274  28.7405619  42.9499281  12.1528669  28.4090643  42.4648528
  13.0310165  27.1402287  58.3408143  12.3381962  26.6699267  58.5868875
  13.6470492  26.9140591  58.9149850  13.0194695  27.0369419  58.4617296
  20.0694936  40.8406331  56.4563747  19.2710182  40.6005831  56.7137616
  20.5180948  40.8920723  57.2030795  20.0169548  40.8128722  56.6048671
  19.3616623  36.9038947  42.6854702  19.7767772  36.5723971  41.9939197
  18.5308553  36.6707849  42.5574838  19.3004632  36.8210203  42.5645549
   8.6904972  34.3882688  52.9752880   8.5080545  34.3629574  52.1225172
   9.4254641  34.8581626  53.0141788   8.7719036  34.4544050  52.8550798
  24.7604646  34.6234198  50.1185767  24.9960235  34.7679397  49.2912618
  24.9094210  35.3876606  50.5117281  24.8170450  34.7573252  50.0549371
  11.7550724  31.1067691  59.4834988  12.4790696  31.0920722  59.9699883
  11.8566860  31.8163046  58.9856956  11.8768933  31.2092394  59.4813775
  26.5895103  33.4635864  47.9555371  26.9203320  33.9963504  47.3495466
  27.1628191  33.5174752  48.6117322  26.7228782  33.5505433  47.9633153
  19.1295673  34.5866775  64.3483935  18.3368654  34.9010287  64.5336555
  19.2444600  34.8018244  63.5104720  19.0291084  34.6650612  64.2522270
  21.8026992  31.3100767  48.6378951  21.8973847  32.0490061  49.0918577
  21.1785836  30.8818242  49.0713516  21.7236022  31.3562087  48.7687099
  20.0579466  34.4886979  59.2869232  20.6318328  33.8514223  59.4417796
  19.9794270  34.4891062  58.4178890  20.1312701  34.3952091  59.1815643
   8.6575882  31.2676189  53.1251946   9.2349385  31.1312639  53.7644192
   7.9589944  30.8111973  53.3797531   8.6396904  31.1798455  53.2574236
  22.0550013  33.1549506  41.8715903  21.9730176  33.2251694  42.7370890
  22.6929734  33.7179250  41.6799644  22.1369851  33.2488477  41.9705853
  15.4143185  32.9210244  51.3390429  15.1562429  32.0881979  51.3121729
  15.4691667  33.1467857  50.4982930  15.3842962  32.8308016  51.2110566
  20.4944235  25.0238695  51.4394522  19.7900561  24.5347881  51.5978441
  20.5429209  25.0361169  50.5682967  20.3974286  24.9528343  51.3333862
  14.3877897  30.4748007  51.8255324  13.8127488  30.6340175  52.4619285
  14.0113573  29.8383416  51.3623775  14.2480709  30.4045820  51.8509883
  18.0551185  28.9471356  56.6847703  17.6665618  28.5225574  56.0299894
  17.3905884  29.1953506  57.1924729  17.8998113  28.9210077  56.6635571
  27.6974455  28.7046361  49.4595533  27.4411019  27.8926302  49.2693415
  28.5403768  28.7123928  49.2325720  27.7840480  28.5858358  49.3980350
   4.1334716  30.1188082  49.8399765   4.2194967  29.7419950  50.6213295
   4.7610513  29.7448527  49.3619723   4.2391267  30.0073564  49.8845242
  21.8777547  22.6445985  54.1971687  22.2588059  21.9624156  54.5839561
  21.0740831  22.3555587  54.0147351  21.8154009  22.5013033  54.2275743
  19.1590124  33.1769961  44.8824510  19.9730762  33.4684853  44.7707281
  19.0949265  32.5229823  44.3082803  19.2692863  33.1235155  44.7813347
  25.3799614  35.8595957  59.2954085  25.1438251  35.0284022  59.1766146
  26.0242843  35.8081564  59.8808929  25.4394285  35.7293645  59.3639979
  15.0298032  36.6491478  50.0096822  15.6671979  36.4103226  50.5548615
  15.4553103  36.8528637  49.2749982  15.1874198  36.6442488  49.9813979
   9.7210674  38.8879815  53.8931125   9.7614820  39.1594666  53.0650905
  10.2805198  39.4121723  54.3088913   9.8094020  39.0055570  53.8323014
  15.6700847  31.8693768  44.3471711  16.0546000  31.6501475  45.0988256
  15.4212467  32.6956713  44.4772787  15.6902920  31.9591914  44.4772787
  15.8369387  25.1500183  64.0634295  15.5222828  25.9199746  63.8003858
  15.5159320  24.5870439  63.4786522  15.7428306  25.1810452  63.9375645
  17.4119504  37.1263901  51.6890608  17.4858512  36.9639073  52.5432458
  18.2289010  37.3154090  51.4451090  17.5435862  37.1300643  51.7788634
  11.1725261  37.4721764  48.7185051  10.3463378  37.7183501  48.5919330
  11.2337252  37.3933844  49.5847109  11.0599428  37.4966713  48.8273996
  13.3901284  23.5390705  49.6780492  12.5223710  23.6113304  49.7438101
  13.6776489  24.3412784  49.8668467  13.3041032  23.6684852  49.7155258
  22.5134173  23.6868564  58.0091813  23.2587765  23.4978374  57.5955239
  22.0971478  24.2126802  57.4505670  22.5619147  23.7370709  57.8656387
  15.9524090  40.0898644  46.4204081  16.2422388  39.6987625  45.6963308
  16.6827570  40.2715349  46.8609357  16.1030974  40.0592458  46.3786888
  16.5418835  34.8916390  57.5057212  16.0430528  35.6032157  57.5842100
  17.3519059  35.2117056  57.4675374  16.5874941  35.0443238  57.5113780
  13.8930005  42.0666026  49.4864231  13.6730301  41.7763381  50.2790898
  13.6724527  41.4080981  48.9582143  13.8277599  41.9265735  49.5253140
  12.8046952  34.1539343  51.7519933  12.5160201  33.5276814  52.2865660
  13.6730300  34.0959630  51.8184613  12.8907204  34.0526887  51.8410887
  23.5924850  29.2974126  52.0701915  23.2489616  28.5764461  52.4209164
  23.6917893  29.0887977  51.2280273  23.5566893  29.1598329  51.9973595
  16.0597961  43.4395416  48.2694923  16.7122019  42.9071858  48.4985949
  15.3623570  43.0864068  48.6562797  16.0528679  43.3084939  48.3607091
  13.0079226  35.7934594  47.6762298  13.7625194  36.1747633  47.8897760
  12.4149838  36.2445737  48.1308994  13.0315939  35.9163421  47.7745176
  24.0537879  35.7599830  47.6125903  24.6195912  36.4193040  47.5284446
  23.4065783  36.1049528  48.0842305  24.0416636  35.9081772  47.6698659
  15.4685893  27.7497434  62.8019510  14.6585668  28.0555214  62.6909352
  15.9460579  28.4703016  62.9172094  15.4189372  27.9012035  62.8026581
  14.3277452  36.9643155  53.0502413  13.8058206  37.1043447  53.7354278
  14.7151473  36.2053819  53.2404530  14.3081153  36.8728679  53.1803490
  11.3168636  27.0148964  47.1197368  11.0293432  26.6450234  46.3829315
  12.0039105  27.4843819  46.8581073  11.3757534  27.0295933  46.9712444
  20.5244457  38.7038614  47.0362982  20.2831133  37.9706475  46.6290047
  20.7045790  39.2525471  46.3829315  20.5152081  38.6761006  46.8793205
  15.7543778  33.9947174  48.4483904  15.5586561  34.6021909  47.8544207
  15.9778124  33.3015118  47.9675578  15.7578419  33.9824700  48.2899985
  14.1522308  30.8801912  48.5664773  14.8744960  31.0443070  48.1068579
  13.6730301  31.6011577  48.4604112  14.1886039  31.0100142  48.4830387
  22.1115816  27.2165711  53.9461457  21.2726916  27.2426990  53.7099721
  22.1820183  27.8636446  54.5266804  21.9984209  27.3161837  53.9970574
  11.8029925  33.2859984  57.6718912  12.3151022  33.5644238  57.0227672
  11.5166267  34.0249279  58.0381725  11.8364788  33.4362338  57.6308790
  20.5585094  24.1151088  48.6789073  21.2611447  23.9158836  48.2009032
  20.2929283  23.3427030  48.9857917  20.6231726  23.9714054  48.6534515
   8.8896831  27.7930176  47.9682649   8.9912967  28.5956338  48.2963624
   9.6852718  27.5917512  47.6705729   9.0224737  27.8816075  47.9718004
  15.3213650  25.3786373  57.7319954  15.1296847  25.3941508  58.5819377
  16.1712246  25.5750047  57.7086609  15.4189372  25.4100724  57.8543249
   9.7060563  27.9077355  55.7103770   9.5646055  27.0561295  55.8348278
   9.9901126  27.9506015  54.8865976   9.7268409  27.7877105  55.6071395
  19.8599155  29.7444445  49.8548259  19.6133870  29.6640196  50.6885048
  20.1884279  28.9597913  49.6610786  19.8720399  29.6170710  49.9495782
  23.7547204  36.4527804  53.6435040  23.6161564  37.1508850  54.1483782
  22.9747202  36.2976461  53.2871222  23.6190431  36.5327971  53.6661314
  22.0925289  32.7524179  59.8957422  22.0873328  31.8803996  59.8999848
  22.7986283  32.9512349  59.4226877  22.1970293  32.6528054  59.8264457
  15.8196183  32.4801163  59.2671242  15.9639558  33.0602372  58.6314352
  16.1671831  32.8577460  59.9721096  15.8923644  32.6221867  59.2770237
  17.9916100  31.6791332  57.0496373  17.2439414  31.8722346  56.6444651
  18.1457625  30.8536551  56.8120495  17.9038528  31.5856443  56.9541779
  14.8923938  40.6703935  56.1332269  15.0413501  40.1106851  55.4805673
  15.6723940  40.7495937  56.5164787  15.0298031  40.5989501  56.0929218
  25.2500577  35.8106058  44.4051539  24.8707386  35.0243196  44.3980829
  24.5866823  36.3592915  44.2623183  25.0959052  35.7750882  44.3832336
  17.4177238  40.8418578  57.4116759  17.3420909  40.1727389  57.9667548
  17.3467097  41.5436366  57.9257426  17.3957845  40.8463485  57.5693608
  18.2317877  25.5741882  57.9391777  18.6890491  26.3065857  58.0664569
  18.3074206  25.1508348  58.6979033  18.3108847  25.6199121  58.0692854
  10.4750868  25.8207702  59.0281221   9.9393058  25.2088060  59.3441988
  10.5368633  26.3955838  59.6814887  10.4046501  25.8154630  59.1716648
  22.7045203  18.7531758  51.8085620  22.8228771  19.2108221  51.0752923
  22.5307379  17.9477019  51.5221838  22.6964374  18.7025530  51.6586554
  18.0747485  39.3619577  48.2440365  18.8397376  39.0929221  47.9223030
  17.9725575  38.8769587  48.9610428  18.1728981  39.2509142  48.3020193
  16.1100255  27.5643986  54.7833601  15.3196330  27.3835446  55.1050937
  16.5060878  26.7870939  54.7663896  16.0517131  27.4231447  54.8286149
  21.4943941  35.1986417  52.5093047  20.8188943  34.9671649  53.0106434
  21.5036317  34.5907599  51.8835152  21.3962446  35.0745342  52.4909199
  18.6238085  30.0404245  59.2657100  18.5597227  30.9014202  59.1377237
  18.7635273  29.7236239  58.4652651  18.6353555  30.1204412  59.1285313
  17.3057179  32.7336385  53.4073303  16.8819428  32.9340884  52.6712321
  17.1302034  31.8865233  53.5197603  17.2168060  32.6385166  53.3146993
  16.8068873  44.2486898  55.8694760  17.2964803  43.5497687  55.6870425
  16.2353105  43.9510768  56.4570818  16.7953403  44.1013121  55.9295801
  12.5939624  33.2288436  48.8401275  12.7504243  33.1635239  49.6957268
  12.9340217  34.0036989  48.6279955  12.6672859  33.3337634  48.9355870
  19.1318769  32.6046320  47.7094639  19.6734314  32.1016701  48.1733259
  19.4465328  32.5511515  46.8984124  19.2583166  32.5225741  47.6578451
  23.0035876  36.8148967  64.8221551  23.8170741  36.5434116  64.9826683
  22.8430843  36.5156507  64.0181747  23.1005825  36.7303893  64.7266957
  17.3005218  37.9963671  44.9934667  17.3698039  37.1378210  45.1327667
  18.0793674  38.2135552  44.6653691  17.4258069  37.9016535  44.9651824
  20.2808038  27.4982624  57.7616939  20.4950008  26.8593539  57.2080293
  19.6641937  27.9428448  57.3324801  20.2213367  27.4692768  57.6167370
  21.6912706  40.4201373  49.2071160  21.2992498  40.1168088  48.4894026
  21.8465778  41.2570463  49.0176114  21.6566296  40.4985209  49.0727657
   9.1673886  30.4123387  49.1562043   9.5472851  30.8307932  48.4922310
   8.5929250  30.9936842  49.4630886   9.1385211  30.5601246  49.1038784
  22.4447126  29.1071690  58.7000246  21.6323808  28.7997580  58.7813419
  22.9037061  28.6270690  59.2642958  22.3927511  28.9908182  58.7954840
  21.8552381  36.9851362  49.1477191  21.4967036  37.1566004  49.9241223
  21.3691092  37.4464567  48.5905189  21.7311078  37.0790333  49.1802460
  19.6722767  20.6082560  52.7504282  18.8016325  20.5821281  52.7037591
  19.9263108  20.4359752  51.9330128  19.5816327  20.5792704  52.6224419
  16.6440746  32.6650527  41.6877425  16.9333271  33.4415409  41.9620999
  16.7312545  32.1539258  42.3891924  16.6995002  32.7042445  41.8319923
  19.5400634  30.5131761  63.4828949  20.0100265  31.1373877  63.8696823
  19.5862514  29.8448737  64.0422163  19.6168510  30.5066441  63.6229020
  16.6971907  22.6188788  54.2077752  16.1810396  21.9268980  54.3329331
  16.1365836  23.2859565  54.1540351  16.5378421  22.6152046  54.2183818
  18.7664141  23.1581748  56.0370605  18.3795894  23.1830780  56.8184135
  18.2797078  22.5923427  55.5845122  18.6376650  23.0777499  56.0858509
  23.0157120  37.8755257  60.0944391  23.6536841  37.3815453  59.7606848
  22.3731212  37.8032658  59.5096618  23.0151347  37.7914266  59.9586746
  24.7414120  29.7244403  54.6610307  24.3141728  29.6370752  53.9058407
  24.1040173  29.8322179  55.2465151  24.5843728  29.7277063  54.6355749
  18.4321283  20.0448734  58.3280865  19.0614400  20.5809034  58.0501935
  18.6007145  19.9526093  59.1794430  18.5499077  20.1110096  58.4129393
  18.2335197  24.8319929  60.6007276  19.0608627  24.5605078  60.6565891
  18.2543043  25.6280770  60.9571095  18.3588047  24.9099683  60.6622459
  23.0711377  38.5675066  56.7349748  23.8603755  38.2164130  56.8551830
  23.2454975  39.3811454  56.4726382  23.2131658  38.6360923  56.7137616
  12.8104687  31.9783791  53.7877537  11.9692694  31.8787666  53.9956431
  13.0194695  32.7479272  54.1391858  12.7169380  32.0775835  53.8704852
  10.2880254  29.6003328  51.6162288   9.8936952  29.6746340  50.8412397
   9.7320371  29.9861275  52.1670649  10.1483067  29.6685103  51.5829948
  21.9245201  22.5784622  51.2966167  22.1294794  22.5106930  52.1423164
  21.5971625  23.3843444  51.2287344  21.9060449  22.6870563  51.4125822
  16.6221352  29.9065191  53.0375135  16.3184490  29.3521179  53.6385542
  15.9200773  30.0857401  52.5503169  16.4737562  29.8509973  53.0544840
  15.6787449  27.2165710  47.6019836  15.9547184  26.4984623  47.1897404
  16.2786118  27.8150630  47.3940943  15.8080714  27.1986081  47.5100598
  14.6839703  37.1214911  57.7447232  14.5760058  37.1316974  58.6109290
  14.8935485  37.9469692  57.5552186  14.6989814  37.2455986  57.8451324
  25.1778889  23.1316387  50.7768932  24.5653202  23.6186789  51.1622664
  25.2743064  22.4559878  51.3206583  25.1016786  23.1034695  50.9147790
  19.1797970  24.8879228  45.8766431  19.6341716  25.0589788  46.6014276
  19.6538015  24.2747339  45.4764207  19.3166290  24.8230113  45.9240193
  12.7013495  34.3727554  55.2069170  12.1101428  35.0137052  55.1772185
  13.4634519  34.7965171  55.1800469  12.7261756  34.5303392  55.1984317
  13.0974118  25.5329552  55.8737188  13.5575599  25.6068481  56.6112311
  13.1430225  26.3310806  55.5237009  13.1724673  25.6623699  55.9309944
  14.7457468  26.1996246  60.4409215  14.3543033  25.5529594  60.8764992
  14.9143330  26.7907682  61.0603470  14.7128378  26.1910514  60.5971921
  22.4603011  39.8236865  52.6401194  22.2622700  40.3127680  51.9457406
  21.8390722  40.0278107  53.2185328  22.3390576  39.9253404  52.6224418
  16.5210990  31.5921762  46.9811439  17.2653035  31.9796038  47.2194389
  16.6671686  30.7479188  47.1451926  16.6521575  31.5252235  47.0405408
  18.4390565  23.3872021  52.0143300  17.5926610  23.5594829  51.8884650
  18.4361698  22.5821365  52.3509128  18.3137715  23.2933050  52.0454427
  19.5088866  27.1647235  52.8805358  19.0348820  26.6388998  53.3910669
  19.8807001  26.6176708  52.3120220  19.4938754  27.0063232  52.8720505
   9.8861896  29.1618742  58.2488904  10.7487509  29.0614451  58.1626234
   9.5553679  28.5813451  57.6874476   9.9647092  29.0610369  58.1534310
  21.4372365  28.0583790  45.9431112  20.9095384  28.1412534  45.2536821
  21.8968073  28.8001662  45.9395756  21.4274216  28.1804452  45.8405807
  27.7730783  29.0051068  52.2441398  27.5340553  28.9646903  51.4062182
  27.9364684  29.8522220  52.3707119  27.7621087  29.1243153  52.1394880
  24.3776813  33.3901018  58.1746443  25.1011012  32.9373544  57.9957463
  24.1126776  33.6705683  57.3918771  24.4458087  33.3651986  58.0325158
  13.2463682  27.9861191  54.9099322  12.6216752  27.9979583  54.3025275
  12.9109277  28.4621366  55.5590562  13.1049173  28.0579708  54.9155891
  13.4305430  26.3286310  40.9672007  13.0818235  26.9806035  41.4303556
  12.9501876  26.3143423  40.2395878  13.3075674  26.4229363  40.9283098
   9.9589357  36.0461651  56.3503086   9.4289282  35.3554090  56.3998061
  10.2314451  36.0371837  55.5215795   9.9214080  35.9428783  56.2350502
  20.9909448  36.6287354  45.0740769  21.7143647  37.0945467  44.9305342
  20.5510039  36.6960963  44.3238366  21.0325140  36.7071190  44.9425550
  20.1595603  33.4884896  56.3241458  19.5452596  32.9442946  56.6190093
  20.6762888  32.9749132  55.8447274  20.1451265  33.3321305  56.2965686
  19.3991900  34.5589166  54.0585756  18.9719508  33.9338885  53.6251192
  19.3916844  34.2764088  54.8844764  19.3351041  34.4241947  54.1165584
  12.5154427  29.5954339  57.1274190  12.6747914  28.8397663  57.5325912
  12.3347321  30.1445279  57.7814928  12.5119786  29.5648153  57.2836896
  20.4574730  21.7615575  57.6824980  19.9615291  21.9579249  56.9916547
  21.2143792  22.1608243  57.5113782  20.4961555  21.8493308  57.5545117
  17.7277610  25.4357920  54.2728290  17.7520097  24.9018033  53.5841070
  17.9789083  24.9275229  54.9353881  17.7687528  25.2818824  54.2692935
   5.2385199  32.7189415  53.7071435   5.1328649  32.6736260  52.8423519
   4.4885419  33.0643196  53.9885719   5.1120802  32.7630324  53.6208764
  14.0078932  24.1628739  53.6534035  14.0477303  24.6637945  54.3668742
  13.1828596  24.2539132  53.3839958  13.8918458  24.2510555  53.7184573
  16.1908545  33.7289479  61.7554329  15.3404175  33.8661193  61.8911974
  16.3536672  32.9953257  62.2002031  16.0892408  33.6403580  61.8409929
  15.4293295  30.6789249  55.9507934  14.5985225  30.8463067  55.7443182
  15.3744812  30.3025199  56.7356819  15.2982710  30.6478980  56.0356462
  13.2377078  24.1698141  61.5864345  13.8629782  23.6260274  61.8593777
  12.7827558  23.6893059  61.0172135  13.2625339  24.0187623  61.5425938
  13.8029339  28.9544840  46.4798052  13.9432300  29.4517304  47.1826693
  14.3011872  28.2531134  46.6212265  13.8970420  28.9246819  46.6049631
  13.8329561  29.8211951  43.8090628  14.4674641  30.4172376  43.7440090
  13.9155172  29.5215409  44.6236498  13.9386112  29.8652859  43.9193715
  26.8112127  32.3527428  56.6776993  27.4029967  32.9924679  56.7095191
  27.2471122  31.6550465  56.9669059  26.9630558  32.3445779  56.7257825
  15.4108544  25.7525927  43.7836070  15.7324385  25.2729009  43.1295333
  15.6735488  26.5625573  43.5926882  15.4974570  25.8015824  43.6591562
  18.6405517  36.7744801  57.3034886  18.1330608  37.3280648  57.7475517
  18.3432163  36.8353091  56.4853661  18.5210402  36.8651112  57.2483343
  20.8067699  25.1398121  56.1459549  21.2322771  24.6870647  55.5343076
  20.1924692  24.5858191  56.4224337  20.7796345  24.9912097  56.0964575
  10.3382549  32.0179792  47.0780174  10.8474779  32.6144299  47.4591480
  10.8116822  31.7505766  46.3956594  10.4825925  32.0665607  47.0334697
  21.2513297  40.6908059  45.2338830  20.5342607  40.5168921  44.7686067
  21.9020035  40.4560631  44.7014316  21.2415148  40.6303851  45.0868048
  19.2461922  21.6113220  49.5550126  18.6030240  21.4610867  50.1235265
  18.9061329  21.3655566  48.7899231  19.1006999  21.5525343  49.5253142
  23.8361269  29.5672647  48.9780135  23.1652458  30.1102349  48.8493201
  24.5301019  30.0367502  48.7361830  23.8390136  29.7170918  48.9235663
  17.8848002  41.7069359  54.2091893  17.6613657  40.9488188  54.5775920
  17.3957846  41.7367380  53.4872333  17.7791451  41.5991584  54.1568634
  23.9989396  26.0228531  51.8870508  24.3517006  25.5958254  52.5616307
  23.1404198  25.9379374  52.0171585  23.9238841  25.9473271  52.0065519
  12.6973081  28.6536050  49.9453355  11.9785070  29.0700183  50.2126218
  13.0685443  29.2190289  49.3944993  12.6465013  28.7985332  49.9036162
  21.9972662  29.2863899  55.8355351  21.9770589  29.1047195  56.6890129
  22.0451863  30.1575918  55.8114934  22.0007303  29.3880438  55.9578645
  19.9418992  35.8751091  61.7603827  19.9014847  35.2300768  61.1748983
  20.7542310  35.8187709  62.0729239  20.0562145  35.7710058  61.7200776
  16.5326459  41.9269817  51.6628978  16.1186858  41.2643947  51.2732820
  17.2173834  42.0747676  51.1424672  16.5724831  41.8510475  51.5285475
  19.8991753  41.0859903  52.4152595  19.5008037  41.1962173  51.6473415
  19.2842973  41.2941969  52.9979154  19.7490643  41.1333471  52.3883894
  18.4719655  27.6934050  45.2826734  17.8784495  28.0151047  44.7311301
  18.5094933  26.8475146  45.0747840  18.3894045  27.6158379  45.1709506
  25.4313456  21.1446943  52.8154821  24.9244321  20.4376082  52.7475998
  26.2280890  20.8140131  52.9455897  25.4740695  20.9920094  52.8253816
  21.3477472  27.6513555  48.7128484  21.1191165  27.6746256  47.8706843
  21.6075548  26.8271022  48.8323495  21.3523660  27.5329635  48.6053682
  15.6296700  29.5048028  58.3153585  15.1175604  28.8969211  58.6738616
  15.4576197  30.2204620  58.7827560  15.5286337  29.5211327  58.4369808
  10.4762415  27.9485603  60.9655946  10.3065005  28.6086978  60.4204153
  10.0328365  28.1592164  61.6868436  10.3861749  28.0771585  60.9917576
  14.4022234  26.1890101  50.0082680  14.8779601  26.5507181  49.3732861
  13.9010834  26.8446569  50.2882823  14.3987593  26.3384290  49.9559421
  27.6333596  35.6611869  45.7995685  28.0167202  36.4103225  46.0293782
  26.8377709  35.9077689  45.5407674  27.5727378  35.8081563  45.7953259
  19.5065771  27.4272273  60.7555840  20.0637201  27.1986082  60.1234306
  19.1826836  28.1877938  60.4791053  19.5412181  27.5056109  60.6212337
   7.3764480  30.8532469  56.2244436   6.8291199  30.1833114  56.3425305
   8.1656858  30.4862317  56.2887904   7.4116663  30.6997455  56.2513137
  17.2248888  30.5139926  61.7207847  17.9760215  30.8291603  62.0347402
  17.4171465  30.3119097  60.8941769  17.3640302  30.5307308  61.6451243
  16.4448888  28.3331301  43.3756064  16.8247852  28.3510930  42.5907179
  15.7041484  28.7785290  43.2546911  16.3917725  28.4013076  43.2419632
  24.0734178  26.6413492  48.9631643  24.0728405  26.4862149  49.8215919
  23.8690358  27.4876479  48.9073028  24.0433956  26.7434113  49.0819582
   6.1351449  30.0653277  53.3790459   5.9573210  29.6129886  54.1045375
   5.8470471  30.8679438  53.5628937   6.0664402  30.1175834  53.5133962
  21.7975030  31.3210994  52.6167850  22.2928696  30.6033989  52.5771870
  20.9874806  31.0181792  52.5022337  21.7518924  31.1708640  52.5941576
  17.2433642  35.1708807  44.7664854  16.4344964  34.8475481  44.7198164
  17.7508551  34.4642029  44.6993103  17.1983309  35.0190124  44.7495149
   7.8723919  32.5981000  50.4912218   7.0069438  32.5866691  50.3794990
   7.9722735  32.4111223  51.3383358   7.7598086  32.5687062  50.6001163
  23.8626849  34.0714681  55.3044978  24.2881921  33.5489103  54.7515403
  23.4983769  34.6695519  54.7833601  23.8713452  34.0824908  55.1453988
  13.4980929  42.3678899  54.0642324  13.8127488  43.1815287  54.0720106
  13.9074342  41.9829118  54.7324483  13.6049027  42.4307601  54.1646416
  20.4505449  37.7848946  51.6346136  20.9216627  38.4989208  51.8036121
  20.7865627  37.1847696  52.1706005  20.5700564  37.8020410  51.7378512
  22.5382433  39.3950259  63.8138208  22.6479399  38.6058820  64.1694955
  22.8673330  39.3056195  63.0112546  22.6034839  39.2656112  63.7480599
  17.3674944  22.5576416  58.5904231  17.5002849  21.7607410  58.9185206
  17.7520096  23.0842819  59.1702506  17.4431272  22.5176333  58.7247734
  21.0879395  37.5766880  58.3973829  20.5400341  36.9524763  58.1293894
  21.5492424  37.7661152  57.6817908  21.0746604  37.5125930  58.2524260
  20.4407299  19.4806742  55.1885324  19.6353262  19.3704472  55.5053162
  20.3114034  19.5819198  54.3315190  20.3027432  19.4790412  55.1093364
  23.8973259  25.6452234  55.7825021  23.3136248  26.1461441  55.3702588
  24.2177553  25.1381791  55.1489344  23.8586435  25.6444069  55.6283528
  16.4368058  24.5592829  46.0583696  17.2583753  24.7291142  45.8165391
  15.9737709  24.7140090  45.3349993  16.4899221  24.6074562  45.9155340
  15.0263390  22.5535591  56.8382124  15.5707803  22.2126718  57.4286466
  15.0800326  23.4121053  56.9803409  15.1152510  22.6290851  56.9463998
  10.8393949  36.3152007  53.7120932  11.4438806  36.2747842  53.0834753
  10.6321262  37.1623159  53.7424988  10.8982846  36.4340010  53.6237049
  20.6537721  38.5817953  54.9283170  21.4736095  38.4380919  55.1899465
  20.3731799  39.2064151  55.4699608  20.7334465  38.6528305  55.0471109
   6.0745231  35.2986625  53.5819855   5.9769509  34.4882896  53.8909912
   6.8574101  35.2778418  53.1966124   6.1761368  35.1753715  53.5706718
  30.3251056  45.3258455  52.6478977  29.4688952  45.4866954  52.6988093
  30.3718710  44.4550519  52.6684038  30.2050168  45.2209257  52.6585043
  24.7092196  54.8621173  48.4116208  23.9575096  54.4836711  48.1832253
  25.1578208  54.8939607  47.6635018  24.6641863  54.8106780  48.2673710
  33.6344773  51.5944981  62.2539433  34.3411540  51.0997012  62.3826367
  33.8232708  52.0354062  61.5242091  33.7672679  51.5863331  62.1648478
  30.1617156  55.2846543  43.8401755  29.8268524  55.9623464  43.4045977
  30.6744026  54.8951854  43.2518627  30.1882737  55.3271121  43.6888547
  29.7021447  57.2360811  49.7812867  30.0860827  57.8047710  49.2417642
  29.6380589  56.5110322  49.3018683  29.7494875  57.2136275  49.6306729
  33.1702877  47.3850499  55.2910628  33.7158837  48.0635586  55.3504598
  33.1119754  47.2437960  54.4312210  33.2418792  47.4642501  55.1722689
  26.2876952  54.8739565  50.6778981  26.3887315  54.0639919  50.9876108
  25.6918698  54.7796512  50.0478659  26.2149491  54.7404593  50.6305219
  26.1277692  59.7917154  52.0793837  26.7715147  60.2330318  52.4689995
  26.4533947  58.9870581  51.9924095  26.2709521  59.7382349  52.1239314
  19.4841997  50.8959852  50.3031314  19.2492181  50.0627504  50.1963583
  19.6227637  51.1764518  49.4892515  19.4697659  50.8143355  50.1673669
  21.7832084  43.0645582  53.2015622  21.1637116  42.4738230  53.0325637
  21.6815948  43.6557018  52.5679945  21.6769760  43.0649665  53.0820611
  26.8298272  52.8029129  47.4513698  27.1514113  53.3434337  46.8475006
  27.4770368  52.2325901  47.5835988  26.9724327  52.7988304  47.3820734
  21.5101217  46.6097864  55.4459191  21.3859914  47.1960310  56.0809010
  22.1619502  46.1158060  55.7471466  21.5874866  46.6236669  55.5845120
  29.0687915  51.1915569  47.5227877  29.5081551  50.5832670  47.9682649
  28.9192578  50.8122943  46.7513342  29.1109381  51.0454040  47.4747044
  26.5359558  49.7859581  54.7246702  27.1808561  49.2932024  54.4057651
  26.7761335  49.9284368  55.5512780  26.6670143  49.7337023  54.7996235
  29.0745649  52.6314487  54.3753595  29.3568892  51.8365893  54.1540350
  29.8031810  53.1095074  54.3958656  29.2235213  52.5849084  54.3456610
  32.6697252  49.5442751  44.4758646  32.5848547  50.4003717  44.6208215
  33.1581635  49.2687075  45.1440805  32.7286149  49.6300072  44.5960727
  25.4915293  50.0590762  44.7763849  24.9072508  50.5640793  45.1829713
  25.0885388  49.8333148  44.0360441  25.3454596  50.0999010  44.7268874
  21.0459321  55.7745523  51.5787520  20.5626899  56.4996012  51.5547104
  21.8582640  56.0721653  51.6897678  21.0950069  55.9247876  51.5914800
  27.1173475  54.5677703  54.1837335  26.6000417  54.2085118  53.5798643
  27.8147867  54.0439878  54.1943401  27.1439056  54.4375391  54.0967594
  30.7737067  55.0172517  60.1453508  30.8620413  54.8298658  60.9931718
  31.2026780  54.3709947  59.7458355  30.8499170  54.8935525  60.2125259
  28.3407527  54.3003677  59.1271170  27.7778362  53.8876287  59.6510831
  29.1028551  54.2256583  59.5464313  28.3701976  54.2281078  59.2664170
  23.9003519  56.2901699  51.7307800  24.6024098  55.7753688  51.7880557
  23.8201002  56.6175850  52.5354675  23.9927279  56.2615925  51.8580592
  24.9482425  46.5277285  60.8588215  25.1202929  46.4183180  61.7073497
  25.4851783  47.1731691  60.6219408  25.0527429  46.6069287  60.9493312
  23.2254294  52.4808051  51.2393408  24.0643193  52.7130983  51.2867170
  23.2566063  51.6112362  51.1700444  23.3536012  52.3864997  51.2358053
  23.8506997  52.9008926  55.5406714  24.3905222  52.7580057  56.2110086
  23.1676943  53.3005677  55.9090740  23.8299151  52.9388597  55.6941136
  33.2747882  48.5799926  50.7351738  34.0305397  49.0131441  50.7740647
  33.3810206  47.9304696  51.3086374  33.4018052  48.5477410  50.8249764
  36.3128053  52.4073204  51.4854141  35.8763285  52.4109946  52.2413113
  35.9790968  53.0878703  51.0533719  36.1990673  52.5085659  51.5334974
  30.8857127  54.4481536  62.8097291  31.6697543  54.5612384  63.1753034
  30.6853721  53.6222674  63.0055977  30.9723152  54.3428256  62.8931678
  19.2544142  49.1209217  55.6941135  18.9882557  48.3048333  55.8532126
  19.2682706  49.1662372  54.8236651  19.2168864  49.0066121  55.5894617
  24.0042748  42.6587595  58.3408143  23.3114545  42.1884575  58.5868875
  24.6203076  42.4325899  58.9149850  23.9927278  42.5554727  58.4617296
  31.0427520  56.3591638  56.4563747  30.2442766  56.1191139  56.7137616
  31.4913531  56.4106031  57.2030795  30.9902131  56.3314030  56.6048671
  30.3349207  52.4224255  42.6854702  30.7500355  52.0909279  41.9939197
  29.5041137  52.1893157  42.5574838  30.2737216  52.3395511  42.5645549
  19.6637556  49.9067996  52.9752880  19.4813129  49.8814882  52.1225172
  20.3987225  50.3766934  53.0141788  19.7451620  49.9729358  52.8550798
  22.7283307  46.6252999  59.4834988  23.4523280  46.6106029  59.9699883
  22.8299444  47.3348354  58.9856956  22.8501516  46.7277702  59.4813775
  30.1028257  50.1052083  64.3483935  29.3101238  50.4195595  64.5336555
  30.2177184  50.3203552  63.5104720  30.0023667  50.1835920  64.2522270
  31.0312050  50.0072287  59.2869232  31.6050911  49.3699531  59.4417796
  30.9526853  50.0076370  58.4178890  31.1045284  49.9137399  59.1815643
  19.6308466  46.7861497  53.1251946  20.2081969  46.6497947  53.7644192
  18.9322528  46.3297281  53.3797531  19.6129487  46.6983763  53.2574236
  26.3875768  48.4395552  51.3390429  26.1295012  47.6067287  51.3121729
  26.4424251  48.6653165  50.4982930  26.3575546  48.3493324  51.2110566
  25.3610480  45.9933315  51.8255324  24.7860072  46.1525483  52.4619285
  24.9846157  45.3568724  51.3623775  25.2213293  45.9231128  51.8509883
  29.0283769  44.4656664  56.6847703  28.6398202  44.0410882  56.0299894
  28.3638467  44.7138814  57.1924729  28.8730697  44.4395385  56.6635571
  15.1067299  45.6373390  49.8399765  15.1927551  45.2605258  50.6213295
  15.7343097  45.2633835  49.3619723  15.2123850  45.5258872  49.8845242
  30.1322707  48.6955269  44.8824510  30.9463346  48.9870161  44.7707281
  30.0681848  48.0415131  44.3082803  30.2425446  48.6420463  44.7813347
  36.3532197  51.3781265  59.2954085  36.1170835  50.5469330  59.1766146
  36.9975426  51.3266872  59.8808929  36.4126868  51.2478953  59.3639979
  26.0030616  52.1676786  50.0096822  26.6404562  51.9288534  50.5548615
  26.4285687  52.3713945  49.2749982  26.1606782  52.1627796  49.9813979
  20.6943258  54.4065123  53.8931125  20.7347403  54.6779974  53.0650905
  21.2537782  54.9307031  54.3088913  20.7826604  54.5240878  53.8323014
  26.8101971  40.6685491  64.0634295  26.4955412  41.4385054  63.8003858
  26.4891903  40.1055747  63.4786522  26.7160890  40.6995760  63.9375645
  37.3768618  51.1625714  55.3582380  37.0714435  51.8953770  55.7195695
  36.6574834  50.7563643  55.0775166  37.2255960  51.2107446  55.3695517
  28.3852087  52.6449209  51.6890608  28.4591096  52.4824381  52.5432458
  29.2021594  52.8339398  51.4451090  28.5168446  52.6485951  51.7788634
  22.1457844  52.9907072  48.7185051  21.3195962  53.2368809  48.5919330
  22.2069835  52.9119152  49.5847109  22.0332011  53.0152020  48.8273996
  24.3633868  39.0576013  49.6780492  23.4956293  39.1298612  49.7438101
  24.6509072  39.8598091  49.8668467  24.2773616  39.1870160  49.7155258
  33.4866757  39.2053872  58.0091813  34.2320349  39.0163682  57.5955239
  33.0704061  39.7312110  57.4505670  33.5351731  39.2556017  57.8656387
  26.9256673  55.6083952  46.4204081  27.2154972  55.2172933  45.6963308
  27.6560154  55.7900657  46.8609357  27.0763557  55.5777766  46.3786888
  27.5151418  50.4101698  57.5057212  27.0163112  51.1217465  57.5842100
  28.3251643  50.7302364  57.4675374  27.5607525  50.5628546  57.5113780
  24.8662589  57.5851334  49.4864231  24.6462884  57.2948689  50.2790898
  24.6457111  56.9266289  48.9582143  24.8010183  57.4451043  49.5253140
  23.7779536  49.6724651  51.7519933  23.4892785  49.0462122  52.2865660
  24.6462884  49.6144938  51.8184613  23.8639788  49.5712195  51.8410887
  27.0330544  58.9580724  48.2694923  27.6854602  58.4257166  48.4985949
  26.3356153  58.6049376  48.6562797  27.0261262  58.8270247  48.3607091
  23.9811809  51.3119902  47.6762298  24.7357777  51.6932941  47.8897760
  23.3882422  51.7631045  48.1308994  24.0048523  51.4348729  47.7745176
  35.0270463  51.2785138  47.6125903  35.5928495  51.9378348  47.5284446
  34.3798366  51.6234836  48.0842305  35.0149219  51.4267079  47.6698659
  26.4418476  43.2682742  62.8019510  25.6318252  43.5740522  62.6909352
  26.9193163  43.9888324  62.9172094  26.3921955  43.4197343  62.8026581
  25.3010036  52.4828463  53.0502413  24.7790789  52.6228755  53.7354278
  25.6884056  51.7239127  53.2404530  25.2813737  52.3913987  53.1803490
  22.2901220  42.5334272  47.1197368  22.0026016  42.1635542  46.3829315
  22.9771688  43.0029127  46.8581073  22.3490117  42.5481241  46.9712444
  31.4977041  54.2223922  47.0362982  31.2563717  53.4891783  46.6290047
  31.6778374  54.7710779  46.3829315  31.4884665  54.1946313  46.8793205
  26.7276362  49.5132482  48.4483904  26.5319144  50.1207217  47.8544207
  26.9510707  48.8200426  47.9675578  26.7311003  49.5010008  48.2899985
  25.1254892  46.3987220  48.5664773  25.8477543  46.5628378  48.1068579
  24.6462884  47.1196885  48.4604112  25.1618622  46.5285450  48.4830387
  33.0848399  42.7351019  53.9461457  32.2459500  42.7612298  53.7099721
  33.1552766  43.3821754  54.5266804  32.9716793  42.8347145  53.9970574
  22.7762508  48.8045292  57.6718912  23.2883605  49.0829546  57.0227672
  22.4898851  49.5434586  58.0381725  22.8097371  48.9547646  57.6308790
  19.8629415  43.3115484  47.9682649  19.9645551  44.1141646  48.2963624
  20.6585301  43.1102820  47.6705729  19.9957320  43.4001383  47.9718004
  26.2946234  40.8971681  57.7319954  26.1029431  40.9126815  58.5819377
  27.1444830  41.0935355  57.7086609  26.3921956  40.9286032  57.8543249
  20.6793147  43.4262662  55.7103770  20.5378638  42.5746603  55.8348278
  20.9633710  43.4691323  54.8865976  20.7000993  43.3062413  55.6071395
  34.7279788  51.9713112  53.6435040  34.5894147  52.6694158  54.1483782
  33.9479786  51.8161769  53.2871222  34.5923015  52.0513279  53.6661314
  33.0657873  48.2709487  59.8957422  33.0605911  47.3989304  59.8999848
  33.7718867  48.4697657  59.4226877  33.1702877  48.1713362  59.8264457
  26.7928766  47.9986471  59.2671242  26.9372142  48.5787679  58.6314352
  27.1404415  48.3762768  59.9721096  26.8656228  48.1407175  59.2770237
  28.9648684  47.1976640  57.0496373  28.2171998  47.3907654  56.6444651
  29.1190209  46.3721859  56.8120495  28.8771111  47.1041751  56.9541779
  25.8656521  56.1889243  56.1332269  26.0146085  55.6292159  55.4805673
  26.6456523  56.2681245  56.5164787  26.0030615  56.1174809  56.0929218
  28.3909822  56.3603886  57.4116759  28.3153493  55.6912697  57.9667548
  28.3199681  57.0621674  57.9257426  28.3690429  56.3648793  57.5693608
  29.2050461  41.0927190  57.9391777  29.6623075  41.8251165  58.0664569
  29.2806789  40.6693656  58.6979033  29.2841431  41.1384428  58.0692854
  21.4483452  41.3393010  59.0281221  20.9125641  40.7273368  59.3441988
  21.5101217  41.9141146  59.6814887  21.3779085  41.3339938  59.1716648
  29.0480069  54.8804885  48.2440365  29.8129960  54.6114529  47.9223030
  28.9458159  54.3954895  48.9610428  29.1461564  54.7694450  48.3020193
  27.0832839  43.0829294  54.7833601  26.2928913  42.9020754  55.1050937
  27.4793461  42.3056247  54.7663896  27.0249715  42.9416755  54.8286149
  32.4676525  50.7171724  52.5093047  31.7921527  50.4856957  53.0106434
  32.4768901  50.1092907  51.8835152  32.3695029  50.5930650  52.4909199
  29.5970669  45.5589553  59.2657100  29.5329810  46.4199510  59.1377237
  29.7367857  45.2421547  58.4652651  29.6086139  45.6389720  59.1285313
  34.4693259  53.5736857  44.7403225  34.5513097  54.3803843  44.4164676
  34.9543002  53.5932816  45.4643999  34.5530417  53.6957519  44.7990124
  28.2789763  48.2521693  53.4073303  27.8552012  48.4526192  52.6712321
  28.1034618  47.4050541  53.5197603  28.1900643  48.1570474  53.3146993
  27.7801456  59.7672206  55.8694760  28.2697387  59.0682995  55.6870425
  27.2085689  59.4696076  56.4570818  27.7685986  59.6198429  55.9295801
  23.5672208  48.7473744  48.8401275  23.7236827  48.6820547  49.6957268
  23.9072801  49.5222297  48.6279955  23.6405443  48.8522942  48.9355870
  30.1051352  48.1231628  47.7094639  30.6466898  47.6202009  48.1733259
  30.4197911  48.0696822  46.8984124  30.2315749  48.0411049  47.6578451
  33.9768460  52.3334275  64.8221551  34.7903325  52.0619424  64.9826683
  33.8163426  52.0341815  64.0181747  34.0738408  52.2489201  64.7266957
  28.2737802  53.5148979  44.9934667  28.3430622  52.6563518  45.1327667
  29.0526257  53.7320860  44.6653691  28.3990652  53.4201843  44.9651824
  31.2540622  43.0167932  57.7616939  31.4682591  42.3778846  57.2080293
  30.6374521  43.4613756  57.3324801  31.1945951  42.9878076  57.6167370
  32.6645290  55.9386681  49.2071160  32.2725081  55.6353396  48.4894026
  32.8198362  56.7755771  49.0176114  32.6298879  56.0170517  49.0727657
  20.1406469  45.9308695  49.1562043  20.5205434  46.3493240  48.4922310
  19.5661834  46.5122150  49.4630886  20.1117794  46.0786553  49.1038784
  33.4179710  44.6256997  58.7000246  32.6056391  44.3182888  58.7813419
  33.8769644  44.1455998  59.2642958  33.3660094  44.5093490  58.7954840
  32.8284964  52.5036669  49.1477191  32.4699619  52.6751312  49.9241223
  32.3423675  52.9649875  48.5905189  32.7043661  52.5975641  49.1802460
  30.5133217  46.0317069  63.4828949  30.9832848  46.6559185  63.8696823
  30.5595097  45.3634044  64.0422163  30.5901093  46.0251749  63.6229020
  29.7396724  38.6767056  56.0370605  29.3528477  38.7016088  56.8184135
  29.2529662  38.1108735  55.5845122  29.6109233  38.5962807  56.0858509
  33.9889704  53.3940565  60.0944391  34.6269424  52.9000761  59.7606848
  33.3463795  53.3217966  59.5096618  33.9883930  53.3099574  59.9586746
  29.4053866  35.5634042  58.3280865  30.0346984  36.0994342  58.0501935
  29.5739729  35.4711401  59.1794430  29.5231661  35.6295404  58.4129393
  29.2067781  40.3505237  60.6007276  30.0341210  40.0790385  60.6565891
  29.2275627  41.1466078  60.9571095  29.3320631  40.4284991  60.6622459
  34.0443960  54.0860374  56.7349748  34.8336339  53.7349438  56.8551830
  34.2187558  54.8996762  56.4726382  34.1864242  54.1546231  56.7137616
  23.7837271  47.4969099  53.7877537  22.9425277  47.3972974  53.9956431
  23.9927279  48.2664580  54.1391858  23.6901963  47.5961143  53.8704852
  21.2612838  45.1188636  51.6162288  20.8669535  45.1931648  50.8412397
  20.7052955  45.5046583  52.1670649  21.1215650  45.1870411  51.5829948
  27.5953936  45.4250499  53.0375135  27.2917073  44.8706487  53.6385542
  26.8933356  45.6042709  52.5503169  27.4470145  45.3695281  53.0544840
  25.6572287  52.6400219  57.7447232  25.5492642  52.6502281  58.6109290
  25.8668068  53.4655000  57.5552186  25.6722398  52.7641294  57.8451324
  23.6746079  49.8912862  55.2069170  23.0834012  50.5322360  55.1772185
  24.4367102  50.3150479  55.1800469  23.6994339  50.0488700  55.1984317
  24.0706701  41.0514859  55.8737188  24.5308183  41.1253789  56.6112311
  24.1162808  41.8496114  55.5237009  24.1457257  41.1809007  55.9309944
  25.7190051  41.7181554  60.4409215  25.3275616  41.0714901  60.8764992
  25.8875914  42.3092990  61.0603470  25.6860962  41.7095822  60.5971921
  33.4335595  55.3422173  52.6401194  33.2355284  55.8312988  51.9457406
  32.8123306  55.5463415  53.2185328  33.3123159  55.4438712  52.6224418
  27.4943573  47.1107070  46.9811439  28.2385618  47.4981346  47.2194389
  27.6404269  46.2664495  47.1451926  27.6254158  47.0437543  47.0405408
  20.8594479  44.6804050  58.2488904  21.7220092  44.5799759  58.1626234
  20.5286262  44.0998759  57.6874476  20.9379676  44.5795677  58.1534310
  24.2196265  43.5046499  54.9099322  23.5949335  43.5164891  54.3025275
  23.8841860  43.9806674  55.5590562  24.0781757  43.5765016  54.9155891
  20.9321941  51.5646959  56.3503086  20.4021865  50.8739398  56.3998061
  21.2047034  51.5557145  55.5215795  20.8946663  51.4614091  56.2350502
  31.9642031  52.1472662  45.0740769  32.6876230  52.6130775  44.9305342
  31.5242622  52.2146271  44.3238366  32.0057723  52.2256498  44.9425550
  31.1328186  49.0070204  56.3241458  30.5185179  48.4628254  56.6190093
  31.6495471  48.4934440  55.8447274  31.1183849  48.8506613  56.2965686
  30.3724483  50.0774474  54.0585756  29.9452092  49.4524193  53.6251192
  30.3649428  49.7949396  54.8844764  30.3083625  49.9427255  54.1165584
  23.4887011  45.1139647  57.1274190  23.6480497  44.3582971  57.5325912
  23.3079904  45.6630586  57.7814928  23.4852370  45.0833461  57.2836896
  31.4307314  37.2800882  57.6824980  30.9347875  37.4764557  56.9916547
  32.1876376  37.6793551  57.5113782  31.4694138  37.3678616  57.5545117
  28.7010193  40.9543228  54.2728290  28.7252680  40.4203341  53.5841070
  28.9521667  40.4460537  54.9353881  28.7420112  40.8004132  54.2692935
  16.2117783  48.2374723  53.7071435  16.1061232  48.1921568  52.8423519
  15.4618003  48.5828504  53.9885719  16.0853386  48.2815632  53.6208764
  24.9811515  39.6814047  53.6534035  25.0209887  40.1823253  54.3668742
  24.1561180  39.7724440  53.3839958  24.8651041  39.7695863  53.7184573
  27.1641128  49.2474787  61.7554329  26.3136759  49.3846501  61.8911974
  27.3269256  48.5138565  62.2002031  27.0624992  49.1588888  61.8409929
  26.4025879  46.1974556  55.9507934  25.5717808  46.3648374  55.7443182
  26.3477396  45.8210507  56.7356819  26.2715294  46.1664288  56.0356462
  24.2109662  39.6883449  61.5864345  24.8362365  39.1445582  61.8593777
  23.7560142  39.2078367  61.0172135  24.2357923  39.5372931  61.5425938
  29.6138101  52.2930109  57.3034886  29.1063192  52.8465956  57.7475517
  29.3164747  52.3538399  56.4853661  29.4942986  52.3836420  57.2483343
  31.7800283  40.6583428  56.1459549  32.2055354  40.2055955  55.5343076
  31.1657276  40.1043499  56.4224337  31.7528928  40.5097405  56.0964575
  21.3115133  47.5365100  47.0780174  21.8207362  48.1329607  47.4591480
  21.7849405  47.2691073  46.3956594  21.4558509  47.5850915  47.0334697
  32.2245881  56.2093367  45.2338830  31.5075191  56.0354229  44.7686067
  32.8752619  55.9745939  44.7014316  32.2147731  56.1489159  45.0868048
  28.8580586  57.2254667  54.2091893  28.6346240  56.4673496  54.5775920
  28.3690429  57.2552688  53.4872333  28.7524035  57.1176892  54.1568634
  23.6705665  44.1721358  49.9453355  22.9517654  44.5885491  50.2126218
  24.0418027  44.7375597  49.3944993  23.6197596  44.3170640  49.9036162
  32.9705245  44.8049207  55.8355351  32.9503173  44.6232502  56.6890129
  33.0184446  45.6761226  55.8114934  32.9739886  44.9065746  55.9578645
  30.9151575  51.3936399  61.7603827  30.8747430  50.7486076  61.1748983
  31.7274894  51.3373017  62.0729239  31.0294729  51.2895366  61.7200776
  27.5059043  57.4455125  51.6628978  27.0919441  56.7829255  51.2732820
  28.1906417  57.5932984  51.1424672  27.5457415  57.3695783  51.5285475
  30.8724337  56.6045210  52.4152595  30.4740620  56.7147481  51.6473415
  30.2575557  56.8127277  52.9979154  30.7223226  56.6518778  52.3883894
  26.6029284  45.0233336  58.3153585  26.0908187  44.4154519  58.6738616
  26.4308780  45.7389928  58.7827560  26.5018921  45.0396635  58.4369808
  21.4494999  43.4670911  60.9655946  21.2797589  44.1272286  60.4204153
  21.0060949  43.6777472  61.6868436  21.3594332  43.5956893  60.9917576
  30.4798354  42.9457580  60.7555840  31.0369785  42.7171390  60.1234306
  30.1559419  43.7063246  60.4791053  30.5144765  43.0241417  60.6212337
  18.3497063  46.3717777  56.2244436  17.8023783  45.7018422  56.3425305
  19.1389441  46.0047625  56.2887904  18.3849247  46.2182763  56.2513137
  28.1981472  46.0325234  61.7207847  28.9492799  46.3476911  62.0347402
  28.3904048  45.8304405  60.8941769  28.3372886  46.0492616  61.6451243
  17.1084033  45.5838584  53.3790459  16.9305794  45.1315193  54.1045375
  16.8203055  46.3864746  53.5628937  17.0396986  45.6361142  53.5133962
  32.7707614  46.8396302  52.6167850  33.2661279  46.1219297  52.5771870
  31.9607390  46.5367100  52.5022337  32.7251507  46.6893948  52.5941576
  28.2166225  50.6894115  44.7664854  27.4077548  50.3660789  44.7198164
  28.7241134  49.9827337  44.6993103  28.1715892  50.5375431  44.7495149
  18.8456503  48.1166308  50.4912218  17.9802022  48.1051999  50.3794990
  18.9455318  47.9296531  51.3383358  18.7330670  48.0872369  50.6001163
  34.8359433  49.5899989  55.3044978  35.2614504  49.0674411  54.7515403
  34.4716353  50.1880827  54.7833601  34.8446035  49.6010216  55.1453988
  24.4713512  57.8864207  54.0642324  24.7860071  58.7000595  54.0720106
  24.8806926  57.5014426  54.7324483  24.5781610  57.9492909  54.1646416
  31.4238032  53.3034254  51.6346136  31.8949210  54.0174516  51.8036121
  31.7598211  52.7033004  52.1706005  31.5433147  53.3205718  51.7378512
  33.5115017  54.9135567  63.8138208  33.6211982  54.1244128  64.1694955
  33.8405913  54.8241503  63.0112546  33.5767423  54.7841420  63.7480599
  28.3407527  38.0761724  58.5904231  28.4735433  37.2792718  58.9185206
  28.7252680  38.6028127  59.1702506  28.4163856  38.0361641  58.7247734
  32.0611978  53.0952188  58.3973829  31.5132924  52.4710071  58.1293894
  32.5225007  53.2846460  57.6817908  32.0479188  53.0311238  58.2524260
  34.8705843  41.1637542  55.7825021  34.2868832  41.6646749  55.3702588
  35.1910137  40.6567098  55.1489344  34.8319018  41.1629377  55.6283528
  25.9995974  38.0720899  56.8382124  26.5440387  37.7312026  57.4286466
  26.0532910  38.9306361  56.9803409  26.0885093  38.1476159  56.9463998
  21.8126533  51.8337315  53.7120932  22.4171390  51.7933149  53.0834753
  21.6053845  52.6808467  53.7424988  21.8715430  51.9525318  53.6237049
  31.6270305  54.1003260  54.9283170  32.4468679  53.9566227  55.1899465
  31.3464382  54.7249459  55.4699608  31.7067048  54.1713612  55.0471109
  17.0477815  50.8171933  53.5819855  16.9502093  50.0068204  53.8909912
  17.8306685  50.7963726  53.1966124  17.1493951  50.6939023  53.5706718
  48.0983955  61.7568112  47.8926046  48.0677959  62.6112749  48.0644315
  48.6965304  61.4563405  48.4512190  48.1821113  61.8384609  48.0000848
  41.2983640  60.8443763  52.6478977  40.4421535  61.0052261  52.6988093
  41.3451294  59.9735827  52.6684038  41.1782751  60.7394565  52.6585043
  35.6824780  70.3806481  48.4116208  34.9307679  70.0022019  48.1832253
  36.1310791  70.4124915  47.6635018  35.6374447  70.3292088  48.2673710
  44.6077356  67.1130289  62.2539433  45.3144124  66.6182320  62.3826367
  44.7965292  67.5539370  61.5242091  44.7405262  67.1048639  62.1648478
  41.1349740  70.8031851  43.8401755  40.8001108  71.4808772  43.4045977
  41.6476610  70.4137162  43.2518627  41.1615321  70.8456429  43.6888547
  40.6754031  72.7546119  49.7812867  41.0593410  73.3233018  49.2417642
  40.6113172  72.0295630  49.3018683  40.7227458  72.7321583  49.6306729
  44.1435461  62.9035807  55.2910628  44.6891421  63.5820894  55.3504598
  44.0852337  62.7623268  54.4312210  44.2151375  62.9827809  55.1722689
  37.2609536  70.3924873  50.6778981  37.3619899  69.5825227  50.9876108
  36.6651281  70.2981820  50.0478659  37.1882075  70.2589901  50.6305219
  45.9200530  64.3320414  46.1644356  45.8040056  65.0828100  46.5936494
  46.7156416  64.0744367  46.4140443  46.0205119  64.4055261  46.2648448
  37.1010275  75.3102462  52.0793837  37.7447731  75.7515626  52.4689995
  37.4266531  74.5055889  51.9924095  37.2442104  75.2567657  52.1239314
  30.4574580  66.4145160  50.3031314  30.2224765  65.5812812  50.1963583
  30.5960221  66.6949825  49.4892515  30.4430243  66.3328663  50.1673669
  32.7564668  58.5830890  53.2015622  32.1369699  57.9923538  53.0325637
  32.6548531  59.1742326  52.5679945  32.6502343  58.5834973  53.0820611
  37.8030855  68.3214437  47.4513698  38.1246696  68.8619645  46.8475006
  38.4502952  67.7511209  47.5835988  37.9456910  68.3173612  47.3820734
  39.8532563  60.3230432  47.5348085  40.5512728  60.5018560  48.0269548
  40.1684896  59.8000772  46.9118474  40.0027900  60.2724204  47.5150095
  32.4833801  62.1283172  55.4459191  32.3592497  62.7145618  56.0809010
  33.1352085  61.6343368  55.7471466  32.5607450  62.1421977  55.5845120
  40.0420499  66.7100877  47.5227877  40.4814134  66.1017978  47.9682649
  39.8925161  66.3308251  46.7513342  40.0841964  66.5639348  47.4747044
  37.5092142  65.3044889  54.7246702  38.1541144  64.8117332  54.4057651
  37.7493919  65.4469676  55.5512780  37.6402727  65.2522331  54.7996235
  40.0478233  68.1499795  54.3753595  40.3301476  67.3551201  54.1540350
  40.7764393  68.6280382  54.3958656  40.1967797  68.1034392  54.3456610
  38.0259427  55.6922829  51.6169360  37.6962757  56.1433972  50.9473058
  37.3504429  55.6138992  52.1642366  37.8769863  55.7473964  51.5992583
  43.6429835  65.0628058  44.4758646  43.5581130  65.9189025  44.6208215
  44.1314218  64.7872383  45.1440805  43.7018732  65.1485380  44.5960727
  44.5748268  61.6812853  45.9756381  44.0459740  61.8972486  46.6353687
  45.0973288  62.3748991  45.8957350  44.5736721  61.8155990  46.0611980
  50.0296321  67.2559157  51.3489425  49.1994024  67.4669801  51.5122842
  49.9805574  66.4296212  51.0731709  49.9003057  67.1648763  51.3326791
  36.4647876  65.5776069  44.7763849  35.8805091  66.0826101  45.1829713
  36.0617971  65.3518456  44.0360441  36.3187180  65.6184318  44.7268874
  32.0191905  71.2930831  51.5787520  31.5359483  72.0181320  51.5547104
  32.8315223  71.5906961  51.6897678  32.0682653  71.4433184  51.5914800
  38.0906059  70.0863011  54.1837335  37.5733001  69.7270426  53.5798643
  38.7880450  69.5625186  54.1943401  38.1171640  69.9560699  54.0967594
  41.7469651  70.5357825  60.1453508  41.8352997  70.3483966  60.9931718
  42.1759363  69.8895255  59.7458355  41.8231753  70.4120833  60.2125259
  39.3140111  69.8188985  59.1271170  38.7510945  69.4061595  59.6510831
  40.0761134  69.7441891  59.5464313  39.3434559  69.7466386  59.2664170
  40.9225091  61.8241722  43.2532769  41.1621094  62.0319705  42.4408113
  41.2440932  61.0199230  43.3621714  41.0062249  61.7355823  43.1493323
  36.2315381  53.7535117  47.0992307  36.9861349  54.1213434  46.8609358
  36.0542915  54.1274672  47.8671487  36.3169859  53.8633305  47.1777196
  34.8736102  71.8087006  51.7307800  35.5756681  71.2938996  51.7880557
  34.7933585  72.1361158  52.5354675  34.9659863  71.7801233  51.8580592
  49.5250280  59.9029558  55.1439847  48.6878701  59.9731745  55.3787441
  49.4938511  59.9054053  54.2714149  49.3968562  59.9139785  55.0499395
  35.9215009  62.0462593  60.8588215  36.0935512  61.9368488  61.7073497
  36.4584366  62.6916999  60.6219408  36.0260013  62.1254595  60.9493312
  34.5872446  56.1605436  43.7970420  34.4048019  56.3777317  42.9711413
  35.4498059  56.2744449  43.8529035  34.6877035  56.2095334  43.6824907
  34.1986878  67.9993358  51.2393408  35.0375777  68.2316291  51.2867170
  34.2298647  67.1297670  51.1700444  34.3268595  67.9050305  51.2358053
  34.8239581  68.4194234  55.5406714  35.3637805  68.2765365  56.2110086
  34.1409527  68.8190984  55.9090740  34.8031734  68.4573905  55.6941136
  44.2480465  64.0985234  50.7351738  45.0037980  64.5316749  50.7740647
  44.3542790  63.4490004  51.3086374  44.3750636  64.0662718  50.8249764
  47.2860637  67.9258512  51.4854141  46.8495868  67.9295254  52.2413113
  46.9523552  68.6064011  51.0533719  47.1723256  68.0270967  51.5334974
  41.8589710  69.9666844  62.8097291  42.6430127  70.0797692  63.1753034
  41.6586305  69.1407981  63.0055977  41.9455736  69.8613564  62.8931678
  30.2276726  64.6394524  55.6941135  29.9615141  63.8233641  55.8532126
  30.2415290  64.6847680  54.8236651  30.1901448  64.5251429  55.5894617
  47.2058119  54.9672339  53.7283569  47.8484028  55.0370444  54.3145484
  47.4581140  54.3001562  53.2263111  47.3380252  54.8798688  53.7410848
  34.1334473  59.4379609  42.3092893  33.4192650  59.1517788  42.7215326
  34.6178441  59.7776235  42.9499281  34.0993836  59.4461259  42.4648528
  34.9775332  58.1772903  58.3408143  34.2847129  57.7069882  58.5868875
  35.5935659  57.9511207  58.9149850  34.9659862  58.0740035  58.4617296
  42.0160103  71.8776946  56.4563747  41.2175349  71.6376446  56.7137616
  42.4646115  71.9291339  57.2030795  41.9634715  71.8499338  56.6048671
  50.4204983  64.6439431  50.3773778  51.0821417  64.0830100  50.2769687
  49.7796395  64.1491462  50.7026470  50.4233850  64.4875840  50.4106119
  41.3081790  67.9409563  42.6854702  41.7232939  67.6094587  41.9939197
  40.4773720  67.7078465  42.5574838  41.2469799  67.8580819  42.5645549
  30.6370139  65.4253304  52.9752880  30.4545712  65.4000190  52.1225172
  31.3719808  65.8952242  53.0141788  30.7184203  65.4914666  52.8550798
  46.7069813  65.6604814  50.1185767  46.9425403  65.8050013  49.2912618
  46.8559377  66.4247222  50.5117281  46.7635617  65.7943868  50.0549371
  33.7015891  62.1438307  59.4834988  34.4255863  62.1291337  59.9699883
  33.8032027  62.8533662  58.9856956  33.8234100  62.2463010  59.4813775
  48.5360270  64.5006480  47.9555371  48.8668487  65.0334120  47.3495466
  49.1093358  64.5545368  48.6117322  48.6693949  64.5876049  47.9633153
  41.0760840  65.6237391  64.3483935  40.2833821  65.9380903  64.5336555
  41.1909767  65.8388860  63.5104720  40.9756251  65.7021228  64.2522270
  43.7492159  62.3471382  48.6378951  43.8439014  63.0860677  49.0918577
  43.1251003  61.9188858  49.0713516  43.6701189  62.3932703  48.7687099
  42.0044633  65.5257595  59.2869232  42.5783495  64.8884839  59.4417796
  41.9259437  65.5261678  58.4178890  42.0777868  65.4322706  59.1815643
  30.6041050  62.3046805  53.1251946  31.1814552  62.1683255  53.7644192
  29.9055111  61.8482589  53.3797531  30.5862071  62.2169071  53.2574236
  44.0015181  64.1920122  41.8715903  43.9195343  64.2622309  42.7370890
  44.6394901  64.7549866  41.6799644  44.0835018  64.2859093  41.9705853
  37.3608352  63.9580860  51.3390429  37.1027596  63.1252595  51.3121729
  37.4156835  64.1838473  50.4982930  37.3308130  63.8678631  51.2110566
  42.4409402  56.0609311  51.4394522  41.7365729  55.5718496  51.5978441
  42.4894376  56.0731785  50.5682967  42.3439453  55.9898959  51.3333862
  36.3343064  61.5118623  51.8255324  35.7592655  61.6710791  52.4619285
  35.9578740  60.8754032  51.3623775  36.1945876  61.4416436  51.8509883
  40.0016353  59.9841972  56.6847703  39.6130785  59.5596190  56.0299894
  39.3371051  60.2324122  57.1924729  39.8463280  59.9580693  56.6635571
  49.6439622  59.7416977  49.4595533  49.3876187  58.9296918  49.2693415
  50.4868936  59.7494544  49.2325720  49.7305647  59.6228974  49.3980350
  26.0799883  61.1558697  49.8399765  26.1660135  60.7790566  50.6213295
  26.7075680  60.7819143  49.3619723  26.1856434  61.0444180  49.8845242
  43.8242714  53.6816601  54.1971687  44.2053226  52.9994772  54.5839561
  43.0205998  53.3926203  54.0147351  43.7619176  53.5383649  54.2275743
  41.1055291  64.2140577  44.8824510  41.9195930  64.5055469  44.7707281
  41.0414432  63.5600439  44.3082803  41.2158030  64.1605771  44.7813347
  47.3264781  66.8966573  59.2954085  47.0903418  66.0654637  59.1766146
  47.9708010  66.8452180  59.8808929  47.3859452  66.7664261  59.3639979
  36.9763199  67.6862094  50.0096822  37.6137146  67.4473842  50.5548615
  37.4018271  67.8899253  49.2749982  37.1339365  67.6813104  49.9813979
  31.6675841  69.9250431  53.8931125  31.7079987  70.1965282  53.0650905
  32.2270366  70.4492339  54.3088913  31.7559187  70.0426186  53.8323014
  37.6166014  62.9064384  44.3471711  38.0011167  62.6872090  45.0988256
  37.3677634  63.7327329  44.4772787  37.6368087  62.9962530  44.4772787
  37.7834555  56.1870799  64.0634295  37.4687996  56.9570362  63.8003858
  37.4624487  55.6241055  63.4786522  37.6893474  56.2181068  63.9375645
  48.3501202  66.6811021  55.3582380  48.0447019  67.4139078  55.7195695
  47.6307417  66.2748951  55.0775166  48.1988544  66.7292754  55.3695517
  39.3584671  68.1634517  51.6890608  39.4323679  68.0009688  52.5432458
  40.1754177  68.3524706  51.4451090  39.4901030  68.1671259  51.7788634
  54.0502994  63.3204022  54.6850724  53.9827494  63.3399981  53.8153311
  54.0358656  64.1634349  54.9106395  54.0381750  63.4477757  54.5903201
  33.1190428  68.5092379  48.7185051  32.2928545  68.7554117  48.5919330
  33.1802419  68.4304460  49.5847109  33.0064595  68.5337328  48.8273996
  35.3366451  54.5761320  49.6780492  34.4688877  54.6483920  49.7438101
  35.6241656  55.3783399  49.8668467  35.2506200  54.7055468  49.7155258
  44.4599340  54.7239180  58.0091813  45.2052932  54.5348990  57.5955239
  44.0436645  55.2497418  57.4505670  44.5084314  54.7741325  57.8656387
  37.8989257  71.1269260  46.4204081  38.1887555  70.7358241  45.6963308
  38.6292738  71.3085965  46.8609357  38.0496141  71.0963073  46.3786888
  51.8361611  62.0948408  52.9597318  52.3869533  61.4616477  53.1994410
  51.8205726  62.6263801  53.6512823  51.9146807  62.0797356  53.0976177
  38.4884002  65.9287006  57.5057212  37.9895696  66.6402773  57.5842100
  39.2984226  66.2487672  57.4675374  38.5340109  66.0813854  57.5113780
  35.8395172  73.1036642  49.4864231  35.6195468  72.8133997  50.2790898
  35.6189694  72.4451597  48.9582143  35.7742767  72.9636350  49.5253140
  34.7512120  65.1909959  51.7519933  34.4625368  64.5647430  52.2865660
  35.6195468  65.1330246  51.8184613  34.8372371  65.0897503  51.8410887
  45.5390017  60.3344742  52.0701915  45.1954783  59.6135077  52.4209164
  45.6383060  60.1258593  51.2280273  45.5032060  60.1968945  51.9973595
  38.0063128  74.4766032  48.2694923  38.6587186  73.9442474  48.4985949
  37.3088737  74.1234684  48.6562797  37.9993846  74.3455555  48.3607091
  34.9544393  66.8305210  47.6762298  35.7090361  67.2118249  47.8897760
  34.3615006  67.2816353  48.1308994  34.9781106  66.9534037  47.7745176
  46.0003046  66.7970446  47.6125903  46.5661079  67.4563656  47.5284446
  45.3530950  67.1420144  48.0842305  45.9881803  66.9452387  47.6698659
  37.4151060  58.7868050  62.8019510  36.6050836  59.0925830  62.6909352
  37.8925747  59.5073632  62.9172094  37.3654539  58.9382651  62.8026581
  36.2742620  68.0013771  53.0502413  35.7523373  68.1414063  53.7354278
  36.6616640  67.2424435  53.2404530  36.2546320  67.9099295  53.1803490
  33.2633804  58.0519580  47.1197368  32.9758599  57.6820850  46.3829315
  33.9504272  58.5214435  46.8581073  33.3222701  58.0666549  46.9712444
  42.4709624  69.7409230  47.0362982  42.2296300  69.0077091  46.6290047
  42.6510957  70.2896087  46.3829315  42.4617248  69.7131621  46.8793205
  37.7008945  65.0317790  48.4483904  37.5051728  65.6392525  47.8544207
  37.9243291  64.3385734  47.9675578  37.7043586  65.0195316  48.2899985
  36.0987475  61.9172528  48.5664773  36.8210127  62.0813686  48.1068579
  35.6195468  62.6382193  48.4604112  36.1351206  62.0470758  48.4830387
  44.0580983  58.2536327  53.9461457  43.2192083  58.2797606  53.7099721
  44.1285350  58.9007062  54.5266804  43.9449376  58.3532453  53.9970574
  33.7495092  64.3230600  57.6718912  34.2616189  64.6014854  57.0227672
  33.4631434  65.0619894  58.0381725  33.7829955  64.4732954  57.6308790
  47.9338507  63.4604314  51.2322699  47.8472481  63.6159740  52.0857478
  47.4788986  64.1042389  50.8582104  47.8541763  63.5780069  51.3029806
  30.8361998  58.8300792  47.9682649  30.9378135  59.6326954  48.2963624
  31.6317885  58.6288128  47.6705729  30.9689904  58.9186691  47.9718004
  37.2678817  56.4156989  57.7319954  37.0762014  56.4312123  58.5819377
  38.1177413  56.6120663  57.7086609  37.3654539  56.4471340  57.8543249
  31.6525730  58.9447970  55.7103770  31.5111222  58.0931911  55.8348278
  31.9366294  58.9876631  54.8865976  31.6733576  58.8247720  55.6071395
  41.8064323  60.7815061  49.8548259  41.5599037  60.7010812  50.6885048
  42.1349446  59.9968528  49.6610786  41.8185566  60.6541326  49.9495782
  45.7012371  67.4898420  53.6435040  45.5626731  68.1879466  54.1483782
  44.9212369  67.3347076  53.2871222  45.5655598  67.5698587  53.6661314
  44.0390457  63.7894795  59.8957422  44.0338495  62.9174612  59.8999848
  44.7451450  63.9882964  59.4226877  44.1435461  63.6898669  59.8264457
  37.7661350  63.5171779  59.2671242  37.9104726  64.0972987  58.6314352
  38.1136998  63.8948076  59.9721096  37.8388811  63.6592483  59.2770237
  39.9381267  62.7161948  57.0496373  39.1904581  62.9092962  56.6444651
  40.0922792  61.8907167  56.8120495  39.8503695  62.6227059  56.9541779
  36.8389105  71.7074551  56.1332269  36.9878669  71.1477467  55.4805673
  37.6189107  71.7866553  56.5164787  36.9763199  71.6360117  56.0929218
  47.1965744  66.8476674  44.4051539  46.8172553  66.0613812  44.3980829
  46.5331990  67.3963531  44.2623183  47.0424219  66.8121498  44.3832336
  39.3642406  71.8789194  57.4116759  39.2886077  71.2098004  57.9667548
  39.2932265  72.5806982  57.9257426  39.3423012  71.8834101  57.5693608
  40.1783044  56.6112498  57.9391777  40.6355658  57.3436473  58.0664569
  40.2539373  56.1878964  58.6979033  40.2574014  56.6569736  58.0692854
  32.4216035  56.8578318  59.0281221  31.8858225  56.2458676  59.3441988
  32.4833800  57.4326454  59.6814887  32.3511668  56.8525246  59.1716648
  40.0212652  70.3990193  48.2440365  40.7862544  70.1299837  47.9223030
  39.9190742  69.9140203  48.9610428  40.1194148  70.2879757  48.3020193
  38.0565422  58.6014602  54.7833601  37.2661497  58.4206062  55.1050937
  38.4526045  57.8241555  54.7663896  37.9982298  58.4602063  54.8286149
  42.5431313  67.4302377  40.2240315  43.3104298  67.4902502  39.8146167
  42.0962622  66.8582818  39.7396633  42.5904740  67.3538952  40.0918025
  43.4409108  66.2357032  52.5093047  42.7654110  66.0042265  53.0106434
  43.4501485  65.6278215  51.8835152  43.3427613  66.1115958  52.4909199
  40.5703252  61.0774861  59.2657100  40.5062394  61.9384818  59.1377237
  40.7100440  60.7606855  58.4652651  40.5818723  61.1575028  59.1285313
  45.4425843  69.0922165  44.7403225  45.5245680  69.8989151  44.4164676
  45.9275585  69.1118124  45.4643999  45.5263001  69.2142827  44.7990124
  39.2522346  63.7707001  53.4073303  38.8284595  63.9711500  52.6712321
  39.0767202  62.9235849  53.5197603  39.1633227  63.6755782  53.3146993
  38.7534040  75.2857514  55.8694760  39.2429970  74.5868303  55.6870425
  38.1818272  74.9881384  56.4570818  38.7418570  75.1383737  55.9295801
  34.5404791  64.2659052  48.8401275  34.6969410  64.2005855  49.6957268
  34.8805384  65.0407605  48.6279955  34.6138026  64.3708250  48.9355870
  41.0783936  63.6416936  47.7094639  41.6199481  63.1387317  48.1733259
  41.3930495  63.5882130  46.8984124  41.2048333  63.5596357  47.6578451
  44.9501043  67.8519583  64.8221551  45.7635909  67.5804732  64.9826683
  44.7896010  67.5527123  64.0181747  45.0470992  67.7674509  64.7266957
  39.2470386  69.0334287  44.9934667  39.3163206  68.1748826  45.1327667
  40.0258841  69.2506168  44.6653691  39.3723236  68.9387151  44.9651824
  42.2273205  58.5353240  57.7616939  42.4415175  57.8964154  57.2080293
  41.6107104  58.9799064  57.3324801  42.1678535  58.5063384  57.6167370
  43.6377873  71.4571989  49.2071160  43.2457665  71.1538704  48.4894026
  43.7930945  72.2941078  49.0176114  43.6031463  71.5355825  49.0727657
  31.1139053  61.4494003  49.1562043  31.4938018  61.8678548  48.4922310
  30.5394418  62.0307458  49.4630886  31.0850378  61.5971861  49.1038784
  44.3912293  60.1442305  58.7000246  43.5788975  59.8368196  58.7813419
  44.8502228  59.6641306  59.2642958  44.3392678  60.0278798  58.7954840
  43.8017548  68.0221977  49.1477191  43.4432203  68.1936620  49.9241223
  43.3156259  68.4835183  48.5905189  43.6776245  68.1160948  49.1802460
  38.5905913  63.7021143  41.6877425  38.8798438  64.4786025  41.9620999
  38.6777712  63.1909874  42.3891924  38.6460170  63.7413061  41.8319923
  41.4865801  61.5502377  63.4828949  41.9565432  62.1744493  63.8696823
  41.5327681  60.8819352  64.0422163  41.5633677  61.5437057  63.6229020
  40.7129308  54.1952364  56.0370605  40.3261061  54.2201396  56.8184135
  40.2262245  53.6294043  55.5845122  40.5841817  54.1148115  56.0858509
  44.9622287  68.9125873  60.0944391  45.6002008  68.4186069  59.7606848
  44.3196379  68.8403274  59.5096618  44.9616514  68.8284882  59.9586746
  46.6879287  60.7615019  54.6610307  46.2606895  60.6741368  53.9058407
  46.0505340  60.8692795  55.2465151  46.5308895  60.7647679  54.6355749
  40.3786450  51.0819350  58.3280865  41.0079568  51.6179650  58.0501935
  40.5472312  50.9896709  59.1794430  40.4964244  51.1480712  58.4129393
  40.1800365  55.8690545  60.6007276  41.0073794  55.5975693  60.6565891
  40.2008211  56.6651386  60.9571095  40.3053215  55.9470299  60.6622459
  45.0176544  69.6045682  56.7349748  45.8068922  69.2534746  56.8551830
  45.1920142  70.4182070  56.4726382  45.1596826  69.6731539  56.7137616
  34.7569854  63.0154407  53.7877537  33.9157861  62.9158282  53.9956431
  34.9659862  63.7849888  54.1391858  34.6634547  63.1146451  53.8704852
  32.2345421  60.6373944  51.6162288  31.8402119  60.7116956  50.8412397
  31.6785538  61.0231891  52.1670649  32.0948234  60.7055719  51.5829948
  38.5686519  60.9435807  53.0375135  38.2649657  60.3891795  53.6385542
  37.8665940  61.1228017  52.5503169  38.4202729  60.8880589  53.0544840
  37.6252616  58.2536326  47.6019836  37.9012351  57.5355239  47.1897404
  38.2251286  58.8521246  47.3940943  37.7545881  58.2356697  47.5100598
  36.6304870  68.1585527  57.7447232  36.5225225  68.1687589  58.6109290
  36.8400652  68.9840308  57.5552186  36.6454981  68.2826602  57.8451324
  41.1263137  55.9249844  45.8766431  41.5806883  56.0960404  46.6014276
  41.6003183  55.3117954  45.4764207  41.2631457  55.8600729  45.9240193
  34.6478662  65.4098170  55.2069170  34.0566595  66.0507668  55.1772185
  35.4099686  65.8335787  55.1800469  34.6726923  65.5674008  55.1984317
  35.0439285  56.5700167  55.8737188  35.5040767  56.6439097  56.6112311
  35.0895392  57.3681421  55.5237009  35.1189840  56.6994314  55.9309944
  36.6922635  57.2366862  60.4409215  36.3008200  56.5900209  60.8764992
  36.8608497  57.8278298  61.0603470  36.6593545  57.2281130  60.5971921
  50.7669084  65.2403939  56.2046448  50.8252207  65.6890588  56.9506425
  50.1335551  65.6502752  55.7676528  50.6820379  65.3677674  56.2498997
  44.4068178  70.8607481  52.6401194  44.2087867  71.3498296  51.9457406
  43.7855890  71.0648723  53.2185328  44.2855743  70.9624019  52.6224418
  38.4676157  62.6292378  46.9811439  39.2118202  63.0166654  47.2194389
  38.6136853  61.7849803  47.1451926  38.5986742  62.5622851  47.0405408
  41.4554033  58.2017851  52.8805358  40.9813987  57.6759613  53.3910669
  41.8272168  57.6547324  52.3120220  41.4403922  58.0433848  52.8720505
  31.8327063  60.1989358  58.2488904  32.6952676  60.0985067  58.1626234
  31.5018846  59.6184067  57.6874476  31.9112259  60.0980985  58.1534310
  47.7190763  63.2620227  54.2912139  47.4788986  62.4226642  54.2954565
  48.1982770  63.3420394  55.0152912  47.7542947  63.1501627  54.3986941
  43.3837532  59.0954406  45.9431112  42.8560551  59.1783150  45.2536821
  43.8433240  59.8372277  45.9395756  43.3739383  59.2175068  45.8405807
  49.7195950  60.0421684  52.2441398  49.4805720  60.0017518  51.4062182
  49.8829852  60.8892836  52.3707119  49.7086254  60.1613769  52.1394880
  46.3241980  64.4271634  58.1746443  47.0476179  63.9744160  57.9957463
  46.0591943  64.7076299  57.3918771  46.3923254  64.4022602  58.0325158
  35.1928849  59.0231807  54.9099322  34.5681919  59.0350199  54.3025275
  34.8574444  59.4991982  55.5590562  35.0514341  59.0950324  54.9155891
  35.3770597  57.3656926  40.9672007  35.0283402  58.0176651  41.4303556
  34.8967043  57.3514039  40.2395878  35.2540841  57.4599979  40.9283098
  31.9054524  67.0832267  56.3503086  31.3754449  66.3924706  56.3998061
  32.1779618  67.0742452  55.5215795  31.8679247  66.9799399  56.2350502
  42.9374615  67.6657970  45.0740769  43.6608814  68.1316083  44.9305342
  42.4975206  67.7331579  44.3238366  42.9790307  67.7441806  44.9425550
  42.1060770  64.5255512  56.3241458  41.4917763  63.9813562  56.6190093
  42.6228055  64.0119748  55.8447274  42.0916432  64.3691921  56.2965686
  41.3457067  65.5959782  54.0585756  40.9184675  64.9709500  53.6251192
  41.3382011  65.3134704  54.8844764  41.2816208  65.4612562  54.1165584
  34.4619594  60.6324955  57.1274190  34.6213081  59.8768279  57.5325912
  34.2812488  61.1815894  57.7814928  34.4584953  60.6018769  57.2836896
  42.4039897  52.7986190  57.6824980  41.9080458  52.9949865  56.9916547
  43.1608959  53.1978859  57.5113782  42.4426722  52.8863924  57.5545117
  39.6742777  56.4728536  54.2728290  39.6985264  55.9388649  53.5841070
  39.9254250  55.9645845  54.9353881  39.7152695  56.3189440  54.2692935
  27.1850367  63.7560031  53.7071435  27.0793816  63.7106876  52.8423519
  26.4350587  64.1013812  53.9885719  27.0585969  63.8000939  53.6208764
  35.9544099  55.1999355  53.6534035  35.9942471  55.7008561  54.3668742
  35.1293764  55.2909748  53.3839958  35.8383625  55.2881171  53.7184573
  38.1373712  64.7660095  61.7554329  37.2869342  64.9031809  61.8911974
  38.3001840  64.0323873  62.2002031  38.0357575  64.6774196  61.8409929
  37.3758462  61.7159864  55.9507934  36.5450392  61.8833682  55.7443182
  37.3209980  61.3395815  56.7356819  37.2447877  61.6849596  56.0356462
  35.1842246  55.2068757  61.5864345  35.8094949  54.6630890  61.8593777
  34.7292726  54.7263675  61.0172135  35.2090506  55.0558239  61.5425938
  35.7494506  59.9915456  46.4798052  35.8897467  60.4887920  47.1826693
  36.2477039  59.2901750  46.6212265  35.8435587  59.9617435  46.6049631
  35.7794729  60.8582567  43.8090628  36.4139808  61.4542992  43.7440090
  35.8620339  60.5586025  44.6236498  35.8851280  60.9023475  43.9193715
  48.7577294  63.3898044  56.6776993  49.3495135  64.0295295  56.7095191
  49.1936289  62.6921081  56.9669059  48.9095726  63.3816395  56.7257825
  37.3573711  56.7896542  43.7836070  37.6789553  56.3099625  43.1295333
  37.6200655  57.5996188  43.5926882  37.4439737  56.8386440  43.6591562
  40.5870684  67.8115417  57.3034886  40.0795775  68.3651264  57.7475517
  40.2897330  67.8723707  56.4853661  40.4675569  67.9021728  57.2483343
  42.7532866  56.1768736  56.1459549  43.1787938  55.7241263  55.5343076
  42.1389860  55.6228807  56.4224337  42.7261512  56.0282713  56.0964575
  32.2847716  63.0550408  47.0780174  32.7939946  63.6514915  47.4591480
  32.7581989  62.7876381  46.3956594  32.4291092  63.1036223  47.0334697
  43.1978465  71.7278674  45.2338830  42.4807774  71.5539537  44.7686067
  43.8485202  71.4931247  44.7014316  43.1880315  71.6674467  45.0868048
  45.7826436  60.6043263  48.9780135  45.1117626  61.1472965  48.8493201
  46.4766186  61.0738118  48.7361830  45.7855303  60.7541534  48.9235663
  39.8313169  72.7439975  54.2091893  39.6078824  71.9858804  54.5775920
  39.3423013  72.7737996  53.4872333  39.7256619  72.6362199  54.1568634
  45.9454563  57.0599147  51.8870508  46.2982173  56.6328870  52.5616307
  45.0869365  56.9749990  52.0171585  45.8704008  56.9843887  52.0065519
  34.6438248  59.6906666  49.9453355  33.9250237  60.1070799  50.2126218
  35.0150610  60.2560905  49.3944993  34.5930180  59.8355948  49.9036162
  43.9437829  60.3234515  55.8355351  43.9235756  60.1417810  56.6890129
  43.9917030  61.1946534  55.8114934  43.9472470  60.4251053  55.9578645
  41.8884159  66.9121707  61.7603827  41.8480014  66.2671384  61.1748983
  42.7007477  66.8558325  62.0729239  42.0027312  66.8080674  61.7200776
  38.4791626  72.9640433  51.6628978  38.0652025  72.3014563  51.2732820
  39.1639001  73.1118292  51.1424672  38.5189998  72.8881091  51.5285475
  41.8456921  72.1230518  52.4152595  41.4473204  72.2332789  51.6473415
  41.2308140  72.3312585  52.9979154  41.6955810  72.1704086  52.3883894
  40.4184823  58.7304666  45.2826734  39.8249662  59.0521663  44.7311301
  40.4560100  57.8845762  45.0747840  40.3359212  58.6528994  45.1709506
  43.2942639  58.6884171  48.7128484  43.0656332  58.7116872  47.8706843
  43.5540715  57.8641638  48.8323495  43.2988827  58.5700251  48.6053682
  37.5761868  60.5418644  58.3153585  37.0640771  59.9339827  58.6738616
  37.4041364  61.2575236  58.7827560  37.4751505  60.5581943  58.4369808
  32.4227582  58.9856219  60.9655946  32.2530173  59.6457594  60.4204153
  31.9793532  59.1962780  61.6868436  32.3326916  59.1142201  60.9917576
  36.3487402  57.2260717  50.0082680  36.8244768  57.5877797  49.3732861
  35.8476001  57.8817185  50.2882823  36.3452761  57.3754906  49.9559421
  49.5798763  66.6982485  45.7995685  49.9632369  67.4473841  46.0293782
  48.7842877  66.9448305  45.5407674  49.5192545  66.8452179  45.7953259
  41.4530938  58.4642888  60.7555840  42.0102368  58.2356698  60.1234306
  41.1292003  59.2248554  60.4791053  41.4877348  58.5426725  60.6212337
  29.3229647  61.8903085  56.2244436  28.7756366  61.2203730  56.3425305
  30.1122025  61.5232932  56.2887904  29.3581830  61.7368071  56.2513137
  39.1714055  61.5510542  61.7207847  39.9225382  61.8662219  62.0347402
  39.3636632  61.3489713  60.8941769  39.3105469  61.5677923  61.6451243
  38.3914055  59.3701917  43.3756064  38.7713020  59.3881546  42.5907179
  37.6506651  59.8155906  43.2546911  38.3382893  59.4383691  43.2419632
  46.0199345  57.6784108  48.9631643  46.0193572  57.5232765  49.8215919
  45.8155525  58.5247095  48.9073028  45.9899123  57.7804729  49.0819582
  28.0816616  61.1023892  53.3790459  27.9038377  60.6500501  54.1045375
  27.7935638  61.9050054  53.5628937  28.0129569  61.1546450  53.5133962
  43.7440197  62.3581610  52.6167850  44.2393863  61.6404605  52.5771870
  42.9339973  62.0552407  52.5022337  43.6984091  62.2079256  52.5941576
  39.1898809  66.2079423  44.7664854  38.3810132  65.8846097  44.7198164
  39.6973718  65.5012645  44.6993103  39.1448476  66.0560739  44.7495149
  29.8189086  63.6351616  50.4912218  28.9534606  63.6237307  50.3794990
  29.9187902  63.4481839  51.3383358  29.7063253  63.6057677  50.6001163
  45.8092016  65.1085297  55.3044978  46.2347088  64.5859719  54.7515403
  45.4448936  65.7066135  54.7833601  45.8178619  65.1195524  55.1453988
  35.4446096  73.4049515  54.0642324  35.7592655  74.2185903  54.0720106
  35.8539509  73.0199733  54.7324483  35.5514194  73.4678217  54.1646416
  42.3970616  68.8219562  51.6346136  42.8681794  69.5359824  51.8036121
  42.7330794  68.2218312  52.1706005  42.5165731  68.8391026  51.7378512
  44.4847600  70.4320875  63.8138208  44.5944566  69.6429436  64.1694955
  44.8138497  70.3426811  63.0112546  44.5500006  70.3026728  63.7480599
  39.3140111  53.5947032  58.5904231  39.4468016  52.7978026  58.9185206
  39.6985263  54.1213435  59.1702506  39.3896440  53.5546949  58.7247734
  43.0344562  68.6137496  58.3973829  42.4865508  67.9895379  58.1293894
  43.4957591  68.8031768  57.6817908  43.0211771  68.5496546  58.2524260
  45.8438426  56.6822850  55.7825021  45.2601415  57.1832057  55.3702588
  46.1642720  56.1752406  55.1489344  45.8051602  56.6814685  55.6283528
  38.3833226  55.5963445  46.0583696  39.2048920  55.7661758  45.8165391
  37.9202876  55.7510706  45.3349993  38.4364388  55.6445178  45.9155340
  36.9728557  53.5906207  56.8382124  37.5172970  53.2497334  57.4286466
  37.0265493  54.4491669  56.9803409  37.0617677  53.6661467  56.9463998
  32.7859116  67.3522623  53.7120932  33.3903974  67.3118457  53.0834753
  32.5786429  68.1993775  53.7424988  32.8448013  67.4710626  53.6237049
  42.6002888  69.6188568  54.9283170  43.4201262  69.4751534  55.1899465
  42.3196966  70.2434767  55.4699608  42.6799632  69.6898920  55.0471109
  28.0210398  66.3357241  53.5819855  27.9234677  65.5253512  53.8909912
  28.8039268  66.3149034  53.1966124  28.1226535  66.2124331  53.5706718
  59.0716539  77.2753420  47.8926046  59.0410543  78.1298057  48.0644315
  59.6697887  76.9748713  48.4512190  59.1553697  77.3569917  48.0000848
  52.2716224  76.3629071  52.6478977  51.4154119  76.5237569  52.6988093
  52.3183877  75.4921135  52.6684038  52.1515335  76.2579873  52.6585043
  55.1168045  78.4221115  55.2910628  55.6624005  79.1006202  55.3504598
  55.0584921  78.2808576  54.4312210  55.1883959  78.5013117  55.1722689
  56.8933113  79.8505722  46.1644356  56.7772639  80.6013408  46.5936494
  57.6889000  79.5929675  46.4140443  56.9937703  79.9240569  46.2648448
  43.7297251  74.1016198  53.2015622  43.1102283  73.5108846  53.0325637
  43.6281115  74.6927634  52.5679945  43.6234927  74.1020281  53.0820611
  48.7763439  83.8399745  47.4513698  49.0979280  84.3804952  46.8475006
  49.4235535  83.2696517  47.5835988  48.9189494  83.8358920  47.3820734
  50.8265147  75.8415740  47.5348085  51.5245312  76.0203868  48.0269548
  51.1417479  75.3186079  46.9118474  50.9760484  75.7909512  47.5150095
  43.4566384  77.6468480  55.4459191  43.3325081  78.2330926  56.0809010
  44.1084669  77.1528676  55.7471466  43.5340034  77.6607284  55.5845120
  51.0153082  82.2286185  47.5227877  51.4546718  81.6203286  47.9682649
  50.8657745  81.8493558  46.7513342  51.0574548  82.0824656  47.4747044
  48.4824725  80.8230197  54.7246702  49.1273728  80.3302640  54.4057651
  48.7226502  80.9654984  55.5512780  48.6135310  80.7707639  54.7996235
  51.0210817  83.6685103  54.3753595  51.3034059  82.8736509  54.1540350
  51.7496977  84.1465690  54.3958656  51.1700380  83.6219700  54.3456610
  48.9992010  71.2108137  51.6169360  48.6695340  71.6619280  50.9473058
  48.3237012  71.1324300  52.1642366  48.8502447  71.2659272  51.5992583
  54.6162419  80.5813366  44.4758646  54.5313714  81.4374333  44.6208215
  55.1046802  80.3057690  45.1440805  54.6751316  80.6670688  44.5960727
  56.2068418  67.1993660  49.8618970  55.8921859  67.8897138  50.2939393
  55.6895360  67.1438442  49.1604471  56.0832889  67.2928548  49.8215919
  55.5480852  77.1998161  45.9756381  55.0192323  77.4157794  46.6353687
  56.0705872  77.8934299  45.8957350  55.5469305  77.3341297  46.0611980
  47.4380460  81.0961377  44.7763849  46.8537675  81.6011409  45.1829713
  47.0350555  80.8703764  44.0360441  47.2919764  81.1369626  44.7268874
  51.8957674  77.3427029  43.2532769  52.1353678  77.5505013  42.4408113
  52.2173515  76.5384538  43.3621714  51.9794832  77.2541131  43.1493323
  47.2047964  69.2720425  47.0992307  47.9593932  69.6398742  46.8609358
  47.0275499  69.6459980  47.8671487  47.2902443  69.3818613  47.1777196
  60.4982863  75.4214866  55.1439847  59.6611284  75.4917053  55.3787441
  60.4671094  75.4239361  54.2714149  60.3701146  75.4325093  55.0499395
  46.8947592  77.5647901  60.8588215  47.0668096  77.4553796  61.7073497
  47.4316950  78.2102307  60.6219408  46.9992596  77.6439903  60.9493312
  45.5605029  71.6790744  43.7970420  45.3780602  71.8962625  42.9711413
  46.4230642  71.7929757  43.8529035  45.6609619  71.7280642  43.6824907
  51.2404748  68.6817155  46.8319444  51.9690909  68.5033110  46.3857600
  51.3299641  69.5235235  47.0426622  51.3611410  68.7801033  46.7972962
  55.2213049  79.6170542  50.7351738  55.9770564  80.0502057  50.7740647
  55.3275373  78.9675312  51.3086374  55.3483220  79.5848026  50.8249764
  41.2009309  80.1579832  55.6941135  40.9347724  79.3418949  55.8532126
  41.2147873  80.2032988  54.8236651  41.1634031  80.0436737  55.5894617
  58.1790703  70.4857647  53.7283569  58.8216611  70.5555752  54.3145484
  58.4313724  69.8186870  53.2263111  58.3112835  70.3983996  53.7410848
  45.1067056  74.9564917  42.3092893  44.3925233  74.6703096  42.7215326
  45.5911025  75.2961543  42.9499281  45.0726419  74.9646566  42.4648528
  45.9507916  73.6958211  58.3408143  45.2579712  73.2255190  58.5868875
  46.5668243  73.4696515  58.9149850  45.9392445  73.5925342  58.4617296
  52.2814374  83.4594871  42.6854702  52.6965523  83.1279895  41.9939197
  51.4506304  83.2263773  42.5574838  52.2202383  83.3766127  42.5645549
  41.6102723  80.9438612  52.9752880  41.4278296  80.9185498  52.1225172
  42.3452392  81.4137550  53.0141788  41.6916787  81.0099974  52.8550798
  57.6802397  81.1790122  50.1185767  57.9157986  81.3235321  49.2912618
  57.8291961  81.9432530  50.5117281  57.7368200  81.3129176  50.0549371
  44.6748474  77.6623615  59.4834988  45.3988447  77.6476645  59.9699883
  44.7764611  78.3718970  58.9856956  44.7966684  77.7648318  59.4813775
  59.5092854  80.0191788  47.9555371  59.8401071  80.5519428  47.3495466
  60.0825942  80.0730675  48.6117322  59.6426533  80.1061357  47.9633153
  54.7224743  77.8656690  48.6378951  54.8171597  78.6045984  49.0918577
  54.0983586  77.4374166  49.0713516  54.6433773  77.9118011  48.7687099
  41.5773633  77.8232112  53.1251946  42.1547136  77.6868563  53.7644192
  40.8787695  77.3667897  53.3797531  41.5594655  77.7354379  53.2574236
  54.9747764  79.7105430  41.8715903  54.8927927  79.7807617  42.7370890
  55.6127485  80.2735174  41.6799644  55.0567602  79.8044401  41.9705853
  48.3340935  79.4766168  51.3390429  48.0760180  78.6437903  51.3121729
  48.3889418  79.7023781  50.4982930  48.3040713  79.3863939  51.2110566
  53.4141985  71.5794619  51.4394522  52.7098312  71.0903804  51.5978441
  53.4626960  71.5917093  50.5682967  53.3172037  71.5084267  51.3333862
  47.3075647  77.0303931  51.8255324  46.7325239  77.1896099  52.4619285
  46.9311324  76.3939340  51.3623775  47.1678460  76.9601744  51.8509883
  50.9748936  75.5027280  56.6847703  50.5863369  75.0781498  56.0299894
  50.3103634  75.7509430  57.1924729  50.8195864  75.4766001  56.6635571
  60.6172205  75.2602285  49.4595533  60.3608770  74.4482226  49.2693415
  61.4601519  75.2679852  49.2325720  60.7038231  75.1414282  49.3980350
  37.0532466  76.6744005  49.8399765  37.1392718  76.2975874  50.6213295
  37.6808264  76.3004451  49.3619723  37.1589017  76.5629488  49.8845242
  54.7975298  69.2001909  54.1971687  55.1785809  68.5180080  54.5839561
  53.9938582  68.9111511  54.0147351  54.7351759  69.0568957  54.2275743
  52.0787874  79.7325884  44.8824510  52.8928513  80.0240777  44.7707281
  52.0147016  79.0785747  44.3082803  52.1890613  79.6791079  44.7813347
  47.9495783  83.2047402  50.0096822  48.5869730  82.9659149  50.5548615
  48.3750854  83.4084561  49.2749982  48.1071949  83.1998412  49.9813979
  48.5898598  78.4249692  44.3471711  48.9743750  78.2057398  45.0988256
  48.3410218  79.2512637  44.4772787  48.6100670  78.5147838  44.4772787
  48.7567138  71.7056107  64.0634295  48.4420579  72.4755670  63.8003858
  48.4357071  71.1426363  63.4786522  48.6626057  71.7366376  63.9375645
  50.3317255  83.6819825  51.6890608  50.4056263  83.5194996  52.5432458
  51.1486761  83.8710014  51.4451090  50.4633613  83.6856567  51.7788634
  46.3099035  70.0946628  49.6780492  45.4421460  70.1669228  49.7438101
  46.5974239  70.8968707  49.8668467  46.2238783  70.2240775  49.7155258
  55.4331924  70.2424488  58.0091813  56.1785516  70.0534298  57.5955239
  55.0169228  70.7682726  57.4505670  55.4816898  70.2926633  57.8656387
  62.8094195  77.6133716  52.9597318  63.3602116  76.9801785  53.1994410
  62.7938310  78.1449109  53.6512823  62.8879391  77.5982664  53.0976177
  49.4616585  81.4472314  57.5057212  48.9628279  82.1588081  57.5842100
  50.2716810  81.7672980  57.4675374  49.5072692  81.5999162  57.5113780
  45.7244703  80.7095267  51.7519933  45.4357952  80.0832738  52.2865660
  46.5928051  80.6515554  51.8184613  45.8104955  80.6082811  51.8410887
  56.5122601  75.8530050  52.0701915  56.1687367  75.1320385  52.4209164
  56.6115643  75.6443901  51.2280273  56.4764644  75.7154253  51.9973595
  45.9276976  82.3490518  47.6762298  46.6822944  82.7303557  47.8897760
  45.3347589  82.8001661  48.1308994  45.9513690  82.4719345  47.7745176
  48.3883643  74.3053358  62.8019510  47.5783419  74.6111138  62.6909352
  48.8658330  75.0258940  62.9172094  48.3387122  74.4567959  62.8026581
  47.2475203  83.5199079  53.0502413  46.7255957  83.6599371  53.7354278
  47.6349223  82.7609743  53.2404530  47.2278904  83.4284603  53.1803490
  44.2366387  73.5704888  47.1197368  43.9491183  73.2006158  46.3829315
  44.9236855  74.0399743  46.8581073  44.2955284  73.5851857  46.9712444
  48.6741529  80.5503098  48.4483904  48.4784311  81.1577832  47.8544207
  48.8975874  79.8571042  47.9675578  48.6776170  80.5380623  48.2899985
  47.0720059  77.4357836  48.5664773  47.7942711  77.5998994  48.1068579
  46.5928051  78.1567501  48.4604112  47.1083789  77.5656065  48.4830387
  55.0313566  73.7721635  53.9461457  54.1924667  73.7982914  53.7099721
  55.1017934  74.4192370  54.5266804  54.9181960  73.8717761  53.9970574
  44.7227675  79.8415908  57.6718912  45.2348772  80.1200162  57.0227672
  44.4364018  80.5805202  58.0381725  44.7562539  79.9918262  57.6308790
  53.4782845  70.6707012  48.6789073  54.1809197  70.4714760  48.2009032
  53.2127033  69.8982954  48.9857917  53.5429477  70.5269978  48.6534515
  58.9071090  78.9789621  51.2322699  58.8205065  79.1345048  52.0857478
  58.4521570  79.6227697  50.8582104  58.8274347  79.0965377  51.3029806
  41.8094582  74.3486100  47.9682649  41.9110718  75.1512262  48.2963624
  42.6050468  74.1473436  47.6705729  41.9422487  74.4371999  47.9718004
  48.2411401  71.9342297  57.7319954  48.0494598  71.9497431  58.5819377
  49.0909997  72.1305971  57.7086609  48.3387123  71.9656648  57.8543249
  42.6258314  74.4633278  55.7103770  42.4843806  73.6117219  55.8348278
  42.9098877  74.5061939  54.8865976  42.6466160  74.3433028  55.6071395
  52.7796906  76.3000369  49.8548259  52.5331620  76.2196119  50.6885048
  53.1082029  75.5153836  49.6610786  52.7918150  76.1726634  49.9495782
  48.7393933  79.0357087  59.2671242  48.8837309  79.6158295  58.6314352
  49.0869582  79.4133384  59.9721096  48.8121395  79.1777791  59.2770237
  50.9113851  78.2347256  57.0496373  50.1637165  78.4278270  56.6444651
  51.0655376  77.4092475  56.8120495  50.8236278  78.1412367  56.9541779
  51.1515628  72.1297806  57.9391777  51.6088242  72.8621781  58.0664569
  51.2271957  71.7064271  58.6979033  51.2306598  72.1755044  58.0692854
  43.3948619  72.3763626  59.0281221  42.8590809  71.7643984  59.3441988
  43.4566384  72.9511762  59.6814887  43.3244252  72.3710554  59.1716648
  55.6242954  65.3087681  51.8085620  55.7426522  65.7664145  51.0752923
  55.4505129  64.5032943  51.5221838  55.6162125  65.2581454  51.6586554
  49.0298006  74.1199910  54.7833601  48.2394081  73.9391370  55.1050937
  49.4258629  73.3426863  54.7663896  48.9714882  73.9787371  54.8286149
  53.5163897  82.9487684  40.2240315  54.2836882  83.0087809  39.8146167
  53.0695205  82.3768126  39.7396633  53.5637324  82.8724260  40.0918025
  54.4141692  81.7542340  52.5093047  53.7386694  81.5227573  53.0106434
  54.4234068  81.1463523  51.8835152  54.3160197  81.6301266  52.4909199
  51.5435836  76.5960169  59.2657100  51.4794977  77.4570126  59.1377237
  51.6833024  76.2792162  58.4652651  51.5551306  76.6760336  59.1285313
  50.2254930  79.2892309  53.4073303  49.8017179  79.4896808  52.6712321
  50.0499785  78.4421157  53.5197603  50.1365811  79.1941090  53.3146993
  45.5137375  79.7844360  48.8401275  45.6701994  79.7191163  49.6957268
  45.8537968  80.5592913  48.6279955  45.5870610  79.8893558  48.9355870
  52.0516519  79.1602244  47.7094639  52.5932065  78.6572625  48.1733259
  52.3663079  79.1067438  46.8984124  52.1780917  79.0781665  47.6578451
  50.2202969  84.5519595  44.9934667  50.2895790  83.6934134  45.1327667
  50.9991424  84.7691476  44.6653691  50.3455819  84.4572459  44.9651824
  53.2005789  74.0538548  57.7616939  53.4147758  73.4149462  57.2080293
  52.5839688  74.4984372  57.3324801  53.1411118  74.0248692  57.6167370
  42.0871636  76.9679311  49.1562043  42.4670601  77.3863855  48.4922310
  41.5127001  77.5492766  49.4630886  42.0582961  77.1157169  49.1038784
  55.3644877  75.6627613  58.7000246  54.5521559  75.3553504  58.7813419
  55.8234811  75.1826613  59.2642958  55.3125262  75.5464106  58.7954840
  54.7750132  83.5407285  49.1477191  54.4164786  83.7121928  49.9241223
  54.2888842  84.0020491  48.5905189  54.6508828  83.6346256  49.1802460
  52.5920518  67.1638484  52.7504282  51.7214075  67.1377205  52.7037591
  52.8460859  66.9915676  51.9330128  52.5014078  67.1348628  52.6224419
  49.5638497  79.2206451  41.6877425  49.8531022  79.9971333  41.9620999
  49.6510296  78.7095182  42.3891924  49.6192753  79.2598369  41.8319923
  49.6169658  69.1744712  54.2077752  49.1008147  68.4824904  54.3329331
  49.0563587  69.8415489  54.1540351  49.4576171  69.1707970  54.2183818
  51.6861892  69.7137672  56.0370605  51.2993645  69.7386704  56.8184135
  51.1994829  69.1479351  55.5845122  51.5574400  69.6333423  56.0858509
  57.6611871  76.2800327  54.6610307  57.2339479  76.1926676  53.9058407
  57.0237924  76.3878103  55.2465151  57.5041478  76.2832987  54.6355749
  51.3519033  66.6004658  58.3280865  51.9812151  67.1364958  58.0501935
  51.5204896  66.5082017  59.1794430  51.4696828  66.6666020  58.4129393
  51.1532948  71.3875852  60.6007276  51.9806377  71.1161001  60.6565891
  51.1740794  72.1836694  60.9571095  51.2785798  71.4655607  60.6622459
  45.7302438  78.5339715  53.7877537  44.8890445  78.4343589  53.9956431
  45.9392446  79.3035196  54.1391858  45.6367131  78.6331759  53.8704852
  43.2078005  76.1559252  51.6162288  42.8134703  76.2302264  50.8412397
  42.6518122  76.5417199  52.1670649  43.0680817  76.2241027  51.5829948
  54.8442952  69.1340546  51.2966167  55.0492545  69.0662854  52.1423164
  54.5169376  69.9399367  51.2287344  54.8258200  69.2426487  51.4125822
  49.5419103  76.4621114  53.0375135  49.2382240  75.9077103  53.6385542
  48.8398524  76.6413324  52.5503169  49.3935313  76.4065897  53.0544840
  48.5985200  73.7721634  47.6019836  48.8744934  73.0540547  47.1897404
  49.1983869  74.3706554  47.3940943  48.7278465  73.7542005  47.5100598
  58.0976639  69.6872311  50.7768932  57.4850953  70.1742713  51.1622664
  58.1940814  69.0115801  51.3206583  58.0214537  69.6590619  50.9147790
  52.0995720  71.4435152  45.8766431  52.5539467  71.6145712  46.6014276
  52.5735766  70.8303262  45.4764207  52.2364041  71.3786037  45.9240193
  45.6211246  80.9283478  55.2069170  45.0299179  81.5692976  55.1772185
  46.3832269  81.3521095  55.1800469  45.6459506  81.0859316  55.1984317
  46.0171869  72.0885475  55.8737188  46.4773350  72.1624405  56.6112311
  46.0627975  72.8866729  55.5237009  46.0922424  72.2179622  55.9309944
  47.6655218  72.7552170  60.4409215  47.2740783  72.1085517  60.8764992
  47.8341081  73.3463605  61.0603470  47.6326129  72.7466438  60.5971921
  49.4408740  78.1477686  46.9811439  50.1850785  78.5351962  47.2194389
  49.5869437  77.3035111  47.1451926  49.5719325  78.0808159  47.0405408
  51.3588316  69.9427945  52.0143300  50.5124361  70.1150753  51.8884650
  51.3559448  69.1377289  52.3509128  51.2335466  69.8488974  52.0454427
  52.4286616  73.7203159  52.8805358  51.9546571  73.1944921  53.3910669
  52.8004752  73.1732632  52.3120220  52.4136505  73.5619156  52.8720505
  42.8059646  75.7174666  58.2488904  43.6685259  75.6170375  58.1626234
  42.4751429  75.1369375  57.6874476  42.8844843  75.6166293  58.1534310
  58.6923347  78.7805535  54.2912139  58.4521570  77.9411950  54.2954565
  59.1715354  78.8605702  55.0152912  58.7275530  78.6686935  54.3986941
  54.3570116  74.6139714  45.9431112  53.8293135  74.6968458  45.2536821
  54.8165824  75.3557585  45.9395756  54.3471966  74.7360376  45.8405807
  60.6928534  75.5606992  52.2441398  60.4538304  75.5202826  51.4062182
  60.8562435  76.4078144  52.3707119  60.6818837  75.6799077  52.1394880
  46.1661432  74.5417115  54.9099322  45.5414503  74.5535507  54.3025275
  45.8307027  75.0177290  55.5590562  46.0246924  74.6135632  54.9155891
  46.3503181  72.8842233  40.9672007  46.0015985  73.5361959  41.4303556
  45.8699627  72.8699347  40.2395878  46.2273425  72.9785287  40.9283098
  53.9107198  83.1843277  45.0740769  54.6341397  83.6501390  44.9305342
  53.4707789  83.2516887  44.3238366  53.9522891  83.2627114  44.9425550
  53.0793353  80.0440820  56.3241458  52.4650347  79.4998870  56.6190093
  53.5960638  79.5305056  55.8447274  53.0649016  79.8877229  56.2965686
  52.3189651  81.1145090  54.0585756  51.8917259  80.4894808  53.6251192
  52.3114595  80.8320012  54.8844764  52.2548792  80.9797870  54.1165584
  45.4352178  76.1510263  57.1274190  45.5945664  75.3953587  57.5325912
  45.2545071  76.7001202  57.7814928  45.4317537  76.1204077  57.2836896
  53.3772481  68.3171498  57.6824980  52.8813042  68.5135173  56.9916547
  54.1341543  68.7164167  57.5113782  53.4159305  68.4049232  57.5545117
  50.6475360  71.9913844  54.2728290  50.6717848  71.4573957  53.5841070
  50.8986834  71.4831153  54.9353881  50.6885279  71.8374748  54.2692935
  38.1582950  79.2745339  53.7071435  38.0526399  79.2292184  52.8423519
  37.4083170  79.6199120  53.9885719  38.0318553  79.3186247  53.6208764
  46.9276683  70.7184663  53.6534035  46.9675054  71.2193869  54.3668742
  46.1026347  70.8095056  53.3839958  46.8116208  70.8066479  53.7184573
  48.3491046  77.2345172  55.9507934  47.5182976  77.4018990  55.7443182
  48.2942563  76.8581123  56.7356819  48.2180461  77.2034904  56.0356462
  46.1574829  70.7254065  61.5864345  46.7827533  70.1816198  61.8593777
  45.7025309  70.2448983  61.0172135  46.1823090  70.5743547  61.5425938
  46.7227090  75.5100764  46.4798052  46.8630051  76.0073228  47.1826693
  47.2209623  74.8087058  46.6212265  46.8168171  75.4802743  46.6049631
  46.7527312  76.3767875  43.8090628  47.3872392  76.9728300  43.7440090
  46.8352923  76.0771333  44.6236498  46.8583863  76.4208783  43.9193715
  48.3306295  72.3081850  43.7836070  48.6522136  71.8284933  43.1295333
  48.5933239  73.1181496  43.5926882  48.4172320  72.3571748  43.6591562
  53.7265450  71.6954044  56.1459549  54.1520522  71.2426571  55.5343076
  53.1122443  71.1414115  56.4224337  53.6994095  71.5468021  56.0964575
  43.2580300  78.5735716  47.0780174  43.7672529  79.1700223  47.4591480
  43.7314572  78.3061689  46.3956594  43.4023676  78.6221531  47.0334697
  52.1659673  68.1669144  49.5550126  51.5227991  68.0166790  50.1235265
  51.8259080  67.9211489  48.7899231  52.0204750  68.1081267  49.5253142
  56.7559019  76.1228571  48.9780135  56.0850209  76.6658273  48.8493201
  57.4498770  76.5923426  48.7361830  56.7587887  76.2726842  48.9235663
  56.9187147  72.5784455  51.8870508  57.2714757  72.1514177  52.5616307
  56.0601948  72.4935298  52.0171585  56.8436591  72.5029195  52.0065519
  45.6170832  75.2091974  49.9453355  44.8982821  75.6256107  50.2126218
  45.9883194  75.7746213  49.3944993  45.5662764  75.3541256  49.9036162
  54.9170413  75.8419823  55.8355351  54.8968340  75.6603118  56.6890129
  54.9649613  76.7131842  55.8114934  54.9205054  75.9436361  55.9578645
  51.3917406  74.2489974  45.2826734  50.7982245  74.5706971  44.7311301
  51.4292684  73.4031070  45.0747840  51.3091795  74.1714302  45.1709506
  58.3511207  67.7002866  52.8154821  57.8442072  66.9932006  52.7475998
  59.1478641  67.3696055  52.9455897  58.3938446  67.5476018  52.8253816
  54.2675223  74.2069479  48.7128484  54.0388916  74.2302180  47.8706843
  54.5273299  73.3826946  48.8323495  54.2721411  74.0885559  48.6053682
  48.5494451  76.0603952  58.3153585  48.0373354  75.4525135  58.6738616
  48.3773947  76.7760544  58.7827560  48.4484088  76.0767251  58.4369808
  43.3960166  74.5041527  60.9655946  43.2262756  75.1642902  60.4204153
  42.9526116  74.7148088  61.6868436  43.3059499  74.6327509  60.9917576
  47.3219985  72.7446025  50.0082680  47.7977352  73.1063105  49.3732861
  46.8208585  73.4002493  50.2882823  47.3185344  72.8940214  49.9559421
  52.4263522  73.9828196  60.7555840  52.9834952  73.7542006  60.1234306
  52.1024587  74.7433862  60.4791053  52.4609932  74.0612033  60.6212337
  40.2962230  77.4088393  56.2244436  39.7488950  76.7389038  56.3425305
  41.0854609  77.0418240  56.2887904  40.3314414  77.2553379  56.2513137
  49.3646638  74.8887225  43.3756064  49.7445603  74.9066854  42.5907179
  48.6239234  75.3341214  43.2546911  49.3115476  74.9568999  43.2419632
  56.9931929  73.1969416  48.9631643  56.9926155  73.0418072  49.8215919
  56.7888109  74.0432403  48.9073028  56.9631707  73.2990037  49.0819582
  39.0549200  76.6209200  53.3790459  38.8770961  76.1685809  54.1045375
  38.7668222  77.4235362  53.5628937  38.9862153  76.6731758  53.5133962
  54.7172781  77.8766918  52.6167850  55.2126446  77.1589913  52.5771870
  53.9072557  77.5737715  52.5022337  54.6716674  77.7264564  52.5941576
  50.1631392  81.7264731  44.7664854  49.3542715  81.4031405  44.7198164
  50.6706301  81.0197953  44.6993103  50.1181059  81.5746047  44.7495149
  40.7921670  79.1536924  50.4912218  39.9267189  79.1422615  50.3794990
  40.8920486  78.9667147  51.3383358  40.6795837  79.1242985  50.6001163
  56.7824600  80.6270605  55.3044978  57.2079671  80.1045027  54.7515403
  56.4181520  81.2251443  54.7833601  56.7911202  80.6380832  55.1453988
  53.3703199  84.3404869  51.6346136  53.8414377  85.0545132  51.8036121
  53.7063378  83.7403620  52.1706005  53.4898314  84.3576334  51.7378512
  50.2872694  69.1132340  58.5904231  50.4200600  68.3163333  58.9185206
  50.6717847  69.6398743  59.1702506  50.3629023  69.0732257  58.7247734
  53.3605049  66.0362666  55.1885324  52.5551013  65.9260396  55.5053162
  53.2311785  66.1375122  54.3315190  53.2225182  66.0346336  55.1093364
  56.8171010  72.2008158  55.7825021  56.2333999  72.7017365  55.3702588
  57.1375304  71.6937714  55.1489344  56.7784185  72.1999993  55.6283528
  49.3565809  71.1148753  46.0583696  50.1781503  71.2847066  45.8165391
  48.8935460  71.2696014  45.3349993  49.4096971  71.1630486  45.9155340
  47.9461141  69.1091515  56.8382124  48.4905554  68.7682642  57.4286466
  47.9998077  69.9676977  56.9803409  48.0350260  69.1846774  56.9463998
  25.8469612   7.6575627  34.8266093  25.8163616   8.5120264  34.9984362
  26.4450961   7.3570920  35.3852237  25.9306770   7.7392124  34.9340895
  19.0469297   6.7451278  39.5819023  18.1907192   6.9059777  39.6328140
  19.0936950   5.8743342  39.6024084  18.9268408   6.6402080  39.5925089
  13.4310436  16.2813996  35.3456255  12.6793336  15.9029535  35.1172300
  13.8796448  16.3132430  34.5975065  13.3860103  16.2299604  35.2013757
  22.3563013  13.0137804  49.1879479  23.0629781  12.5189835  49.3166414
  22.5450949  13.4546886  48.4582137  22.4890919  13.0056154  49.0988525
  18.8835396  16.7039366  30.7741802  18.5486765  17.3816287  30.3386024
  19.3962267  16.3144677  30.1858674  18.9100977  16.7463944  30.6228593
  18.4239688  18.6553635  36.7152914  18.8079067  19.2240533  36.1757689
  18.3598829  17.9303145  36.2358730  18.4713115  18.6329098  36.5646776
  21.8921118   8.8043322  42.2250675  22.4377078   9.4828409  42.2844645
  21.8337994   8.6630783  41.3652256  21.9637032   8.8835324  42.1062736
  15.0095193  16.2932389  37.6119027  15.1105556  15.4832742  37.9216155
  14.4136938  16.1989335  36.9818706  14.9367731  16.1597417  37.5645266
  23.6686186  10.2327930  33.0984403  23.5525712  10.9835616  33.5276541
  24.4642073   9.9751883  33.3480490  23.7690776  10.3062776  33.1988494
  14.8495932  21.2109978  39.0133883  15.4933388  21.6523142  39.4030042
  15.1752188  20.4063404  38.9264142  14.9927761  21.1575172  39.0579361
   8.2060237  12.3152675  37.2371361   7.9710421  11.4820327  37.1303630
   8.3445878  12.5957341  36.4232562   8.1915899  12.2336178  37.1013716
  15.5516512  14.2221953  34.3853745  15.8732353  14.7627160  33.7815053
  16.1988608  13.6518724  34.5176035  15.6942567  14.2181128  34.3160781
  17.6018220   6.2237947  34.4688132  18.2998385   6.4026075  34.9609595
  17.9170553   5.7008287  33.8458521  17.7513557   6.1731720  34.4490142
  10.2319457   8.0290687  42.3799238  10.1078154   8.6153133  43.0149057
  10.8837742   7.5350883  42.6811513  10.3093107   8.0429492  42.5185167
  17.7906155  12.6108393  34.4567923  18.2299791  12.0025493  34.9022696
  17.6410818  12.2315766  33.6853388  17.8327621  12.4646864  34.4087091
  15.2577798  11.2052404  41.6586749  15.9026801  10.7124847  41.3397697
  15.4979575  11.3477191  42.4852827  15.3888384  11.1529847  41.7336282
  17.7963890  14.0507310  41.3093641  18.0787133  13.2558716  41.0880397
  18.5250050  14.5287898  41.3298702  17.9453453  14.0041907  41.2796657
  21.3915492  10.9635574  31.4098693  21.3066787  11.8196540  31.5548261
  21.8799875  10.6879898  32.0780852  21.4504389  11.0492895  31.5300774
  22.9821491  -2.4184133  36.7959017  22.6674932  -1.7280654  37.2279439
  22.4648433  -2.4739351  36.0944518  22.8585962  -2.3249244  36.7555966
  22.3233925   7.5820368  32.9096428  21.7945397   7.7980002  33.5693734
  22.8458945   8.2756506  32.8297397  22.3222378   7.7163505  32.9952027
  14.2133533  11.4783585  31.7103896  13.6290748  11.9833616  32.1169760
  13.8103628  11.2525972  30.9700488  14.0672837  11.5191833  31.6608921
   9.7677562  17.1938346  38.5127567   9.2845140  17.9188836  38.4887151
  10.5800880  17.4914476  38.6237725   9.8168309  17.3440700  38.5254846
  15.8391716  15.9870527  41.1177382  15.3218657  15.6277942  40.5138690
  16.5366107  15.4632701  41.1283448  15.8657297  15.8568215  41.0307640
  19.4955308  16.4365341  47.0793555  19.5838653  16.2491481  47.9271765
  19.9245020  15.7902770  46.6798402  19.5717410  16.3128348  47.1465306
  17.0625767  15.7196501  46.0611217  16.4996602  15.3069110  46.5850878
  17.8246791  15.6449406  46.4804360  17.0920216  15.6473901  46.2004217
  18.6710747   7.7249237  30.1872816  18.9106751   7.9327221  29.3748159
  18.9926588   6.9206746  30.2961761  18.7547905   7.6363338  30.0833369
  12.6221759  17.7094522  38.6647847  13.3242338  17.1946511  38.7220604
  12.5419242  18.0368673  39.4694722  12.7145519  17.6808748  38.7920639
  27.2735936   5.8037073  42.0779894  26.4364357   5.8739260  42.3127488
  27.2424167   5.8061568  41.2054196  27.1454219   5.8147300  41.9839442
  13.6700665   7.9470109  47.7928262  13.8421169   7.8376003  48.6413544
  14.2070023   8.5924514  47.5559454  13.7745669   8.0262110  47.8833359
  11.9472534  13.9000874  38.1733455  12.7861434  14.1323807  38.2207217
  11.9784303  13.0305185  38.1040491  12.0754252  13.8057820  38.1698100
  12.5725237  14.3201749  42.4746761  13.1123462  14.1772880  43.1450133
  11.8895184  14.7198500  42.8430787  12.5517391  14.3581420  42.6281182
  21.9966122   9.9992750  37.6691785  22.7523637  10.4324264  37.7080694
  22.1028447   9.3497519  38.2426421  22.1236293   9.9670233  37.7589811
  19.6075367  15.8674360  49.7437338  20.3915784  15.9805207  50.1093080
  19.4071961  15.0415497  49.9396024  19.6941392  15.7621079  49.8271724
   7.9762382  10.5402040  42.6281182   7.7100798   9.7241156  42.7872172
   7.9900947  10.5855195  41.7576698   7.9387105  10.4258945  42.5234664
  24.9543776   0.8679855  40.6623616  25.5969685   0.9377959  41.2485531
  25.2066797   0.2009078  40.1603158  25.0865908   0.7806203  40.6750895
  11.8820129   5.3387124  29.2432940  11.1678306   5.0525304  29.6555373
  12.3664098   5.6783750  29.8839328  11.8479493   5.3468774  29.3988575
  19.7645760  17.7784462  43.3903794  18.9661006  17.5383962  43.6477663
  20.2131772  17.8298855  44.1370842  19.7120371  17.7506853  43.5388718
  28.1690640  10.5446947  37.3113825  28.8307074   9.9837615  37.2109734
  27.5282051  10.0498977  37.6366516  28.1719507  10.3883356  37.3446165
  19.0567447  13.8417078  29.6194748  19.4718596  13.5102102  28.9279244
  18.2259377  13.6085980  29.4914885  18.9955456  13.7588334  29.4985596
   8.3855796  11.3260819  39.9092926   8.2031369  11.3007705  39.0565219
   9.1205465  11.7959757  39.9481835   8.4669860  11.3922181  39.7890845
  24.4555470  11.5612329  37.0525814  24.6911059  11.7057528  36.2252665
  24.6045034  12.3254737  37.4457328  24.5121273  11.6951384  36.9889418
  11.4501548   8.0445822  46.4175035  12.1741520   8.0298853  46.9039930
  11.5517684   8.7541177  45.9197003  11.5719757   8.1470525  46.4153822
  26.2845927  10.4013995  34.8895418  26.6154144  10.9341635  34.2835513
  26.8579015  10.4552883  35.5457369  26.4179606  10.4883564  34.8973200
  18.8246497  11.5244907  51.2823982  18.0319478  11.8388418  51.4676602
  18.9395424  11.7396375  50.4444767  18.7241908  11.6028743  51.1862317
  21.4977816   8.2478898  35.5718998  21.5924670   8.9868192  36.0258623
  20.8736660   7.8196373  36.0053562  21.4186846   8.2940218  35.7027145
  19.7530290  11.4265110  46.2209279  20.3269152  10.7892355  46.3757843
  19.6745094  11.4269193  45.3518936  19.8263525  11.3330222  46.1155690
   8.3526706   8.2054320  40.0591993   8.9300209   8.0690771  40.6984238
   7.6540768   7.7490104  40.3137577   8.3347728   8.1176586  40.1914283
  21.7500837  10.0927638  28.8055950  21.6681000  10.1629825  29.6710937
  22.3880558  10.6557382  28.6139691  21.8320675  10.1866609  28.9045899
  15.1094009   9.8588376  38.2730476  14.8513253   9.0260110  38.2461776
  15.1642491  10.0845989  37.4322977  15.0793786   9.7686147  38.1450613
  20.1895059   1.9616826  38.3734569  19.4851385   1.4726012  38.5318488
  20.2380033   1.9739301  37.5023013  20.0925110   1.8906474  38.2673909
  14.0828721   7.4126138  38.7595371  13.5078312   7.5718306  39.3959332
  13.7064397   6.7761547  38.2963822  13.9431533   7.3423951  38.7849929
  17.7502009   5.8849487  43.6187749  17.3616442   5.4603705  42.9639941
  17.0856708   6.1331637  44.1264776  17.5948937   5.8588208  43.5975617
  27.3925278   5.6424492  36.3935579  27.1361843   4.8304433  36.2033462
  28.2354592   5.6502059  36.1665767  27.4791304   5.5236489  36.3320397
  21.5728371  -0.4175884  41.1311734  21.9538883  -1.0997713  41.5179608
  20.7691655  -0.7066282  40.9487398  21.5104833  -0.5608835  41.1615790
  18.8540948  10.1148092  31.8164556  19.6681586  10.4062985  31.7047328
  18.7900089   9.4607954  31.2422849  18.9643687  10.0613287  31.7153394
  25.0750438  12.7974088  46.2294132  24.8389075  11.9662153  46.1106193
  25.7193667  12.7459695  46.8148976  25.1345109  12.6671776  46.2980026
  14.7248856  13.5869609  36.9436868  15.3622803  13.3481357  37.4888662
  15.1503927  13.7906768  36.2090029  14.8825022  13.5820620  36.9154026
   9.4161498  15.8257946  40.8271172   9.4565644  16.0972797  39.9990952
   9.9756022  16.3499854  41.2428960   9.5044844  15.9433701  40.7663060
  15.3651671   8.8071899  31.2811758  15.7496824   8.5879606  32.0328303
  15.1163291   9.6334844  31.4112834  15.3853743   8.8970045  31.4112834
  26.0986858  12.5818537  42.2922427  25.7932675  13.3146594  42.6535742
  25.3793074  12.1756466  42.0115213  25.9474201  12.6300270  42.3035564
  17.1070328  14.0642032  38.6230655  17.1809336  13.9017204  39.4772505
  17.9239834  14.2532222  38.3791136  17.2386686  14.0678774  38.7128680
  31.7988651   9.2211537  41.6190771  31.7313151   9.2407497  40.7493357
  31.7844313  10.0641865  41.8446441  31.7867407   9.3485272  41.5243248
  10.8676085  14.4099895  35.6525098  10.0414202  14.6561632  35.5259377
  10.9288076  14.3311976  36.5187156  10.7550251  14.4344844  35.7614043
  22.2084997   0.6246695  44.9431860  22.9538589   0.4356506  44.5295286
  21.7922302   1.1504933  44.3845717  22.2569971   0.6748841  44.7996433
  15.6474914  17.0276775  33.3544128  15.9373212  16.6365756  32.6303355
  16.3778394  17.2093480  33.7949403  15.7981798  16.9970589  33.3126935
  29.5847268   7.9955924  39.8937365  30.1355189   7.3623993  40.1334457
  29.5691383   8.5271316  40.5852869  29.6632464   7.9804872  40.0316223
  16.2369659  11.8294521  44.4397259  15.7381352  12.5410289  44.5182147
  17.0469883  12.1495188  44.4015421  16.2825765  11.9821370  44.4453827
  13.5880829  19.0044157  36.4204278  13.3681125  18.7141512  37.2130945
  13.3675351  18.3459112  35.8922190  13.5228423  18.8643866  36.4593187
  12.4997776  11.0917474  38.6859980  12.2111025  10.4654945  39.2205707
  13.3681124  11.0337761  38.7524660  12.5858028  10.9905018  38.7750934
  23.2875674   6.2352257  39.0041961  22.9440440   5.5142593  39.3549211
  23.3868717   6.0266108  38.1620320  23.2517717   6.0976461  38.9313641
  15.7548785  20.3773547  35.2034970  16.4072843  19.8449990  35.4325996
  15.0574394  20.0242200  35.5902844  15.7479503  20.2463070  35.2947138
  12.7030050  12.7312725  34.6102345  13.4576018  13.1125764  34.8237807
  12.1100662  13.1823869  35.0649041  12.7266763  12.8541552  34.7085223
  23.7488703  12.6977961  34.5465949  24.3146736  13.3571171  34.4624492
  23.1016607  13.0427659  35.0182352  23.7367460  12.8459903  34.6038706
  15.1636717   4.6875565  49.7359557  14.3536492   4.9933345  49.6249399
  15.6411403   5.4081148  49.8512141  15.1140195   4.8390166  49.7366628
  14.0228276  13.9021286  39.9842460  13.5009030  14.0421578  40.6694325
  14.4102297  13.1431951  40.1744577  14.0031977  13.8106810  40.1143536
  20.2195281  15.6416746  33.9703029  19.9781957  14.9084606  33.5630094
  20.3996614  16.1903603  33.3169362  20.2102905  15.6139137  33.8133252
  15.4494602  10.9325305  35.3823951  15.2537385  11.5400040  34.7884254
  15.6728947  10.2393249  34.9015625  15.4529243  10.9202831  35.2240032
  13.8473132   7.8180043  35.5004819  14.5695784   7.9821201  35.0408625
  13.3681125   8.5389708  35.3944159  13.8836863   7.9478273  35.4170433
  21.8066640   4.1543842  40.8801504  20.9677740   4.1805121  40.6439768
  21.8771007   4.8014578  41.4606851  21.6935033   4.2539968  40.9310621
  11.4980749  10.2238116  44.6058959  12.0101846  10.5022369  43.9567719
  11.2117091  10.9627410  44.9721772  11.5315612  10.3740469  44.5648837
  20.2535918   1.0529219  35.6129120  20.9562271   0.8536967  35.1349078
  19.9880107   0.2805161  35.9197964  20.3182550   0.9092185  35.5874562
  25.6824163   9.3611829  38.1662746  25.5958138   9.5167255  39.0197525
  25.2274643  10.0049904  37.7922151  25.6027420   9.4787584  38.2369853
  15.0164474   2.3164504  44.6660001  14.8247671   2.3319639  45.5159424
  15.8663070   2.5128179  44.6426656  15.1140196   2.3478855  44.7883296
  19.5549979   6.6822576  36.7888306  19.3084694   6.6018327  37.6225094
  19.8835102   5.8976044  36.5950833  19.5671223   6.5548841  36.8835829
  23.4498028  13.3905935  40.5775087  23.3112388  14.0886981  41.0823829
  22.6698026  13.2354592  40.2211269  23.3141255  13.4706102  40.6001361
  21.7876113   9.6902311  46.8297468  21.7824152   8.8182127  46.8339895
  22.4937107   9.8890480  46.3566924  21.8921117   9.5906185  46.7604504
  15.5147007   9.4179295  46.2011289  15.6590382   9.9980503  45.5654399
  15.8622655   9.7955591  46.9061143  15.5874468   9.5599999  46.2110284
  17.6866924   8.6169463  43.9836420  16.9390238   8.8100477  43.5784698
  17.8408449   7.7914682  43.7460541  17.5989352   8.5234574  43.8881826
  14.5874762  17.6082066  43.0672315  14.7364325  17.0484982  42.4145720
  15.3674764  17.6874068  43.4504834  14.7248855  17.5367632  43.0269265
  17.1128062  17.7796709  44.3456806  17.0371733  17.1105520  44.9007595
  17.0417921  18.4814497  44.8597473  17.0908669  17.7841617  44.5033654
  17.9268701   2.5120014  44.8731824  18.3841315   3.2443988  45.0004616
  18.0025030   2.0886479  45.6319080  18.0059671   2.5577252  45.0032900
  17.7698309  16.2997708  35.1780412  18.5348200  16.0307352  34.8563076
  17.6676399  15.8147718  35.8950475  17.8679805  16.1887273  35.2360240
  15.8051079   4.5022118  41.7173648  15.0147154   4.3213578  42.0390984
  16.2011702   3.7249070  41.7003942  15.7467955   4.3609578  41.7626196
  20.2916970  13.3309892  27.1580362  21.0589955  13.3910017  26.7486213
  19.8448279  12.7590333  26.6736680  20.3390397  13.2546468  27.0258072
  21.1894765  12.1364548  39.4433094  20.5139767  11.9049780  39.9446481
  21.1987141  11.5285731  38.8175199  21.0913270  12.0123473  39.4249246
  18.3188909   6.9782377  46.1997147  18.2548050   7.8392333  46.0717284
  18.4586097   6.6614370  45.3992698  18.3304379   7.0582543  46.0625360
  23.1911500  14.9929680  31.6743272  23.2731337  15.7996666  31.3504723
  23.6761242  15.0125639  32.3984045  23.2748658  15.1150342  31.7330170
  17.0008003   9.6714516  40.3413350  16.5770252   9.8719015  39.6052368
  16.8252858   8.8243364  40.4537650  16.9118884   9.5763297  40.2487040
  16.5019697  21.1865029  42.8034807  16.9915627  20.4875818  42.6210472
  15.9303929  20.8888899  43.3910864  16.4904227  21.0391253  42.8635848
  12.2890448  10.1666567  35.7741322  12.4455067  10.1013370  36.6297314
  12.6291041  10.9415120  35.5620002  12.3623683  10.2715766  35.8695916
  18.8269593   9.5424451  34.6434686  19.3685138   9.0394832  35.1073306
  19.1416152   9.4889646  33.8324171  18.9533990   9.4603872  34.5918498
  22.6986700  13.7527098  51.7561598  23.5121565  13.4812247  51.9166730
  22.5381666  13.4534638  50.9521794  22.7956649  13.6682024  51.6607004
  16.9956042  14.9341803  31.9274714  17.0648863  14.0756341  32.0667714
  17.7744498  15.1513683  31.5993738  17.1208893  14.8394667  31.8991871
  19.9758862   4.4360756  44.6956986  20.1900832   3.7971670  44.1420340
  19.3592761   4.8806579  44.2664848  19.9164191   4.4070899  44.5507417
  21.3863530  17.3579504  36.1411207  20.9943322  17.0546219  35.4234073
  21.5416602  18.1948594  35.9516161  21.3517120  17.4363341  36.0067704
   8.8624710   7.3501518  36.0902089   9.2423674   7.7686063  35.4262357
   8.2880074   7.9314974  36.3970933   8.8336034   7.4979377  36.0378830
  22.1397950   6.0449821  45.6340293  21.3274632   5.7375711  45.7153466
  22.5987885   5.5648821  46.1983005  22.0878335   5.9286313  45.7294887
  21.5503205  13.9229493  36.0817237  21.1917860  14.0944136  36.8581270
  21.0641916  14.3842698  35.5245236  21.4261902  14.0168464  36.1142507
  16.3391570   9.6028658  28.6217472  16.6284095  10.3793541  28.8961046
  16.4263369   9.0917390  29.3231971  16.3945826   9.6420576  28.7659970
  19.2351458   7.4509892  50.4168995  19.7051089   8.0752009  50.8036869
  19.2813338   6.7826868  50.9762210  19.3119333   7.4444572  50.5569067
  22.7107944  14.8133389  47.0284438  23.3487665  14.3193584  46.6946894
  22.0682036  14.7410789  46.4436665  22.7102171  14.7292397  46.8926793
  24.4364944   6.6622535  41.5950354  24.0092552   6.5748883  40.8398453
  23.7990997   6.7700310  42.1805198  24.2794551   6.6655194  41.5695795
  17.9286021   1.7698060  47.5347323  18.7559451   1.4983209  47.5905938
  17.9493867   2.5658902  47.8911141  18.0538871   1.8477814  47.5962506
  22.7662201  15.5053197  43.6689795  23.5554579  15.1542262  43.7891877
  22.9405799  16.3189585  43.4066429  22.9082482  15.5739054  43.6477663
  12.5055511   8.9161923  40.7217584  11.6643518   8.8165797  40.9296478
  12.7145519   9.6857403  41.0731905  12.4120204   9.0153966  40.8044899
   9.9831078   6.5381460  38.5502335   9.5887776   6.6124471  37.7752444
   9.4271195   6.9239406  39.1010696   9.8433890   6.6063234  38.5169994
  21.6196025  -0.4837246  38.2306213  21.8245618  -0.5514938  39.0763211
  21.2922449   0.3221575  38.1627391  21.6011273  -0.3751306  38.3465869
  16.3172176   6.8443322  39.9715181  16.0135314   6.2899310  40.5725589
  15.6151597   7.0235532  39.4843216  16.1688386   6.7888104  39.9884887
  15.3738273   4.1543842  34.5359883  15.6498007   3.4362754  34.1237451
  15.9736942   4.7528762  34.3280989  15.5031538   4.1364212  34.4440644
  14.3790527  14.0593043  44.6787279  14.2710882  14.0695105  45.5449337
  14.5886309  14.8847823  44.4892233  14.3940638  14.1834117  44.7791371
  24.8729713   0.0694518  37.7108979  24.2604026   0.5564920  38.0962711
  24.9693888  -0.6061991  38.2546630  24.7967610   0.0412827  37.8487837
  18.8748794   1.8257359  32.8106478  19.3292540   1.9967919  33.5354323
  19.3488839   1.2125470  32.4104254  19.0117114   1.7608244  32.8580240
  12.3964319  11.3105685  42.1409217  11.8052252  11.9515183  42.1112232
  13.1585343  11.7343302  42.1140516  12.4212580  11.4681523  42.1324364
  14.4408292   3.1374378  47.3749261  14.0493857   2.4907725  47.8105039
  14.6094154   3.7285813  47.9943517  14.4079202   3.1288645  47.5311967
  22.1553835  16.7614997  39.5741241  21.9573524  17.2505811  38.8797453
  21.5341546  16.9656238  40.1525375  22.0341400  16.8631535  39.5564464
  16.2161814   8.5299893  33.9151485  16.9603859   8.9174170  34.1534435
  16.3622510   7.6857319  34.0791973  16.3472399   8.4630366  33.9745455
  19.2039689   4.1025367  39.8145405  18.7299644   3.5767129  40.3250716
  19.5757825   3.5554840  39.2460266  19.1889578   3.9441363  39.8060552
  25.4676420   9.1627742  41.2252185  25.2274643   8.3234158  41.2294612
  25.9468427   9.2427909  41.9492959  25.5028604   9.0509142  41.3326988
  21.1323189   4.9961921  32.8771159  20.6046208   5.0790665  32.1876867
  21.5918897   5.7379793  32.8735803  21.1225040   5.1182584  32.7745854
  27.4681607   5.9429200  39.1781444  27.2291377   5.9025034  38.3402229
  27.6315508   6.7900352  39.3047166  27.4571911   6.0621285  39.0734926
  24.0727637  10.3279149  45.1086490  24.7961836   9.8751675  44.9297510
  23.8077600  10.6083815  44.3258817  24.1408911  10.3030117  44.9665205
  12.9414506   4.9239322  41.8439369  12.3167576   4.9357714  41.2365321
  12.6060100   5.3999498  42.4930609  12.7999997   4.9957839  41.8495937
   9.6540181  12.9839782  43.2843133   9.1240106  12.2932221  43.3338108
   9.9265274  12.9749968  42.4555842   9.6164903  12.8806914  43.1690549
  20.6860272  13.5665485  32.0080816  21.4094471  14.0323598  31.8645389
  20.2460863  13.6339094  31.2578413  20.7275964  13.6449322  31.8765597
  19.8546427  10.4263027  43.2581505  19.2403420   9.8821077  43.5530140
  20.3713712   9.9127264  42.7787321  19.8402089  10.2699436  43.2305733
  19.0942724  11.4967297  40.9925803  18.6670332  10.8717016  40.5591239
  19.0867668  11.2142219  41.8184811  19.0301865  11.3620078  41.0505631
  12.2105251   6.5332470  44.0614237  12.3698738   5.7775794  44.4665959
  12.0298145   7.0823410  44.7154975  12.2070610   6.5026284  44.2176943
  20.1525554  -1.3006294  44.6165027  19.6566115  -1.1042620  43.9256593
  20.9094616  -0.9013626  44.4453828  20.1912379  -1.2128560  44.4885164
  17.4228434   2.3736052  41.2068337  17.4470921   1.8396164  40.5181117
  17.6739907   1.8653360  41.8693928  17.4638352   2.2196956  41.2032982
   4.9336023   9.6567547  40.6411481   4.8279472   9.6114391  39.7763565
   4.1836243  10.0021327  40.9225766   4.8071626   9.7008455  40.5548811
  15.8859369  10.6667610  48.6894376  15.0354999  10.8039324  48.8252021
  16.0487496   9.9331388  49.1342078  15.7843232  10.5781711  48.7749975
  15.1244119   7.6167380  42.8847981  14.2936049   7.7841198  42.6783229
  15.0695636   7.2403331  43.6696866  14.9933534   7.5857111  42.9696509
  13.4980163   5.8922971  33.4138098  13.6383124   6.3895436  34.1166740
  13.9962696   5.1909266  33.5552312  13.5921244   5.8624950  33.5389677
  13.5280385   6.7590082  30.7430675  14.1625465   7.3550507  30.6780137
  13.6105996   6.4593540  31.5576545  13.6336936   6.8030990  30.8533762
  26.5062951   9.2905560  43.6117039  27.0980791   9.9302810  43.6435237
  26.9421946   8.5928596  43.9009106  26.6581382   9.2823910  43.6597872
  15.1059368   2.6904058  30.7176117  15.4275209   2.2107140  30.0635379
  15.3686312   3.5003704  30.5266929  15.1925394   2.7393956  30.5931609
  18.3356341  13.7122932  44.2374933  17.8281432  14.2658779  44.6815564
  18.0382987  13.7731222  43.4193708  18.2161226  13.8029243  44.1823390
  20.5018523   2.0776252  43.0799596  20.9273595   1.6248778  42.4683123
  19.8875516   1.5236322  43.3564384  20.4747169   1.9290228  43.0304622
  10.0333373   8.9557923  34.0120221  10.5425603   9.5522431  34.3931527
  10.5067646   8.6883897  33.3296641  10.1776749   9.0043739  33.9674744
  20.9464121  17.6286190  32.1678877  20.2293431  17.4547052  31.7026114
  21.5970859  17.3938762  31.6354363  20.9365972  17.5681982  32.0208095
  23.5312093   6.5050778  35.9120182  22.8603282   7.0480481  35.7833247
  24.2251843   6.9745634  35.6701877  23.5340960   6.6549050  35.8575710
  17.5798826  18.6447490  41.1431940  17.3564481  17.8866320  41.5115966
  17.0908670  18.6745512  40.4212380  17.4742275  18.5369715  41.0908681
  23.6940220   2.9606662  38.8210555  24.0467830   2.5336385  39.4956354
  22.8355021   2.8757505  38.9511631  23.6189665   2.8851403  38.9405566
  12.3923905   5.5914182  36.8793402  11.6735894   6.0078314  37.1466265
  12.7636267   6.1568420  36.3285040  12.3415837   5.7363463  36.8376209
  21.6923486   6.2242031  42.7695397  21.6721413   6.0425326  43.6230176
  21.7402687   7.0954049  42.7454981  21.6958127   6.3258569  42.8918692
  19.6369816  12.8129223  48.6943874  19.5965671  12.1678899  48.1089030
  20.4493134  12.7565840  49.0069286  19.7512969  12.7088189  48.6540823
  16.2277283  18.8647948  38.5969025  15.8137682  18.2022079  38.2072866
  16.9124657  19.0125807  38.0764719  16.2675655  18.7888607  38.4625522
  19.5942577  18.0238034  39.3492641  19.1958861  18.1340304  38.5813462
  18.9793797  18.2320100  39.9319201  19.4441467  18.0711602  39.3223941
  25.1264280  -1.9174926  39.7494868  24.6195145  -2.6245787  39.6816045
  25.9231714  -2.2481737  39.8795944  25.1691519  -2.0701775  39.7593863
  21.0428296   4.5891686  35.6468531  20.8141989   4.6124387  34.8046890
  21.3026372   3.7649153  35.7663542  21.0474484   4.4707766  35.5393729
  15.3247524   6.4426159  45.2493632  14.8126427   5.8347342  45.6078663
  15.1527021   7.1582752  45.7167607  15.2237161   6.4589458  45.3709855
  14.0973058   3.1268232  36.9422727  14.5730425   3.4885312  36.3072908
  13.5961658   3.7824700  37.2222870  14.0938417   3.2762421  36.8899468
  19.2016595   4.3650404  47.6895887  19.7588025   4.1364213  47.0574352
  18.8777660   5.1256069  47.4131099  19.2363005   4.4434240  47.5552384
  16.9199712   7.4518057  48.6547894  17.6711039   7.7669734  48.9687448
  17.1122288   7.2497228  47.8281816  17.0591126   7.4685439  48.5791290
  16.1399712   5.2709432  30.3096111  16.5198676   5.2889061  29.5247226
  15.3992308   5.7163421  30.1886958  16.0868549   5.3391207  30.1759679
  23.7685002   3.5791623  35.8971690  23.7679229   3.4240280  36.7555966
  23.5641182   4.4254610  35.8413075  23.7384780   3.6812244  36.0159629
  21.4925854   8.2589125  39.5507896  21.9879519   7.5412120  39.5111917
  20.6825630   7.9559923  39.4362383  21.4469747   8.1086771  39.5281622
  16.9384466  12.1086938  31.7004901  16.1295788  11.7853612  31.6538210
  17.4459375  11.4020160  31.6333150  16.8934132  11.9568255  31.6835195
   7.5674743   9.5359131  37.4252265   6.7020262   9.5244822  37.3135036
   7.6673559   9.3489354  38.2723404   7.4548910   9.5065193  37.5341210
  23.5577673  11.0092813  42.2385025  23.9832745  10.4867234  41.6855450
  23.1934593  11.6073650  41.7173648  23.5664276  11.0203040  42.0794035
  13.1931753  19.3057030  40.9982371  13.5078312  20.1193419  41.0060152
  13.6025166  18.9207249  41.6664530  13.2999851  19.3685732  41.0986462
  20.1456272  14.7227077  38.5686183  20.6167451  15.4367339  38.7376168
  20.4816451  14.1225827  39.1046052  20.2651388  14.7398541  38.6718559
  22.2333257  16.3328390  50.7478255  22.3430223  15.5436951  51.1035002
  22.5624154  16.2434326  49.9452593  22.2985663  16.2034243  50.6820646
  20.7830219  14.5145011  45.3313875  20.2351165  13.8902895  45.0633941
  21.2443248  14.7039283  44.6157955  20.7697428  14.4504061  45.1864306
  23.5924083   2.5830365  42.7165068  23.0087072   3.0839572  42.3042635
  23.9128377   2.0759922  42.0829391  23.5537258   2.5822201  42.5623575
  16.1318882   1.4970960  32.9923742  16.9534577   1.6669273  32.7505437
  15.6688533   1.6518221  32.2690040  16.1850045   1.5452693  32.8495387
  10.5344773  13.2530139  40.6460979  11.1389630  13.2125973  40.0174800
  10.3272086  14.1001291  40.6765035  10.5933670  13.3718141  40.5577096
  20.3488545  15.5196084  41.8623217  21.1686919  15.3759050  42.1239512
  20.0682623  16.1442283  42.4039654  20.4285288  15.5906436  41.9811156
   5.7696055  12.2364756  40.5159902   5.6720333  11.4261028  40.8249959
   6.5524925  12.2156549  40.1306170   5.8712192  12.1131846  40.5046765
  19.1792821  27.8337983  37.2371361  18.9443005  27.0005635  37.1303630
  19.3178461  28.1142649  36.4232562  19.1648483  27.7521486  37.1013716
  21.4782908  20.0023714  40.1355669  20.8587940  19.4116361  39.9665684
  21.3766772  20.5935149  39.5019992  21.3720583  20.0027796  40.0160658
  21.2052041  23.5475995  42.3799238  21.0810738  24.1338441  43.0149057
  21.8570325  23.0536191  42.6811513  21.2825690  23.5614800  42.5185167
  33.9554075  13.1001175  36.7959017  33.6407516  13.7904654  37.2279439
  33.4381017  13.0445957  36.0944518  33.8318545  13.1936064  36.7555966
  28.0358351  31.2381809  46.0611217  27.4729186  30.8254418  46.5850878
  28.7979374  31.1634714  46.4804360  28.0652800  31.1659209  46.2004217
  29.6443331  23.2434545  30.1872816  29.8839335  23.4512529  29.3748159
  29.9659172  22.4392053  30.2961761  29.7280489  23.1548646  30.0833369
  24.6433249  23.4655417  47.7928262  24.8153753  23.3561311  48.6413544
  25.1802607  24.1109822  47.5559454  24.7478253  23.5447418  47.8833359
  23.3090686  17.5798259  30.7310467  23.1266259  17.7970140  29.9051460
  24.1716299  17.6937272  30.7869082  23.4095275  17.6288157  30.6164954
  23.5457821  29.8387057  42.4746761  24.0856046  29.6958188  43.1450133
  22.8627767  30.2383808  42.8430787  23.5249975  29.8766728  42.6281182
  18.9494966  26.0587348  42.6281182  18.6833381  25.2426464  42.7872172
  18.9633530  26.1040503  41.7576698  18.9119688  25.9444252  42.5234664
  35.9276360  16.3865163  40.6623616  36.5702268  16.4563267  41.2485531
  36.1799381  15.7194385  40.1603158  36.0598492  16.2991511  40.6750895
  23.6993572  19.5965726  45.2748190  23.0065369  19.1262706  45.5208921
  24.3153900  19.3704030  45.8489897  23.6878102  19.4932858  45.3957342
  19.3588380  26.8446127  39.9092926  19.1763953  26.8193013  39.0565219
  20.0938049  27.3145065  39.9481835  19.4402443  26.9107489  39.7890845
  22.4234131  23.5631130  46.4175035  23.1474104  23.5484161  46.9039930
  22.5250268  24.2726485  45.9197003  22.5452340  23.6655833  46.4153822
  29.7979081  27.0430215  51.2823982  29.0052061  27.3573726  51.4676602
  29.9128008  27.2581683  50.4444767  29.6974491  27.1214051  51.1862317
  19.3259290  23.7239628  40.0591993  19.9032793  23.5876079  40.6984238
  18.6273352  23.2675412  40.3137577  19.3080311  23.6361894  40.1914283
  14.8018123  22.5751521  36.7739812  14.8878375  22.1983389  37.5553342
  15.4293921  22.2011966  36.2959770  14.9074674  22.4637003  36.8185289
  20.3894082  31.3443254  40.8271172  20.4298227  31.6158105  39.9990952
  20.9488606  31.8685162  41.2428960  20.4777428  31.4619009  40.7663060
  26.5052795  17.6063622  50.9974342  26.1906236  18.3763185  50.7343905
  26.1842727  17.0433878  50.4126569  26.4111714  17.6373891  50.8715692
  33.1817581  16.1432003  44.9431860  33.9271173  15.9541813  44.5295286
  32.7654885  16.6690241  44.3845717  33.2302555  16.1934148  44.7996433
  23.4730360  26.6102782  38.6859980  23.1843609  25.9840253  39.2205707
  24.3413708  26.5523069  38.7524660  23.5590612  26.5090326  38.7750934
  26.1369300  20.2060873  49.7359557  25.3269076  20.5118653  49.6249399
  26.6143987  20.9266456  49.8512141  26.0872779  20.3575474  49.7366628
  22.4713332  25.7423424  44.6058959  22.9834429  26.0207677  43.9567719
  22.1849675  26.4812718  44.9721772  22.5048195  25.8925777  44.5648837
  19.5580239  20.2493615  34.9022696  19.6596375  21.0519777  35.2303671
  20.3536125  20.0480951  34.6045776  19.6908144  20.3379514  34.9058051
  20.3743971  20.3640794  42.6443817  20.2329462  19.5124734  42.7688325
  20.6584534  20.4069454  41.8206023  20.3951817  20.2440544  42.5411441
  25.5607345  33.1267374  43.0672315  25.7096909  32.5670290  42.4145720
  26.3407347  33.2059376  43.4504834  25.6981439  33.0552940  43.0269265
  28.0860646  33.2982017  44.3456806  28.0104317  32.6290828  44.9007595
  28.0150505  33.9999805  44.8597473  28.0641253  33.3026924  44.5033654
  21.1434276  18.2771141  45.9621268  20.6076465  17.6651499  46.2782035
  21.2052041  18.8519277  46.6154934  21.0729909  18.2718069  46.1056694
  33.3728611  11.2095197  38.7425667  33.4912179  11.6671660  38.0092970
  33.1990786  10.4040458  38.4561884  33.3647782  11.1588969  38.5926601
  23.2623032  25.6851875  35.7741322  23.4187651  25.6198678  36.6297314
  23.6023625  26.4600428  35.5620002  23.3356267  25.7901074  35.8695916
  33.6719284  29.2712406  51.7561598  34.4854149  28.9997555  51.9166730
  33.5114250  28.9719946  50.9521794  33.7689232  29.1867332  51.6607004
  19.8357293  22.8686826  36.0902089  20.2156258  23.2871371  35.4262357
  19.2612658  23.4500282  36.3970933  19.8068618  23.0164685  36.0378830
  30.2084041  22.9695200  50.4168995  30.6783672  23.5937316  50.8036869
  30.2545921  22.3012176  50.9762210  30.2851917  22.9629880  50.5569067
  29.1004690  12.5012173  45.2620912  29.7297808  13.0372473  44.9841982
  29.2690553  12.4089532  46.1134477  29.2182485  12.5673535  45.3469440
  28.9018605  17.2883368  47.5347323  29.7292034  17.0168517  47.5905938
  28.9226451  18.0844209  47.8911141  29.0271455  17.3663122  47.5962506
  23.4788095  24.4347231  40.7217584  22.6376101  24.3351105  40.9296478
  23.6878103  25.2042711  41.0731905  23.3852787  24.5339274  40.8044899
  20.9563662  22.0566768  38.5502335  20.5620359  22.1309779  37.7752444
  20.4003779  22.4424714  39.1010696  20.8166474  22.1248542  38.5169994
  25.3523111  29.5778350  44.6787279  25.2443466  29.5880413  45.5449337
  25.5618892  30.4033131  44.4892233  25.3673222  29.7019425  44.7791371
  35.8462296  15.5879826  37.7108979  35.2336610  16.0750228  38.0962711
  35.9426471  14.9123317  38.2546630  35.7700194  15.5598135  37.8487837
  23.3696903  26.8290993  42.1409217  22.7784836  27.4700491  42.1112232
  24.1317926  27.2528610  42.1140516  23.3945163  26.9866831  42.1324364
  23.7657525  17.9892991  42.8077234  24.2259007  18.0631920  43.5452358
  23.8113632  18.7874245  42.4577056  23.8408081  18.1187138  42.8649991
  25.4140875  18.6559686  47.3749261  25.0226440  18.0093033  47.8105039
  25.5826738  19.2471121  47.9943517  25.3811785  18.6473953  47.5311967
  20.5545303  21.6182181  45.1828951  21.4170916  21.5177891  45.0966280
  20.2237086  21.0376891  44.6214523  20.6330500  21.5173808  45.0874356
  24.0988838  18.7849749  27.9012054  23.7501642  19.4369474  28.3643603
  23.6185284  18.7706862  27.1735925  23.9759082  18.8792802  27.8623145
  20.6272765  28.5025090  43.2843133  20.0972689  27.8117529  43.3338108
  20.8997858  28.4935276  42.4555842  20.5897487  28.3992222  43.1690549
  23.1837835  22.0517778  44.0614237  23.3431321  21.2961102  44.4665959
  23.0030728  22.6008718  44.7154975  23.1803194  22.0211592  44.2176943
  31.1258138  14.2179014  44.6165027  30.6298699  14.4142688  43.9256593
  31.8827200  14.6171682  44.4453828  31.1644962  14.3056747  44.4885164
  15.9068607  25.1752855  40.6411481  15.8012056  25.1299699  39.7763565
  15.1568827  25.5206635  40.9225766  15.7804210  25.2193763  40.5548811
  26.8591952  26.1852918  48.6894376  26.0087583  26.3224632  48.8252021
  27.0220080  25.4516696  49.1342078  26.7575816  26.0967019  48.7749975
  23.9060486  16.6261581  48.5204391  24.5313189  16.0823713  48.7933824
  23.4510966  16.1456498  47.9512182  23.9308747  16.4751062  48.4765985
  21.0065957  24.4743231  34.0120221  21.5158186  25.0707739  34.3931527
  21.4800229  24.2069205  33.3296641  21.1509333  24.5229046  33.9674744
  36.0996864  13.6010382  39.7494868  35.5927728  12.8939521  39.6816045
  36.8964297  13.2703571  39.8795944  36.1424103  13.4483533  39.7593863
  21.1445823  20.4049042  47.8995993  20.9748413  21.0650417  47.3544200
  20.7011773  20.6155604  48.6208482  21.0545156  20.5335024  47.9257623
  30.1749178  19.8835712  47.6895887  30.7320608  19.6549521  47.0574352
  29.8510243  20.6441377  47.4131099  30.2095588  19.9619548  47.5552384
  18.0447887  23.3095908  43.1584483  17.4974607  22.6396553  43.2765351
  18.8340265  22.9425756  43.2227950  18.0800071  23.1560894  43.1853184
  27.8932296  22.9703365  48.6547894  28.6443623  23.2855042  48.9687448
  28.0854872  22.7682536  47.8281816  28.0323710  22.9870747  48.5791290
  16.8034857  22.5216716  40.3130506  16.6256618  22.0693325  41.0385422
  16.5153879  23.3242877  40.4968984  16.7347810  22.5739273  40.4474009
  18.5407327  25.0544439  37.4252265  17.6752846  25.0430130  37.3135036
  18.6406142  24.8674662  38.2723404  18.4281493  25.0250501  37.5341210
  24.1664336  34.8242338  40.9982371  24.4810895  35.6378726  41.0060152
  24.5757750  34.4392557  41.6664530  24.2732434  34.8871040  41.0986462
  28.0358351  15.0139855  45.5244278  28.1686257  14.2170849  45.8525253
  28.4203504  15.5406258  46.1042553  28.1114680  14.9739772  45.6587780
  25.6946798  15.0099030  43.7722171  26.2391211  14.6690157  44.3626513
  25.7483734  15.8684492  43.9143456  25.7835917  15.0854290  43.8804045
  21.5077357  28.7715446  40.6460979  22.1122214  28.7311281  40.0174800
  21.3004669  29.6186599  40.6765035  21.5666254  28.8903449  40.5577096
  16.7428639  27.7550064  40.5159902  16.6452917  26.9446335  40.8249959
  17.5257509  27.7341857  40.1306170  16.8444775  27.6317154  40.5046765
  55.2760764  59.5693728  49.1879479  55.9827531  59.0745759  49.3166414
  55.4648699  60.0102809  48.4582137  55.4088670  59.5612078  49.0988525
  51.3437438  65.2109558  36.7152914  51.7276818  65.7796457  36.1757689
  51.2796580  64.4859069  36.2358730  51.3910866  65.1885022  36.5646776
  47.7693683  67.7665901  39.0133883  48.4131138  68.2079066  39.4030042
  48.0949939  66.9619328  38.9264142  47.9125512  67.7131096  39.0579361
  50.7161641  60.6063234  41.3093641  50.9984883  59.8114640  41.0880397
  51.4447801  61.0843821  41.3298702  50.8651204  60.5597831  41.2796657
  60.6979729  59.7122596  38.2829472  59.8677432  59.9233240  38.4462889
  60.6488981  58.8859651  38.0071756  60.5686464  59.6212203  38.2666838
  42.6875312  63.7494270  38.5127567  42.2042891  64.4744759  38.4887151
  43.4998631  64.0470400  38.6237725  42.7366060  63.8996623  38.5254846
  48.7589466  62.5426450  41.1177382  48.2416408  62.1833865  40.5138690
  49.4563858  62.0188625  41.1283448  48.7855048  62.4124138  41.0307640
  52.4153058  62.9921264  47.0793555  52.5036404  62.8047405  47.9271765
  52.8442771  62.3458694  46.6798402  52.4915161  62.8684272  47.1465306
  49.9823518  62.2752424  46.0611217  49.4194353  61.8625034  46.5850878
  50.7444542  62.2005330  46.4804360  50.0117967  62.2029825  46.2004217
  45.5419510  64.2650446  38.6647847  46.2440089  63.7502435  38.7220604
  45.4616993  64.5924597  39.4694722  45.6343270  64.2364672  38.7920639
  45.4922988  60.8757673  42.4746761  46.0321213  60.7328804  43.1450133
  44.8092934  61.2754424  42.8430787  45.4715142  60.9137344  42.6281182
  57.9544044  60.3821951  38.4194188  57.5179276  60.3858693  39.1753159
  57.6206960  61.0627450  37.9873765  57.8406664  60.4834406  38.4675021
  52.5273118  62.4230283  49.7437338  53.3113534  62.5361131  50.1093080
  52.3269712  61.5971421  49.9396024  52.6139143  62.3177003  49.8271724
  52.6843511  64.3340386  43.3903794  51.8858757  64.0939886  43.6477663
  53.1329523  64.3854778  44.1370842  52.6318122  64.3062777  43.5388718
  59.2043678  56.9569919  34.8895418  59.5351895  57.4897559  34.2835513
  59.7776766  57.0108807  35.5457369  59.3377357  57.0439488  34.8973200
  51.7444248  58.0800830  51.2823982  50.9517229  58.3944342  51.4676602
  51.8593175  58.2952299  50.4444767  51.6439658  58.1584667  51.1862317
  52.6728041  57.9821034  46.2209279  53.2466902  57.3448278  46.3757843
  52.5942844  57.9825117  45.3518936  52.7461276  57.8886146  46.1155690
  57.9948188  59.3530012  46.2294132  57.7586826  58.5218077  46.1106193
  58.6391417  59.3015619  46.8148976  58.0542859  59.2227700  46.2980026
  59.0184609  59.1374461  42.2922427  58.7130426  59.8702517  42.6535742
  58.2990825  58.7312390  42.0115213  58.8671951  59.1856194  42.3035564
  64.7186401  55.7767461  41.6190771  64.6510902  55.7963420  40.7493357
  64.7042064  56.6197788  41.8446441  64.7065158  55.9041196  41.5243248
  48.5672664  63.5832699  33.3544128  48.8570963  63.1921680  32.6303355
  49.2976145  63.7649404  33.7949403  48.7179548  63.5526513  33.3126935
  46.5078580  65.5600081  36.4204278  46.2878875  65.2697436  37.2130945
  46.2873102  64.9015036  35.8922190  46.4426174  65.4199790  36.4593187
  48.6746536  66.9329471  35.2034970  49.3270594  66.4005913  35.4325996
  47.9772144  66.5798123  35.5902844  48.6677254  66.8018994  35.2947138
  56.6686454  59.2533885  34.5465949  57.2344487  59.9127095  34.4624492
  56.0214357  59.5983583  35.0182352  56.6565210  59.4015826  34.6038706
  53.1393032  62.1972669  33.9703029  52.8979708  61.4640530  33.5630094
  53.3194365  62.7459526  33.3169362  53.1300656  62.1695061  33.8133252
  56.3695779  59.9461859  40.5775087  56.2310138  60.6442905  41.0823829
  55.5895777  59.7910516  40.2211269  56.2339006  60.0262026  40.6001361
  54.7073864  56.2458234  46.8297468  54.7021903  55.3738051  46.8339895
  55.4134858  56.4446404  46.3566924  54.8118868  56.1462109  46.7604504
  47.5072512  64.1637990  43.0672315  47.6562076  63.6040906  42.4145720
  48.2872514  64.2429992  43.4504834  47.6446606  64.0923556  43.0269265
  57.8649152  59.3040113  31.3391586  57.4855961  58.5177251  31.3320875
  57.2015397  59.8526970  31.1963230  57.7107627  59.2684937  31.3172383
  50.0325813  64.3352633  44.3456806  49.9569484  63.6661444  44.9007595
  49.9615672  65.0370421  44.8597473  50.0106420  64.3397540  44.5033654
  50.6896060  62.8553632  35.1780412  51.4545951  62.5863276  34.8563076
  50.5874150  62.3703642  35.8950475  50.7877555  62.7443197  35.2360240
  56.1109251  61.5485604  31.6743272  56.1929088  62.3552590  31.3504723
  56.5958993  61.5681563  32.3984045  56.1946408  61.6706266  31.7330170
  49.4217447  67.7420953  42.8034807  49.9113378  67.0431742  42.6210472
  48.8501680  67.4444823  43.3910864  49.4101977  67.5947176  42.8635848
  55.6184451  60.3083022  51.7561598  56.4319316  60.0368171  51.9166730
  55.4579417  60.0090562  50.9521794  55.7154399  60.2237948  51.6607004
  54.3061281  63.9135428  36.1411207  53.9141072  63.6102143  35.4234073
  54.4614353  64.7504518  35.9516161  54.2714871  63.9919264  36.0067704
  54.4700955  60.4785416  36.0817237  54.1115610  60.6500059  36.8581270
  53.9839666  60.9398622  35.5245236  54.3459652  60.5724388  36.1142507
  55.6305695  61.3689312  47.0284438  56.2685415  60.8749508  46.6946894
  54.9879786  61.2966713  46.4436665  55.6299921  61.2848321  46.8926793
  55.6859951  62.0609121  43.6689795  56.4752330  61.7098185  43.7891877
  55.8603549  62.8745509  43.4066429  55.8280233  62.1294978  43.6477663
  47.2988278  60.6148966  44.6787279  47.1908633  60.6251028  45.5449337
  47.5084059  61.4403747  44.4892233  47.3138389  60.7390041  44.7791371
  55.0751586  63.3170920  39.5741241  54.8771275  63.8061735  38.8797453
  54.4539297  63.5212162  40.1525375  54.9539150  63.4187459  39.5564464
  56.9925388  56.8835073  45.1086490  57.7159587  56.4307599  44.9297510
  56.7275350  57.1639738  44.3258817  57.0606661  56.8586041  44.9665205
  53.6058022  60.1221409  32.0080816  54.3292221  60.5879522  31.8645389
  53.1658613  60.1895018  31.2578413  53.6473715  60.2005245  31.8765597
  37.8533774  56.2123470  40.6411481  37.7477223  56.1670315  39.7763565
  37.1033994  56.5577251  40.9225766  37.7269377  56.2564379  40.5548811
  51.2554092  60.2678856  44.2374933  50.7479183  60.8214703  44.6815564
  50.9580738  60.3287146  43.4193708  51.1358977  60.3585167  44.1823390
  53.8661872  64.1842114  32.1678877  53.1491182  64.0102976  31.7026114
  54.5168610  63.9494686  31.6354363  53.8563723  64.1237906  32.0208095
  50.4996577  65.2003414  41.1431940  50.2762231  64.4422243  41.5115966
  50.0106420  65.2301435  40.4212380  50.3940026  65.0925639  41.0908681
  52.5567566  59.3685146  48.6943874  52.5163421  58.7234823  48.1089030
  53.3690885  59.3121764  49.0069286  52.6710720  59.2644113  48.6540823
  49.1475034  65.4203872  38.5969025  48.7335433  64.7578002  38.2072866
  49.8322408  65.5681731  38.0764719  49.1873406  65.3444530  38.4625522
  52.5140328  64.5793957  39.3492641  52.1156611  64.6896228  38.5813462
  51.8991548  64.7876024  39.9319201  52.3639217  64.6267525  39.3223941
  60.2482171  59.1545924  32.7335732  60.6315777  59.9037280  32.9633829
  59.4526284  59.4011744  32.4747721  60.1875953  59.3015618  32.7293306
  46.1129504  65.8612954  40.9982371  46.4276063  66.6749342  41.0060152
  46.5222917  65.4763173  41.6664530  46.2197602  65.9241656  41.0986462
  53.0654023  61.2783001  38.5686183  53.5365201  61.9923263  38.7376168
  53.4014202  60.6781751  39.1046052  53.1849138  61.2954465  38.6718559
  55.1531008  62.8884314  50.7478255  55.2627973  62.0992875  51.1035002
  55.4821904  62.7990250  49.9452593  55.2183414  62.7590167  50.6820646
  53.7027970  61.0700935  45.3313875  53.1548916  60.4458818  45.0633941
  54.1640998  61.2595207  44.6157955  53.6895179  61.0059985  45.1864306
  53.2686296  62.0752007  41.8623217  54.0884670  61.9314974  42.1239512
  52.9880373  62.6998206  42.4039654  53.3483039  62.1462360  41.9811156
  38.6893806  58.7920680  40.5159902  38.5918084  57.9816951  40.8249959
  39.4722676  58.7712473  40.1306170  38.7909942  58.6687770  40.5046765
  69.7399946  69.7316859  34.8266093  69.7093951  70.5861496  34.9984362
  70.3381295  69.4312152  35.3852237  69.8237104  69.8133356  34.9340895
  62.9399631  68.8192510  39.5819023  62.0837527  68.9801008  39.6328140
  62.9867285  67.9484574  39.6024084  62.8198743  68.7143312  39.5925089
  57.3240771  78.3555228  35.3456255  56.5723670  77.9770766  35.1172300
  57.7726782  78.3873662  34.5975065  57.2790438  78.3040835  35.2013757
  66.2493348  75.0879036  49.1879479  66.9560115  74.5931067  49.3166414
  66.4381283  75.5288117  48.4582137  66.3821253  75.0797386  49.0988525
  65.7851452  70.8784554  42.2250675  66.3307412  71.5569641  42.2844645
  65.7268328  70.7372015  41.3652256  65.8567366  70.9576556  42.1062736
  58.9025527  78.3673620  37.6119027  59.0035890  77.5573974  37.9216155
  58.3067272  78.2730567  36.9818706  58.8298066  78.2338648  37.5645266
  67.5616521  72.3069161  33.0984403  67.4456047  73.0576847  33.5276541
  68.3572407  72.0493115  33.3480490  67.6621110  72.3804008  33.1988494
  52.0990571  74.3893907  37.2371361  51.8640756  73.5561559  37.1303630
  52.2376212  74.6698572  36.4232562  52.0846234  74.3077410  37.1013716
  54.3980659  66.5579637  40.1355669  53.7785690  65.9672285  39.9665684
  54.2964522  67.1491073  39.5019992  54.2918334  66.5583720  40.0160658
  59.4446846  76.2963184  34.3853745  59.7662687  76.8368392  33.7815053
  60.0918943  75.7259956  34.5176035  59.5872901  76.2922359  34.3160781
  61.4948554  68.2979179  34.4688132  62.1928719  68.4767307  34.9609595
  61.8100887  67.7749519  33.8458521  61.6443892  68.2472951  34.4490142
  54.1249792  70.1031919  42.3799238  54.0008489  70.6894365  43.0149057
  54.7768076  69.6092115  42.6811513  54.2023441  70.1170724  42.5185167
  61.6836490  74.6849624  34.4567923  62.1230125  74.0766725  34.9022696
  61.5341153  74.3056998  33.6853388  61.7257955  74.5388095  34.4087091
  59.1508133  73.2793636  41.6586749  59.7957135  72.7866079  41.3397697
  59.3909910  73.4218423  42.4852827  59.2818718  73.2271078  41.7336282
  61.6894224  76.1248542  41.3093641  61.9717467  75.3299948  41.0880397
  62.4180384  76.6029129  41.3298702  61.8383788  76.0783139  41.2796657
  59.6675418  63.6671576  38.5509406  59.3378748  64.1182719  37.8813105
  58.9920420  63.5887739  39.0982413  59.5185854  63.7222711  38.5332630
  65.2845826  73.0376806  31.4098693  65.1997121  73.8937772  31.5548261
  65.7730209  72.7621130  32.0780852  65.3434724  73.1234127  31.5300774
  66.8751826  59.6557099  36.7959017  66.5605267  60.3460577  37.2279439
  66.3578767  59.6001881  36.0944518  66.7516296  59.7491987  36.7555966
  66.2164259  69.6561600  32.9096428  65.6875731  69.8721233  33.5693734
  66.7389279  70.3497738  32.8297397  66.2152712  69.7904737  32.9952027
  58.1063867  73.5524816  31.7103896  57.5221083  74.0574848  32.1169760
  57.7033962  73.3267203  30.9700488  57.9603171  73.5933065  31.6608921
  53.6607896  79.2679578  38.5127567  53.1775474  79.9930067  38.4887151
  54.4731214  79.5655708  38.6237725  53.7098644  79.4181931  38.5254846
  59.7322050  78.0611758  41.1177382  59.2148992  77.7019173  40.5138690
  60.4296441  77.5373933  41.1283448  59.7587631  77.9309446  41.0307640
  60.9556102  77.7937732  46.0611217  60.3926937  77.3810342  46.5850878
  61.7177125  77.7190638  46.4804360  60.9850550  77.7215133  46.2004217
  62.5641082  69.7990469  30.1872816  62.8037085  70.0068452  29.3748159
  62.8856923  68.9947977  30.2961761  62.6478240  69.7104570  30.0833369
  57.8731372  61.7283864  34.0332354  58.6277340  62.0962181  33.7949404
  57.6958907  62.1023419  34.8011534  57.9585850  61.8382052  34.1117243
  56.5152093  79.7835754  38.6647847  57.2172672  79.2687743  38.7220604
  56.4349576  80.1109905  39.4694722  56.6075854  79.7549980  38.7920639
  71.1666271  67.8778305  42.0779894  70.3294692  67.9480492  42.3127488
  71.1354502  67.8802800  41.2054196  71.0384553  67.8888532  41.9839442
  57.5631000  70.0211340  47.7928262  57.7351503  69.9117235  48.6413544
  58.1000357  70.6665746  47.5559454  57.6676004  70.1003342  47.8833359
  56.2288437  64.1354183  30.7310467  56.0464010  64.3526064  29.9051460
  57.0914050  64.2493196  30.7869082  56.3293026  64.1844081  30.6164954
  55.8402869  75.9742105  38.1733455  56.6791768  76.2065038  38.2207217
  55.8714638  75.1046417  38.1040491  55.9684586  75.8799052  38.1698100
  56.4655572  76.3942981  42.4746761  57.0053797  76.2514112  43.1450133
  55.7825518  76.7939731  42.8430787  56.4447725  76.4322652  42.6281182
  61.9088156  61.1380594  33.7659491  62.6374316  60.9596549  33.3197647
  61.9983049  61.9798674  33.9766669  62.0294818  61.2364472  33.7313009
  65.8896457  72.0733981  37.6691785  66.6453972  72.5065496  37.7080694
  65.9958781  71.4238751  38.2426421  66.0166627  72.0411465  37.7589811
  51.8692717  72.6143271  42.6281182  51.6031132  71.7982388  42.7872172
  51.8831281  72.6596427  41.7576698  51.8317439  72.5000176  42.5234664
  68.8474111  62.9421086  40.6623616  69.4900019  63.0119191  41.2485531
  69.0997131  62.2750309  40.1603158  68.9796243  62.8547435  40.6750895
  55.7750464  67.4128356  29.2432940  55.0608641  67.1266535  29.6555373
  56.2594432  67.7524982  29.8839328  55.7409827  67.4210006  29.3988575
  56.6191323  66.1521650  45.2748190  55.9263120  65.6818629  45.5208921
  57.2351650  65.9259954  45.8489897  56.6075853  66.0488782  45.3957342
  62.9497782  75.9158310  29.6194748  63.3648930  75.5843334  28.9279244
  62.1189711  75.6827212  29.4914885  62.8885790  75.8329566  29.4985596
  52.2786130  73.4002051  39.9092926  52.0961704  73.3748937  39.0565219
  53.0135799  73.8700989  39.9481835  52.3600194  73.4663413  39.7890845
  68.3485805  73.6353561  37.0525814  68.5841394  73.7798760  36.2252665
  68.4975368  74.3995969  37.4457328  68.4051608  73.7692615  36.9889418
  55.3431882  70.1187054  46.4175035  56.0671854  70.1040084  46.9039930
  55.4448019  70.8282409  45.9197003  55.4650091  70.2211757  46.4153822
  70.1776261  72.4755227  34.8895418  70.5084478  73.0082867  34.2835513
  70.7509349  72.5294115  35.5457369  70.3109940  72.5624796  34.8973200
  62.7176831  73.5986138  51.2823982  61.9249812  73.9129650  51.4676602
  62.8325759  73.8137607  50.4444767  62.6172242  73.6769975  51.1862317
  65.3908150  70.3220130  35.5718998  65.4855005  71.0609424  36.0258623
  64.7666994  69.8937605  36.0053562  65.3117180  70.3681450  35.7027145
  63.6460624  73.5006342  46.2209279  64.2199486  72.8633586  46.3757843
  63.5675428  73.5010425  45.3518936  63.7193859  73.4071454  46.1155690
  52.2457041  70.2795552  40.0591993  52.8230543  70.1432002  40.6984238
  51.5471102  69.8231336  40.3137577  52.2278062  70.1917818  40.1914283
  65.6431172  72.1668869  28.8055950  65.5611334  72.2371056  29.6710937
  66.2810892  72.7298613  28.6139691  65.7251009  72.2607840  28.9045899
  59.0024343  71.9329607  38.2730476  58.7443587  71.1001342  38.2461776
  59.0572826  72.1587220  37.4322977  58.9724121  71.8427379  38.1450613
  64.0825393  64.0358058  38.3734569  63.3781720  63.5467243  38.5318488
  64.1310367  64.0480532  37.5023013  63.9855445  63.9647706  38.2673909
  57.9759055  69.4867370  38.7595371  57.4008646  69.6459538  39.3959332
  57.5994731  68.8502779  38.2963822  57.8361867  69.4165183  38.7849929
  61.6432344  67.9590719  43.6187749  61.2546776  67.5344937  42.9639941
  60.9787042  68.2072869  44.1264776  61.4879271  67.9329440  43.5975617
  71.2855613  67.7165724  36.3935579  71.0292178  66.9045665  36.2033462
  72.1284927  67.7243291  36.1665767  71.3721638  67.5977721  36.3320397
  47.7215874  69.1307444  36.7739812  47.8076126  68.7539313  37.5553342
  48.3491671  68.7567890  36.2959770  47.8272425  69.0192927  36.8185289
  65.4658705  61.6565348  41.1311734  65.8469217  60.9743519  41.5179608
  64.6621989  61.3674950  40.9487398  65.4035167  61.5132396  41.1615790
  62.7471282  72.1889324  31.8164556  63.5611921  72.4804216  31.7047328
  62.6830423  71.5349186  31.2422849  62.8574021  72.1354518  31.7153394
  58.6179190  75.6610841  36.9436868  59.2553137  75.4222589  37.4888662
  59.0434262  75.8648000  36.2090029  58.7755356  75.6561851  36.9154026
  53.3091833  77.8999178  40.8271172  53.3495978  78.1714029  39.9990952
  53.8686357  78.4241086  41.2428960  53.3975178  78.0174933  40.7663060
  59.2582005  70.8813131  31.2811758  59.6427158  70.6620838  32.0328303
  59.0093626  71.7076076  31.4112834  59.2784078  70.9711277  31.4112834
  59.4250546  64.1619546  50.9974342  59.1103987  64.9319109  50.7343905
  59.1040478  63.5989802  50.4126569  59.3309465  64.1929815  50.8715692
  61.0000662  76.1383264  38.6230655  61.0739670  75.9758436  39.4772505
  61.8170168  76.3273453  38.3791136  61.1317021  76.1420006  38.7128680
  54.7606419  76.4841126  35.6525098  53.9344536  76.7302864  35.5259377
  54.8218410  76.4053207  36.5187156  54.6480586  76.5086075  35.7614043
  56.9782443  62.5510067  36.6120538  56.1104868  62.6232667  36.6778148
  57.2657647  63.3532146  36.8008513  56.8922191  62.6804215  36.6495305
  66.1015331  62.6987927  44.9431860  66.8468923  62.5097737  44.5295286
  65.6852636  63.2246165  44.3845717  66.1500306  62.7490072  44.7996433
  59.5405248  79.1018007  33.3544128  59.8303546  78.7106988  32.6303355
  60.2708729  79.2834712  33.7949403  59.6912132  79.0711820  33.3126935
  73.4777602  70.0697155  39.8937365  74.0285524  69.4365224  40.1334457
  73.4621718  70.6012548  40.5852869  73.5562799  70.0546104  40.0316223
  60.1299993  73.9035753  44.4397259  59.6311687  74.6151520  44.5182147
  60.9400217  74.2236419  44.4015421  60.1756100  74.0562601  44.4453827
  57.4811163  81.0785389  36.4204278  57.2611459  80.7882744  37.2130945
  57.2605685  80.4200344  35.8922190  57.4158758  80.9385098  36.4593187
  56.3928111  73.1658706  38.6859980  56.1041359  72.5396177  39.2205707
  57.2611459  73.1078993  38.7524660  56.4788363  73.0646250  38.7750934
  67.1806008  68.3093489  39.0041961  66.8370774  67.5883824  39.3549211
  67.2799051  68.1007340  38.1620320  67.1448051  68.1717692  38.9313641
  56.5960384  74.8053957  34.6102345  57.3506352  75.1866996  34.8237807
  56.0030997  75.2565100  35.0649041  56.6197098  74.9282784  34.7085223
  59.0567051  66.7616797  49.7359557  58.2466827  67.0674577  49.6249399
  59.5341738  67.4822379  49.8512141  59.0070530  66.9131398  49.7366628
  57.9158611  75.9762518  39.9842460  57.3939364  76.1162810  40.6694325
  58.3032631  75.2173182  40.1744577  57.8962312  75.8848042  40.1143536
  54.9049795  66.0268327  34.0537415  54.6174590  65.6569597  33.3169362
  55.5920263  66.4963182  33.7921120  54.9638692  66.0415296  33.9052490
  59.3424936  73.0066537  35.3823951  59.1467719  73.6141272  34.7884254
  59.5659282  72.3134481  34.9015625  59.3459577  72.9944063  35.2240032
  57.7403466  69.8921275  35.5004819  58.4626118  70.0562433  35.0408625
  57.2611459  70.6130940  35.3944159  57.7767197  70.0219505  35.4170433
  65.6996974  66.2285074  40.8801504  64.8608074  66.2546353  40.6439768
  65.7701341  66.8755809  41.4606851  65.5865367  66.3281200  40.9310621
  55.3911083  72.2979347  44.6058959  55.9032180  72.5763601  43.9567719
  55.1047426  73.0368641  44.9721772  55.4245946  72.4481701  44.5648837
  64.1466252  63.1270451  35.6129120  64.8492605  62.9278199  35.1349078
  63.8810441  62.3546393  35.9197964  64.2112884  62.9833417  35.5874562
  69.5754498  71.4353061  38.1662746  69.4888472  71.5908487  39.0197525
  69.1204978  72.0791136  37.7922151  69.4957754  71.5528816  38.2369853
  52.4777989  66.8049539  34.9022696  52.5794126  67.6075701  35.2303671
  53.2733876  66.6036875  34.6045776  52.6105895  66.8935438  34.9058051
  58.9094808  64.3905736  44.6660001  58.7178005  64.4060870  45.5159424
  59.7593404  64.5869410  44.6426656  59.0070530  64.4220087  44.7883296
  53.2941721  66.9196717  42.6443817  53.1527213  66.0680658  42.7688325
  53.5782285  66.9625378  41.8206023  53.3149567  66.7996467  42.5411441
  63.4480314  68.7563808  36.7888306  63.2015028  68.6759559  37.6225094
  63.7765437  67.9717275  36.5950833  63.4601557  68.6290073  36.8835829
  65.6806448  71.7643542  46.8297468  65.6754486  70.8923359  46.8339895
  66.3867442  71.9631712  46.3566924  65.7851452  71.6647417  46.7604504
  59.4077341  71.4920526  46.2011289  59.5520717  72.0721734  45.5654399
  59.7552990  71.8696823  46.9061143  59.4804802  71.6341230  46.2110284
  61.5797258  70.6910695  43.9836420  60.8320572  70.8841709  43.5784698
  61.7338784  69.8655914  43.7460541  61.4919686  70.5975806  43.8881826
  58.4805096  79.6823298  43.0672315  58.6294660  79.1226214  42.4145720
  59.2605098  79.7615300  43.4504834  58.6179190  79.6108864  43.0269265
  61.8199035  64.5861245  44.8731824  62.2771649  65.3185220  45.0004616
  61.8955364  64.1627711  45.6319080  61.8990005  64.6318483  45.0032900
  54.0632027  64.8327065  45.9621268  53.5274216  64.2207423  46.2782035
  54.1249791  65.4075201  46.6154934  53.9927659  64.8273993  46.1056694
  66.2926361  57.7651121  38.7425667  66.4109929  58.2227584  38.0092970
  66.1188537  56.9596382  38.4561884  66.2845532  57.7144893  38.5926601
  61.6628644  78.3738940  35.1780412  62.4278535  78.1048584  34.8563076
  61.5606733  77.8888950  35.8950475  61.7610139  78.2628504  35.2360240
  59.6981413  66.5763349  41.7173648  58.9077488  66.3954809  42.0390984
  60.0942036  65.7990302  41.7003942  59.6398289  66.4350810  41.7626196
  64.1847304  75.4051124  27.1580362  64.9520289  75.4651249  26.7486213
  63.7378613  74.8331565  26.6736680  64.2320731  75.3287699  27.0258072
  65.0825100  74.2105779  39.4433094  64.4070101  73.9791012  39.9446481
  65.0917476  73.6026962  38.8175199  64.9843604  74.0864705  39.4249246
  62.2119244  69.0523608  46.1997147  62.1478385  69.9133565  46.0717284
  62.3516431  68.7355602  45.3992698  62.2234714  69.1323775  46.0625360
  60.8938337  71.7455748  40.3413350  60.4700587  71.9460247  39.6052368
  60.7183193  70.8984596  40.4537650  60.8049218  71.6504529  40.2487040
  56.1820782  72.2407799  35.7741322  56.3385402  72.1754602  36.6297314
  56.5221376  73.0156352  35.5620002  56.2554017  72.3456997  35.8695916
  62.7199927  71.6165683  34.6434686  63.2615472  71.1136064  35.1073306
  63.0346486  71.5630877  33.8324171  62.8464324  71.5345104  34.5918498
  60.8886377  77.0083034  31.9274714  60.9579197  76.1497573  32.0667714
  61.6674832  77.2254915  31.5993738  61.0139227  76.9135898  31.8991871
  63.8689196  66.5101987  44.6956986  64.0831166  65.8712901  44.1420340
  63.2523096  66.9547811  44.2664848  63.8094526  66.4812131  44.5507417
  52.7555044  69.4242750  36.0902089  53.1354009  69.8427295  35.4262357
  52.1810409  70.0056205  36.3970933  52.7266369  69.5720608  36.0378830
  66.0328284  68.1191052  45.6340293  65.2204966  67.8116943  45.7153466
  66.4918219  67.6390053  46.1983005  65.9808669  68.0027545  45.7294887
  65.4433539  75.9970724  36.0817237  65.0848194  76.1685367  36.8581270
  64.9572250  76.4583930  35.5245236  65.3192236  76.0909695  36.1142507
  60.2321904  71.6769890  28.6217472  60.5214429  72.4534772  28.8961046
  60.3193703  71.1658621  29.3231971  60.2876161  71.7161808  28.7659970
  63.1281792  69.5251124  50.4168995  63.5981423  70.1493240  50.8036869
  63.1743672  68.8568099  50.9762210  63.2049668  69.5185804  50.5569067
  60.2853066  61.6308151  41.1417799  59.7691554  60.9388343  41.2669378
  59.7246994  62.2978928  41.0880398  60.1259579  61.6271409  41.1523865
  62.3545299  62.1701111  42.9710652  61.9677052  62.1950143  43.7524182
  61.8678236  61.6042790  42.5185168  62.2257808  62.0896862  43.0198555
  68.3295279  68.7363766  41.5950354  67.9022887  68.6490115  40.8398453
  67.6921331  68.8441542  42.1805198  68.1724886  68.7396426  41.5695795
  62.0202441  59.0568097  45.2620912  62.6495559  59.5928397  44.9841982
  62.1888303  58.9645456  46.1134477  62.1380235  59.1229459  45.3469440
  61.8216356  63.8439292  47.5347323  62.6489785  63.5724440  47.5905938
  61.8424202  64.6400133  47.8911141  61.9469206  63.9219046  47.5962506
  56.3985845  70.9903154  40.7217584  55.5573852  70.8907029  40.9296478
  56.6075853  71.7598635  41.0731905  56.3050538  71.0895198  40.8044899
  53.8761412  68.6122691  38.5502335  53.4818110  68.6865703  37.7752444
  53.3201529  68.9980638  39.1010696  53.7364225  68.6804466  38.5169994
  65.5126359  61.5903985  38.2306213  65.7175953  61.5226293  39.0763211
  65.1852783  62.3962807  38.1627391  65.4941607  61.6989926  38.3465869
  60.2102510  68.9184554  39.9715181  59.9065648  68.3640542  40.5725589
  59.5081931  69.0976764  39.4843216  60.0618720  68.8629336  39.9884887
  59.2668607  66.2285073  34.5359883  59.5428342  65.5103986  34.1237451
  59.8667277  66.8269993  34.3280989  59.3961872  66.2105444  34.4440644
  58.2720861  76.1334274  44.6787279  58.1641216  76.1436336  45.5449337
  58.4816643  76.9589055  44.4892233  58.2870972  76.2575349  44.7791371
  68.7660047  62.1435750  37.7108979  68.1534361  62.6306152  38.0962711
  68.8624222  61.4679240  38.2546630  68.6897945  62.1154058  37.8487837
  62.7679128  63.8998591  32.8106478  63.2222874  64.0709151  33.5354323
  63.2419174  63.2866701  32.4104254  62.9047448  63.8349476  32.8580240
  56.2894653  73.3846917  42.1409217  55.6982587  74.0256415  42.1112232
  57.0515677  73.8084534  42.1140516  56.3142914  73.5422755  42.1324364
  56.6855276  64.5448914  42.8077234  57.1456758  64.6187844  43.5452358
  56.7311383  65.3430168  42.4577056  56.7605831  64.6743061  42.8649991
  58.3338626  65.2115609  47.3749261  57.9424191  64.5648956  47.8105039
  58.5024489  65.8027045  47.9943517  58.3009536  65.2029877  47.5311967
  60.1092148  70.6041125  33.9151485  60.8534193  70.9915401  34.1534435
  60.2552844  69.7598550  34.0791973  60.2402733  70.5371598  33.9745455
  62.0271723  62.3991384  38.9483347  61.1807768  62.5714192  38.8224697
  62.0242856  61.5940728  39.2849175  61.9018873  62.3052413  38.9794474
  63.0970024  66.1766598  39.8145405  62.6229978  65.6508360  40.3250716
  63.4688160  65.6296071  39.2460266  63.0819913  66.0182595  39.8060552
  53.4743054  68.1738105  45.1828951  54.3368667  68.0733814  45.0966280
  53.1434837  67.5932814  44.6214523  53.5528250  68.0729732  45.0874356
  69.3606754  71.2368974  41.2252185  69.1204977  70.3975389  41.2294612
  69.8398762  71.3169141  41.9492959  69.3958938  71.1250374  41.3326988
  65.0253523  67.0703153  32.8771159  64.4976542  67.1531897  32.1876867
  65.4849232  67.8121024  32.8735803  65.0155374  67.1923815  32.7745854
  71.3611941  68.0170431  39.1781444  71.1221711  67.9766265  38.3402229
  71.5245843  68.8641583  39.3047166  71.3502245  68.1362516  39.0734926
  67.9657971  72.4020381  45.1086490  68.6892170  71.9492907  44.9297510
  67.7007934  72.6825046  44.3258817  68.0339245  72.3771349  44.9665205
  56.8344840  66.9980554  41.8439369  56.2097910  67.0098946  41.2365321
  56.4990435  67.4740729  42.4930609  56.6930332  67.0699071  41.8495937
  57.0186589  65.3405673  27.9012054  56.6699393  65.9925398  28.3643603
  56.5383034  65.3262786  27.1735925  56.8956833  65.4348726  27.8623145
  53.5470515  75.0581014  43.2843133  53.0170440  74.3673453  43.3338108
  53.8195609  75.0491200  42.4555842  53.5095238  74.9548146  43.1690549
  64.5790606  75.6406717  32.0080816  65.3024805  76.1064830  31.8645389
  64.1391197  75.7080326  31.2578413  64.6206298  75.7190553  31.8765597
  63.7476761  72.5004259  43.2581505  63.1333754  71.9562309  43.5530140
  64.2644046  71.9868495  42.7787321  63.7332423  72.3440668  43.2305733
  62.9873058  73.5708529  40.9925803  62.5600666  72.9458247  40.5591239
  62.9798003  73.2883451  41.8184811  62.9232199  73.4361309  41.0505631
  56.1035585  68.6073702  44.0614237  56.2629072  67.8517026  44.4665959
  55.9228479  69.1564641  44.7154975  56.1000944  68.5767516  44.2176943
  64.0455888  60.7734937  44.6165027  63.5496450  60.9698612  43.9256593
  64.8024950  61.1727606  44.4453828  64.0842713  60.8612671  44.4885164
  61.3158768  64.4477283  41.2068337  61.3401255  63.9137396  40.5181117
  61.5670241  63.9394592  41.8693928  61.3568687  64.2938187  41.2032982
  48.8266358  71.7308778  40.6411481  48.7209807  71.6855623  39.7763565
  48.0766578  72.0762559  40.9225766  48.7001961  71.7749686  40.5548811
  57.5960090  63.1748102  40.5874082  57.6358462  63.6757308  41.3008789
  56.7709755  63.2658495  40.3180005  57.4799616  63.2629918  40.6524620
  59.7789703  72.7408842  48.6894376  58.9285333  72.8780556  48.8252021
  59.9417831  72.0072620  49.1342078  59.6773566  72.6522943  48.7749975
  59.0174453  69.6908611  42.8847981  58.1866383  69.8582429  42.6783229
  58.9625971  69.3144562  43.6696866  58.8863868  69.6598343  42.9696509
  56.8258237  63.1817504  48.5204391  57.4510940  62.6379637  48.7933824
  56.3708717  62.7012422  47.9512182  56.8506497  63.0306986  48.4765985
  57.3910497  67.9664203  33.4138098  57.5313458  68.4636667  34.1166740
  57.8893030  67.2650497  33.5552312  57.4851578  67.9366182  33.5389677
  57.4210720  68.8331314  30.7430675  58.0555799  69.4291739  30.6780137
  57.5036330  68.5334772  31.5576545  57.5267271  68.8772222  30.8533762
  70.3993285  71.3646791  43.6117039  70.9911126  72.0044042  43.6435237
  70.8352280  70.6669828  43.9009106  70.5511717  71.3565142  43.6597872
  58.9989703  64.7645289  30.7176117  59.3205544  64.2848372  30.0635379
  59.2616646  65.5744935  30.5266929  59.0855728  64.8135187  30.5931609
  62.2286675  75.7864164  44.2374933  61.7211766  76.3400011  44.6815564
  61.9313322  75.8472454  43.4193708  62.1091560  75.8770475  44.1823390
  64.3948858  64.1517483  43.0799596  64.8203929  63.6990010  42.4683123
  63.7805851  63.5977554  43.3564384  64.3677503  64.0031460  43.0304622
  53.9263708  71.0299155  34.0120221  54.4355937  71.6263662  34.3931527
  54.3997980  70.7625128  33.3296641  54.0707083  71.0784970  33.9674744
  62.8343080  60.6232583  36.4890173  62.1911398  60.4730230  37.0575312
  62.4942487  60.3774928  35.7239278  62.6888158  60.5644706  36.4593188
  67.4242427  68.5792010  35.9120182  66.7533617  69.1221712  35.7833247
  68.1182177  69.0486865  35.6701877  67.4271294  68.7290281  35.8575710
  67.5870554  65.0347894  38.8210555  67.9398164  64.6077617  39.4956354
  66.7285356  64.9498737  38.9511631  67.5119999  64.9592634  38.9405566
  56.2854239  67.6655413  36.8793402  55.5666228  68.0819546  37.1466265
  56.6566602  68.2309652  36.3285040  56.2346171  67.8104695  36.8376209
  65.5853820  68.2983262  42.7695397  65.5651747  68.1166557  43.6230176
  65.6333021  69.1695281  42.7454981  65.5888461  68.3999800  42.8918692
  63.5300150  74.8870454  48.6943874  63.4896005  74.2420131  48.1089030
  64.3423468  74.8307072  49.0069286  63.6443303  74.7829421  48.6540823
  62.0600814  66.7053413  32.2166781  61.4665653  67.0270410  31.6651348
  62.0976091  65.8594509  32.0087887  61.9775203  66.6277741  32.1049552
  69.0194614  60.1566305  39.7494868  68.5125479  59.4495445  39.6816045
  69.8162048  59.8259494  39.8795944  69.0621854  60.0039457  39.7593863
  64.9358630  66.6632918  35.6468531  64.7072323  66.6865619  34.8046890
  65.1956706  65.8390385  35.7663542  64.9404818  66.5448998  35.5393729
  59.2177859  68.5167391  45.2493632  58.7056762  67.9088574  45.6078663
  59.0457355  69.2323983  45.7167607  59.1167496  68.5330690  45.3709855
  54.0643573  66.9604966  47.8995993  53.8946164  67.6206341  47.3544200
  53.6209523  67.1711527  48.6208482  53.9742907  67.0890948  47.9257623
  57.9903393  65.2009464  36.9422727  58.4660759  65.5626544  36.3072908
  57.4891992  65.8565932  37.2222870  57.9868752  65.3503653  36.8899468
  63.0946929  66.4391635  47.6895887  63.6518359  66.2105445  47.0574352
  62.7707994  67.1997301  47.4131099  63.1293339  66.5175472  47.5552384
  50.9645638  69.8651832  43.1584483  50.4172357  69.1952477  43.2765351
  51.7538016  69.4981680  43.2227950  50.9997822  69.7116818  43.1853184
  60.8130046  69.5259289  48.6547894  61.5641373  69.8410966  48.9687448
  61.0052623  69.3238460  47.8281816  60.9521460  69.5426671  48.5791290
  60.0330046  67.3450664  30.3096111  60.4129011  67.3630293  29.5247226
  59.2922642  67.7904653  30.1886958  59.9798884  67.4132438  30.1759679
  67.6615336  65.6532855  35.8971690  67.6609563  65.4981512  36.7555966
  67.4571516  66.4995842  35.8413075  67.6315114  65.7553476  36.0159629
  49.7232607  69.0772639  40.3130506  49.5454368  68.6249248  41.0385422
  49.4351630  69.8798801  40.4968984  49.6545561  69.1295197  40.4474009
  65.3856188  70.3330357  39.5507896  65.8809854  69.6153352  39.5111917
  64.5755964  70.0301154  39.4362383  65.3400082  70.1828003  39.5281622
  60.8314800  74.1828170  31.7004901  60.0226123  73.8594844  31.6538210
  61.3389709  73.4761392  31.6333150  60.7864467  74.0309486  31.6835195
  51.4605077  71.6100363  37.4252265  50.5950597  71.5986054  37.3135036
  51.5603893  71.4230586  38.2723404  51.3479244  71.5806424  37.5341210
  67.4508007  73.0834044  42.2385025  67.8763079  72.5608466  41.6855450
  67.0864927  73.6814882  41.7173648  67.4594610  73.0944271  42.0794035
  57.0862087  81.3798262  40.9982371  57.4008646  82.1934650  41.0060152
  57.4955500  80.9948480  41.6664530  57.1930185  81.4426964  41.0986462
  64.0386607  76.7968309  38.5686183  64.5097785  77.5108571  38.7376168
  64.3746785  76.1967059  39.1046052  64.1581722  76.8139773  38.6718559
  60.9556102  61.5695779  45.5244278  61.0884007  60.7726773  45.8525253
  61.3401254  62.0962182  46.1042553  61.0312431  61.5295696  45.6587780
  64.6760553  76.5886243  45.3313875  64.1281499  75.9644126  45.0633941
  65.1373582  76.7780515  44.6157955  64.6627763  76.5245293  45.1864306
  64.0288457  58.4926105  42.1225371  63.2234421  58.3823835  42.4393209
  63.8995192  58.5938561  41.2655237  63.8908590  58.4909775  42.0433411
  67.4854417  64.6571597  42.7165068  66.9017406  65.1580804  42.3042635
  67.8058712  64.1501153  42.0829391  67.4467593  64.6563432  42.5623575
  60.0249217  63.5712192  32.9923742  60.8464911  63.7410505  32.7505437
  59.5618868  63.7259453  32.2690040  60.0780379  63.6193925  32.8495387
  58.6144549  61.5654954  43.7722171  59.1588961  61.2246081  44.3626513
  58.6681484  62.4240416  43.9143456  58.7033668  61.6410214  43.8804045
  54.4275107  75.3271370  40.6460979  55.0319965  75.2867204  40.0174800
  54.2202420  76.1742522  40.6765035  54.4864005  75.4459373  40.5577096
  49.6626390  74.3105988  40.5159902  49.5650668  73.5002259  40.8249959
  50.4455259  74.2897781  40.1306170  49.7642526  74.1873078  40.5046765
  36.5153019   0.1139067  21.7606140  36.4847024   0.9683703  21.9324409
  37.1134368  -0.1865641  22.3192283  36.5990177   0.1955563  21.8680942
  29.7152704  -0.7985282  26.5159070  28.8590600  -0.6376784  26.5668187
  29.7620358  -1.6693218  26.5364131  29.5951816  -0.9034481  26.5265136
  24.0993844   8.7377435  22.2796302  23.3476744   8.3592974  22.0512347
  24.5479856   8.7695869  21.5315112  24.0543511   8.6863043  22.1353804
  33.0246421   5.4701243  36.1219526  33.7313188   4.9753274  36.2506461
  33.2134356   5.9110325  35.3922184  33.1574326   5.4619594  36.0328572
  29.5518804   9.1602805  17.7081849  29.2170172   9.8379727  17.2726071
  30.0645674   8.7708116  17.1198720  29.5784385   9.2027383  17.5568640
  29.0923095  11.1117074  23.6492960  29.4762474  11.6803972  23.1097736
  29.0282236  10.3866584  23.1698776  29.1396522  11.0892537  23.4986823
  32.5604525   1.2606762  29.1590722  33.1060485   1.9391848  29.2184691
  32.5021402   1.1194222  28.2992303  32.6320440   1.3398763  29.0402782
  25.6778600   8.7495828  24.5459074  25.7788963   7.9396182  24.8556202
  25.0820345   8.6552774  23.9158753  25.6051139   8.6160856  24.4985313
  34.3369594   2.6891369  20.0324450  34.2209120   3.4399055  20.4616588
  35.1325481   2.4315322  20.2820537  34.4374183   2.7626216  20.1328541
  25.5179340  13.6673417  25.9473930  26.1616795  14.1086581  26.3370089
  25.8435595  12.8626843  25.8604189  25.6611168  13.6138612  25.9919408
  18.8743644   4.7716114  24.1711408  18.6393829   3.9383767  24.0643677
  19.0129285   5.0520780  23.3572609  18.8599307   4.6899618  24.0353763
  26.2199919   6.6785392  21.3193792  26.5415761   7.2190599  20.7155100
  26.8672016   6.1082163  21.4516082  26.3625975   6.6744567  21.2500827
  28.2701628  -1.3198613  21.4028179  28.9681792  -1.1410486  21.8949642
  28.5853960  -1.8428274  20.7798568  28.4196965  -1.3704841  21.3830189
  20.9002865   0.4854127  29.3139285  20.7761562   1.0716572  29.9489103
  21.5521149  -0.0085678  29.6151560  20.9776514   0.4992931  29.4525214
  28.4589563   5.0671832  21.3907970  28.8983198   4.4588932  21.8362743
  28.3094226   4.6879205  20.6193435  28.5011029   4.9210303  21.3427138
  25.9261206   3.6615843  28.5926796  26.5710208   3.1688287  28.2737744
  26.1662983   3.8040630  29.4192874  26.0571791   3.6093286  28.6676329
  28.4647297   6.5070749  28.2433688  28.7470540   5.7122155  28.0220444
  29.1933458   6.9851337  28.2638749  28.6136861   6.4605346  28.2136703
  32.0598899   3.4199013  18.3438739  31.9750195   4.2759980  18.4888308
  32.5483283   3.1443337  19.0120899  32.1187797   3.5056334  18.4640821
  32.9917333   0.0383807  19.8436475  32.4628804   0.2543441  20.5033781
  33.5142353   0.7319946  19.7637444  32.9905786   0.1726944  19.9292074
  38.4465386   5.6130112  25.2169519  37.6163089   5.8240755  25.3802936
  38.3974638   4.7867166  24.9411803  38.3172121   5.5219718  25.2006884
  20.4360969   9.6501785  25.4467614  19.9528547  10.3752275  25.4227198
  21.2484287   9.9477915  25.5577772  20.4851717   9.8004139  25.4594893
  26.5075123   8.4433966  28.0517429  25.9902065   8.0841381  27.4478737
  27.2049514   7.9196140  28.0623495  26.5340704   8.3131654  27.9647687
  30.1638715   8.8928780  34.0133602  30.2522061   8.7054920  34.8611812
  30.5928428   8.2466209  33.6138448  30.2400818   8.7691787  34.0805353
  27.7309175   8.1759940  32.9951264  27.1680010   7.7632550  33.5190925
  28.4930198   8.1012845  33.4144407  27.7603624   8.1037340  33.1344264
  23.2905166  10.1657961  25.5987894  23.9925746   9.6509950  25.6560650
  23.2102649  10.4932112  26.4034769  23.3828927  10.1372187  25.7260686
  37.9419344  -1.7399488  29.0119940  37.1047765  -1.6697301  29.2467535
  37.9107575  -1.7374993  28.1394243  37.8137626  -1.7289261  28.9179488
  24.3384073   0.4033548  34.7268309  24.5104577   0.2939442  35.5753590
  24.8753430   1.0487953  34.4899501  24.4429077   0.4825550  34.8173406
  22.6155942   6.3564313  25.1073502  23.4544841   6.5887246  25.1547264
  22.6467711   5.4868624  25.0380537  22.7437659   6.2621259  25.1038147
  23.2408645   6.7765188  29.4086807  23.7806870   6.6336319  30.0790180
  22.5578591   7.1761939  29.7770834  23.2200799   6.8144859  29.5621229
  32.6649530   2.4556189  24.6031832  33.4207045   2.8887703  24.6420741
  32.7711854   1.8060958  25.1766468  32.7919700   2.4233673  24.6929857
  35.7029701   6.2829466  25.3534235  35.2664933   6.2866208  26.1093206
  35.3692616   6.9634965  24.9213812  35.5892321   6.3841922  25.4015067
  30.2758774   8.3237799  36.6777385  31.0599191   8.4368647  37.0433127
  30.0755369   7.4978936  36.8736071  30.3624800   8.2184518  36.7611771
  18.6445790   2.9965479  29.5621229  18.3784205   2.1804596  29.7212219
  18.6584354   3.0418634  28.6916744  18.6070512   2.8822384  29.4574711
  30.4329168  10.2347901  30.3243841  29.6344414   9.9947401  30.5817709
  30.8815179  10.2862294  31.0710888  30.3803779  10.2070292  30.4728765
  38.8374047   3.0010386  24.2453872  39.4990481   2.4401054  24.1449780
  38.1965459   2.5062417  24.5706563  38.8402915   2.8446795  24.2786212
  29.7250855   6.2980517  16.5534795  30.1402003   5.9665541  15.8619291
  28.8942784   6.0649420  16.4254932  29.6638863   6.2151773  16.4325643
  19.0539204   3.7824258  26.8432973  18.8714777   3.7571144  25.9905265
  19.7888872   4.2523196  26.8821882  19.1353267   3.8485621  26.7230892
  35.1238878   4.0175768  23.9865861  35.3594467   4.1620967  23.1592711
  35.2728441   4.7818176  24.3797374  35.1804681   4.1514823  23.9229465
  22.1184955   0.5009261  33.3515082  22.8424928   0.4862292  33.8379977
  22.2201092   1.2104616  32.8537050  22.2403164   0.6033964  33.3493869
  36.9529334   2.8577434  21.8235465  37.2837552   3.3905074  21.2175559
  37.5262423   2.9116322  22.4797416  37.0863014   2.9447003  21.8313246
  29.4929905   3.9808346  38.2164029  28.7002885   4.2951858  38.4016649
  29.6078832   4.1959814  37.3784814  29.3925315   4.0592182  38.1202364
  32.1661224   0.7042337  22.5059045  32.2608078   1.4431631  22.9598670
  31.5420067   0.2759812  22.9393609  32.0870254   0.7503657  22.6367192
  30.4213697   3.8828550  33.1549326  30.9952559   3.2455794  33.3097890
  30.3428501   3.8832632  32.2858983  30.4946932   3.7893661  33.0495736
  19.0210114   0.6617759  26.9932040  19.5983617   0.5254210  27.6324285
  18.3224176   0.2053543  27.2477624  19.0031135   0.5740025  27.1254329
  25.7777416   2.3151815  25.2070523  25.5196660   1.4823549  25.1801822
  25.8325899   2.5409428  24.3663023  25.7477194   2.2249586  25.0790660
  24.7512128  -0.1310423  25.6935418  24.1761719   0.0281745  26.3299379
  24.3747805  -0.7675014  25.2303868  24.6114941  -0.2012610  25.7189976
  28.4185417  -1.6587074  30.5527796  28.0299850  -2.0832856  29.8979987
  27.7540115  -1.4104924  31.0604823  28.2632345  -1.6848353  30.5315664
  29.5224355   2.5711531  18.7504603  30.3364994   2.8626424  18.6387375
  29.4583496   1.9171393  18.1762896  29.6327094   2.5176726  18.6493441
  35.7433845   5.2537527  33.1634179  35.5072483   4.4225592  33.0446239
  36.3877074   5.2023134  33.7489023  35.8028516   5.1235215  33.2320072
  25.3932263   6.0433048  23.8776915  26.0306210   5.8044796  24.4228709
  25.8187335   6.2470207  23.1430076  25.5508430   6.0384059  23.8494073
  20.0844906   8.2821385  27.7611219  20.1249051   8.5536236  26.9330999
  20.6439430   8.8063293  28.1769007  20.1728252   8.3997140  27.7003107
  36.7670266   5.0381976  29.2262473  36.4616083   5.7710033  29.5875789
  36.0476482   4.6319905  28.9455259  36.6157608   5.0863709  29.2375610
  27.7753735   6.5205471  25.5570702  27.8492744   6.3580643  26.4112551
  28.5923242   6.7095661  25.3131183  27.9070094   6.5242213  25.6468727
  42.4672058   1.6774977  28.5530818  42.3996558   1.6970936  27.6833404
  42.4527720   2.5205304  28.7786488  42.4550814   1.8048711  28.4583294
  21.5359492   6.8663334  22.5865145  20.7097610   7.1125071  22.4599424
  21.5971483   6.7875415  23.4527203  21.4233659   6.8908283  22.6954089
  26.3158321   9.4840214  20.2884175  26.6056619   9.0929195  19.5643402
  27.0461802   9.6656919  20.7289450  26.4665205   9.4534028  20.2466982
  40.2530675   0.4519363  26.8277412  40.8038597  -0.1812568  27.0674504
  40.2374791   0.9834756  27.5192916  40.3315872   0.4368311  26.9656270
  26.9053066   4.2857960  31.3737305  26.4064760   4.9973728  31.4522194
  27.7153291   4.6058627  31.3355468  26.9509173   4.4384809  31.3793874
  24.2564237  11.4607597  23.3544325  24.0364532  11.1704951  24.1470992
  24.0358759  10.8022552  22.8262237  24.1911831  11.3207305  23.3933233
  23.1681184   3.5480913  25.6200026  22.8794432   2.9218384  26.1545754
  24.0364532   3.4901200  25.6864707  23.2541436   3.4468457  25.7090981
  33.9559082  -1.3084304  25.9382008  33.6123847  -2.0293968  26.2889258
  34.0552124  -1.5170452  25.0960366  33.9201124  -1.4460100  25.8653688
  26.4232192  12.8336986  22.1375017  27.0756250  12.3013429  22.3666043
  25.7257801  12.4805639  22.5242891  26.4162910  12.7026509  22.2287185
  23.3713457   5.1876164  21.5442391  24.1259425   5.5689203  21.7577854
  22.7784070   5.6387308  21.9989088  23.3950171   5.3104991  21.6425270
  34.4172111   5.1541400  21.4805996  34.9830143   5.8134610  21.3964539
  33.7700014   5.4991099  21.9522398  34.4050867   5.3023342  21.5378753
  25.8320124  -2.8560996  36.6699604  25.0219900  -2.5503216  36.5589446
  26.3094811  -2.1355413  36.7852188  25.7823603  -2.7046394  36.6706675
  24.6911684   6.3584725  26.9182507  24.1692437   6.4985017  27.6034371
  25.0785704   5.5995390  27.1084624  24.6715385   6.2670249  27.0483583
  30.8878689   8.0980185  20.9043076  30.6465365   7.3648045  20.4970140
  31.0680022   8.6467042  20.2509409  30.8786313   8.0702576  20.7473298
  26.1178009   3.3888744  22.3163998  25.9220792   3.9963479  21.7224301
  26.3412355   2.6956688  21.8355672  26.1212650   3.3766270  22.1580079
  24.5156539   0.2743482  22.4344866  25.2379191   0.4384640  21.9748672
  24.0364532   0.9953147  22.3284206  24.5520270   0.4041712  22.3510480
  32.4750047  -3.3892719  27.8141551  31.6361148  -3.3631440  27.5779814
  32.5454414  -2.7421983  28.3946898  32.3618440  -3.2896593  27.8650668
  22.1664156   2.6801555  31.5399006  22.6785253   2.9585808  30.8907766
  21.8800499   3.4190849  31.9061819  22.1999019   2.8303908  31.4988884
  36.3507571   1.8175268  25.1002793  36.2641545   1.9730694  25.9537572
  35.8958051   2.4613343  24.7262198  36.2710827   1.9351023  25.1709900
  25.6847882  -5.2272057  31.6000048  25.4931079  -5.2116922  32.4499471
  26.5346477  -5.0308382  31.5766702  25.7823603  -5.1957705  31.7223342
  30.2233387  -0.8613985  23.7228352  29.9768101  -0.9418234  24.5565141
  30.5518510  -1.6460517  23.5290880  30.2354630  -0.9887720  23.8175875
  34.1181436   5.8469374  27.5115134  33.9795795   6.5450420  28.0163876
  33.3381434   5.6918031  27.1551315  33.9824663   5.9269541  27.5341408
  32.4559521   2.1465750  33.7637515  32.4507559   1.2745566  33.7679942
  33.1620515   2.3453919  33.2906971  32.5604525   2.0469624  33.6944551
  26.1830414   1.8742734  33.1351335  26.3273790   2.4543942  32.4994445
  26.5306063   2.2519030  33.8401190  26.2557876   2.0163438  33.1450330
  28.3550332   1.0732902  30.9176467  27.6073646   1.2663916  30.5124745
  28.5091857   0.2478122  30.6800588  28.2672759   0.9798013  30.8221873
  35.6134809   5.2047628  18.2731633  35.2341617   4.4184766  18.2660922
  34.9501054   5.7534485  18.1303277  35.4593283   5.1692452  18.2512430
  27.7811470  10.2360148  31.2796853  27.7055141   9.5668959  31.8347641
  27.7101329  10.9377936  31.7937519  27.7592077  10.2405056  31.4373701
  28.5952109  -5.0316547  31.8071871  29.0524723  -4.2992573  31.9344663
  28.6708437  -5.4550082  32.5659127  28.6743078  -4.9859309  31.9372947
  28.4381717   8.7561147  22.1120459  29.2031608   8.4870791  21.7903123
  28.3359807   8.2711158  22.8290522  28.5363212   8.6450712  22.1700287
  31.8578173   4.5927987  26.3773141  31.1823175   4.3613219  26.8786528
  31.8670549   3.9849170  25.7515246  31.7596677   4.4686912  26.3589293
  28.9872317  -0.5654184  33.1337194  28.9231458   0.2955772  33.0057330
  29.1269504  -0.8822191  32.3332745  28.9987787  -0.4854018  32.9965407
  33.8594907   7.4493119  18.6083319  33.9414745   8.2560105  18.2844770
  34.3444650   7.4689078  19.3324092  33.9432065   7.5713782  18.6670217
  27.6691411   2.1277955  27.2753397  27.2453660   2.3282454  26.5392415
  27.4936266   1.2806803  27.3877696  27.5802291   2.0326737  27.1827087
  22.9573856   2.6230007  22.7081369  23.1138475   2.5576809  23.5637361
  23.2974449   3.3978559  22.4960049  23.0307090   2.7279205  22.8035963
  29.4953000   1.9987890  21.5774732  30.0368546   1.4958271  22.0413353
  29.8099559   1.9453085  20.7664218  29.6217397   1.9167311  21.5258544
  33.3670108   6.2090537  38.6901645  34.1804973   5.9375686  38.8506777
  33.2065074   5.9098077  37.8861840  33.4640056   6.1245464  38.5947050
  27.6639450   7.3905242  18.8614760  27.7332270   6.5319780  19.0007761
  28.4427905   7.6077123  18.5333785  27.7892300   7.2958106  18.8331918
  30.6442270  -3.1075805  31.6297033  30.8584239  -3.7464891  31.0760387
  30.0276169  -2.6629982  31.2004895  30.5847599  -3.1365662  31.4847464
  32.0546938   9.8142943  23.0751254  31.6626729   9.5109658  22.3574120
  32.2100010  10.6512033  22.8856207  32.0200527   9.8926780  22.9407751
  32.8081358  -1.4986740  32.5680340  31.9958039  -1.8060850  32.6493513
  33.2671292  -1.9787740  33.1323052  32.7561742  -1.6150248  32.6634934
  32.2186612   6.3792932  23.0157284  31.8601267   6.5507575  23.7921317
  31.7325323   6.8406137  22.4585283  32.0945309   6.4731903  23.0482553
  29.9034865  -0.0926669  37.3509042  30.3734496   0.5315448  37.7376916
  29.9496745  -0.7609693  37.9102257  29.9802741  -0.0991988  37.4909114
  33.3791352   7.2696828  33.9624485  34.0171072   6.7757023  33.6286941
  32.7365443   7.1974228  33.3776712  33.3785578   7.1855836  33.8266840
  35.1048352  -0.8814026  28.5290401  34.6775960  -0.9687678  27.7738500
  34.4674405  -0.7736251  29.1145245  34.9477959  -0.8781366  28.5035842
  33.4345608   7.9616636  30.6029842  34.2237986   7.6105701  30.7231923
  33.6089206   8.7753024  30.3406476  33.5765890   8.0302493  30.5817710
  23.1738919   1.3725362  27.6557631  22.3326925   1.2729236  27.8636525
  23.3828927   2.1420842  28.0071951  23.0803611   1.4717405  27.7384946
  20.6514486  -1.0055101  25.4842381  20.2571183  -0.9312089  24.7092491
  20.0954602  -0.6197155  26.0350743  20.5117298  -0.9373327  25.4510041
  26.9855584  -0.6993239  26.9055228  26.6818721  -1.2537251  27.5065636
  26.2835004  -0.5201029  26.4183262  26.8371793  -0.7548457  26.9224934
  25.0473935   6.5156482  31.6127326  24.9394289   6.5258544  32.4789384
  25.2569716   7.3411262  31.4232280  25.0624046   6.6397556  31.7131418
  23.0647727   3.7669124  29.0749264  22.4735660   4.4078622  29.0452279
  23.8268750   4.1906741  29.0480563  23.0895987   3.9244962  29.0664411
  25.1091699  -4.4062183  34.3089308  24.7177264  -5.0528836  34.7445086
  25.2777562  -3.8150748  34.9283564  25.0762609  -4.4147915  34.4652014
  39.1838148   3.5974894  30.0726542  39.2421272   4.0461543  30.8186518
  38.5504616   4.0073707  29.6356622  39.0989443   3.7248628  30.1179090
  32.8237243   9.2178436  26.5081288  32.6256931   9.7069250  25.8137499
  32.2024954   9.4219677  27.0865421  32.7024807   9.3194974  26.4904511
  26.8845221   0.9863332  20.8491532  27.6287266   1.3737609  21.0874482
  27.0305917   0.1420758  21.0132020  27.0155806   0.9193805  20.9085502
  29.8723097  -3.4411194  26.7485452  29.3983051  -3.9669432  27.2590763
  30.2441233  -3.9881721  26.1800313  29.8572986  -3.5995198  26.7400599
  36.1359828   1.6191181  28.1592232  35.8958050   0.7797597  28.1634659
  36.6151835   1.6991348  28.8833006  36.1712011   1.5072581  28.2667035
  38.1365015  -1.6007361  26.1121491  37.8974785  -1.6411527  25.2742276
  38.2998916  -0.7536209  26.2387212  38.1255318  -1.4815276  26.0074973
  34.7411045   2.7842588  32.0426536  35.4645244   2.3315114  31.8637556
  34.4761007   3.0647254  31.2598864  34.8092318   2.7593556  31.9005252
  23.6097913  -2.6197238  28.7779416  22.9850983  -2.6078847  28.1705368
  23.2743508  -2.1437063  29.4270656  23.4683405  -2.5478721  28.7835984
  20.3223589   5.4403222  30.2183180  19.7923513   4.7495661  30.2678155
  20.5948682   5.4313407  29.3895888  20.2848311   5.3370353  30.1030596
  31.3543679   6.0228924  18.9420863  32.0777878   6.4887037  18.7985436
  30.9144270   6.0902534  18.1918460  31.3959371   6.1012761  18.8105644
  30.5229834   2.8826466  30.1921552  29.9086827   2.3384517  30.4870187
  31.0397119   2.3690703  29.7127368  30.5085497   2.7262875  30.1645780
  29.7626131   3.9530736  27.9265850  29.3353739   3.3280455  27.4931286
  29.7551076   3.6705658  28.7524857  29.6985273   3.8183517  27.9845678
  22.8788658  -1.0104091  30.9954284  23.0382145  -1.7660767  31.4006006
  22.6981552  -0.4613151  31.6495022  22.8754017  -1.0410277  31.1516990
  28.0911841  -5.1700509  28.1408384  28.1154328  -5.7040397  27.4521164
  28.3423315  -5.6783200  28.8033975  28.1321760  -5.3239605  28.1373029
  15.6019431   2.1130986  27.5751528  15.4962880   2.0677830  26.7103612
  14.8519651   2.4584766  27.8565813  15.4755034   2.1571894  27.4888858
  26.5542776   3.1231049  35.6234423  25.7038407   3.2602763  35.7592068
  26.7170904   2.3894827  36.0682125  26.4526640   3.0345150  35.7090022
  25.7927527   0.0730819  29.8188027  24.9619456   0.2404637  29.6123276
  25.7379044  -0.3033230  30.6036913  25.6616942   0.0420550  29.9036556
  37.1746359   1.7468999  30.5457086  37.7664199   2.3866249  30.5775284
  37.6105353   1.0492036  30.8349153  37.3264790   1.7387349  30.5937919
  29.0039749   6.1686371  31.1714980  28.4964840   6.7222218  31.6155611
  28.7066395   6.2294661  30.3533755  28.8844633   6.2592682  31.1163437
  31.6147529  10.0849629  19.1018924  30.8976839   9.9110491  18.6366161
  32.2654266   9.8502201  18.5694410  31.6049379  10.0245421  18.9548141
  34.1995500  -1.0385783  22.8460229  33.5286690  -0.4956080  22.7173294
  34.8935250  -0.5690927  22.6041923  34.2024368  -0.8887511  22.7915756
  28.2482234  11.1010929  28.0771987  28.0247888  10.3429759  28.4456013
  27.7592077  11.1308951  27.3552427  28.1425683  10.9933154  28.0248728
  23.0607313  -1.9522379  23.8133448  22.3419302  -1.5358247  24.0806312
  23.4319675  -1.3868140  23.2625087  23.0099244  -1.8073098  23.7716255
  32.3606893  -1.3194530  29.7035444  32.3404821  -1.5011235  30.5570223
  32.4086094  -0.4482512  29.6795028  32.3641534  -1.2177992  29.8258739
  30.3053223   5.2692662  35.6283921  30.2649078   4.6242339  35.0429077
  31.1176541   5.2129279  35.9409333  30.4196377   5.1651628  35.5880870
  26.8960691  11.3211388  25.5309072  26.4821089  10.6585518  25.1412913
  27.5808065  11.4689246  25.0104766  26.9359062  11.2452046  25.3965569
  30.2625985  10.4801473  26.2832688  29.8642268  10.5903743  25.5153508
  29.6477204  10.6883539  26.8659248  30.1124874  10.5275041  26.2563988
  25.9930932  -1.1010402  32.1833678  25.4809835  -1.7089219  32.5418710
  25.8210428  -0.3853809  32.6507654  25.8920569  -1.0847103  32.3049902
  24.7656466  -4.4168329  23.8762774  25.2413832  -4.0551249  23.2412955
  24.2645066  -3.7611861  24.1562917  24.7621825  -4.2674140  23.8239515
  37.9967828   5.0553440  19.6675779  38.3801433   5.8044796  19.8973876
  37.2011941   5.3019259  19.4087768  37.9361610   5.2023133  19.6633352
  29.8700002  -3.1786157  34.6235934  30.4271432  -3.4072348  33.9914399
  29.5461067  -2.4180492  34.3471146  29.9046412  -3.1002320  34.4892431
  27.5883120  -0.0918504  35.5887941  28.3394446   0.2233173  35.9027495
  27.7805696  -0.2939333  34.7621863  27.7274534  -0.0751122  35.5131337
  32.1609262   0.7152564  26.4847943  32.6562927  -0.0024441  26.4451964
  31.3509037   0.4123362  26.3702430  32.1153155   0.5650210  26.4621669
  27.6067873   4.5650377  18.6344948  26.7979196   4.2417051  18.5878257
  28.1142782   3.8583600  18.5673196  27.5617540   4.4131694  18.6175242
  18.2358150   1.9922571  24.3592312  17.3703670   1.9808261  24.2475083
  18.3356966   1.8052793  25.2063451  18.1232317   1.9628632  24.4681256
  34.2261081   3.4656252  29.1725072  34.6516152   2.9430674  28.6195497
  33.8618000   4.0637089  28.6513695  34.2347683   3.4766479  29.0134082
  23.8615160  11.7620469  27.9322418  24.1761719  12.5756858  27.9400199
  24.2708574  11.3770688  28.6004577  23.9683258  11.8249172  28.0326509
  30.8139680   7.1790516  25.5026230  31.2850858   7.8930779  25.6716215
  31.1499859   6.5789266  26.0386099  30.9334795   7.1961980  25.6058605
  32.9016665   8.7891829  37.6818302  33.0113630   8.0000390  38.0375049
  33.2307561   8.6997766  36.8792640  32.9669070   8.6597682  37.6160692
  31.4513626   6.9708450  32.2653922  30.9034572   6.3466334  31.9973987
  31.9126655   7.1602722  31.5498002  31.4380836   6.9067500  32.1204353
  21.2028180   5.7093578  27.5801026  21.8073038   5.6689412  26.9514847
  20.9955493   6.5564730  27.6105082  21.2617078   5.8281580  27.4917142
  31.0171953   7.9759523  28.7963263  31.8370326   7.8322489  29.0579559
  30.7366030   8.6005722  29.3379701  31.0968696   8.0469875  28.9151203
  16.4379463   4.6928195  27.4499949  16.3403741   3.8824467  27.7590006
  17.2208332   4.6719989  27.0646217  16.5395599   4.5695285  27.4386812
  47.4885603  15.6324374  21.7606140  47.4579607  16.4869011  21.9324409
  48.0866952  15.3319667  22.3192283  47.5722761  15.7140871  21.8680942
  40.6885288  14.7200026  26.5159070  39.8323183  14.8808524  26.5668187
  40.7352942  13.8492089  26.5364131  40.5684399  14.6150827  26.5265136
  40.5251387  24.6788113  17.7081849  40.1902756  25.3565035  17.2726071
  41.0378258  24.2893424  17.1198720  40.5516969  24.7212691  17.5568640
  43.5337109  16.7792069  29.1590722  44.0793069  17.4577156  29.2184691
  43.4753985  16.6379530  28.2992303  43.6053023  16.8584071  29.0402782
  45.3102178  18.2076677  20.0324450  45.1941703  18.9584363  20.4616588
  46.1058064  17.9500630  20.2820537  45.4106767  18.2811523  20.1328541
  29.8476228  20.2901422  24.1711408  29.6126412  19.4569075  24.0643677
  29.9861869  20.5706088  23.3572609  29.8331890  20.2084926  24.0353763
  32.1466315  12.4587153  27.0695716  31.5271347  11.8679800  26.9005730
  32.0450179  13.0498588  26.4360039  32.0403991  12.4591235  26.9500705
  37.1932503  22.1970700  21.3193792  37.5148344  22.7375907  20.7155100
  37.8404600  21.6267471  21.4516082  37.3358558  22.1929875  21.2500827
  39.2434211  14.1986695  21.4028179  39.9414376  14.3774822  21.8949642
  39.5586544  13.6757034  20.7798568  39.3929548  14.1480467  21.3830189
  31.8735448  16.0039434  29.3139285  31.7494145  16.5901880  29.9489103
  32.5253733  15.5099630  29.6151560  31.9509098  16.0178239  29.4525214
  39.4322146  20.5857140  21.3907970  39.8715782  19.9774240  21.8362743
  39.2826809  20.2064513  20.6193435  39.4743612  20.4395611  21.3427138
  36.8993789  19.1801151  28.5926796  37.5442792  18.6873595  28.2737744
  37.1395567  19.3225938  29.4192874  37.0304375  19.1278594  28.6676329
  39.4379881  22.0256057  28.2433688  39.7203124  21.2307463  28.0220444
  40.1666041  22.5036645  28.2638749  39.5869445  21.9790654  28.2136703
  37.4161075   9.5679091  25.4849453  37.0864405  10.0190235  24.8153152
  36.7406076   9.4895255  26.0322460  37.2671511   9.6230226  25.4672677
  43.0331483  18.9384321  18.3438739  42.9482778  19.7945287  18.4888308
  43.5215866  18.6628645  19.0120899  43.0920380  19.0241642  18.4640821
  44.6237482   5.5564614  23.7299064  44.3090923   6.2468093  24.1619486
  44.1064424   5.5009396  23.0284565  44.5001953   5.6499503  23.6896013
  43.9649916  15.5569115  19.8436475  43.4361388  15.7728749  20.5033781
  44.4874936  16.2505253  19.7637444  43.9638369  15.6912252  19.9292074
  49.4197969  21.1315419  25.2169519  48.5895672  21.3426063  25.3802936
  49.3707221  20.3052474  24.9411803  49.2904705  21.0405026  25.2006884
  35.8549524  19.4532332  18.6443942  35.2706739  19.9582363  19.0509806
  35.4519619  19.2274719  17.9040534  35.7088828  19.4940580  18.5948968
  31.4093553  25.1687093  25.4467614  30.9261131  25.8937583  25.4227198
  32.2216871  25.4663223  25.5577772  31.4584300  25.3189447  25.4594893
  40.3126738  15.6997984  17.1212863  40.5522742  15.9075968  16.3088206
  40.6342579  14.8955493  17.2301808  40.3963896  15.6112085  17.0173416
  35.6217029   7.6291380  20.9672401  36.3762997   7.9969697  20.7289451
  35.4444563   8.0030934  21.7351581  35.7071507   7.7389567  21.0457290
  48.9151927  13.7785820  29.0119940  48.0780349  13.8488007  29.2467535
  48.8840158  13.7810315  28.1394243  48.7870210  13.7896047  28.9179488
  35.3116657  15.9218856  34.7268309  35.4837160  15.8124750  35.5753590
  35.8486014  16.5673261  34.4899501  35.4161660  16.0010857  34.8173406
  33.9774093  10.0361699  17.6650514  33.7949667  10.2533579  16.8391507
  34.8399706  10.1500711  17.7209128  34.0778683  10.0851597  17.5505001
  33.5888525  21.8749621  25.1073502  34.4277425  22.1072554  25.1547264
  33.6200295  21.0053932  25.0380537  33.7170243  21.7806567  25.1038147
  39.6573813   7.0388109  20.6999538  40.3859973   6.8604064  20.2537694
  39.7468706   7.8806189  20.9106716  39.7780475   7.1371988  20.6653055
  43.6382113  17.9741497  24.6031832  44.3939628  18.4073011  24.6420741
  43.7444438  17.3246266  25.1766468  43.7652284  17.9418980  24.6929857
  46.6762284  21.8014774  25.3534235  46.2397516  21.8051516  26.1093206
  46.3425200  22.4820273  24.9213812  46.5624904  21.9027230  25.4015067
  29.6178373  18.5150787  29.5621229  29.3516789  17.6989903  29.7212219
  29.6316938  18.5603942  28.6916744  29.5803096  18.4007692  29.4574711
  46.5959767   8.8428602  27.5963663  47.2385676   8.9126706  28.1825578
  46.8482788   8.1757825  27.0943205  46.7281899   8.7554950  27.6090942
  33.5236120  13.3135871  16.1772987  32.8094298  13.0274051  16.5895420
  34.0080089  13.6532497  16.8179375  33.4895484  13.3217521  16.3328622
  34.3676980  12.0529165  32.2088237  33.6748777  11.5826145  32.4548968
  34.9837307  11.8267470  32.7829944  34.3561510  11.9496297  32.3297389
  49.8106631  18.5195694  24.2453872  50.4723065  17.9586362  24.1449780
  49.1698043  18.0247725  24.5706563  49.8135498  18.3632103  24.2786212
  40.6983438  21.8165825  16.5534795  41.1134587  21.4850849  15.8619291
  39.8675368  21.5834727  16.4254932  40.6371447  21.7337081  16.4325643
  30.0271787  19.3009566  26.8432973  29.8447360  19.2756452  25.9905265
  30.7621456  19.7708504  26.8821882  30.1085851  19.3670928  26.7230892
  46.0971461  19.5361076  23.9865861  46.3327050  19.6806275  23.1592711
  46.2461025  20.3003484  24.3797374  46.1537265  19.6700131  23.9229465
  47.9261918  18.3762742  21.8235465  48.2570135  18.9090382  21.2175559
  48.4995006  18.4301630  22.4797416  48.0595597  18.4632311  21.8313246
  43.1393807  16.2227645  22.5059045  43.2340662  16.9616939  22.9598670
  42.5152651  15.7945120  22.9393609  43.0602837  16.2688965  22.6367192
  41.3946281  19.4013857  33.1549326  41.9685143  18.7641102  33.3097890
  41.3161085  19.4017940  32.2858983  41.4679516  19.3078969  33.0495736
  29.9942697  16.1803067  26.9932040  30.5716200  16.0439518  27.6324285
  29.2956759  15.7238851  27.2477624  29.9763719  16.0925333  27.1254329
  43.3916828  18.0676385  15.7395997  43.3096991  18.1378572  16.6050984
  44.0296549  18.6306129  15.5479737  43.4736666  18.1615356  15.8385946
  36.7510000  17.8337123  25.2070523  36.4929244  17.0008857  25.1801822
  36.8058482  18.0594736  24.3663023  36.7209777  17.7434894  25.0790660
  41.8311050   9.9365573  25.3074616  41.1267377   9.4474759  25.4658535
  41.8796024   9.9488048  24.4363060  41.7341101   9.8655221  25.2013956
  35.7244712  15.3874885  25.6935418  35.1494303  15.5467053  26.3299379
  35.3480388  14.7510294  25.2303868  35.5847524  15.3172698  25.7189976
  39.3918000  13.8598234  30.5527796  39.0032433  13.4352452  29.8979987
  38.7272699  14.1080384  31.0604823  39.2364928  13.8336955  30.5315664
  49.0341270  13.6173239  23.3275626  48.7777834  12.8053180  23.1373509
  49.8770584  13.6250806  23.1005814  49.1207295  13.4985236  23.2660443
  25.4701531  15.0314960  23.7079858  25.5561782  14.6546828  24.4893388
  26.0977328  14.6575405  23.2299817  25.5758082  14.9200442  23.7525336
  43.2144362   7.5572863  28.0651780  43.5954874   6.8751034  28.4519655
  42.4107646   7.2682465  27.8827445  43.1520824   7.4139912  28.0955836
  40.4956939  18.0896839  18.7504603  41.3097578  18.3811732  18.6387375
  40.4316080  17.4356701  18.1762896  40.6059678  18.0362034  18.6493441
  46.7166429  20.7722835  33.1634179  46.4805066  19.9410900  33.0446239
  47.3609658  20.7208442  33.7489023  46.7761100  20.6420523  33.2320072
  36.3664847  21.5618356  23.8776915  37.0038794  21.3230104  24.4228709
  36.7919919  21.7655515  23.1430076  36.5241013  21.5569367  23.8494073
  31.0577489  23.8006693  27.7611219  31.0981635  24.0721544  26.9330999
  31.6172013  24.3248601  28.1769007  31.1460835  23.9182448  27.7003107
  37.0067662  16.7820646  18.2151805  37.3912815  16.5628353  18.9668350
  36.7579282  17.6083592  18.3452881  37.0269735  16.8718792  18.3452881
  37.1736202  10.0627061  37.9314389  36.8589643  10.8326624  37.6683952
  36.8526135   9.4997317  37.3466616  37.0795121  10.0937330  37.8055739
  47.7402849  20.5567284  29.2262473  47.4348667  21.2895341  29.5875789
  47.0209065  20.1505213  28.9455259  47.5890192  20.6049017  29.2375610
  38.7486319  22.0390779  25.5570702  38.8225327  21.8765951  26.4112551
  39.5655825  22.2280969  25.3131183  38.8802678  22.0427521  25.6468727
  53.4404642  17.1960284  28.5530818  53.3729142  17.2156244  27.6833404
  53.4260304  18.0390612  28.7786488  53.4283398  17.3234019  28.4583294
  32.5092076  22.3848642  22.5865145  31.6830193  22.6310379  22.4599424
  32.5704067  22.3060723  23.4527203  32.3966243  22.4093591  22.6954089
  34.7268099   8.4517583  23.5460585  33.8590525   8.5240182  23.6118194
  35.0143304   9.2539662  23.7348560  34.6407847   8.5811730  23.5835352
  43.8500988   8.5995442  31.8771907  44.5954580   8.4105253  31.4635332
  43.4338293   9.1253680  31.3185763  43.8985962   8.6497588  31.7336480
  37.2890905  25.0025522  20.2884175  37.5789203  24.6114503  19.5643402
  38.0194385  25.1842227  20.7289450  37.4397789  24.9719336  20.2466982
  51.2263259  15.9704671  26.8277412  51.7771181  15.3372740  27.0674504
  51.2107374  16.5020063  27.5192916  51.3048455  15.9553619  26.9656270
  37.8785650  19.8043268  31.3737305  37.3797343  20.5159036  31.4522194
  38.6885874  20.1243935  31.3355468  37.9241757  19.9570117  31.3793874
  34.1413767  19.0666221  25.6200026  33.8527016  18.4403692  26.1545754
  35.0097115  19.0086508  25.6864707  34.2274019  18.9653765  25.7090981
  44.9291665  14.2101004  25.9382008  44.5856431  13.4891340  26.2889258
  45.0284708  14.0014856  25.0960366  44.8933708  14.0725208  25.8653688
  34.3446041  20.7061472  21.5442391  35.0992009  21.0874511  21.7577854
  33.7516653  21.1572616  21.9989088  34.3682754  20.8290299  21.6425270
  45.3904694  20.6726708  21.4805996  45.9562727  21.3319918  21.3964539
  44.7432598  21.0176407  21.9522398  45.3783451  20.8208650  21.5378753
  36.8052708  12.6624312  36.6699604  35.9952484  12.9682092  36.5589446
  37.2827395  13.3829895  36.7852188  36.7556187  12.8138914  36.6706675
  35.6644267  21.8770033  26.9182507  35.1425021  22.0170325  27.6034371
  36.0518288  21.1180698  27.1084624  35.6447968  21.7855557  27.0483583
  32.6535451  11.9275842  20.9877461  32.3660247  11.5577113  20.2509409
  33.3405920  12.3970697  20.7261166  32.7124349  11.9422811  20.8392537
  41.8611272  23.6165493  20.9043076  41.6197948  22.8833353  20.4970140
  42.0412605  24.1652350  20.2509409  41.8518896  23.5887884  20.7473298
  37.0910593  18.9074052  22.3163998  36.8953376  19.5148787  21.7224301
  37.3144939  18.2141996  21.8355672  37.0945234  18.8951578  22.1580079
  35.4889123  15.7928790  22.4344866  36.2111775  15.9569948  21.9748672
  35.0097116  16.5138455  22.3284206  35.5252854  15.9227020  22.3510480
  43.4482631  12.1292589  27.8141551  42.6093731  12.1553868  27.5779814
  43.5186998  12.7763325  28.3946898  43.3351024  12.2288715  27.8650668
  41.8951909   9.0277966  22.5469167  42.5978262   8.8285714  22.0689125
  41.6296098   8.2553908  22.8538010  41.9598541   8.8840932  22.5214609
  47.3240154  17.3360576  25.1002793  47.2374129  17.4916002  25.9537572
  46.8690634  17.9798651  24.7262198  47.2443411  17.4536331  25.1709900
  30.2263646  12.7057055  21.8362743  30.3279782  13.5083216  22.1643718
  31.0219533  12.5044390  21.5385823  30.3591552  12.7942953  21.8398098
  36.6580465  10.2913251  31.6000048  36.4663662  10.3068386  32.4499471
  37.5079061  10.4876926  31.5766702  36.7556187  10.3227603  31.7223342
  31.0427378  12.8204233  29.5783864  30.9012870  11.9688173  29.7028372
  31.3267941  12.8632893  28.7546070  31.0635224  12.7003983  29.4751488
  41.1965970  14.6571323  23.7228352  40.9500685  14.5767074  24.5565141
  41.5251094  13.8724791  23.5290880  41.2087214  14.5297588  23.8175875
  45.0914019  21.3654682  27.5115134  44.9528379  22.0635728  28.0163876
  44.3114017  21.2103339  27.1551315  44.9557246  21.4454849  27.5341408
  43.4292104  17.6651058  33.7637515  43.4240143  16.7930874  33.7679942
  44.1353098  17.8639227  33.2906971  43.5337108  17.5654932  33.6944551
  37.1562998  17.3928042  33.1351335  37.3006373  17.9729250  32.4994445
  37.5038646  17.7704338  33.8401190  37.2290459  17.5348746  33.1450330
  39.3282915  16.5918210  30.9176467  38.5806229  16.7849224  30.5124745
  39.4824440  15.7663429  30.6800588  39.2405343  16.4983321  30.8221873
  46.5867392  20.7232936  18.2731633  46.2074201  19.9370074  18.2660922
  45.9233638  21.2719793  18.1303277  46.4325867  20.6877760  18.2512430
  39.5684692  10.4868761  31.8071871  40.0257306  11.2192735  31.9344663
  39.6441021  10.0635226  32.5659127  39.6475662  10.5325999  31.9372947
  31.8117683  10.7334580  32.8961314  31.2759873  10.1214939  33.2122082
  31.8735448  11.3082716  33.5494981  31.7413316  10.7281508  33.0396741
  44.0412018   3.6658636  25.6765714  44.1595586   4.1235099  24.9433016
  43.8674194   2.8603897  25.3901931  44.0331189   3.6152408  25.5266647
  39.4114300  24.2746455  22.1120459  40.1764191  24.0056099  21.7903123
  39.3092390  23.7896465  22.8290522  39.5095796  24.1636020  22.1700287
  37.4467070  12.4770865  28.6513695  36.6563145  12.2962325  28.9731031
  37.8427693  11.6997817  28.6343989  37.3883946  12.3358326  28.6966243
  41.9332961  21.3058639  14.0920408  42.7005946  21.3658764  13.6826260
  41.4864270  20.7339080  13.6076727  41.9806388  21.2295215  13.9598119
  42.8310756  20.1113295  26.3773141  42.1555758  19.8798527  26.8786528
  42.8403132  19.5034478  25.7515246  42.7329261  19.9872220  26.3589293
  39.9604900  14.9531124  33.1337194  39.8964042  15.8141080  33.0057330
  40.1002088  14.6363117  32.3332745  39.9720370  15.0331290  32.9965407
  44.8327491  22.9678427  18.6083319  44.9147328  23.7745413  18.2844770
  45.3177233  22.9874386  19.3324092  44.9164649  23.0899090  18.6670217
  38.6423994  17.6463263  27.2753397  38.2186243  17.8467762  26.5392415
  38.4668849  16.7992111  27.3877696  38.5534875  17.5512045  27.1827087
  33.9306439  18.1415314  22.7081369  34.0871058  18.0762117  23.5637361
  34.2707032  18.9163867  22.4960049  34.0039674  18.2464513  22.8035963
  40.4685584  17.5173198  21.5774732  41.0101129  17.0143579  22.0413353
  40.7832143  17.4638393  20.7664218  40.5949981  17.4352619  21.5258544
  38.6372034  22.9090550  18.8614760  38.7064854  22.0505088  19.0007761
  39.4160489  23.1262430  18.5333785  38.7624884  22.8143414  18.8331918
  41.6174853  12.4109503  31.6297033  41.8316823  11.7720417  31.0760387
  41.0008752  12.8555326  31.2004895  41.5580182  12.3819646  31.4847464
  43.0279521  25.3328251  23.0751254  42.6359313  25.0294966  22.3574120
  43.1832593  26.1697341  22.8856207  42.9933111  25.4112088  22.9407751
  43.7813941  14.0198568  32.5680340  42.9690623  13.7124458  32.6493513
  44.2403876  13.5397568  33.1323052  43.7294326  13.9035060  32.6634934
  43.1919196  21.8978240  23.0157284  42.8333851  22.0692883  23.7921317
  42.7057907  22.3591445  22.4585283  43.0677893  21.9917211  23.0482553
  41.0089582   5.5209438  26.6184376  40.1383140   5.4948159  26.5717685
  41.2629923   5.3486630  25.8010221  40.9183142   5.4919582  26.4904512
  37.9807561  17.5777405  15.5557519  38.2700086  18.3542288  15.8301093
  38.0679360  17.0666137  16.2572018  38.0361818  17.6169323  15.7000016
  40.8767449  15.4258639  37.3509042  41.3467080  16.0500756  37.7376916
  40.9229329  14.7575615  37.9102257  40.9535325  15.4193319  37.4909114
  38.0338722   7.5315667  28.0757846  37.5177211   6.8395858  28.2009425
  37.4732651   8.1986444  28.0220445  37.8745236   7.5278924  28.0863912
  40.1030956   8.0708627  29.9050699  39.7162709   8.0957658  30.6864228
  39.6163893   7.5050305  29.4525215  39.9743465   7.9904378  29.9538602
  46.0780935  14.6371282  28.5290401  45.6508543  14.5497630  27.7738500
  45.4406988  14.7449057  29.1145245  45.9210543  14.6403941  28.5035842
  39.7688098   4.9575612  32.1960958  40.3981215   5.4935912  31.9182029
  39.9373960   4.8652971  33.0474524  39.8865892   5.0236974  32.2809487
  39.5702012   9.7446807  34.4687370  40.3975442   9.4731956  34.5245985
  39.5909858  10.5407649  34.8251188  39.6954862   9.8226561  34.5302553
  44.4078192  23.4801944  30.6029842  45.1970570  23.1291009  30.7231923
  44.5821790  24.2938332  30.3406476  44.5498473  23.5487801  30.5817710
  34.1471502  16.8910670  27.6557631  33.3059509  16.7914544  27.8636525
  34.3561510  17.6606150  28.0071951  34.0536195  16.9902713  27.7384946
  31.6247069  14.5130207  25.4842381  31.2303767  14.5873218  24.7092491
  31.0687186  14.8988153  26.0350743  31.4849882  14.5811981  25.4510041
  43.2612016   7.4911501  25.1646260  43.4661609   7.4233809  26.0103257
  42.9338440   8.2970322  25.0967438  43.2427264   7.5997441  25.2805915
  37.9588167  14.8192069  26.9055228  37.6551305  14.2648057  27.5065636
  37.2567588  14.9984279  26.4183262  37.8104377  14.7636851  26.9224934
  37.0154264  12.1292589  21.4699930  37.2913999  11.4111501  21.0577498
  37.6152934  12.7277509  21.2621036  37.1447529  12.1112959  21.3780691
  46.5145704   8.0443265  24.6449026  45.9020017   8.5313667  25.0302758
  46.6109879   7.3686756  25.1886677  46.4383601   8.0161574  24.7827884
  40.5164785   9.8006106  19.7446525  40.9708531   9.9716666  20.4694370
  40.9904830   9.1874217  19.3444301  40.6533105   9.7356991  19.7920287
  34.0380310  19.2854432  29.0749264  33.4468243  19.9263930  29.0452279
  34.8001334  19.7092049  29.0480563  34.0628571  19.4430270  29.0664411
  34.4340933  10.4456430  29.7417281  34.8942414  10.5195359  30.4792405
  34.4797040  11.2437684  29.3917103  34.5091488  10.5750577  29.7990038
  36.0824283  11.1123125  34.3089308  35.6909848  10.4656472  34.7445086
  36.2510145  11.7034560  34.9283564  36.0495193  11.1037392  34.4652014
  50.1570732  19.1160202  30.0726542  50.2153855  19.5646850  30.8186518
  49.5237199  19.5259014  29.6356622  50.0722027  19.2433936  30.1179090
  43.7969826  24.7363744  26.5081288  43.5989515  25.2254558  25.8137499
  43.1757537  24.9404985  27.0865421  43.6757391  24.8380282  26.4904511
  37.8577805  16.5048640  20.8491532  38.6019850  16.8922917  21.0874482
  38.0038501  15.6606066  21.0132020  37.9888390  16.4379113  20.9085502
  39.7757380   8.2998899  25.8823394  38.9293425   8.4721707  25.7564744
  39.7728513   7.4948243  26.2189222  39.6504530   8.2059928  25.9134521
  40.8455681  12.0774114  26.7485452  40.3715635  11.5515876  27.2590763
  41.2173816  11.5303587  26.1800313  40.8305570  11.9190110  26.7400599
  47.1092411  17.1376489  28.1592232  46.8690634  16.2982905  28.1634659
  47.5884418  17.2176656  28.8833006  47.1444595  17.0257889  28.2667035
  42.7739180  12.9710668  19.8111205  42.2462199  13.0539412  19.1216914
  43.2334888  13.7128540  19.8075850  42.7641031  13.0931331  19.7085901
  49.1097598  13.9177947  26.1121491  48.8707368  13.8773781  25.2742276
  49.2731499  14.7649099  26.2387212  49.0987902  14.0370032  26.0074973
  45.7143628  18.3027896  32.0426536  46.4377827  17.8500422  31.8637556
  45.4493591  18.5832562  31.2598864  45.7824902  18.2778864  31.9005252
  34.5830497  12.8988069  28.7779416  33.9583567  12.9106461  28.1705368
  34.2476092  13.3748245  29.4270656  34.4415989  12.9706586  28.7835984
  34.7672245  11.2413188  14.8352101  34.4185050  11.8932913  15.2983650
  34.2868691  11.2270301  14.1075972  34.6442489  11.3356241  14.7963192
  42.3276263  21.5414232  18.9420863  43.0510462  22.0072345  18.7985436
  41.8876854  21.6087842  18.1918460  42.3691955  21.6198069  18.8105644
  41.4962418  18.4011774  30.1921552  40.8819411  17.8569824  30.4870187
  42.0129703  17.8876011  29.7127368  41.4818080  18.2448183  30.1645780
  40.7358715  19.4716044  27.9265850  40.3086323  18.8465763  27.4931286
  40.7283659  19.1890966  28.7524857  40.6717856  19.3368825  27.9845678
  33.8521242  14.5081217  30.9954284  34.0114729  13.7524541  31.4006006
  33.6714136  15.0572157  31.6495022  33.8486601  14.4775031  31.1516990
  41.7941545   6.6742453  31.5505074  41.2982106   6.8706127  30.8596640
  42.5510607   7.0735121  31.3793875  41.8328370   6.7620187  31.4225210
  39.0644425  10.3484799  28.1408384  39.0886912   9.8144911  27.4521164
  39.3155898   9.8402108  28.8033975  39.1054343  10.1945703  28.1373029
  26.5752014  17.6316294  27.5751528  26.4695464  17.5863138  26.7103612
  25.8252234  17.9770074  27.8565813  26.4487617  17.6757202  27.4888858
  35.3445747   9.0755617  27.5214128  35.3844118   9.5764824  28.2348836
  34.5195412   9.1666011  27.2520052  35.2285273   9.1637433  27.5864667
  37.5275360  18.6416357  35.6234423  36.6770990  18.7788071  35.7592068
  37.6903487  17.9080135  36.0682125  37.4259223  18.5530458  35.7090022
  36.7660110  15.5916127  29.8188027  35.9352040  15.7589945  29.6123276
  36.7111627  15.2152078  30.6036913  36.6349525  15.5605858  29.9036556
  34.5743894   9.0825020  35.4544438  35.1996597   8.5387152  35.7273870
  34.1194373   8.6019937  34.8852229  34.5992154   8.9314501  35.4106032
  35.1396154  13.8671718  20.3478145  35.2799115  14.3644183  21.0506787
  35.6378687  13.1658013  20.4892359  35.2337235  13.8373697  20.4729724
  35.1696376  14.7338829  17.6770722  35.8041456  15.3299254  17.6120184
  35.2521987  14.4342287  18.4916592  35.2752927  14.7779738  17.7873809
  48.1478942  17.2654307  30.5457086  48.7396783  17.9051557  30.5775284
  48.5837937  16.5677343  30.8349153  48.2997373  17.2572657  30.5937919
  36.7475359  10.6652805  17.6516164  37.0691200  10.1855887  16.9975426
  37.0102303  11.4752451  17.4606976  36.8341385  10.7142703  17.5271656
  42.1434514  10.0524999  30.0139643  42.5689586   9.5997525  29.4023169
  41.5291507   9.4985069  30.2904431  42.1163160   9.9038975  29.9644668
  31.6749364  16.9306670  20.9460268  32.1841594  17.5271178  21.3271574
  32.1483637  16.6632644  20.2636688  31.8192740  16.9792486  20.9014791
  42.5880112  25.6034937  19.1018924  41.8709422  25.4295799  18.6366161
  43.2386850  25.3687509  18.5694410  42.5781963  25.5430729  18.9548141
  40.5828737   6.5240099  23.4230220  39.9397055   6.3737745  23.9915359
  40.2428144   6.2782444  22.6579325  40.4373814   6.4652221  23.3933235
  45.1728084  14.4799525  22.8460229  44.5019274  15.0229228  22.7173294
  45.8667834  14.9494381  22.6041923  45.1756951  14.6297797  22.7915756
  39.2214817  26.6196237  28.0771987  38.9980472  25.8615067  28.4456013
  38.7324661  26.6494259  27.3552427  39.1158266  26.5118462  28.0248728
  45.3356211  10.9355409  25.7550602  45.6883821  10.5085132  26.4296401
  44.4771013  10.8506253  25.8851678  45.2605656  10.8600150  25.8745612
  34.0339896  13.5662929  23.8133448  33.3151885  13.9827061  24.0806312
  34.4052258  14.1317167  23.2625087  33.9831828  13.7112210  23.7716255
  43.3339477  14.1990778  29.7035444  43.3137404  14.0174073  30.5570223
  43.3818678  15.0702796  29.6795028  43.3374118  14.3007316  29.8258739
  41.2358568  25.9986781  26.2832688  40.8374852  26.1089051  25.5153508
  40.6209788  26.2068847  26.8659248  41.0857458  26.0460349  26.2563988
  39.8086470  12.6060929  19.1506828  39.2151310  12.9277925  18.5991395
  39.8461748  11.7602024  18.9427934  39.7260860  12.5285257  19.0389599
  46.7680271   6.0573821  26.6834914  46.2611136   5.3502960  26.6156092
  47.5647705   5.7267010  26.8135991  46.8107510   5.9046972  26.6933909
  42.6844287  12.5640433  22.5808578  42.4557980  12.5873135  21.7386936
  42.9442363  11.7397900  22.7003589  42.6890475  12.4456513  22.4733776
  36.9663515  14.4174906  32.1833678  36.4542419  13.8096089  32.5418710
  36.7943012  15.1331499  32.6507654  36.8653152  14.4338205  32.3049902
  31.8129230  12.8612481  34.8336040  31.6431820  13.5213856  34.2884247
  31.3695180  13.0719043  35.5548529  31.7228564  12.9898464  34.8597670
  48.9700411  20.5738747  19.6675779  49.3534017  21.3230104  19.8973876
  48.1744524  20.8204567  19.4087768  48.9094193  20.7208441  19.6633352
  40.8432586  12.3399151  34.6235934  41.4004016  12.1112960  33.9914399
  40.5193651  13.1004816  34.3471146  40.8778996  12.4182987  34.4892431
  38.5615703  15.4266804  35.5887941  39.3127030  15.7418481  35.9027495
  38.7538280  15.2245975  34.7621863  38.7007117  15.4434186  35.5131337
  37.7815703  13.2458179  17.2436158  38.1614668  13.2637808  16.4587273
  37.0408299  13.6912168  17.1227005  37.7284540  13.3139954  17.1099726
  45.4100993  11.5540370  22.8311736  45.4095220  11.3989027  23.6896013
  45.2057173  12.4003357  22.7753122  45.3800771  11.6560991  22.9499676
  27.4718264  14.9780155  27.2470553  27.2940025  14.5256764  27.9725469
  27.1837286  15.7806316  27.4309031  27.4031217  15.0302713  27.3814056
  43.1341845  16.2337872  26.4847943  43.6295511  15.5160867  26.4451964
  42.3241621  15.9308670  26.3702430  43.0885739  16.0835518  26.4621669
  38.5800457  20.0835685  18.6344948  37.7711780  19.7602359  18.5878257
  39.0875366  19.3768907  18.5673196  38.5350124  19.9317002  18.6175242
  29.2090734  17.5107879  24.3592312  28.3436254  17.4993569  24.2475083
  29.3089550  17.3238101  25.2063451  29.0964901  17.4813940  24.4681256
  45.1993664  18.9841560  29.1725072  45.6248736  18.4615981  28.6195497
  44.8350584  19.5822397  28.6513695  45.2080267  18.9951787  29.0134082
  41.7872264  22.6975824  25.5026230  42.2583442  23.4116087  25.6716215
  42.1232442  22.0974574  26.0386099  41.9067379  22.7147288  25.6058605
  38.7041759   7.4703295  32.4584324  38.8369664   6.6734288  32.7865300
  39.0886911   7.9969697  33.0382600  38.7798087   7.4303211  32.5927827
  41.7774114   4.3933621  29.0565418  40.9720077   4.2831350  29.3733256
  41.6480849   4.4946076  28.1995283  41.6394247   4.3917291  28.9773458
  45.2340074  10.5579113  29.6505114  44.6503063  11.0588319  29.2382682
  45.5544368  10.0508669  29.0169438  45.1953250  10.5570948  29.4963622
  37.7734873   9.4719707  19.9263789  38.5950568   9.6418020  19.6845484
  37.3104524   9.6266968  19.2030087  37.8266036   9.5201440  19.7835434
  36.3630205   7.4662470  30.7062218  36.9074618   7.1253596  31.2966560
  36.4167141   8.3247931  30.8483503  36.4519325   7.5417729  30.8144091
  32.1760764  21.2278886  27.5801026  32.7805621  21.1874720  26.9514847
  31.9688077  22.0750038  27.6105082  32.2349661  21.3466888  27.4917142
  41.9904536  23.4944831  28.7963263  42.8102910  23.3507797  29.0579559
  41.7098614  24.1191030  29.3379701  42.0701280  23.5655183  28.9151203
  27.4112046  20.2113503  27.4499949  27.3136324  19.4009775  27.7590006
  28.1940916  20.1905296  27.0646217  27.5128183  20.0880593  27.4386812
  58.4618187  31.1509682  21.7606140  58.4312191  32.0054319  21.9324409
  59.0599535  30.8504975  22.3192283  58.5455344  31.2326179  21.8680942
  51.6617871  30.2385333  26.5159070  50.8055767  30.3993832  26.5668187
  51.7085525  29.3677397  26.5364131  51.5416983  30.1336135  26.5265136
  51.4983971  40.1973421  17.7081849  51.1635339  40.8750342  17.2726071
  52.0110841  39.8078732  17.1198720  51.5249552  40.2397999  17.5568640
  54.5069692  32.2977377  29.1590722  55.0525652  32.9762464  29.2184691
  54.4486569  32.1564838  28.2992303  54.5785607  32.3769379  29.0402782
  56.2834761  33.7261984  20.0324450  56.1674287  34.4769671  20.4616588
  57.0790648  33.4685938  20.2820537  56.3839351  33.7996831  20.1328541
  40.8208812  35.8086730  24.1711408  40.5858996  34.9754382  24.0643677
  40.9594452  36.0891396  23.3572609  40.8064474  35.7270233  24.0353763
  43.1198899  27.9772461  27.0695716  42.5003931  27.3865108  26.9005730
  43.0182763  28.5683896  26.4360039  43.0136575  27.9776543  26.9500705
  48.1665087  37.7156008  21.3193792  48.4880928  38.2561215  20.7155100
  48.8137183  37.1452779  21.4516082  48.3091142  37.7115183  21.2500827
  50.2166795  29.7172002  21.4028179  50.9146959  29.8960130  21.8949642
  50.5319127  29.1942342  20.7798568  50.3662132  29.6665775  21.3830189
  50.4054730  36.1042447  21.3907970  50.8448366  35.4959548  21.8362743
  50.2559393  35.7249821  20.6193435  50.4476196  35.9580919  21.3427138
  48.3893658  25.0864399  25.4849453  48.0596988  25.5375543  24.8153152
  47.7138660  25.0080562  26.0322460  48.2404095  25.1415534  25.4672677
  54.0064067  34.4569629  18.3438739  53.9215362  35.3130595  18.4888308
  54.4948450  34.1813953  19.0120899  54.0652964  34.5426950  18.4640821
  55.5970066  21.0749922  23.7299064  55.2823507  21.7653401  24.1619486
  55.0797008  21.0194704  23.0284565  55.4734536  21.1684811  23.6896013
  54.9382500  31.0754423  19.8436475  54.4093971  31.2914056  20.5033781
  55.4607520  31.7690561  19.7637444  54.9370953  31.2097560  19.9292074
  60.3930553  36.6500727  25.2169519  59.5628256  36.8611371  25.3802936
  60.3439805  35.8237782  24.9411803  60.2637288  36.5590334  25.2006884
  46.8282108  34.9717640  18.6443942  46.2439323  35.4767671  19.0509806
  46.4252203  34.7460027  17.9040534  46.6821411  35.0125888  18.5948968
  51.2859322  31.2183292  17.1212863  51.5255326  31.4261276  16.3088206
  51.6075163  30.4140800  17.2301808  51.3696480  31.1297393  17.0173416
  46.5949612  23.1476688  20.9672401  47.3495580  23.5155005  20.7289451
  46.4177147  23.5216242  21.7351581  46.6804091  23.2574875  21.0457290
  59.8884511  29.2971128  29.0119940  59.0512932  29.3673315  29.2467535
  59.8572742  29.2995623  28.1394243  59.7602793  29.3081355  28.9179488
  44.9506677  25.5547006  17.6650514  44.7682250  25.7718887  16.8391507
  45.8132290  25.6686019  17.7209128  45.0511266  25.6036904  17.5505001
  50.6306396  22.5573417  20.6999538  51.3592557  22.3789372  20.2537694
  50.7201289  23.3991497  20.9106716  50.7513058  22.6557296  20.6653055
  54.6114697  33.4926805  24.6031832  55.3672212  33.9258319  24.6420741
  54.7177021  32.8431574  25.1766468  54.7384867  33.4604288  24.6929857
  57.6494868  37.3200082  25.3534235  57.2130100  37.3236824  26.1093206
  57.3157783  38.0005581  24.9213812  57.5357488  37.4212538  25.4015067
  57.5692351  24.3613910  27.5963663  58.2118259  24.4312014  28.1825578
  57.8215372  23.6943133  27.0943205  57.7014483  24.2740258  27.6090942
  44.4968704  28.8321179  16.1772987  43.7826881  28.5459359  16.5895420
  44.9812673  29.1717805  16.8179375  44.4628067  28.8402829  16.3328622
  60.7839214  34.0381002  24.2453872  61.4455648  33.4771670  24.1449780
  60.1430626  33.5433032  24.5706563  60.7868082  33.8817411  24.2786212
  51.6716022  37.3351133  16.5534795  52.0867170  37.0036157  15.8619291
  50.8407952  37.1020035  16.4254932  51.6104031  37.2522389  16.4325643
  57.0704045  35.0546384  23.9865861  57.3059634  35.1991583  23.1592711
  57.2193609  35.8188792  24.3797374  57.1269848  35.1885438  23.9229465
  58.8994502  33.8948050  21.8235465  59.2302719  34.4275690  21.2175559
  59.4727590  33.9486938  22.4797416  59.0328181  33.9817619  21.8313246
  54.1126391  31.7412953  22.5059045  54.2073245  32.4802247  22.9598670
  53.4885234  31.3130428  22.9393609  54.0335421  31.7874273  22.6367192
  54.3649412  33.5861693  15.7395997  54.2829575  33.6563880  16.6050984
  55.0029133  34.1491436  15.5479737  54.4469249  33.6800664  15.8385946
  52.8043633  25.4550881  25.3074616  52.0999960  24.9660067  25.4658535
  52.8528608  25.4673356  24.4363060  52.7073685  25.3840529  25.2013956
  46.6977295  30.9060193  25.6935418  46.1226887  31.0652361  26.3299379
  46.3212972  30.2695602  25.2303868  46.5580108  30.8358006  25.7189976
  60.0073853  29.1358547  23.3275626  59.7510418  28.3238488  23.1373509
  60.8503167  29.1436114  23.1005814  60.0939879  29.0170544  23.2660443
  54.1876946  23.0758171  28.0651780  54.5687457  22.3936342  28.4519655
  53.3840230  22.7867773  27.8827445  54.1253407  22.9325219  28.0955836
  51.4689522  33.6082147  18.7504603  52.2830161  33.8997040  18.6387375
  51.4048664  32.9542009  18.1762896  51.5792261  33.5547342  18.6493441
  47.3397431  37.0803664  23.8776915  47.9771377  36.8415412  24.4228709
  47.7652502  37.2840823  23.1430076  47.4973597  37.0754674  23.8494073
  47.9800246  32.3005954  18.2151805  48.3645398  32.0813661  18.9668350
  47.7311866  33.1268899  18.3452881  48.0002318  32.3904100  18.3452881
  58.7135433  36.0752592  29.2262473  58.4081250  36.8080649  29.5875789
  57.9941649  35.6690521  28.9455259  58.5622775  36.1234325  29.2375610
  64.4137225  32.7145592  28.5530818  64.3461725  32.7341552  27.6833404
  64.3992888  33.5575920  28.7786488  64.4015982  32.8419327  28.4583294
  45.7000683  23.9702891  23.5460585  44.8323108  24.0425490  23.6118194
  45.9875887  24.7724970  23.7348560  45.6140431  24.0997038  23.5835352
  54.8233572  24.1180750  31.8771907  55.5687164  23.9290560  31.4635332
  54.4070876  24.6438988  31.3185763  54.8718546  24.1682895  31.7336480
  48.2623488  40.5210830  20.2884175  48.5521787  40.1299811  19.5643402
  48.9926969  40.7027535  20.7289450  48.4130372  40.4904644  20.2466982
  62.1995843  31.4889979  26.8277412  62.7503764  30.8558048  27.0674504
  62.1839958  32.0205371  27.5192916  62.2781039  31.4738927  26.9656270
  55.9024249  29.7286312  25.9382008  55.5589015  29.0076647  26.2889258
  56.0017291  29.5200163  25.0960366  55.8666292  29.5910516  25.8653688
  48.3697360  43.8707602  22.1375017  49.0221418  43.3384045  22.3666043
  47.6722968  43.5176255  22.5242891  48.3628077  43.7397125  22.2287185
  45.3178624  36.2246780  21.5442391  46.0724592  36.6059819  21.7577854
  44.7249237  36.6757924  21.9989088  45.3415338  36.3475607  21.6425270
  43.6268035  27.4461150  20.9877461  43.3392831  27.0762420  20.2509409
  44.3138503  27.9156005  20.7261166  43.6856932  27.4608119  20.8392537
  52.8343856  39.1350801  20.9043076  52.5930532  38.4018661  20.4970140
  53.0145189  39.6837658  20.2509409  52.8251480  39.1073192  20.7473298
  48.0643177  34.4259360  22.3163998  47.8685959  35.0334095  21.7224301
  48.2877522  33.7327304  21.8355672  48.0677818  34.4136886  22.1580079
  46.4621707  31.3114098  22.4344866  47.1844358  31.4755256  21.9748672
  45.9829699  32.0323763  22.3284206  46.4985437  31.4412328  22.3510480
  54.4215214  27.6477897  27.8141551  53.5826315  27.6739176  27.5779814
  54.4919581  28.2948632  28.3946898  54.3083608  27.7474023  27.8650668
  52.8684492  24.5463274  22.5469167  53.5710845  24.3471022  22.0689125
  52.6028681  23.7739216  22.8538010  52.9331125  24.4026240  22.5214609
  58.2972738  32.8545884  25.1002793  58.2106713  33.0101310  25.9537572
  57.8423218  33.4983959  24.7262198  58.2175995  32.9721639  25.1709900
  41.1996230  28.2242362  21.8362743  41.3012366  29.0268524  22.1643718
  41.9952116  28.0229698  21.5385823  41.3324135  28.3128261  21.8398098
  52.1698554  30.1756631  23.7228352  51.9233268  30.0952382  24.5565141
  52.4983677  29.3910099  23.5290880  52.1819798  30.0482896  23.8175875
  56.0646603  36.8839990  27.5115134  55.9260962  37.5821036  28.0163876
  55.2846601  36.7288647  27.1551315  55.9289830  36.9640157  27.5341408
  50.3015499  32.1103518  30.9176467  49.5538813  32.3034532  30.5124745
  50.4557024  31.2848737  30.6800588  50.2137926  32.0168629  30.8221873
  57.5599976  36.2418244  18.2731633  57.1806784  35.4555382  18.2660922
  56.8966221  36.7905101  18.1303277  57.4058451  36.2063068  18.2512430
  55.0144602  19.1843944  25.6765714  55.1328170  19.6420407  24.9433016
  54.8406777  18.3789205  25.3901931  55.0063773  19.1337716  25.5266647
  50.3846884  39.7931763  22.1120459  51.1496775  39.5241407  21.7903123
  50.2824974  39.3081773  22.8290522  50.4828379  39.6821328  22.1700287
  48.4199654  27.9956173  28.6513695  47.6295728  27.8147633  28.9731031
  48.8160276  27.2183125  28.6343989  48.3616530  27.8543633  28.6966243
  52.9065544  36.8243947  14.0920408  53.6738530  36.8844072  13.6826260
  52.4596853  36.2524388  13.6076727  52.9538972  36.7480523  13.9598119
  53.8043340  35.6298603  26.3773141  53.1288342  35.3983835  26.8786528
  53.8135716  35.0219786  25.7515246  53.7061844  35.5057528  26.3589293
  55.8060075  38.4863735  18.6083319  55.8879912  39.2930721  18.2844770
  56.2909817  38.5059694  19.3324092  55.8897232  38.6084397  18.6670217
  44.9039023  33.6600622  22.7081369  45.0603642  33.5947425  23.5637361
  45.2439616  34.4349175  22.4960049  44.9772258  33.7649821  22.8035963
  51.4418167  33.0358506  21.5774732  51.9833713  32.5328887  22.0413353
  51.7564726  32.9823701  20.7664218  51.5682564  32.9537927  21.5258544
  49.6104617  38.4275858  18.8614760  49.6797437  37.5690396  19.0007761
  50.3893072  38.6447738  18.5333785  49.7357467  38.3328721  18.8331918
  54.0012105  40.8513559  23.0751254  53.6091896  40.5480274  22.3574120
  54.1565177  41.6882649  22.8856207  53.9665695  40.9297396  22.9407751
  54.7546525  29.5383876  32.5680340  53.9423206  29.2309766  32.6493513
  55.2136459  29.0582876  33.1323052  54.7026910  29.4220368  32.6634934
  54.1651779  37.4163548  23.0157284  53.8066434  37.5878191  23.7921317
  53.6790490  37.8776753  22.4585283  54.0410476  37.5102519  23.0482553
  51.9822165  21.0394746  26.6184376  51.1115723  21.0133467  26.5717685
  52.2362507  20.8671938  25.8010221  51.8915726  21.0104890  26.4904512
  48.9540145  33.0962713  15.5557519  49.2432670  33.8727596  15.8301093
  49.0411944  32.5851445  16.2572018  49.0094401  33.1354631  15.7000016
  51.0763539  23.5893935  29.9050699  50.6895293  23.6142966  30.6864228
  50.5896477  23.0235613  29.4525215  50.9476048  23.5089685  29.9538602
  57.0513519  30.1556590  28.5290401  56.6241127  30.0682938  27.7738500
  56.4139572  30.2634365  29.1145245  56.8943126  30.1589249  28.5035842
  50.7420681  20.4760920  32.1960958  51.3713799  21.0121220  31.9182029
  50.9106544  20.3838279  33.0474524  50.8598476  20.5422282  32.2809487
  42.5979653  30.0315515  25.4842381  42.2036351  30.1058526  24.7092491
  42.0419770  30.4173461  26.0350743  42.4582465  30.0997289  25.4510041
  54.2344600  23.0096809  25.1646260  54.4394193  22.9419116  26.0103257
  53.9071024  23.8155630  25.0967438  54.2159847  23.1182749  25.2805915
  48.9320751  30.3377377  26.9055228  48.6283888  29.7833365  27.5065636
  48.2300171  30.5169587  26.4183262  48.7836960  30.2822159  26.9224934
  47.9886848  27.6477897  21.4699930  48.2646582  26.9296809  21.0577498
  48.5885517  28.2462817  21.2621036  48.1180112  27.6298267  21.3780691
  57.4878287  23.5628573  24.6449026  56.8752601  24.0498975  25.0302758
  57.5842462  22.8872064  25.1886677  57.4116185  23.5346882  24.7827884
  51.4897368  25.3191414  19.7446525  51.9441115  25.4901974  20.4694370
  51.9637414  24.7059525  19.3444301  51.6265688  25.2542299  19.7920287
  45.4073516  25.9641738  29.7417281  45.8674998  26.0380667  30.4792405
  45.4529623  26.7622992  29.3917103  45.4824072  26.0935885  29.7990038
  61.1303315  34.6345510  30.0726542  61.1886439  35.0832158  30.8186518
  60.4969783  35.0444322  29.6356622  61.0454610  34.7619244  30.1179090
  54.7702410  40.2549052  26.5081288  54.5722099  40.7439866  25.8137499
  54.1490121  40.4590293  27.0865421  54.6489974  40.3565590  26.4904511
  48.8310388  32.0233948  20.8491532  49.5752433  32.4108225  21.0874482
  48.9771084  31.1791374  21.0132020  48.9620973  31.9564421  20.9085502
  50.7489964  23.8184207  25.8823394  49.9026009  23.9907015  25.7564744
  50.7461096  23.0133551  26.2189222  50.6237114  23.7245236  25.9134521
  51.8188264  27.5959422  26.7485452  51.3448218  27.0701184  27.2590763
  52.1906400  27.0488894  26.1800313  51.8038153  27.4375418  26.7400599
  58.0824995  32.6561797  28.1592232  57.8423218  31.8168212  28.1634659
  58.5617002  32.7361964  28.8833006  58.1177178  32.5443197  28.2667035
  53.7471764  28.4895976  19.8111205  53.2194782  28.5724720  19.1216914
  54.2067472  29.2313848  19.8075850  53.7373614  28.6116639  19.7085901
  60.0830182  29.4363255  26.1121491  59.8439952  29.3959089  25.2742276
  60.2464083  30.2834407  26.2387212  60.0720485  29.5555340  26.0074973
  56.6876212  33.8213204  32.0426536  57.4110411  33.3685730  31.8637556
  56.4226174  34.1017869  31.2598864  56.7557485  33.7964172  31.9005252
  45.5563080  28.4173377  28.7779416  44.9316150  28.4291769  28.1705368
  45.2208675  28.8933552  29.4270656  45.4148572  28.4891894  28.7835984
  45.7404829  26.7598496  14.8352101  45.3917633  27.4118221  15.2983650
  45.2601275  26.7455609  14.1075972  45.6175073  26.8541549  14.7963192
  53.3008846  37.0599540  18.9420863  54.0243045  37.5257653  18.7985436
  52.8609437  37.1273149  18.1918460  53.3424539  37.1383377  18.8105644
  52.7674129  22.1927761  31.5505074  52.2714690  22.3891435  30.8596640
  53.5243191  22.5920429  31.3793875  52.8060953  22.2805495  31.4225210
  50.0377008  25.8670107  28.1408384  50.0619495  25.3330219  27.4521164
  50.2888482  25.3587415  28.8033975  50.0786927  25.7131011  28.1373029
  46.3178330  24.5940925  27.5214128  46.3576702  25.0950131  28.2348836
  45.4927995  24.6851319  27.2520052  46.2017856  24.6822741  27.5864667
  46.1128738  29.3857026  20.3478145  46.2531699  29.8829490  21.0506787
  46.6111270  28.6843321  20.4892359  46.2069819  29.3559005  20.4729724
  46.1428960  30.2524137  17.6770722  46.7774040  30.8484562  17.6120184
  46.2254571  29.9527595  18.4916592  46.2485511  30.2965045  17.7873809
  59.1211526  32.7839615  30.5457086  59.7129366  33.4236865  30.5775284
  59.5570520  32.0862651  30.8349153  59.2729957  32.7757965  30.5937919
  47.7207943  26.1838113  17.6516164  48.0423784  25.7041195  16.9975426
  47.9834887  26.9937759  17.4606976  47.8073968  26.2328011  17.5271656
  53.1167098  25.5710307  30.0139643  53.5422169  25.1182833  29.4023169
  52.5024091  25.0170377  30.2904431  53.0895743  25.4224283  29.9644668
  42.6481948  32.4491978  20.9460268  43.1574177  33.0456486  21.3271574
  43.1216220  32.1817952  20.2636688  42.7925324  32.4977793  20.9014791
  53.5612696  41.1220245  19.1018924  52.8442006  40.9481107  18.6366161
  54.2119434  40.8872817  18.5694410  53.5514546  41.0616037  18.9548141
  51.5561321  22.0425406  23.4230220  50.9129639  21.8923053  23.9915359
  51.2160728  21.7967752  22.6579325  51.4106398  21.9837529  23.3933235
  56.1460667  29.9984833  22.8460229  55.4751857  30.5414536  22.7173294
  56.8400417  30.4679689  22.6041923  56.1489535  30.1483104  22.7915756
  56.3088795  26.4540717  25.7550602  56.6616405  26.0270440  26.4296401
  55.4503596  26.3691560  25.8851678  56.2338239  26.3785458  25.8745612
  45.0072480  29.0848237  23.8133448  44.2884469  29.5012369  24.0806312
  45.3784842  29.6502475  23.2625087  44.9564411  29.2297518  23.7716255
  54.3072060  29.7176085  29.7035444  54.2869988  29.5359381  30.5570223
  54.3551261  30.5888104  29.6795028  54.3106701  29.8192624  29.8258739
  50.7819054  28.1246236  19.1506828  50.1883893  28.4463233  18.5991395
  50.8194332  27.2787332  18.9427934  50.6993443  28.0470565  19.0389599
  57.7412855  21.5759129  26.6834914  57.2343719  20.8688268  26.6156092
  58.5380288  21.2452318  26.8135991  57.7840094  21.4232280  26.6933909
  53.6576871  28.0825741  22.5808578  53.4290564  28.1058442  21.7386936
  53.9174947  27.2583208  22.7003589  53.6623059  27.9641821  22.4733776
  46.7121633  26.6202287  23.8762774  47.1878999  26.9819367  23.2412955
  46.2110233  27.2758755  24.1562917  46.7086992  26.7696476  23.8239515
  59.9432995  36.0924055  19.6675779  60.3266600  36.8415412  19.8973876
  59.1477108  36.3389875  19.4087768  59.8826777  36.2393749  19.6633352
  48.7548286  28.7643487  17.2436158  49.1347251  28.7823116  16.4587273
  48.0140882  29.2097476  17.1227005  48.7017124  28.8325262  17.1099726
  56.3833577  27.0725678  22.8311736  56.3827803  26.9174335  23.6896013
  56.1789757  27.9188665  22.7753122  56.3533355  27.1746299  22.9499676
  54.1074429  31.7523180  26.4847943  54.6028094  31.0346175  26.4451964
  53.2974205  31.4493978  26.3702430  54.0618322  31.6020826  26.4621669
  49.5533040  35.6020993  18.6344948  48.7444363  35.2787667  18.5878257
  50.0607949  34.8954215  18.5673196  49.5082707  35.4502310  18.6175242
  56.1726248  34.5026868  29.1725072  56.5981319  33.9801289  28.6195497
  55.8083168  35.1007705  28.6513695  56.1812850  34.5137095  29.0134082
  52.7604847  38.2161132  25.5026230  53.2316025  38.9301394  25.6716215
  53.0965026  37.6159882  26.0386099  52.8799962  38.2332596  25.6058605
  49.6774342  22.9888602  32.4584324  49.8102248  22.1919596  32.7865300
  50.0619495  23.5155005  33.0382600  49.7530671  22.9488519  32.5927827
  52.7506697  19.9118929  29.0565418  51.9452661  19.8016658  29.3733256
  52.6213433  20.0131384  28.1995283  52.6126830  19.9102599  28.9773458
  56.2072658  26.0764420  29.6505114  55.6235647  26.5773627  29.2382682
  56.5276952  25.5693977  29.0169438  56.1685833  26.0756255  29.4963622
  48.7467457  24.9905015  19.9263789  49.5683151  25.1603328  19.6845484
  48.2837108  25.1452276  19.2030087  48.7998619  25.0386748  19.7835434
  47.3362789  22.9847777  30.7062218  47.8807202  22.6438904  31.2966560
  47.3899725  23.8433239  30.8483503  47.4251908  23.0603037  30.8144091
  69.4350770  46.6694990  21.7606140  69.4044775  47.5239627  21.9324409
  70.0332119  46.3690283  22.3192283  69.5187928  46.7511487  21.8680942
  62.6350455  45.7570641  26.5159070  61.7788351  45.9179140  26.5668187
  62.6818109  44.8862705  26.5364131  62.5149566  45.6521443  26.5265136
  57.0191595  55.2933359  22.2796302  56.2674494  54.9148898  22.0512347
  57.4677606  55.3251793  21.5315112  56.9741262  55.2418966  22.1353804
  65.9444172  52.0257167  36.1219526  66.6510939  51.5309198  36.2506461
  66.1332107  52.4666249  35.3922184  66.0772077  52.0175517  36.0328572
  62.4716555  55.7158729  17.7081849  62.1367923  56.3935650  17.2726071
  62.9843425  55.3264040  17.1198720  62.4982136  55.7583307  17.5568640
  62.0120846  57.6672997  23.6492960  62.3960225  58.2359896  23.1097736
  61.9479987  56.9422508  23.1698776  62.0594273  57.6448461  23.4986823
  65.4802276  47.8162685  29.1590722  66.0258236  48.4947772  29.2184691
  65.4219152  47.6750146  28.2992303  65.5518190  47.8954687  29.0402782
  58.5976351  55.3051751  24.5459074  58.6986714  54.4952105  24.8556202
  58.0018096  55.2108698  23.9158753  58.5248890  55.1716780  24.4985313
  67.2567345  49.2447292  20.0324450  67.1406871  49.9954978  20.4616588
  68.0523231  48.9871246  20.2820537  67.3571934  49.3182139  20.1328541
  58.4377090  60.2229341  25.9473930  59.0814546  60.6642505  26.3370089
  58.7633346  59.4182767  25.8604189  58.5808919  60.1694535  25.9919408
  51.7941395  51.3272038  24.1711408  51.5591580  50.4939690  24.0643677
  51.9327036  51.6076704  23.3572609  51.7797058  51.2455541  24.0353763
  54.0931483  43.4957769  27.0695716  53.4736514  42.9050416  26.9005730
  53.9915346  44.0869204  26.4360039  53.9869158  43.4961851  26.9500705
  59.1397670  53.2341315  21.3193792  59.4613511  53.7746523  20.7155100
  59.7869767  52.6638087  21.4516082  59.2823725  53.2300491  21.2500827
  61.1899378  45.2357310  21.4028179  61.8879543  45.4145438  21.8949642
  61.5051711  44.7127650  20.7798568  61.3394715  45.1851082  21.3830189
  61.3787314  51.6227755  21.3907970  61.8180949  51.0144856  21.8362743
  61.2291977  51.2435129  20.6193435  61.4208779  51.4766227  21.3427138
  61.3845048  53.0626673  28.2433688  61.6668291  52.2678079  28.0220444
  62.1131208  53.5407261  28.2638749  61.5334612  53.0161270  28.2136703
  59.3626242  40.6049707  25.4849453  59.0329572  41.0560851  24.8153152
  58.6871244  40.5265870  26.0322460  59.2136678  40.6600842  25.4672677
  64.9796650  49.9754937  18.3438739  64.8947945  50.8315903  18.4888308
  65.4681033  49.6999261  19.0120899  65.0385547  50.0612258  18.4640821
  66.5702650  36.5935230  23.7299064  66.2556091  37.2838709  24.1619486
  66.0529591  36.5380012  23.0284565  66.4467120  36.6870118  23.6896013
  65.9115083  46.5939731  19.8436475  65.3826555  46.8099364  20.5033781
  66.4340103  47.2875869  19.7637444  65.9103536  46.7282868  19.9292074
  71.3663136  52.1686035  25.2169519  70.5360839  52.3796679  25.3802936
  71.3172389  51.3423090  24.9411803  71.2369872  52.0775642  25.2006884
  57.8014691  50.4902948  18.6443942  57.2171906  50.9952979  19.0509806
  57.3984786  50.2645335  17.9040534  57.6553995  50.5311196  18.5948968
  59.4272874  54.9989889  28.0517429  58.9099816  54.6397304  27.4478737
  60.1247265  54.4752064  28.0623495  59.4538455  54.8687577  27.9647687
  63.0836466  55.4484704  34.0133602  63.1719812  55.2610844  34.8611812
  63.5126178  54.8022133  33.6138448  63.1598568  55.3247711  34.0805353
  60.6506926  54.7315864  32.9951264  60.0877760  54.3188473  33.5190925
  61.4127949  54.6568769  33.4144407  60.6801374  54.6593264  33.1344264
  62.2591906  46.7368600  17.1212863  62.4987909  46.9446583  16.3088206
  62.5807747  45.9326108  17.2301808  62.3429064  46.6482701  17.0173416
  57.5682196  38.6661995  20.9672401  58.3228164  39.0340313  20.7289451
  57.3909731  39.0401550  21.7351581  57.6536674  38.7760183  21.0457290
  56.2102917  56.7213885  25.5987894  56.9123496  56.2065874  25.6560650
  56.1300400  57.0488036  26.4034769  56.3026678  56.6928111  25.7260686
  55.9239261  41.0732314  17.6650514  55.7414834  41.2904195  16.8391507
  56.7864874  41.1871327  17.7209128  56.0243850  41.1222212  17.5505001
  55.5353693  52.9120237  25.1073502  56.3742592  53.1443169  25.1547264
  55.5665462  52.0424548  25.0380537  55.6635410  52.8177183  25.1038147
  61.6038980  38.0758725  20.6999538  62.3325140  37.8974680  20.2537694
  61.6933873  38.9176805  20.9106716  61.7245642  38.1742604  20.6653055
  65.5847280  49.0112112  24.6031832  66.3404795  49.4443627  24.6420741
  65.6909605  48.3616882  25.1766468  65.7117451  48.9789596  24.6929857
  68.6227452  52.8385390  25.3534235  68.1862683  52.8422132  26.1093206
  68.2890367  53.5190889  24.9213812  68.5090072  52.9397846  25.4015067
  68.5424934  39.8799218  27.5963663  69.1850843  39.9497322  28.1825578
  68.7947955  39.2128440  27.0943205  68.6747067  39.7925566  27.6090942
  55.4701288  44.3506487  16.1772987  54.7559465  44.0644667  16.5895420
  55.9545256  44.6903113  16.8179375  55.4360651  44.3588137  16.3328622
  63.3526918  56.7903825  30.3243841  62.5542164  56.5503325  30.5817709
  63.8012930  56.8418218  31.0710888  63.3001530  56.7626216  30.4728765
  71.7571798  49.5566310  24.2453872  72.4188232  48.9956978  24.1449780
  71.1163210  49.0618340  24.5706563  71.7600665  49.4002719  24.2786212
  62.6448606  52.8536441  16.5534795  63.0599754  52.5221465  15.8619291
  61.8140535  52.6205343  16.4254932  62.5836614  52.7707697  16.4325643
  68.0436628  50.5731692  23.9865861  68.2792218  50.7176891  23.1592711
  68.1926192  51.3374100  24.3797374  68.1002432  50.7070746  23.9229465
  69.8727085  49.4133358  21.8235465  70.2035302  49.9460998  21.2175559
  70.4460173  49.4672246  22.4797416  70.0060764  49.5002927  21.8313246
  65.0858974  47.2598261  22.5059045  65.1805829  47.9987555  22.9598670
  64.4617818  46.8315736  22.9393609  65.0068004  47.3059581  22.6367192
  63.3411448  50.4384473  33.1549326  63.9150310  49.8011717  33.3097890
  63.2626252  50.4388556  32.2858983  63.4144683  50.3449585  33.0495736
  65.3381996  49.1047000  15.7395997  65.2562158  49.1749188  16.6050984
  65.9761716  49.6676744  15.5479737  65.4201833  49.1985972  15.8385946
  58.6975167  48.8707738  25.2070523  58.4394411  48.0379473  25.1801822
  58.7523650  49.0965351  24.3663023  58.6674945  48.7805510  25.0790660
  63.7776217  40.9736189  25.3074616  63.0732544  40.4845375  25.4658535
  63.8261191  40.9858664  24.4363060  63.6806269  40.9025837  25.2013956
  57.6709879  46.4245501  25.6935418  57.0959470  46.5837669  26.3299379
  57.2945555  45.7880910  25.2303868  57.5312691  46.3543314  25.7189976
  70.9806437  44.6543855  23.3275626  70.7243002  43.8423796  23.1373509
  71.8235751  44.6621422  23.1005814  71.0672462  44.5355852  23.2660443
  65.1609529  38.5943479  28.0651780  65.5420041  37.9121650  28.4519655
  64.3572813  38.3053081  27.8827445  65.0985991  38.4510527  28.0955836
  62.4422106  49.1267455  18.7504603  63.2562745  49.4182348  18.6387375
  62.3781247  48.4727317  18.1762896  62.5524845  49.0732649  18.6493441
  68.6631596  51.8093451  33.1634179  68.4270233  50.9781516  33.0446239
  69.3074825  51.7579058  33.7489023  68.7226267  51.6791139  33.2320072
  58.3130014  52.5988972  23.8776915  58.9503961  52.3600720  24.4228709
  58.7385086  52.8026131  23.1430076  58.4706180  52.5939982  23.8494073
  58.9532829  47.8191262  18.2151805  59.3377982  47.5998969  18.9668350
  58.7044449  48.6454207  18.3452881  58.9734902  47.9089408  18.3452881
  69.6868017  51.5937900  29.2262473  69.3813834  52.3265956  29.5875789
  68.9674232  51.1875829  28.9455259  69.5355359  51.6419633  29.2375610
  60.6951486  53.0761395  25.5570702  60.7690494  52.9136567  26.4112551
  61.5120992  53.2651584  25.3131183  60.8267845  53.0798137  25.6468727
  75.3869809  48.2330900  28.5530818  75.3194309  48.2526859  27.6833404
  75.3725471  49.0761228  28.7786488  75.3748565  48.3604635  28.4583294
  54.4557243  53.4219258  22.5865145  53.6295360  53.6680995  22.4599424
  54.5169234  53.3431339  23.4527203  54.3431410  53.4464207  22.6954089
  56.6733266  39.4888199  23.5460585  55.8055692  39.5610798  23.6118194
  56.9608471  40.2910278  23.7348560  56.5873015  39.6182346  23.5835352
  65.7966155  39.6366058  31.8771907  66.5419747  39.4475868  31.4635332
  65.3803460  40.1624296  31.3185763  65.8451129  39.6868203  31.7336480
  59.2356072  56.0396138  20.2884175  59.5254370  55.6485119  19.5643402
  59.9659553  56.2212843  20.7289450  59.3862956  56.0089952  20.2466982
  73.1728426  47.0075287  26.8277412  73.7236348  46.3743356  27.0674504
  73.1572541  47.5390679  27.5192916  73.2513622  46.9924235  26.9656270
  57.1761987  58.0163520  23.3544325  56.9562283  57.7260875  24.1470992
  56.9556509  57.3578475  22.8262237  57.1109582  57.8763229  23.3933233
  56.0878935  50.1036837  25.6200026  55.7992183  49.4774308  26.1545754
  56.9562283  50.0457124  25.6864707  56.1739186  50.0024381  25.7090981
  66.8756832  45.2471620  25.9382008  66.5321598  44.5261955  26.2889258
  66.9749875  45.0385471  25.0960366  66.8398875  45.1095823  25.8653688
  59.3429943  59.3892910  22.1375017  59.9954001  58.8569353  22.3666043
  58.6455552  59.0361563  22.5242891  59.3360661  59.2582433  22.2287185
  56.2911208  51.7432088  21.5442391  57.0457176  52.1245127  21.7577854
  55.6981821  52.1943232  21.9989088  56.3147922  51.8660915  21.6425270
  67.3369861  51.7097324  21.4805996  67.9027894  52.3690534  21.3964539
  66.6897765  52.0547022  21.9522398  67.3248618  51.8579266  21.5378753
  54.6000619  42.9646458  20.9877461  54.3125414  42.5947728  20.2509409
  55.2871087  43.4341313  20.7261166  54.6589516  42.9793427  20.8392537
  63.8076440  54.6536108  20.9043076  63.5663115  53.9203969  20.4970140
  63.9877772  55.2022965  20.2509409  63.7984063  54.6258500  20.7473298
  59.0375760  49.9444668  22.3163998  58.8418543  50.5519403  21.7224301
  59.2610106  49.2512612  21.8355672  59.0410401  49.9322194  22.1580079
  57.4354290  46.8299406  22.4344866  58.1576942  46.9940564  21.9748672
  56.9562283  47.5509071  22.3284206  57.4718021  46.9597636  22.3510480
  65.3947798  43.1663205  27.8141551  64.5558898  43.1924484  27.5779814
  65.4652165  43.8133940  28.3946898  65.2816191  43.2659331  27.8650668
  63.8417076  40.0648582  22.5469167  64.5443429  39.8656330  22.0689125
  63.5761265  39.2924524  22.8538010  63.9063708  39.9211548  22.5214609
  69.2705322  48.3731192  25.1002793  69.1839296  48.5286618  25.9537572
  68.8155801  49.0169267  24.7262198  69.1908578  48.4906947  25.1709900
  52.1728813  43.7427670  21.8362743  52.2744950  44.5453832  22.1643718
  52.9684700  43.5415006  21.5385823  52.3056719  43.8313569  21.8398098
  63.1431138  45.6941939  23.7228352  62.8965852  45.6137690  24.5565141
  63.4716261  44.9095407  23.5290880  63.1552381  45.5668204  23.8175875
  67.0379186  52.4025298  27.5115134  66.8993546  53.1006344  28.0163876
  66.2579184  52.2473955  27.1551315  66.9022413  52.4825465  27.5341408
  65.3757272  48.7021674  33.7637515  65.3705310  47.8301490  33.7679942
  66.0818265  48.9009843  33.2906971  65.4802276  48.6025548  33.6944551
  58.1755920  56.6201429  30.0012362  58.3245484  56.0604345  29.3485767
  58.9555922  56.6993431  30.3844881  58.3130014  56.5486995  29.9609311
  68.5332559  51.7603552  18.2731633  68.1539368  50.9740690  18.2660922
  67.8698805  52.3090409  18.1303277  68.3791034  51.7248376  18.2512430
  60.7009221  56.7916072  31.2796853  60.6252892  56.1224883  31.8347641
  60.6299080  57.4933860  31.7937519  60.6789827  56.7960979  31.4373701
  65.9877185  34.7029252  25.6765714  66.1060753  35.1605715  24.9433016
  65.8139361  33.8974513  25.3901931  65.9796356  34.6523024  25.5266647
  61.3579467  55.3117071  22.1120459  62.1229359  55.0426715  21.7903123
  61.2557557  54.8267081  22.8290522  61.4560963  55.2006636  22.1700287
  63.8798128  52.3429255  14.0920408  64.6471113  52.4029380  13.6826260
  63.4329437  51.7709696  13.6076727  63.9271555  52.2665830  13.9598119
  64.7775924  51.1483911  26.3773141  64.1020925  50.9169143  26.8786528
  64.7868300  50.5405094  25.7515246  64.6794428  51.0242836  26.3589293
  66.7792658  54.0049043  18.6083319  66.8612495  54.8116029  18.2844770
  67.2642400  54.0245002  19.3324092  66.8629816  54.1269705  18.6670217
  60.0900855  60.1984392  29.7374854  60.5796785  59.4995181  29.5550518
  59.5185087  59.9008262  30.3250911  60.0785385  60.0510616  29.7975895
  55.8771606  49.1785930  22.7081369  56.0336226  49.1132733  23.5637361
  56.2172199  49.9534483  22.4960049  55.9504841  49.2835128  22.8035963
  62.4150751  48.5543814  21.5774732  62.9566296  48.0514195  22.0413353
  62.7297310  48.5009009  20.7664218  62.5415148  48.4723235  21.5258544
  66.2867858  52.7646461  38.6901645  67.1002724  52.4931610  38.8506777
  66.1262825  52.4654001  37.8861840  66.3837807  52.6801387  38.5947050
  60.5837201  53.9461165  18.8614760  60.6530021  53.0875704  19.0007761
  61.3625656  54.1633046  18.5333785  60.7090051  53.8514029  18.8331918
  64.9744688  56.3698867  23.0751254  64.5824480  56.0665582  22.3574120
  65.1297760  57.2067957  22.8856207  64.9398278  56.4482703  22.9407751
  52.4505868  46.3620881  23.0242136  52.8304833  46.7805426  22.3602404
  51.8761233  46.9434336  23.3310980  52.4217193  46.5098740  22.9718877
  65.1384363  52.9348856  23.0157284  64.7799018  53.1063498  23.7921317
  64.6523074  53.3962061  22.4585283  65.0143060  53.0287827  23.0482553
  62.9554749  36.5580054  26.6184376  62.0848307  36.5318775  26.5717685
  63.2095090  36.3857246  25.8010221  62.8648309  36.5290198  26.4904512
  59.9272728  48.6148021  15.5557519  60.2165253  49.3912903  15.8301093
  60.0144527  48.1036752  16.2572018  59.9826985  48.6539939  15.7000016
  59.9803889  38.5686283  28.0757846  59.4642378  37.8766474  28.2009425
  59.4197818  39.2357060  28.0220445  59.8210403  38.5649540  28.0863912
  62.0496123  39.1079243  29.9050699  61.6627876  39.1328274  30.6864228
  61.5629060  38.5420921  29.4525215  61.9208632  39.0274993  29.9538602
  66.2989102  53.8252752  33.9624485  66.9368823  53.3312947  33.6286941
  65.6563194  53.7530152  33.3776712  66.2983329  53.7411760  33.8266840
  68.0246102  45.6741897  28.5290401  67.5973711  45.5868246  27.7738500
  67.3872155  45.7819673  29.1145245  67.8675710  45.6774557  28.5035842
  61.7153265  35.9946228  32.1960958  62.3446383  36.5306528  31.9182029
  61.8839127  35.9023587  33.0474524  61.8331059  36.0607590  32.2809487
  66.3543359  54.5172560  30.6029842  67.1435737  54.1661625  30.7231923
  66.5286957  55.3308948  30.3406476  66.4963641  54.5858417  30.5817710
  53.5712236  45.5500822  25.4842381  53.1768934  45.6243834  24.7092491
  53.0152353  45.9358769  26.0350743  53.4315049  45.6182597  25.4510041
  65.2077183  38.5282116  25.1646260  65.4126777  38.4604424  26.0103257
  64.8803607  39.3340938  25.0967438  65.1892431  38.6368057  25.2805915
  58.9619431  43.1663205  21.4699930  59.2379166  42.4482117  21.0577498
  59.5618101  43.7648124  21.2621036  59.0912696  43.1483575  21.3780691
  68.4610871  39.0813881  24.6449026  67.8485184  39.5684283  25.0302758
  68.5575046  38.4057372  25.1886677  68.3848768  39.0532189  24.7827884
  62.4629952  40.8376722  19.7446525  62.9173698  41.0087282  20.4694370
  62.9369998  40.2244833  19.3444301  62.5998272  40.7727607  19.7920287
  72.1035899  50.1530818  30.0726542  72.1619023  50.6017466  30.8186518
  71.4702366  50.5629630  29.6356622  72.0187194  50.2804552  30.1179090
  65.7434994  55.7734359  26.5081288  65.5454682  56.2625174  25.8137499
  65.1222705  55.9775601  27.0865421  65.6222558  55.8750898  26.4904511
  59.8042972  47.5419256  20.8491532  60.5485017  47.9293533  21.0874482
  59.9503668  46.6976682  21.0132020  59.9353557  47.4749729  20.9085502
  61.7222547  39.3369515  25.8823394  60.8758592  39.5092323  25.7564744
  61.7193680  38.5318859  26.2189222  61.5969697  39.2430544  25.9134521
  62.7920848  43.1144730  26.7485452  62.3180802  42.5886492  27.2590763
  63.1638984  42.5674202  26.1800313  62.7770737  42.9560726  26.7400599
  69.0557578  48.1747105  28.1592232  68.8155801  47.3353520  28.1634659
  69.5349585  48.2547272  28.8833006  69.0909762  48.0628505  28.2667035
  71.0562765  44.9548562  26.1121491  70.8172535  44.9144397  25.2742276
  71.2196667  45.8019714  26.2387212  71.0453069  45.0740647  26.0074973
  67.6608795  49.3398512  32.0426536  68.3842994  48.8871038  31.8637556
  67.3958758  49.6203177  31.2598864  67.7290069  49.3149480  31.9005252
  56.7137413  42.2783804  14.8352101  56.3650217  42.9303529  15.2983650
  56.2333858  42.2640917  14.1075972  56.5907656  42.3726857  14.7963192
  64.2741430  52.5784848  18.9420863  64.9975629  53.0442961  18.7985436
  63.8342021  52.6458457  18.1918460  64.3157122  52.6568684  18.8105644
  63.4427585  49.4382390  30.1921552  62.8284578  48.8940440  30.4870187
  63.9594870  48.9246626  29.7127368  63.4283247  49.2818799  30.1645780
  62.6823882  50.5086660  27.9265850  62.2551490  49.8836379  27.4931286
  62.6748826  50.2261582  28.7524857  62.6183023  50.3739441  27.9845678
  63.7406712  37.7113069  31.5505074  63.2447273  37.9076743  30.8596640
  64.4975774  38.1105737  31.3793875  63.7793537  37.7990802  31.4225210
  61.0109592  41.3855415  28.1408384  61.0352079  40.8515527  27.4521164
  61.2621065  40.8772723  28.8033975  61.0519510  41.2316318  28.1373029
  57.2910914  40.1126233  27.5214128  57.3309286  40.6135439  28.2348836
  56.4660579  40.2036626  27.2520052  57.1750440  40.2008049  27.5864667
  57.0861321  44.9042334  20.3478145  57.2264282  45.4014798  21.0506787
  57.5843854  44.2028629  20.4892359  57.1802402  44.8744313  20.4729724
  57.1161544  45.7709445  17.6770722  57.7506623  46.3669870  17.6120184
  57.1987154  45.4712903  18.4916592  57.2218095  45.8150353  17.7873809
  70.0944109  48.3024923  30.5457086  70.6861950  48.9422173  30.5775284
  70.5303104  47.6047959  30.8349153  70.2462541  48.2943273  30.5937919
  58.6940526  41.7023421  17.6516164  59.0156368  41.2226503  16.9975426
  58.9567470  42.5123067  17.4606976  58.7806552  41.7513319  17.5271656
  61.9237499  52.7242295  31.1714980  61.4162590  53.2778142  31.6155611
  61.6264145  52.7850585  30.3533755  61.8042384  52.8148606  31.1163437
  53.6214532  47.9677286  20.9460268  54.1306761  48.5641793  21.3271574
  54.0948804  47.7003260  20.2636688  53.7657907  48.0163101  20.9014791
  64.5345280  56.6405553  19.1018924  63.8174589  56.4666415  18.6366161
  65.1852017  56.4058125  18.5694410  64.5247130  56.5801345  18.9548141
  62.5293904  37.5610714  23.4230220  61.8862222  37.4108361  23.9915359
  62.1893311  37.3153060  22.6579325  62.3838982  37.5022837  23.3933235
  67.1193251  45.5170141  22.8460229  66.4484441  46.0599843  22.7173294
  67.8133001  45.9864997  22.6041923  67.1222118  45.6668412  22.7915756
  61.1679985  57.6566853  28.0771987  60.9445639  56.8985682  28.4456013
  60.6789828  57.6864874  27.3552427  61.0623434  57.5489078  28.0248728
  67.2821378  41.9726025  25.7550602  67.6348988  41.5455748  26.4296401
  66.4236180  41.8876868  25.8851678  67.2070823  41.8970765  25.8745612
  55.9805063  44.6033545  23.8133448  55.2617052  45.0197677  24.0806312
  56.3517426  45.1687783  23.2625087  55.9296995  44.7482826  23.7716255
  65.2804644  45.2361393  29.7035444  65.2602571  45.0544689  30.5570223
  65.3283845  46.1073412  29.6795028  65.2839285  45.3377932  29.8258739
  59.8158441  57.8767311  25.5309072  59.4018840  57.2141442  25.1412913
  60.5005816  58.0245170  25.0104766  59.8556813  57.8007969  25.3965569
  63.1823736  57.0357397  26.2832688  62.7840019  57.1459667  25.5153508
  62.5674955  57.2439463  26.8659248  63.0322625  57.0830965  26.2563988
  61.7551638  43.6431544  19.1506828  61.1616477  43.9648541  18.5991395
  61.7926915  42.7972640  18.9427934  61.6726027  43.5655873  19.0389599
  68.7145438  37.0944437  26.6834914  68.2076303  36.3873576  26.6156092
  69.5112872  36.7637625  26.8135991  68.7572678  36.9417588  26.6933909
  64.6309454  43.6011049  22.5808578  64.4023147  43.6243750  21.7386936
  64.8907530  42.7768516  22.7003589  64.6355642  43.4827129  22.4733776
  57.6854217  42.1387595  23.8762774  58.1611583  42.5004675  23.2412955
  57.1842816  42.7944063  24.1562917  57.6819576  42.2881784  23.8239515
  70.9165578  51.6109363  19.6675779  71.2999184  52.3600719  19.8973876
  70.1209692  51.8575183  19.4087768  70.8559360  51.7579057  19.6633352
  59.7280870  44.2828795  17.2436158  60.1079835  44.3008424  16.4587273
  58.9873466  44.7282784  17.1227005  59.6749708  44.3510570  17.1099726
  67.3566160  42.5910986  22.8311736  67.3560387  42.4359643  23.6896013
  67.1522340  43.4373973  22.7753122  67.3265938  42.6931607  22.9499676
  65.0807012  47.2708488  26.4847943  65.5760678  46.5531483  26.4451964
  64.2706788  46.9679286  26.3702430  65.0350906  47.1206134  26.4621669
  60.5265624  51.1206301  18.6344948  59.7176947  50.7972975  18.5878257
  61.0340533  50.4139523  18.5673196  60.4815291  50.9687618  18.6175242
  67.1458831  50.0212175  29.1725072  67.5713903  49.4986597  28.6195497
  66.7815751  50.6193013  28.6513695  67.1545434  50.0322403  29.0134082
  56.7812911  58.3176393  27.9322418  57.0959470  59.1312781  27.9400199
  57.1906324  57.9326612  28.6004577  56.8881009  58.3805095  28.0326509
  63.7337431  53.7346440  25.5026230  64.2048609  54.4486702  25.6716215
  64.0697609  53.1345190  26.0386099  63.8532546  53.7517904  25.6058605
  65.8214415  55.3447753  37.6818302  65.9311381  54.5556314  38.0375049
  66.1505312  55.2553689  36.8792640  65.8866821  55.2153606  37.6160692
  64.3711377  53.5264374  32.2653922  63.8232323  52.9022258  31.9973987
  64.8324406  53.7158646  31.5498002  64.3578587  53.4623424  32.1204353
  63.7239281  35.4304236  29.0565418  62.9185245  35.3201966  29.3733256
  63.5946016  35.5316692  28.1995283  63.5859414  35.4287907  28.9773458
  67.1805241  41.5949728  29.6505114  66.5968230  42.0958935  29.2382682
  67.5009535  41.0879285  29.0169438  67.1418417  41.5941563  29.4963622
  59.7200041  40.5090323  19.9263789  60.5415735  40.6788636  19.6845484
  59.2569691  40.6637584  19.2030087  59.7731203  40.5572056  19.7835434
  63.9369703  54.5315447  28.7963263  64.7568077  54.3878413  29.0579559
  63.6563781  55.1561645  29.3379701  64.0166447  54.6025799  28.9151203
  73.6083039  61.2755949  26.5159070  72.7520934  61.4364448  26.5668187
  73.6550692  60.4048013  26.5364131  73.4882150  61.1706751  26.5265136
  67.9924178  70.8118667  22.2796302  67.2407078  70.4334206  22.0512347
  68.4410190  70.8437101  21.5315112  67.9473845  70.7604274  22.1353804
  76.9176755  67.5442475  36.1219526  77.6243522  67.0494506  36.2506461
  77.1064691  67.9851556  35.3922184  77.0504661  67.5360825  36.0328572
  76.4534860  63.3347993  29.1590722  76.9990820  64.0133080  29.2184691
  76.3951736  63.1935454  28.2992303  76.5250774  63.4139995  29.0402782
  69.5708934  70.8237059  24.5459074  69.6719297  70.0137413  24.8556202
  68.9750680  70.7294006  23.9158753  69.4981473  70.6902087  24.4985313
  62.7673979  66.8457346  24.1711408  62.5324163  66.0124998  24.0643677
  62.9059619  67.1262012  23.3572609  62.7529641  66.7640849  24.0353763
  65.0664066  59.0143077  27.0695716  64.4469098  58.4235724  26.9005730
  64.9647930  59.6054512  26.4360039  64.9601742  59.0147159  26.9500705
  72.1631962  60.7542618  21.4028179  72.8612127  60.9330746  21.8949642
  72.4784294  60.2312958  20.7798568  72.3127299  60.7036390  21.3830189
  64.7933199  62.5595358  29.3139285  64.6691896  63.1457804  29.9489103
  65.4451484  62.0655554  29.6151560  64.8706849  62.5734163  29.4525214
  72.3519897  67.1413063  21.3907970  72.7913533  66.5330164  21.8362743
  72.2024560  66.7620437  20.6193435  72.3941363  66.9951534  21.3427138
  69.8191540  65.7357075  28.5926796  70.4640543  65.2429518  28.2737744
  70.0593317  65.8781862  29.4192874  69.9502125  65.6834517  28.6676329
  72.3577632  68.5811981  28.2433688  72.6400874  67.7863387  28.0220444
  73.0863792  69.0592568  28.2638749  72.5067195  68.5346578  28.2136703
  70.3358825  56.1235015  25.4849453  70.0062155  56.5746159  24.8153152
  69.6603827  56.0451178  26.0322460  70.1869262  56.1786150  25.4672677
  77.5435233  52.1120538  23.7299064  77.2288674  52.8024016  24.1619486
  77.0262175  52.0565320  23.0284565  77.4199704  52.2055426  23.6896013
  64.3291303  71.7243017  25.4467614  63.8458882  72.4493506  25.4227198
  65.1414622  72.0219147  25.5577772  64.3782051  71.8745370  25.4594893
  70.4005457  70.5175197  28.0517429  69.8832399  70.1582612  27.4478737
  71.0979849  69.9937372  28.0623495  70.4271039  70.3872885  27.9647687
  71.6239509  70.2501171  32.9951264  71.0610344  69.8373781  33.5190925
  72.3860533  70.1754077  33.4144407  71.6533958  70.1778572  33.1344264
  68.5414779  54.1847303  20.9672401  69.2960748  54.5525620  20.7289451
  68.3642314  54.5586858  21.7351581  68.6269258  54.2945491  21.0457290
  67.1835501  72.2399193  25.5987894  67.8856080  71.7251182  25.6560650
  67.1032984  72.5673344  26.4034769  67.2759261  72.2113419  25.7260686
  68.2314407  62.4774780  34.7268309  68.4034911  62.3680674  35.5753590
  68.7683765  63.1229185  34.4899501  68.3359411  62.5566781  34.8173406
  66.8971844  56.5917622  17.6650514  66.7147417  56.8089503  16.8391507
  67.7597457  56.7056635  17.7209128  66.9976434  56.6407520  17.5505001
  66.5086276  68.4305545  25.1073502  67.3475176  68.6628477  25.1547264
  66.5398045  67.5609856  25.0380537  66.6367994  68.3362491  25.1038147
  67.1338979  68.8506420  29.4086807  67.6737204  68.7077551  30.0790180
  66.4508925  69.2503171  29.7770834  67.1131133  68.8886091  29.5621229
  72.5771563  53.5944033  20.6999538  73.3057724  53.4159988  20.2537694
  72.6666456  54.4362113  20.9106716  72.6978225  53.6927911  20.6653055
  76.5579864  64.5297420  24.6031832  77.3137379  64.9628935  24.6420741
  76.6642188  63.8802190  25.1766468  76.6850035  64.4974904  24.6929857
  62.5376124  65.0706711  29.5621229  62.2714539  64.2545827  29.7212219
  62.5514688  65.1159866  28.6916744  62.5000847  64.9563615  29.4574711
  66.4433871  59.8691795  16.1772987  65.7292048  59.5829975  16.5895420
  66.9277840  60.2088421  16.8179375  66.4093234  59.8773445  16.3328622
  67.2874731  58.6085089  32.2088237  66.5946527  58.1382069  32.4548968
  67.9035058  58.3823393  32.7829944  67.2759261  58.5052221  32.3297389
  62.9469538  65.8565490  26.8432973  62.7645111  65.8312376  25.9905265
  63.6819207  66.3264428  26.8821882  63.0283602  65.9226852  26.7230892
  66.0115290  62.5750493  33.3515082  66.7355262  62.5603524  33.8379977
  66.1131426  63.2845848  32.8537050  66.1333499  62.6775196  33.3493869
  73.3860239  66.0549577  38.2164029  72.5933220  66.3693089  38.4016649
  73.5009166  66.2701046  37.3784814  73.2855649  66.1333414  38.1202364
  76.0591558  62.7783569  22.5059045  76.1538412  63.5172863  22.9598670
  75.4350401  62.3501044  22.9393609  75.9800588  62.8244889  22.6367192
  74.3144032  65.9569781  33.1549326  74.8882893  65.3197025  33.3097890
  74.2358835  65.9573864  32.2858983  74.3877267  65.8634893  33.0495736
  62.9140448  62.7358991  26.9932040  63.4913951  62.5995441  27.6324285
  62.2154510  62.2794775  27.2477624  62.8961470  62.6481257  27.1254329
  69.6707750  64.3893046  25.2070523  69.4126995  63.5564781  25.1801822
  69.7256233  64.6150659  24.3663023  69.6407528  64.2990818  25.0790660
  74.7508801  56.4921497  25.3074616  74.0465127  56.0030683  25.4658535
  74.7993775  56.5043971  24.4363060  74.6538852  56.4211145  25.2013956
  68.6442463  61.9430809  25.6935418  68.0692054  62.1022977  26.3299379
  68.2678139  61.3066218  25.2303868  68.5045275  61.8728622  25.7189976
  72.3115751  60.4154158  30.5527796  71.9230184  59.9908376  29.8979987
  71.6470450  60.6636308  31.0604823  72.1562679  60.3892879  30.5315664
  58.3899281  61.5870884  23.7079858  58.4759533  61.2102752  24.4893388
  59.0175079  61.2131329  23.2299817  58.4955832  61.4756366  23.7525336
  76.1342113  54.1128787  28.0651780  76.5152624  53.4306958  28.4519655
  75.3305397  53.8238389  27.8827445  76.0718574  53.9695835  28.0955836
  69.2862598  68.1174280  23.8776915  69.9236545  67.8786028  24.4228709
  69.7117669  68.3211439  23.1430076  69.4438764  68.1125290  23.8494073
  63.9775240  70.3562617  27.7611219  64.0179385  70.6277468  26.9330999
  64.5369764  70.8804525  28.1769007  64.0658586  70.4738372  27.7003107
  69.9265413  63.3376570  18.2151805  70.3110565  63.1184277  18.9668350
  69.6777033  64.1639515  18.3452881  69.9467485  63.4274716  18.3452881
  70.0933953  56.6182985  37.9314389  69.7787394  57.3882548  37.6683952
  69.7723886  56.0553241  37.3466616  69.9992872  56.6493254  37.8055739
  71.6684070  68.5946703  25.5570702  71.7423078  68.4321875  26.4112551
  72.4853576  68.7836892  25.3131183  71.8000428  68.5983445  25.6468727
  65.4289826  68.9404566  22.5865145  64.6027944  69.1866303  22.4599424
  65.4901818  68.8616646  23.4527203  65.3163993  68.9649515  22.6954089
  67.6465850  55.0073507  23.5460585  66.7788276  55.0796106  23.6118194
  67.9341054  55.8095586  23.7348560  67.5605598  55.1367654  23.5835352
  76.7698739  55.1551366  31.8771907  77.5152331  54.9661176  31.4635332
  76.3536043  55.6809604  31.3185763  76.8183713  55.2053511  31.7336480
  70.7983401  66.3599192  31.3737305  70.2995094  67.0714959  31.4522194
  71.6083625  66.6799858  31.3355468  70.8439507  66.5126040  31.3793874
  68.1494571  73.5348828  23.3544325  67.9294866  73.2446183  24.1470992
  67.9289093  72.8763783  22.8262237  68.0842165  73.3948537  23.3933233
  67.0611518  65.6222145  25.6200026  66.7724767  64.9959616  26.1545754
  67.9294866  65.5642432  25.6864707  67.1471770  65.5209689  25.7090981
  77.8489416  60.7656928  25.9382008  77.5054182  60.0447263  26.2889258
  77.9482458  60.5570779  25.0960366  77.8131459  60.6281131  25.8653688
  67.2643791  67.2617396  21.5442391  68.0189759  67.6430435  21.7577854
  66.6714404  67.7128539  21.9989088  67.2880505  67.3846223  21.6425270
  69.7250459  59.2180236  36.6699604  68.9150234  59.5238016  36.5589446
  70.2025145  59.9385818  36.7852188  69.6753937  59.3694837  36.6706675
  68.5842018  68.4325957  26.9182507  68.0622772  68.5726249  27.6034371
  68.9716038  67.6736621  27.1084624  68.5645719  68.3411481  27.0483583
  65.5733202  58.4831766  20.9877461  65.2857998  58.1133036  20.2509409
  66.2603670  58.9526621  20.7261166  65.6322099  58.4978735  20.8392537
  70.0108344  65.4629976  22.3163998  69.8151126  66.0704711  21.7224301
  70.2342689  64.7697920  21.8355672  70.0142985  65.4507502  22.1580079
  68.4086874  62.3484714  22.4344866  69.1309526  62.5125872  21.9748672
  67.9294867  63.0694379  22.3284206  68.4450604  62.4782944  22.3510480
  76.3680381  58.6848513  27.8141551  75.5291482  58.7109792  27.5779814
  76.4384749  59.3319248  28.3946898  76.2548775  58.7844639  27.8650668
  66.0594490  64.7542786  31.5399006  66.5715587  65.0327040  30.8907766
  65.7730833  65.4932081  31.9061819  66.0929354  64.9045140  31.4988884
  74.8149660  55.5833890  22.5469167  75.5176012  55.3841638  22.0689125
  74.5493848  54.8109832  22.8538010  74.8796292  55.4396856  22.5214609
  63.1461397  59.2612978  21.8362743  63.2477533  60.0639140  22.1643718
  63.9417283  59.0600314  21.5385823  63.2789302  59.3498877  21.8398098
  69.5778216  56.8469175  31.6000048  69.3861413  56.8624310  32.4499471
  70.4276812  57.0432849  31.5766702  69.6753938  56.8783526  31.7223342
  63.9625129  59.3760157  29.5783864  63.8210621  58.5244097  29.7028372
  64.2465692  59.4188817  28.7546070  63.9832975  59.2559907  29.4751488
  74.1163721  61.2127247  23.7228352  73.8698435  61.1322998  24.5565141
  74.4448844  60.4280715  23.5290880  74.1284965  61.0853512  23.8175875
  76.3489855  64.2206981  33.7637515  76.3437894  63.3486798  33.7679942
  77.0550849  64.4195151  33.2906971  76.4534859  64.1210856  33.6944551
  70.0760748  63.9483965  33.1351335  70.2204124  64.5285173  32.4994445
  70.4236397  64.3260262  33.8401190  70.1488210  64.0904669  33.1450330
  72.2480666  63.1474134  30.9176467  71.5003980  63.3405148  30.5124745
  72.4022191  62.3219353  30.6800588  72.1603093  63.0539245  30.8221873
  69.1488503  72.1386737  30.0012362  69.2978067  71.5789653  29.3485767
  69.9288506  72.2178739  30.3844881  69.2862597  72.0672303  29.9609311
  72.4882443  57.0424684  31.8071871  72.9455057  57.7748659  31.9344663
  72.5638772  56.6191150  32.5659127  72.5673413  57.0881923  31.9372947
  64.7315434  57.2890504  32.8961314  64.1957624  56.6770862  33.2122082
  64.7933199  57.8638640  33.5494981  64.6611067  57.2837432  33.0396741
  76.9609769  50.2214560  25.6765714  77.0793337  50.6791023  24.9433016
  76.7871945  49.4159821  25.3901931  76.9528940  50.1708332  25.5266647
  70.3664821  59.0326788  28.6513695  69.5760896  58.8518248  28.9731031
  70.7625444  58.2553741  28.6343989  70.3081697  58.8914249  28.6966243
  75.7508507  66.6669219  26.3773141  75.0753509  66.4354451  26.8786528
  75.7600883  66.0590401  25.7515246  75.6527012  66.5428144  26.3589293
  72.8802651  61.5087047  33.1337194  72.8161792  62.3697004  33.0057330
  73.0199839  61.1919041  32.3332745  72.8918121  61.5887214  32.9965407
  71.5621745  64.2019187  27.2753397  71.1383994  64.4023686  26.5392415
  71.3866600  63.3548035  27.3877696  71.4732626  64.1067968  27.1827087
  66.8504190  64.6971238  22.7081369  67.0068809  64.6318041  23.5637361
  67.1904783  65.4719791  22.4960049  66.9237425  64.8020436  22.8035963
  73.3883335  64.0729122  21.5774732  73.9298880  63.5699503  22.0413353
  73.7029894  64.0194317  20.7664218  73.5147732  63.9908543  21.5258544
  74.5372604  58.9665426  31.6297033  74.7514573  58.3276341  31.0760387
  73.9206503  59.4111250  31.2004895  74.4777933  58.9375570  31.4847464
  63.4238451  61.8806189  23.0242136  63.8037416  62.2990734  22.3602404
  62.8493816  62.4619644  23.3310980  63.3949776  62.0284048  22.9718877
  76.7011692  60.5754492  32.5680340  75.8888374  60.2680382  32.6493513
  77.1601627  60.0953492  33.1323052  76.6492077  60.4590984  32.6634934
  73.9287333  52.0765362  26.6184376  73.0580891  52.0504083  26.5717685
  74.1827674  51.9042554  25.8010221  73.8380893  52.0475506  26.4904512
  73.7965199  61.9814563  37.3509042  74.2664831  62.6056679  37.7376916
  73.8427080  61.3131538  37.9102257  73.8733075  61.9749243  37.4909114
  70.9536473  54.0871590  28.0757846  70.4374962  53.3951782  28.2009425
  70.3930402  54.7542367  28.0220445  70.7942986  54.0834848  28.0863912
  73.0228707  54.6264550  29.9050699  72.6360460  54.6513582  30.6864228
  72.5361644  54.0606229  29.4525215  72.8941215  54.5460301  29.9538602
  72.6885848  51.5131536  32.1960958  73.3178966  52.0491836  31.9182029
  72.8571711  51.4208895  33.0474524  72.8063643  51.5792898  32.2809487
  72.4899763  56.3002731  34.4687370  73.3173192  56.0287880  34.5245985
  72.5107609  57.0963572  34.8251188  72.6152613  56.3782485  34.5302553
  67.0669253  63.4466593  27.6557631  66.2257260  63.3470468  27.8636525
  67.2759261  64.2162074  28.0071951  66.9733946  63.5458637  27.7384946
  64.5444820  61.0686130  25.4842381  64.1501518  61.1429142  24.7092491
  63.9884937  61.4544077  26.0350743  64.4047632  61.1367905  25.4510041
  76.1809767  54.0467424  25.1646260  76.3859360  53.9789732  26.0103257
  75.8536191  54.8526246  25.0967438  76.1625015  54.1553365  25.2805915
  70.8785918  61.3747993  26.9055228  70.5749055  60.8203981  27.5065636
  70.1765339  61.5540203  26.4183262  70.7302128  61.3192775  26.9224934
  69.9352015  58.6848512  21.4699930  70.2111749  57.9667425  21.0577498
  70.5350684  59.2833432  21.2621036  70.0645280  58.6668883  21.3780691
  68.9404269  68.5897713  31.6127326  68.8324624  68.5999776  32.4789384
  69.1500050  69.4152494  31.4232280  68.9554380  68.7138788  31.7131418
  73.4362535  56.3562030  19.7446525  73.8906282  56.5272590  20.4694370
  73.9102581  55.7430141  19.3444301  73.5730856  56.2912915  19.7920287
  66.9578061  65.8410356  29.0749264  66.3665994  66.4819854  29.0452279
  67.7199084  66.2647973  29.0480563  66.9826321  65.9986194  29.0664411
  67.3538684  57.0012354  29.7417281  67.8140165  57.0751283  30.4792405
  67.3994790  57.7993608  29.3917103  67.4289239  57.1306501  29.7990038
  69.0022033  57.6679048  34.3089308  68.6107599  57.0212396  34.7445086
  69.1707896  58.2590484  34.9283564  68.9692944  57.6593316  34.4652014
  70.7775555  63.0604564  20.8491532  71.5217600  63.4478840  21.0874482
  70.9236252  62.2161990  21.0132020  70.9086141  62.9935037  20.9085502
  72.6955131  54.8554823  25.8823394  71.8491176  55.0277631  25.7564744
  72.6926263  54.0504167  26.2189222  72.5702281  54.7615852  25.9134521
  73.7653431  58.6330037  26.7485452  73.2913386  58.1071800  27.2590763
  74.1371567  58.0859510  26.1800313  73.7503320  58.4746034  26.7400599
  64.1426461  60.6301544  32.1168997  65.0052074  60.5297253  32.0306327
  63.8118244  60.0496253  31.5554570  64.2211658  60.5293171  32.0214403
  75.6936931  59.5266592  19.8111205  75.1659950  59.6095336  19.1216914
  76.1532639  60.2684464  19.8075850  75.6838781  59.6487254  19.7085901
  67.5028247  59.4543993  28.7779416  66.8781318  59.4662385  28.1705368
  67.1673842  59.9304168  29.4270656  67.3613739  59.5262510  28.7835984
  67.6869996  57.7969112  14.8352101  67.3382800  58.4488837  15.2983650
  67.2066442  57.7826225  14.1075972  67.5640240  57.8912165  14.7963192
  64.2153923  67.5144453  30.2183180  63.6853847  66.8236892  30.2678155
  64.4879016  67.5054639  29.3895888  64.1778645  67.4111585  30.1030596
  74.4160169  64.9567698  30.1921552  73.8017162  64.4125748  30.4870187
  74.9327453  64.4431934  29.7127368  74.4015831  64.8004107  30.1645780
  73.6556466  66.0271968  27.9265850  73.2284074  65.4021687  27.4931286
  73.6481410  65.7446890  28.7524857  73.5915607  65.8924749  27.9845678
  66.7718993  61.0637141  30.9954284  66.9312479  60.3080465  31.4006006
  66.5911886  61.6128081  31.6495022  66.7684352  61.0330955  31.1516990
  74.7139296  53.2298377  31.5505074  74.2179857  53.4262051  30.8596640
  75.4708358  53.6291045  31.3793875  74.7526120  53.3176110  31.4225210
  71.9842175  56.9040722  28.1408384  72.0084663  56.3700835  27.4521164
  72.2353649  56.3958031  28.8033975  72.0252094  56.7501626  28.1373029
  59.4949765  64.1872217  27.5751528  59.3893214  64.1419062  26.7103612
  58.7449985  64.5325998  27.8565813  59.3685368  64.2313126  27.4888858
  68.2643498  55.6311541  27.5214128  68.3041869  56.1320747  28.2348836
  67.4393162  55.7221934  27.2520052  68.1483024  55.7193357  27.5864667
  70.4473110  65.1972281  35.6234423  69.5968741  65.3343995  35.7592068
  70.6101238  64.4636059  36.0682125  70.3456974  65.1086382  35.7090022
  69.6857861  62.1472051  29.8188027  68.8549791  62.3145869  29.6123276
  69.6309378  61.7708001  30.6036913  69.5547276  62.1161782  29.9036556
  67.4941644  55.6380943  35.4544438  68.1194348  55.0943076  35.7273870
  67.0392124  55.1575861  34.8852229  67.5189905  55.4870425  35.4106032
  68.0593905  60.4227642  20.3478145  68.1996866  60.9200106  21.0506787
  68.5576438  59.7213936  20.4892359  68.1534986  60.3929621  20.4729724
  68.0894127  61.2894753  17.6770722  68.7239207  61.8855178  17.6120184
  68.1719738  60.9898211  18.4916592  68.1950678  61.3335661  17.7873809
  69.6673110  57.2208729  17.6516164  69.9888951  56.7411811  16.9975426
  69.9300054  58.0308375  17.4606976  69.7539135  57.2698626  17.5271656
  72.8970083  68.2427603  31.1714980  72.3895174  68.7963450  31.6155611
  72.5996729  68.3035893  30.3533755  72.7774968  68.3333914  31.1163437
  75.0632265  56.6080922  30.0139643  75.4887337  56.1553449  29.4023169
  74.4489258  56.0540993  30.2904431  75.0360910  56.4594899  29.9644668
  64.5947115  63.4862594  20.9460268  65.1039344  64.0827101  21.3271574
  65.0681387  63.2188568  20.2636688  64.7390491  63.5348409  20.9014791
  73.5026488  53.0796022  23.4230220  72.8594806  52.9293669  23.9915359
  73.1625895  52.8338368  22.6579325  73.3571565  53.0208145  23.3933235
  78.2553962  57.4911333  25.7550602  78.6081572  57.0641056  26.4296401
  77.3968763  57.4062176  25.8851678  78.1803406  57.4156073  25.8745612
  66.9537647  60.1218852  23.8133448  66.2349636  60.5382985  24.0806312
  67.3250009  60.6873091  23.2625087  66.9029579  60.2668134  23.7716255
  76.2537228  60.7546701  29.7035444  76.2335155  60.5729997  30.5570223
  76.3016428  61.6258720  29.6795028  76.2571869  60.8563240  29.8258739
  74.1983557  67.3433893  35.6283921  74.1579412  66.6983570  35.0429077
  75.0106876  67.2870511  35.9409333  74.3126711  67.2392860  35.5880870
  72.7284221  59.1616852  19.1506828  72.1349060  59.4833849  18.5991395
  72.7659499  58.3157948  18.9427934  72.6458610  59.0841181  19.0389599
  75.6042038  59.1196357  22.5808578  75.3755731  59.1429058  21.7386936
  75.8640114  58.2953824  22.7003589  75.6088226  59.0012437  22.4733776
  69.8861266  60.9730830  32.1833678  69.3740169  60.3652013  32.5418710
  69.7140762  61.6887422  32.6507654  69.7850903  60.9894129  32.3049902
  64.7326981  59.4168405  34.8336040  64.5629571  60.0769780  34.2884247
  64.2892931  59.6274966  35.5548529  64.6426314  59.5454387  34.8597670
  68.6586800  57.6572903  23.8762774  69.1344167  58.0189983  23.2412955
  68.1575400  58.3129371  24.1562917  68.6552159  57.8067092  23.8239515
  73.7630337  58.8955075  34.6235934  74.3201767  58.6668884  33.9914399
  73.4391402  59.6560740  34.3471146  73.7976747  58.9738911  34.4892431
  61.6329045  62.3215271  30.0924530  61.0855765  61.6515916  30.2105398
  62.4221424  61.9545119  30.1567997  61.6681229  62.1680257  30.1193231
  71.4813454  61.9822728  35.5887941  72.2324781  62.2974405  35.9027495
  71.6736030  61.7801899  34.7621863  71.6204868  61.9990110  35.5131337
  70.7013453  59.8014103  17.2436158  71.0812418  59.8193732  16.4587273
  69.9606049  60.2468092  17.1227005  70.6482291  59.8695878  17.1099726
  78.3298744  58.1096294  22.8311736  78.3292970  57.9544951  23.6896013
  78.1254924  58.9559281  22.7753122  78.2998522  58.2116915  22.9499676
  60.3916015  61.5336079  27.2470553  60.2137776  61.0812688  27.9725469
  60.1035037  62.3362240  27.4309031  60.3228968  61.5858636  27.3814056
  76.0539596  62.7893796  26.4847943  76.5493261  62.0716791  26.4451964
  75.2439372  62.4864594  26.3702430  76.0083489  62.6391442  26.4621669
  62.1288485  64.0663802  24.3592312  61.2634004  64.0549493  24.2475083
  62.2287301  63.8794025  25.2063451  62.0162652  64.0369864  24.4681256
  78.1191415  65.5397483  29.1725072  78.5446486  65.0171905  28.6195497
  77.7548335  66.1378321  28.6513695  78.1278017  65.5507710  29.0134082
  67.7545495  73.8361701  27.9322418  68.0692054  74.6498089  27.9400199
  68.1638908  73.4511920  28.6004577  67.8613593  73.8990403  28.0326509
  74.7070014  69.2531748  25.5026230  75.1781192  69.9672010  25.6716215
  75.0430193  68.6530498  26.0386099  74.8265129  69.2703212  25.6058605
  71.6239509  54.0259218  32.4584324  71.7567415  53.2290212  32.7865300
  72.0084662  54.5525621  33.0382600  71.6995838  53.9859135  32.5927827
  75.3443961  69.0449682  32.2653922  74.7964907  68.4207565  31.9973987
  75.8056989  69.2343954  31.5498002  75.3311170  68.9808732  32.1204353
  74.6971864  50.9489544  29.0565418  73.8917828  50.8387274  29.3733256
  74.5678600  51.0502000  28.1995283  74.5591997  50.9473214  28.9773458
  70.6932624  56.0275631  19.9263789  71.5148318  56.1973944  19.6845484
  70.2302275  56.1822892  19.2030087  70.7463786  56.0757364  19.7835434
  69.2827956  54.0218393  30.7062218  69.8272369  53.6809520  31.2966560
  69.3364892  54.8803855  30.8483503  69.3717075  54.0973653  30.8144091
  65.0958515  67.7834809  27.5801026  65.7003372  67.7430644  26.9514847
  64.8885827  68.6305961  27.6105082  65.1547412  67.9022812  27.4917142
  60.3309797  66.7669427  27.4499949  60.2334075  65.9565698  27.7590006
  61.1138667  66.7461220  27.0646217  60.4325934  66.6436517  27.4386812
  36.1862747   6.1236856  12.8813977  36.8300203   6.5650020  13.2710135
  36.5119003   5.3190282  12.7944236  36.3294576   6.0702051  12.9259454
  40.8322123   1.3492219  20.9473648  40.9205469   1.1618359  21.7951859
  41.2611835   0.7029648  20.5478495  40.9084225   1.2255227  21.0145400
  38.3992582   0.6323379  19.9291311  37.8363417   0.2195989  20.4530972
  39.1613606   0.5576284  20.3484454  38.4287031   0.5600779  20.0684311
  40.9442182   0.7801238  23.6117432  41.7282599   0.8932086  23.9773174
  40.7438776  -0.0457625  23.8076118  41.0308207   0.6747957  23.6951818
  41.1012575   2.6911340  17.2583888  40.3027821   2.4510840  17.5157756
  41.5498587   2.7425733  18.0050935  41.0487187   2.6633731  17.4068812
  35.9241577   2.5208945  16.9352409  36.0731140   1.9611860  16.2825814
  36.7041579   2.6000946  17.3184928  36.0615670   2.4494510  16.8949358
  38.4494877   2.6923587  18.2136900  38.3738548   2.0232398  18.7687688
  38.3784736   3.3941376  18.7277566  38.4275484   2.6968495  18.3713748
  37.8386512   6.0991907  16.6714901  38.3282442   5.4002696  16.4890565
  37.2670744   5.8015777  17.2590958  37.8271042   5.9518131  16.7315941
  35.7157342  -1.0280079  18.5467373  35.6077697  -1.0178017  19.4129431
  35.9253124  -0.2025299  18.3572327  35.7307453  -0.9039004  18.6471464
  43.4920650   1.6741875  13.4421335  43.2940339   2.1632689  12.7477546
  42.8708361   1.8783116  14.0205468  43.3708215   1.7758413  13.4244558
  39.6723156  -1.3750190  18.1055027  39.1648247  -0.8214343  18.5495657
  39.3749802  -1.3141900  17.2873801  39.5528041  -1.2843879  18.0503484
  38.9165641   3.5574369  15.0112034  38.6931296   2.7993198  15.3796060
  38.4275485   3.5872390  14.2892473  38.8109090   3.4496593  14.9588775
  40.9309392   2.9364912  13.2172735  40.5325676   3.0467182  12.4493555
  40.3160612   3.1446978  13.7999295  40.7808282   2.9838480  13.1904034
  34.5298568   4.2183908  14.8662464  34.8445127   5.0320297  14.8740246
  34.9391981   3.8334127  15.5344624  34.6366666   4.2812611  14.9666556
  43.5700072   1.2455268  24.6158348  43.6797038   0.4563829  24.9715096
  43.8990969   1.1561205  23.8132687  43.6352478   1.1161121  24.5500739
  41.6855360   0.4322962  15.7303310  42.5053734   0.2885928  15.9919605
  41.4049438   1.0569161  16.2719748  41.7652104   0.5033314  15.8491250
  51.3568695   7.1763465  13.4499117  50.5006591   7.3371963  13.5008234
  51.4036349   6.3055529  13.4704178  51.2367807   7.0714267  13.4605183
  45.7409835  16.7126183   9.2136349  44.9892735  16.3341721   8.9852394
  46.1895847  16.7444616   8.4655159  45.6959502  16.6611790   9.0693851
  54.6662412  13.4449990  23.0559573  55.3729179  12.9502021  23.1846508
  54.8550347  13.8859072  22.3262231  54.7990318  13.4368341  22.9668619
  51.1934795  17.1351552   4.6421896  50.8586163  17.8128474   4.2066118
  51.7061665  16.7456863   4.0538767  51.2200376  17.1776130   4.4908687
  50.7339086  19.0865821  10.5833007  51.1178466  19.6552719  10.0437782
  50.6698227  18.3615331  10.1038823  50.7812513  19.0641284  10.4326870
  54.2020516   9.2355509  16.0930769  54.7476476   9.9140595  16.1524738
  54.1437393   9.0942969  15.2332350  54.2736431   9.3147510  15.9742829
  47.3194591  16.7244575  11.4799121  47.4204954  15.9144929  11.7896249
  46.7236337  16.6301521  10.8498800  47.2467130  16.5909603  11.4325359
  55.9785585  10.6640116   6.9664496  55.8625111  11.4147802   7.3956634
  56.7741472  10.4064069   7.2160583  56.0790174  10.7374963   7.0668588
  47.1595331  21.6422164  12.8813977  47.8032786  22.0835328  13.2710135
  47.4851586  20.8375590  12.7944236  47.3027160  21.5887359  12.9259454
  40.5159636  12.7464861  11.1051455  40.2809820  11.9132514  10.9983723
  40.6545276  13.0269527  10.2912656  40.5015298  12.6648365  10.9693810
  42.8149723   4.9150592  14.0035762  42.1954755   4.3243239  13.8345777
  42.7133587   5.5062027  13.3700086  42.7087399   4.9154674  13.8840752
  47.8615911  14.6534139   8.2533839  48.1831752  15.1939346   7.6495147
  48.5088007  14.0830910   8.3856129  48.0041966  14.6493314   8.1840874
  49.9117619   6.6550134   8.3368226  50.6097783   6.8338261   8.8289689
  50.2269951   6.1320473   7.7138615  50.0612956   6.6043906   8.3170236
  42.5418856   8.4602874  16.2479331  42.4177553   9.0465319  16.8829150
  43.1937141   7.9663069  16.5491606  42.6192505   8.4741678  16.3865261
  50.1005554  13.0420579   8.3248017  50.5399190  12.4337679   8.7702790
  49.9510217  12.6627952   7.5533482  50.1427020  12.8959050   8.2767184
  47.5677197  11.6364591  15.5266842  48.2126200  11.1437034  15.2077791
  47.8078974  11.7789377  16.3532921  47.6987782  11.5842033  15.6016376
  50.1063288  14.4819496  15.1773735  50.3886531  13.6870902  14.9560491
  50.8349449  14.9600084  15.1978796  50.2552852  14.4354093  15.1476750
  48.0844482   2.0242530  12.4189500  47.7547812   2.4753674  11.7493199
  47.4089484   1.9458694  12.9662507  47.9354919   2.0793665  12.4012723
  53.7014891  11.3947760   5.2778786  53.6166186  12.2508727   5.4228355
  54.1899274  11.1192084   5.9460945  53.7603788  11.4805081   5.3980868
  54.6333324   8.0132554   6.7776521  54.1044795   8.2292188   7.4373828
  55.1558344   8.7068693   6.6977491  54.6321777   8.1475691   6.8632121
  60.0881377  13.5878859  12.1509566  59.2579080  13.7989502  12.3142982
  60.0390629  12.7615913  11.8751849  59.9588112  13.4968465  12.1346931
  42.0776960  17.6250532  12.3807661  41.5944538  18.3501022  12.3567244
  42.8900278  17.9226662  12.4917819  42.1267708  17.7752886  12.3934940
  48.1491114  16.4182713  14.9857475  47.6318056  16.0590128  14.3818783
  48.8465506  15.8944887  14.9963541  48.1756695  16.2880401  14.8987734
  51.8054706  16.8677527  20.9473648  51.8938052  16.6803667  21.7951859
  52.2344419  16.2214956  20.5478495  51.8816809  16.7440534  21.0145400
  49.3725166  16.1508687  19.9291311  48.8096001  15.7381297  20.4530972
  50.1346190  16.0761592  20.3484454  49.4019615  16.0786087  20.0684311
  44.9321158  18.1406708  12.5327941  45.6341737  17.6258697  12.5900697
  44.8518641  18.4680859  13.3374816  45.0244918  18.1120934  12.6600733
  59.5835335   6.2349259  15.9459987  58.7463756   6.3051446  16.1807582
  59.5523566   6.2373754  15.0734289  59.4553617   6.2459486  15.8519535
  45.9800064   8.3782295  21.6608356  46.1520568   8.2688189  22.5093637
  46.5169422   9.0236700  21.4239548  46.0845068   8.4574297  21.7513452
  44.2571933  14.3313060  12.0413549  45.0960832  14.5635993  12.0887310
  44.2883702  13.4617371  11.9720584  44.3853651  14.2370006  12.0378193
  44.8824636  14.7513935  16.3426854  45.4222861  14.6085066  17.0130227
  44.1994582  15.1510686  16.7110880  44.8616790  14.7893606  16.4961276
  54.3065521  10.4304936  11.5371879  55.0623036  10.8636450  11.5760787
  54.4127845   9.7809705  12.1106515  54.4335691  10.3982420  11.6269904
  57.3445692  14.2578213  12.2874282  56.9080924  14.2614955  13.0433253
  57.0108607  14.9383712  11.8553859  57.2308312  14.3590669  12.3355114
  51.9174766  16.2986546  23.6117432  52.7015182  16.4117394  23.9773174
  51.7171360  15.4727683  23.8076118  52.0040791  16.1933265  23.6951818
  40.2861781  10.9714226  16.4961276  40.0200196  10.1553343  16.6552266
  40.3000345  11.0167381  15.6256791  40.2486503  10.8571131  16.3914758
  45.0360387   4.5092604  19.1428283  44.3432184   4.0389584  19.3889015
  45.6520715   4.2830909  19.7169991  45.0244917   4.4059736  19.2637436
  52.0745159  18.2096648  17.2583888  51.2760405  17.9696148  17.5157756
  52.5231170  18.2611041  18.0050935  52.0219770  18.1819039  17.4068812
  60.4790038  10.9759133  11.1793919  61.1406472  10.4149801  11.0789827
  59.8381450  10.4811164  11.5046610  60.4818906  10.8195542  11.2126259
  51.3666846  14.2729264   3.4874842  51.7817994  13.9414288   2.7959338
  50.5358776  14.0398167   3.3594979  51.3054855  14.1900520   3.3665689
  40.6955195  11.7573005  13.7773020  40.5130768  11.7319891  12.9245312
  41.4304864  12.2271943  13.8161929  40.7769259  11.8234368  13.6570939
  56.7654869  11.9924515  10.9205908  57.0010458  12.1369714  10.0932758
  56.9144432  12.7566923  11.3137421  56.8220672  12.1263570  10.8569511
  43.7600946   8.4758008  20.2855129  44.4840919   8.4611039  20.7720023
  43.8617083   9.1853363  19.7877097  43.8819155   8.5782711  20.2833915
  58.5945326  10.8326181   8.7575511  58.9253543  11.3653821   8.1515606
  59.1678414  10.8865069   9.4137462  58.7279005  10.9195750   8.7653293
  51.1345896  11.9557093  25.1504076  50.3418877  12.2700605  25.3356695
  51.2494823  12.1708561  24.3124860  51.0341306  12.0340929  25.0542410
  53.8077215   8.6791084   9.4399092  53.9024069   9.4180378   9.8938717
  53.1836058   8.2508559   9.8733656  53.7286245   8.7252405   9.5707239
  52.0629689  11.8577297  20.0889372  52.6368550  11.2204541  20.2437936
  51.9844492  11.8581379  19.2199030  52.1362923  11.7642408  19.9835783
  40.6626105   8.6366506  13.9272087  41.2399608   8.5002957  14.5664332
  39.9640167   8.1802290  14.1817671  40.6447126   8.5488772  14.0594376
  47.4193407  10.2900562  12.1410570  47.1612651   9.4572297  12.1141869
  47.4741890  10.5158175  11.3003070  47.3893185  10.1998333  12.0130707
  46.3928119   7.8438324  12.6275465  45.8177711   8.0030492  13.2639426
  46.0163796   7.2073733  12.1643915  46.2530932   7.7736137  12.6530023
  50.0601408   6.3161673  17.4867843  49.6715841   5.8915891  16.8320034
  49.3956106   6.5643823  17.9944870  49.9048336   6.2900395  17.4655711
  51.1640346  10.5460278   5.6844650  51.9780985  10.8375171   5.5727421
  51.0999487   9.8920140   5.1102943  51.2743085  10.4925473   5.5833487
  57.3849836  13.2286274  20.0974226  57.1488474  12.3974339  19.9786286
  58.0293065  13.1771881  20.6829070  57.4444507  13.0983962  20.1660119
  47.0348254  14.0181795  10.8116962  47.6722201  13.7793543  11.3568755
  47.4603326  14.2218954  10.0770123  47.1924421  14.0132806  10.7834119
  41.7260897  16.2570132  14.6951266  41.7665042  16.5284983  13.8671045
  42.2855421  16.7812040  15.1109054  41.8144243  16.3745887  14.6343154
  47.8419610   2.5190500  24.8654436  47.5273051   3.2890063  24.6023998
  47.5209542   1.9560756  24.2806663  47.7478529   2.5500769  24.7395786
  58.4086257  13.0130723  16.1602520  58.1032074  13.7458780  16.5215836
  57.6892473  12.6068652  15.8795306  58.2573599  13.0612456  16.1715657
  49.4169726  14.4954218  12.4910748  49.4908735  14.3329390  13.3452598
  50.2339233  14.6844408  12.2471230  49.5486085  14.4990960  12.5808774
  64.1088049   9.6523724  15.4870864  64.0412549   9.6719683  14.6173451
  64.0943712  10.4954051  15.7126535  64.0966806   9.7797458  15.3923341
  43.1775483  14.8412081   9.5205192  42.3513601  15.0873818   9.3939471
  43.2387474  14.7624162  10.3867250  43.0649650  14.8657030   9.6294136
  47.9574312  17.4588961   7.2224222  48.2472611  17.0677942   6.4983448
  48.6877793  17.6405666   7.6629497  48.1081196  17.4282775   7.1807029
  61.8946666   8.4268110  13.7617459  62.4454588   7.7936179  14.0014551
  61.8790782   8.9583503  14.4532963  61.9731863   8.4117058  13.8996317
  48.5469057  12.2606707  18.3077352  48.0480751  12.9722475  18.3862241
  49.3569282  12.5807374  18.2695515  48.5925164  12.4133556  18.3133921
  45.8980228  19.4356344  10.2884371  45.6780523  19.1453698  11.0811038
  45.6774750  18.7771299   9.7602284  45.8327822  19.2956052  10.3273280
  44.8097175  11.5229660  12.5540073  44.5210424  10.8967131  13.0885800
  45.6780523  11.4649947  12.6204754  44.8957427  11.4217204  12.6431028
  55.5975073   6.6664443  12.8722055  55.2539839   5.9454779  13.2229305
  55.6968115   6.4578295  12.0300413  55.5617116   6.5288647  12.7993735
  48.0648183  20.8085733   9.0715064  48.7172241  20.2762176   9.3006090
  47.3673792  20.4554386   9.4582938  48.0578901  20.6775256   9.1627232
  45.0129448  13.1624911   8.4782438  45.7675416  13.5437950   8.6917901
  44.4200061  13.6136055   8.9329135  45.0366162  13.2853738   8.5765317
  56.0588102  13.1290148   8.4146043  56.6246134  13.7883357   8.3304586
  55.4116005  13.4739846   8.8862445  56.0466858  13.2772089   8.4718800
  47.4736115   5.1187751  23.6039651  46.6635891   5.4245531  23.4929493
  47.9510802   5.8393334  23.7192235  47.4239594   5.2702353  23.6046722
  46.3327675  14.3333472  13.8522554  45.8108428  14.4733764  14.5374418
  46.7201695  13.5744137  14.0424671  46.3131376  14.2418996  13.9823630
  52.5294680  16.0728932   7.8383122  52.2881356  15.3396792   7.4310187
  52.7096013  16.6215789   7.1849456  52.5202304  16.0451323   7.6813345
  47.7594001  11.3637492   9.2504045  47.5636783  11.9712226   8.6564348
  47.9828346  10.6705435   8.7695719  47.7628642  11.3515017   9.0920125
  46.1572531   8.2492229   9.3684913  46.8795182   8.4133388   8.9088719
  45.6780523   8.9701894   9.2624253  46.1936261   8.3790459   9.2850527
  54.1166038   4.5856028  14.7481598  53.2777139   4.6117307  14.5119861
  54.1870405   5.2326764  15.3286945  54.0034432   4.6852154  14.7990715
  43.8080147  10.6550302  18.4739053  44.3201244  10.9334555  17.8247813
  43.5216490  11.3939596  18.8401866  43.8415010  10.8052656  18.4328931
  57.9923562   9.7924015  12.0342840  57.9057536   9.9479441  12.8877618
  57.5374042  10.4362091  11.6602245  57.9126819   9.9099770  12.1049946
  47.3263873   2.7476690  18.5340094  47.1347070   2.7631825  19.3839518
  48.1762469   2.9440365  18.5106749  47.4239595   2.7791042  18.6563389
  41.7110786   5.2767672  16.5123911  41.5696277   4.4251613  16.6368419
  41.9951349   5.3196333  15.6886117  41.7318632   5.1567422  16.4091535
  51.8649378   7.1134762  10.6568399  51.6184092   7.0330513  11.4905188
  52.1934501   6.3288230  10.4630927  51.8770622   6.9861027  10.7515922
  55.7597427  13.8218121  14.4455180  55.6211786  14.5199167  14.9503923
  54.9797425  13.6666778  14.0891362  55.6240654  13.9018288  14.4681455
  54.0975512  10.1214497  20.6977562  54.0923550   9.2494313  20.7019989
  54.8036506  10.3202666  20.2247018  54.2020516  10.0218371  20.6284597
  47.8246405   9.8491481  20.0691382  47.9689781  10.4292689  19.4334492
  48.1722054  10.2267777  20.7741237  47.8973867   9.9912185  20.0790377
  49.9966323   9.0481649  17.8516514  49.2489637   9.2412663  17.4464792
  50.1507848   8.2226869  17.6140635  49.9088750   8.9546760  17.7561920
  46.8974160  18.0394252  16.9352409  47.0463724  17.4797168  16.2825814
  47.6774162  18.1186254  17.3184928  47.0348254  17.9679818  16.8949358
  49.4227461  18.2108895  18.2136900  49.3471132  17.5417706  18.7687688
  49.3517320  18.9126684  18.7277566  49.4008068  18.2153803  18.3713748
  50.2368100   2.9432200  18.7411918  50.6940714   3.6756174  18.8684710
  50.3124428   2.5198665  19.4999173  50.3159070   2.9889438  18.8712994
  42.4801091   3.1898019  19.8301361  41.9443280   2.5778378  20.1462129
  42.5418856   3.7646155  20.4835028  42.4096724   3.1844947  19.9736788
  50.0797708  16.7309894   9.0460506  50.8447599  16.4619538   8.7243170
  49.9775798  16.2459905   9.7630569  50.1779203  16.6199459   9.1040333
  48.1150478   4.9334304  15.5853742  47.3246552   4.7525764  15.9071077
  48.5111100   4.1561256  15.5684036  48.0567354   4.7921765  15.6306290
  53.4994164  12.5676734  13.3113188  52.8239166  12.3361966  13.8126575
  53.5086540  11.9597917  12.6855293  53.4012668  12.4435659  13.2929340
  50.6288308   7.4094563  20.0677241  50.5647449   8.2704519  19.9397377
  50.7685496   7.0926556  19.2672792  50.6403778   7.4894729  19.9305453
  55.5010898  15.4241866   5.5423365  55.5830736  16.2308852   5.2184816
  55.9860641  15.4437825   6.2664139  55.5848056  15.5462529   5.6010264
  49.3107402  10.1026702  14.2093443  48.8869651  10.3031201  13.4732462
  49.1352257   9.2555550  14.3217743  49.2218282  10.0075484  14.1167134
  48.8119095  21.6177215  16.6714901  49.3015026  20.9188004  16.4890565
  48.2403327  21.3201085  17.2590958  48.8003625  21.4703439  16.7315941
  44.5989847  10.5978754   9.6421416  44.7554466  10.5325556  10.4977408
  44.9390440  11.3727306   9.4300096  44.6723082  10.7027952   9.7376010
  51.1368991   9.9736637   8.5114779  51.6784537   9.4707018   8.9753400
  51.4515550   9.9201832   7.7004264  51.2633388   9.8916058   8.4598591
  55.0086099  14.1839285  25.6241691  55.8220964  13.9124433  25.7846824
  54.8481065  13.8846824  24.8201887  55.1056047  14.0994211  25.5287097
  49.3055441  15.3653989   5.7954807  49.3748261  14.5068527   5.9347808
  50.0843896  15.5825870   5.4673832  49.4308291  15.2706853   5.7671964
  52.2858261   4.8672942  18.5637080  52.5000230   4.2283856  18.0100434
  51.6692160   5.3118766  18.1344941  52.2263590   4.8383085  18.4187511
  53.6962929  17.7891690  10.0091300  53.3042720  17.4858405   9.2914167
  53.8516001  18.6260780   9.8196254  53.6616518  17.8675527   9.8747798
  41.1724108   7.7813704   9.9582183  41.5523073   8.1998249   9.2942450
  40.5979473   8.3627160  10.2651026  41.1435433   7.9291563   9.9058924
  54.4497349   6.4762007  19.5020387  53.6374030   6.1687897  19.5833559
  54.9087283   5.9961007  20.0663099  54.3977733   6.3598499  19.5974981
  53.8602603  14.3541679   9.9497331  53.5017258  14.5256322  10.7261363
  53.3741314  14.8154884   9.3925330  53.7361300  14.4480650   9.9822600
  51.5450856   7.8822078  24.2849089  52.0150487   8.5064195  24.6716963
  51.5912736   7.2139054  24.8442304  51.6218732   7.8756759  24.4249160
  55.0207343  15.2445575  20.8964532  55.6587063  14.7505770  20.5626988
  54.3781434  15.1722975  20.3116759  55.0201569  15.1604583  20.7606887
  56.7464343   7.0934721  15.4630448  56.3191951   7.0061069  14.7078547
  56.1090396   7.2012496  16.0485292  56.5893950   7.0967381  15.4375889
  55.0761599  15.9365383  17.5369889  55.8653977  15.5854448  17.6571970
  55.2505197  16.7501771  17.2746522  55.2181881  16.0051240  17.5157757
  44.8154910   9.3474109  14.5897678  43.9742916   9.2477983  14.7976571
  45.0244918  10.1169589  14.9411998  44.7219602   9.4466152  14.6724992
  42.2930477   6.9693646  12.4182428  41.8987174   7.0436658  11.6432538
  41.7370594   7.3551592  12.9690790  42.1533289   7.0375420  12.3850088
  48.6271575   7.2755508  13.8395275  48.3234712   6.7211496  14.4405683
  47.9250995   7.4547718  13.3523309  48.4787784   7.2200290  13.8564981
  46.6889926  14.4905229  18.5467373  46.5810281  14.5007291  19.4129431
  46.8985707  15.3160009  18.3572327  46.7040037  14.6146304  18.6471464
  44.7063718  11.7417871  16.0089310  44.1151651  12.3827369  15.9792325
  45.4684741  12.1655488  15.9820610  44.7311978  11.8993710  16.0004458
  45.1024340   2.9019869  16.6757328  45.5625822   2.9758798  17.4132452
  45.1480447   3.7001123  16.3257149  45.1774896   3.0314016  16.7330085
  46.7507690   3.5686564  21.2429355  46.3593255   2.9219911  21.6785133
  46.9193553   4.1597999  21.8623610  46.7178600   3.5600832  21.3992061
  60.8254139  11.5723641  17.0066589  60.8837263  12.0210290  17.7526565
  60.1920607  11.9822454  16.5696669  60.7405434  11.6997375  17.0519137
  54.4653234  17.1927183  13.4421335  54.2672923  17.6817997  12.7477546
  53.8440945  17.3968424  14.0205468  54.3440798  17.2943721  13.4244558
  48.5261212   8.9612080   7.7831579  49.2703257   9.3486356   8.0214529
  48.6721908   8.1169505   7.9472067  48.6571797   8.8942552   7.8425549
  51.5139088   4.5337553  13.6825498  51.0399042   4.0079315  14.1930809
  51.8857224   3.9867026  13.1140360  51.4988977   4.3753549  13.6740646
  41.8912118   6.5309060  19.0509044  42.7537731   6.4304769  18.9646374
  41.5603901   5.9503769  18.4894616  41.9697315   6.4300686  18.9554450
  57.7775819   9.5939929  15.0932279  57.5374042   8.7546344  15.0974705
  58.2567826   9.6740095  15.8173052  57.8128002   9.4821328  15.2007081
  59.7781006   6.3741386  13.0461538  59.5390776   6.3337220  12.2082323
  59.9414907   7.2212538  13.1727259  59.7671309   6.4933471  12.9415020
  56.3827036  10.7591335  18.9766583  57.1061235  10.3063861  18.7977603
  56.1176998  11.0396001  18.1938911  56.4508309  10.7342304  18.8345299
  45.2513904   5.3551509  15.7119462  44.6266974   5.3669901  15.1045415
  44.9159499   5.8311684  16.3610703  45.1099396   5.4270026  15.7176031
  41.9639580  13.4151969  17.1523227  41.4339504  12.7244408  17.2018201
  42.2364673  13.4062154  16.3235935  41.9264302  13.3119100  17.0370643
  52.9959670  13.9977671   5.8760909  53.7193869  14.4635784   5.7325483
  52.5560261  14.0651281   5.1258506  53.0375362  14.0761508   5.7445691
  52.1645825  10.8575213  17.1261598  51.5502818  10.3133264  17.4210234
  52.6813110  10.3439450  16.6467414  52.1501488  10.7011622  17.0985827
  51.4042122  11.9279483  14.8605897  50.9769731  11.3029202  14.4271332
  51.3967067  11.6454405  15.6864904  51.3401264  11.7932264  14.9185724
  44.5204650   6.9644656  17.9294331  44.6798136   6.2087980  18.3346053
  44.3397543   7.5135596  18.5835069  44.5170009   6.9338470  18.0857037
  49.7327832   2.8048238  15.0748431  49.7570319   2.2708350  14.3861211
  49.9839306   2.2965547  15.7374022  49.7737751   2.6509142  15.0713076
  37.2435422  10.0879733  14.5091575  37.1378871  10.0426577  13.6443659
  36.4935642  10.4333513  14.7905860  37.1171025  10.1320641  14.4228905
  46.0129154   1.5319056  14.4554175  46.0527526   2.0328263  15.1688883
  45.1878819   1.6229450  14.1860098  45.8968680   1.6200872  14.5204713
  48.1958767  11.0979796  22.5574470  47.3454398  11.2351510  22.6932115
  48.3586895  10.3643574  23.0022172  48.0942631  11.0093897  22.6430069
  47.4343518   8.0479566  16.7528074  46.6035447   8.2153384  16.5463322
  47.3795035   7.6715517  17.5376960  47.3032933   8.0169297  16.8376602
  45.2427301   1.5388459  22.3884485  45.8680004   0.9950592  22.6613917
  44.7877781   1.0583376  21.8192275  45.2675562   1.3877940  22.3446079
  58.8162350   9.7217746  17.4797133  59.4080190  10.3614997  17.5115331
  59.2521344   9.0240783  17.7689200  58.9680781   9.7136096  17.5277966
  50.6455740  14.1435118  18.1055027  50.1380831  14.6970965  18.5495657
  50.3482386  14.2043408  17.2873801  50.5260625  14.2341429  18.0503484
  53.2563520  18.0598376   6.0358970  52.5392830  17.8859238   5.5706208
  53.9070258  17.8250948   5.5034456  53.2465370  17.9994168   5.8888188
  55.8411491   6.9362964   9.7800275  55.1702681   7.4792667   9.6513341
  56.5351241   7.4057820   9.5381970  55.8440359   7.0861236   9.7255803
  49.8898225  19.0759676  15.0112034  49.6663879  18.3178506  15.3796060
  49.4008068  19.1057698  14.2892473  49.7841674  18.9681901  14.9588775
  44.7023304   6.0226368  10.7473495  43.9835293   6.4390500  11.0146359
  45.0735666   6.5880607  10.1965133  44.6515235   6.1675649  10.7056302
  54.0022884   6.6554217  16.6375491  53.9820812   6.4737512  17.4910270
  54.0502085   7.5266235  16.6135075  54.0057525   6.7570755  16.7598786
  51.9469214  13.2441409  22.5623967  51.9065069  12.5991086  21.9769123
  52.7592533  13.1878026  22.8749380  52.0612368  13.1400376  22.5220917
  48.5376682  19.2960135  12.4649118  48.1237080  18.6334265  12.0752960
  49.2224056  19.4437993  11.9444813  48.5775054  19.2200793  12.3305616
  51.9041976  18.4550220  13.2172735  51.5058259  18.5652490  12.4493555
  51.2893196  18.6632286  13.7999295  51.7540865  18.5023788  13.1904034
  53.3527695   5.0203872   9.5148625  53.1241388   5.0436574   8.6726983
  53.6125771   4.1961339   9.6343635  53.3573883   4.9019952   9.4073823
  47.6346923   6.8738345  19.1173725  47.1225826   6.2659528  19.4758757
  47.4626419   7.5894938  19.5847701  47.5336560   6.8901645  19.2389949
  42.4812638   5.3175921  21.7676087  42.3115228   5.9777295  21.2224294
  42.0378588   5.5282482  22.4888576  42.3911971   5.4461903  21.7937716
  46.4072457   3.5580418  10.8102821  46.8829823   3.9197498  10.1753002
  45.9061057   4.2136886  11.0902963  46.4037816   3.7074607  10.7579562
  51.5115993   4.7962590  21.5575981  52.0687423   4.5676399  20.9254446
  51.1877058   5.5568255  21.2811193  51.5462404   4.8746427  21.4232478
  39.3814702   8.2222786  17.0264577  38.8341422   7.5523432  17.1445445
  40.1707080   7.8552634  17.0908044  39.4166886   8.0687773  17.0533277
  49.2299111   7.8830243  22.5227988  49.9810438   8.1981920  22.8367542
  49.4221687   7.6809414  21.6961910  49.3690525   7.8997625  22.4471384
  38.1401672   7.4343594  14.1810600  37.9623433   6.9820203  14.9065515
  37.8520694   8.2369755  14.3649077  38.0714625   7.4866152  14.3154103
  53.8025253   8.6901311  13.4187990  54.2978918   7.9724306  13.3792010
  52.9925029   8.3872109  13.3042477  53.7569146   8.5398958  13.3961716
  49.2483864  12.5399125   5.5684995  48.4395187  12.2165798   5.5218304
  49.7558773  11.8332347   5.5013243  49.2033531  12.3880441   5.5515289
  39.8774142   9.9671318  11.2932359  39.0119661   9.9557008  11.1815130
  39.9772957   9.7801541  12.1403498  39.7648309   9.9377379  11.4021303
  55.8677072  11.4404999  16.1065119  56.2932143  10.9179421  15.5535544
  55.5033992  12.0385836  15.5853742  55.8763674  11.4515226  15.9474129
  45.5031151  19.7369216  14.8662464  45.8177710  20.5505605  14.8740246
  45.9124565  19.3519435  15.5344624  45.6099249  19.7997919  14.9666556
  52.4555671  15.1539263  12.4366276  52.9266849  15.8679526  12.6056262
  52.7915850  14.5538013  12.9726146  52.5750786  15.1710727  12.5398652
  54.5432656  16.7640576  24.6158348  54.6529621  15.9749137  24.9715096
  54.8723552  16.6746513  23.8132687  54.6085061  16.6346429  24.5500739
  53.0929617  14.9457197  19.1993969  52.5450563  14.3215081  18.9314034
  53.5542646  15.1351469  18.4838048  53.0796827  14.8816247  19.0544400
  42.8444172  13.6842325  14.5141073  43.4489029  13.6438159  13.8854894
  42.6371484  14.5313477  14.5445129  42.9033069  13.8030327  14.4257189
  52.6587944  15.9508270  15.7303310  53.4786318  15.8071236  15.9919605
  52.3782021  16.5754469  16.2719748  52.7384687  16.0218622  15.8491250
  38.0795454  12.6676942  14.3839996  37.9819732  11.8573214  14.6930053
  38.8624324  12.6468736  13.9986264  38.1811590  12.5444032  14.3726859
  62.3301279  22.6948773  13.4499117  61.4739174  22.8557271  13.5008234
  62.3768933  21.8240837  13.4704178  62.2100390  22.5899574  13.4605183
  56.7142419  32.2311490   9.2136349  55.9625318  31.8527029   8.9852394
  57.1628430  32.2629924   8.4655159  56.6692085  32.1797098   9.0693851
  65.6394995  28.9635298  23.0559573  66.3461763  28.4687329  23.1846508
  65.8282931  29.4044380  22.3262231  65.7722901  28.9553649  22.9668619
  62.1667379  32.6536860   4.6421896  61.8318747  33.3313782   4.2066118
  62.6794249  32.2642171   4.0538767  62.1932960  32.6961438   4.4908687
  61.7071670  34.6051129  10.5833007  62.0911049  35.1738027  10.0437782
  61.6430811  33.8800639  10.1038823  61.7545097  34.5826592  10.4326870
  65.1753100  24.7540817  16.0930769  65.7209060  25.4325903  16.1524738
  65.1169976  24.6128277  15.2332350  65.2469014  24.8332818  15.9742829
  58.2927175  32.2429883  11.4799121  58.3937538  31.4330237  11.7896249
  57.6968920  32.1486829  10.8498800  58.2199713  32.1094911  11.4325359
  66.9518169  26.1825424   6.9664496  66.8357695  26.9333110   7.3956634
  67.7474055  25.9249377   7.2160583  67.0522758  26.2560271   7.0668588
  58.1327914  37.1607472  12.8813977  58.7765370  37.6020636  13.2710135
  58.4584170  36.3560898  12.7944236  58.2759743  37.1072667  12.9259454
  51.4892219  28.2650169  11.1051455  51.2542404  27.4317822  10.9983723
  51.6277860  28.5454835  10.2912656  51.4747882  28.1833673  10.9693810
  53.7882307  20.4335900  14.0035762  53.1687338  19.8428547  13.8345777
  53.6866170  21.0247335  13.3700086  53.6819982  20.4339982  13.8840752
  58.8348494  30.1719447   8.2533839  59.1564335  30.7124654   7.6495147
  59.4820591  29.6016218   8.3856129  58.9774549  30.1678622   8.1840874
  60.8850202  22.1735442   8.3368226  61.5830367  22.3523569   8.8289689
  61.2002535  21.6505781   7.7138615  61.0345539  22.1229214   8.3170236
  53.5151440  23.9788181  16.2479331  53.3910136  24.5650627  16.8829150
  54.1669724  23.4848377  16.5491606  53.5925089  23.9926986  16.3865261
  61.0738138  28.5605887   8.3248017  61.5131773  27.9522987   8.7702790
  60.9242800  28.1813260   7.5533482  61.1159603  28.4144358   8.2767184
  58.5409781  27.1549898  15.5266842  59.1858783  26.6622342  15.2077791
  58.7811558  27.2974685  16.3532921  58.6720366  27.1027341  15.6016376
  61.0795872  30.0004804  15.1773735  61.3619115  29.2056210  14.9560491
  61.8082032  30.4785392  15.1978796  61.2285436  29.9539401  15.1476750
  59.0577066  17.5427838  12.4189500  58.7280396  17.9938982  11.7493199
  58.3822068  17.4644002  12.9662507  58.9087502  17.5978973  12.4012723
  64.6747474  26.9133068   5.2778786  64.5898769  27.7694035   5.4228355
  65.1631857  26.6377392   5.9460945  64.7336371  26.9990389   5.3980868
  65.6065907  23.5317862   6.7776521  65.0777379  23.7477496   7.4373828
  66.1290927  24.2254001   6.6977491  65.6054360  23.6660999   6.8632121
  71.0613960  29.1064166  12.1509566  70.2311663  29.3174810  12.3142982
  71.0123213  28.2801221  11.8751849  70.9320696  29.0153773  12.1346931
  57.4965515  27.4281079   5.5783989  56.9122730  27.9331110   5.9849853
  57.0935610  27.2023466   4.8380581  57.3504819  27.4689327   5.5289015
  53.0509544  33.1435840  12.3807661  52.5677122  33.8686330  12.3567244
  53.8632862  33.4411970  12.4917819  53.1000292  33.2938194  12.3934940
  59.1223698  31.9368021  14.9857475  58.6050639  31.5775436  14.3818783
  59.8198089  31.4130195  14.9963541  59.1489279  31.8065709  14.8987734
  62.7787290  32.3862835  20.9473648  62.8670636  32.1988975  21.7951859
  63.2077002  31.7400264  20.5478495  62.8549392  32.2625842  21.0145400
  60.3457750  31.6693995  19.9291311  59.7828584  31.2566605  20.4530972
  61.1078773  31.5946900  20.3484454  60.3752198  31.5971395  20.0684311
  57.2633020  15.6040127   7.9012448  58.0178988  15.9718444   7.6629498
  57.0860554  15.9779681   8.6691627  57.3487498  15.7138315   7.9797336
  55.9053741  33.6592016  12.5327941  56.6074320  33.1444005  12.5900697
  55.8251224  33.9866167  13.3374816  55.9977502  33.6306242  12.6600733
  70.5567919  21.7534567  15.9459987  69.7196340  21.8236754  16.1807582
  70.5256150  21.7559062  15.0734289  70.4286201  21.7644794  15.8519535
  56.9532648  23.8967603  21.6608356  57.1253151  23.7873497  22.5093637
  57.4902005  24.5422008  21.4239548  57.0577652  23.9759604  21.7513452
  55.6190085  18.0110446   4.5990561  55.4365658  18.2282326   3.7731554
  56.4815698  18.1249458   4.6549175  55.7194674  18.0600344   4.4845048
  55.2304516  29.8498368  12.0413549  56.0693416  30.0821301  12.0887310
  55.2616286  28.9802679  11.9720584  55.3586234  29.7555314  12.0378193
  55.8557219  30.2699243  16.3426854  56.3955444  30.1270374  17.0130227
  55.1727166  30.6695994  16.7110880  55.8349373  30.3078914  16.4961276
  65.2798104  25.9490244  11.5371879  66.0355619  26.3821758  11.5760787
  65.3860429  25.2995013  12.1106515  65.4068275  25.9167728  11.6269904
  68.3178275  29.7763521  12.2874282  67.8813507  29.7800263  13.0433253
  67.9841191  30.4569020  11.8553859  68.2040895  29.8775977  12.3355114
  62.8907349  31.8171854  23.6117432  63.6747766  31.9302702  23.9773174
  62.6903944  30.9912991  23.8076118  62.9773375  31.7118573  23.6951818
  51.2594365  26.4899534  16.4961276  50.9932780  25.6738651  16.6552266
  51.2732929  26.5352689  15.6256791  51.2219087  26.3756439  16.3914758
  68.2375758  16.8177349  14.5303710  68.8801667  16.8875453  15.1165625
  68.4898779  16.1506572  14.0283251  68.3697891  16.7303697  14.5430989
  55.1652112  21.2884618   3.1113034  54.4510289  21.0022798   3.5235466
  55.6496080  21.6281244   3.7519421  55.1311475  21.2966268   3.2668669
  56.0092971  20.0277912  19.1428283  55.3164768  19.5574892  19.3889015
  56.6253298  19.8016217  19.7169991  55.9977501  19.9245044  19.2637436
  63.0477742  33.7281956  17.2583888  62.2492988  33.4881456  17.5157756
  63.4963754  33.7796349  18.0050935  62.9952354  33.7004347  17.4068812
  71.4522622  26.4944441  11.1793919  72.1139056  25.9335109  11.0789827
  70.8114034  25.9996472  11.5046610  71.4551489  26.3380850  11.2126259
  62.3399429  29.7914572   3.4874842  62.7550578  29.4599596   2.7959338
  61.5091359  29.5583474   3.3594979  62.2787438  29.7085828   3.3665689
  51.6687778  27.2758313  13.7773020  51.4863351  27.2505199  12.9245312
  52.4037447  27.7457251  13.8161929  51.7501842  27.3419675  13.6570939
  67.7387452  27.5109823  10.9205908  67.9743042  27.6555022  10.0932758
  67.8877016  28.2752231  11.3137421  67.7953256  27.6448878  10.8569511
  54.7333530  23.9943316  20.2855129  55.4573502  23.9796347  20.7720023
  54.8349666  24.7038671  19.7877097  54.8551739  24.0968019  20.2833915
  69.5677909  26.3511489   8.7575511  69.8986126  26.8839129   8.1515606
  70.1410997  26.4050377   9.4137462  69.7011588  26.4381058   8.7653293
  62.1078479  27.4742401  25.1504076  61.3151460  27.7885913  25.3356695
  62.2227406  27.6893869  24.3124860  62.0073890  27.5526237  25.0542410
  64.7809798  24.1976392   9.4399092  64.8756653  24.9365686   9.8938717
  64.1568642  23.7693867   9.8733656  64.7018828  24.2437712   9.5707239
  63.0362272  27.3762604  20.0889372  63.6101134  26.7389849  20.2437936
  62.9577076  27.3766687  19.2199030  63.1095507  27.2827716  19.9835783
  51.6358689  24.1551814  13.9272087  52.2132191  24.0188265  14.5664332
  50.9372750  23.6987598  14.1817671  51.6179710  24.0674080  14.0594376
  58.3925991  25.8085870  12.1410570  58.1345235  24.9757604  12.1141869
  58.4474474  26.0343483  11.3003070  58.3625769  25.7183641  12.0130707
  63.4727041  17.9114320  12.2414662  62.7683368  17.4223506  12.3998582
  63.5212015  17.9236795  11.3703107  63.3757092  17.8403968  12.1354002
  57.3660703  23.3623632  12.6275465  56.7910294  23.5215800  13.2639426
  56.9896379  22.7259041  12.1643915  57.2263515  23.2921445  12.6530023
  61.0333992  21.8346981  17.4867843  60.6448424  21.4101199  16.8320034
  60.3688690  22.0829131  17.9944870  60.8780919  21.8085702  17.4655711
  47.1117522  23.0063707  10.6419905  47.1977774  22.6295575  11.4233435
  47.7393319  22.6324152  10.1639863  47.2174073  22.8949189  10.6865383
  64.8560353  15.5321610  14.9991827  65.2370865  14.8499781  15.3859701
  64.0523637  15.2431212  14.8167492  64.7936815  15.3888659  15.0295883
  62.1372930  26.0645586   5.6844650  62.9513569  26.3560479   5.5727421
  62.0732071  25.4105448   5.1102943  62.2475669  26.0110781   5.5833487
  68.3582420  28.7471582  20.0974226  68.1221057  27.9159647  19.9786286
  69.0025649  28.6957189  20.6829070  68.4177091  28.6169270  20.1660119
  58.0080838  29.5367103  10.8116962  58.6454785  29.2978851  11.3568755
  58.4335910  29.7404262  10.0770123  58.1657004  29.5318114  10.7834119
  52.6993480  31.7755440  14.6951266  52.7397626  32.0470291  13.8671045
  53.2588005  32.2997348  15.1109054  52.7876826  31.8931195  14.6343154
  58.6483653  24.7569393   5.1491851  59.0328806  24.5377100   5.9008397
  58.3995273  25.5832339   5.2792928  58.6685726  24.8467539   5.2792928
  58.8152193  18.0375808  24.8654436  58.5005635  18.8075371  24.6023998
  58.4942126  17.4746064  24.2806663  58.7211113  18.0686077  24.7395786
  69.3818841  28.5316031  16.1602520  69.0764658  29.2644088  16.5215836
  68.6625056  28.1253960  15.8795306  69.2306183  28.5797764  16.1715657
  60.3902310  30.0139526  12.4910748  60.4641318  29.8514698  13.3452598
  61.2071816  30.2029716  12.2471230  60.5218669  30.0176268  12.5808774
  75.0820633  25.1709032  15.4870864  75.0145133  25.1904991  14.6173451
  75.0676295  26.0139359  15.7126535  75.0699389  25.2982766  15.3923341
  54.1508067  30.3597389   9.5205192  53.3246184  30.6059126   9.3939471
  54.2120058  30.2809470  10.3867250  54.0382234  30.3842338   9.6294136
  56.3684090  16.4266330  10.4800632  55.5006516  16.4988929  10.5458241
  56.6559295  17.2288409  10.6688607  56.2823839  16.5560477  10.5175399
  65.4916979  16.5744189  18.8111954  66.2370571  16.3854000  18.3975379
  65.0754284  17.1002427  18.2525810  65.5401953  16.6246335  18.6676527
  58.9306896  32.9774269   7.2224222  59.2205194  32.5863250   6.4983448
  59.6610377  33.1590974   7.6629497  59.0813780  32.9468083   7.1807029
  72.8679250  23.9453418  13.7617459  73.4187172  23.3121487  14.0014551
  72.8523365  24.4768811  14.4532963  72.9464446  23.9302366  13.8996317
  59.5201641  27.7792015  18.3077352  59.0213335  28.4907783  18.3862241
  60.3301865  28.0992682  18.2695515  59.5657748  27.9318864  18.3133921
  56.8712811  34.9541651  10.2884371  56.6513107  34.6639006  11.0811038
  56.6507333  34.2956607   9.7602284  56.8060405  34.8141360  10.3273280
  55.7829759  27.0414968  12.5540073  55.4943007  26.4152439  13.0885800
  56.6513107  26.9835255  12.6204754  55.8690010  26.9402512  12.6431028
  66.5707656  22.1849751  12.8722055  66.2272422  21.4640087  13.2229305
  66.6700699  21.9763603  12.0300413  66.5349699  22.0473955  12.7993735
  59.0380767  36.3271041   9.0715064  59.6904825  35.7947484   9.3006090
  58.3406376  35.9739694   9.4582938  59.0311485  36.1960564   9.1627232
  55.9862032  28.6810219   8.4782438  56.7408000  29.0623258   8.6917901
  55.3932645  29.1321363   8.9329135  56.0098745  28.8039046   8.5765317
  67.0320685  28.6475455   8.4146043  67.5978718  29.3068665   8.3304586
  66.3848589  28.9925154   8.8862445  67.0199442  28.7957397   8.4718800
  58.4468699  20.6373059  23.6039651  57.6368475  20.9430839  23.4929493
  58.9243386  21.3578642  23.7192235  58.3972178  20.7887661  23.6046722
  57.3060258  29.8518780  13.8522554  56.7841012  29.9919072  14.5374418
  57.6934279  29.0929445  14.0424671  57.2863959  29.7604304  13.9823630
  54.2951443  19.9024589   7.9217508  54.0076238  19.5325860   7.1849456
  54.9821911  20.3719444   7.6601213  54.3540340  19.9171558   7.7732584
  63.5027263  31.5914240   7.8383122  63.2613939  30.8582100   7.4310187
  63.6828596  32.1401097   7.1849456  63.4934887  31.5636631   7.6813345
  58.7326584  26.8822799   9.2504045  58.5369367  27.4897534   8.6564348
  58.9560930  26.1890743   8.7695719  58.7361225  26.8700325   9.0920125
  57.1305114  23.7677537   9.3684913  57.8527766  23.9318695   8.9088719
  56.6513107  24.4887202   9.2624253  57.1668845  23.8975767   9.2850527
  65.0898622  20.1041336  14.7481598  64.2509722  20.1302615  14.5119861
  65.1602989  20.7512072  15.3286945  64.9767015  20.2037462  14.7990715
  54.7812731  26.1735610  18.4739053  55.2933828  26.4519863  17.8247813
  54.4949073  26.9124904  18.8401866  54.8147594  26.3237963  18.4328931
  68.9656146  25.3109323  12.0342840  68.8790120  25.4664749  12.8877618
  68.5106625  25.9547398  11.6602245  68.8859402  25.4285078  12.1049946
  51.8679637  20.6805802   8.7702789  51.9695774  21.4831963   9.0983765
  52.6635524  20.4793138   8.4725870  52.0007543  20.7691700   8.7738145
  58.2996456  18.2661998  18.5340094  58.1079653  18.2817133  19.3839518
  59.1495052  18.4625673  18.5106749  58.3972178  18.2976350  18.6563389
  52.6843369  20.7952980  16.5123911  52.5428861  19.9436920  16.6368419
  52.9683933  20.8381640  15.6886117  52.7051215  20.6752730  16.4091535
  62.8381962  22.6320070  10.6568399  62.5916676  22.5515821  11.4905188
  63.1667085  21.8473538  10.4630927  62.8503205  22.5046335  10.7515922
  66.7330010  29.3403429  14.4455180  66.5944370  30.0384475  14.9503923
  65.9530008  29.1852086  14.0891362  66.5973237  29.4203596  14.4681455
  65.0708096  25.6399805  20.6977562  65.0656134  24.7679621  20.7019989
  65.7769089  25.8387974  20.2247018  65.1753100  25.5403679  20.6284597
  58.7978989  25.3676789  20.0691382  58.9422365  25.9477997  19.4334492
  59.1454637  25.7453085  20.7741237  58.8706450  25.5097493  20.0790377
  60.9698906  24.5666957  17.8516514  60.2222220  24.7597971  17.4464792
  61.1240431  23.7412177  17.6140635  60.8821334  24.4732068  17.7561920
  57.8706744  33.5579560  16.9352409  58.0196308  32.9982476  16.2825814
  58.6506746  33.6371562  17.3184928  58.0080837  33.4865126  16.8949358
  60.3960044  33.7294203  18.2136900  60.3203716  33.0603014  18.7687688
  60.3249904  34.4311991  18.7277566  60.3740651  33.7339111  18.3713748
  61.2100683  18.4617508  18.7411918  61.6673297  19.1941482  18.8684710
  61.2857012  18.0383973  19.4999173  61.2891653  18.5074746  18.8712994
  53.4533674  18.7083327  19.8301361  52.9175864  18.0963686  20.1462129
  53.5151439  19.2831463  20.4835028  53.3829307  18.7030255  19.9736788
  61.0530291  32.2495202   9.0460506  61.8180183  31.9804846   8.7243170
  60.9508381  31.7645213   9.7630569  61.1511787  32.1384767   9.1040333
  59.0883061  20.4519612  15.5853742  58.2979136  20.2711072  15.9071077
  59.4843684  19.6746564  15.5684036  59.0299937  20.3107073  15.6306290
  64.4726747  28.0862042  13.3113188  63.7971749  27.8547274  13.8126575
  64.4819124  27.4783225  12.6855293  64.3745252  27.9620967  13.2929340
  61.6020891  22.9279871  20.0677241  61.5380033  23.7889827  19.9397377
  61.7418079  22.6111864  19.2672792  61.6136361  23.0080037  19.9305453
  66.4743482  30.9427174   5.5423365  66.5563319  31.7494160   5.2184816
  66.9593224  30.9623133   6.2664139  66.5580640  31.0647837   5.6010264
  60.2839985  25.6212010  14.2093443  59.8602234  25.8216509  13.4732462
  60.1084841  24.7740858  14.3217743  60.1950866  25.5260792  14.1167134
  59.7851679  37.1362523  16.6714901  60.2747609  36.4373312  16.4890565
  59.2135911  36.8386393  17.2590958  59.7736209  36.9888747  16.7315941
  55.5722430  26.1164062   9.6421416  55.7287049  26.0510864  10.4977408
  55.9123023  26.8912614   9.4300096  55.6455665  26.2213260   9.7376010
  62.1101575  25.4921945   8.5114779  62.6517120  24.9892326   8.9753400
  62.4248134  25.4387140   7.7004264  62.2365972  25.4101366   8.4598591
  65.9818682  29.7024592  25.6241691  66.7953548  29.4309741  25.7846824
  65.8213649  29.4032132  24.8201887  66.0788631  29.6179518  25.5287097
  60.2788025  30.8839297   5.7954807  60.3480845  30.0253835   5.9347808
  61.0576480  31.1011178   5.4673832  60.4040875  30.7892161   5.7671964
  63.2590844  20.3858250  18.5637080  63.4732814  19.7469164  18.0100434
  62.6424743  20.8304073  18.1344941  63.1996174  20.3568393  18.4187511
  64.6695512  33.3076998  10.0091300  64.2775304  33.0043713   9.2914167
  64.8248584  34.1446088   9.8196254  64.6349102  33.3860835   9.8747798
  52.1456692  23.2999012   9.9582183  52.5255657  23.7183557   9.2942450
  51.5712057  23.8812468  10.2651026  52.1168017  23.4476871   9.9058924
  65.4229932  21.9947315  19.5020387  64.6106614  21.6873205  19.5833559
  65.8819867  21.5146315  20.0663099  65.3710317  21.8783807  19.5974981
  64.8335187  29.8726987   9.9497331  64.4749842  30.0441630  10.7261363
  64.3473898  30.3340192   9.3925330  64.7093884  29.9665958   9.9822600
  62.6505573  13.4958185  13.5524422  61.7799131  13.4696906  13.5057732
  62.9045914  13.3235377  12.7350268  62.5599133  13.4668329  13.4244559
  59.6223552  25.5526152   2.4897565  59.9116077  26.3291035   2.7641140
  59.7095351  25.0414884   3.1912065  59.6777809  25.5918071   2.6340063
  62.5183440  23.4007386  24.2849089  62.9883071  24.0249503  24.6716963
  62.5645320  22.7324362  24.8442304  62.5951316  23.3942067  24.4249160
  59.6754713  15.5064414  15.0097893  59.1593202  14.8144605  15.1349472
  59.1148642  16.1735191  14.9560492  59.5161227  15.5027671  15.0203959
  61.7446947  16.0457374  16.8390745  61.3578700  16.0706405  17.6204275
  61.2579884  15.4799052  16.3865262  61.6159456  15.9653125  16.8878649
  65.9939926  30.7630883  20.8964532  66.6319647  30.2691078  20.5626988
  65.3514018  30.6908283  20.3116759  65.9934153  30.6789891  20.7606887
  67.7196926  22.6120029  15.4630448  67.2924534  22.5246377  14.7078547
  67.0822979  22.7197804  16.0485292  67.5626534  22.6152689  15.4375889
  61.4104089  12.9324359  19.1301005  62.0397207  13.4684659  18.8522076
  61.5789951  12.8401718  19.9814571  61.5281883  12.9985721  19.2149533
  61.2118003  17.7195554  21.4027417  62.0391433  17.4480703  21.4586031
  61.2325850  18.5156396  21.7591235  61.3370854  17.7975308  21.4642600
  66.0494183  31.4550691  17.5369889  66.8386561  31.1039756  17.6571970
  66.2237781  32.2687079  17.2746522  66.1914465  31.5236548  17.5157757
  55.7887493  24.8659417  14.5897678  54.9475500  24.7663291  14.7976571
  55.9977501  25.6354897  14.9411998  55.6952186  24.9651460  14.6724992
  53.2663060  22.4878954  12.4182428  52.8719758  22.5621965  11.6432538
  52.7103177  22.8736900  12.9690790  53.1265873  22.5560728  12.3850088
  64.9028007  15.4660248  12.0986307  65.1077600  15.3982556  12.9443304
  64.5754431  16.2719069  12.0307485  64.8843255  15.5746188  12.2145962
  59.6004158  22.7940816  13.8395275  59.2967296  22.2396804  14.4405683
  58.8983579  22.9733026  13.3523309  59.4520368  22.7385598  13.8564981
  58.6570255  20.1041336   8.4039977  58.9329990  19.3860248   7.9917544
  59.2568925  20.7026256   8.1961083  58.7863520  20.0861706   8.3120738
  55.6796301  27.2603179  16.0089310  55.0884234  27.9012677  15.9792325
  56.4417325  27.6840796  15.9820610  55.7044562  27.4179017  16.0004458
  56.0756924  18.4205177  16.6757328  56.5358406  18.4944106  17.4132452
  56.1213031  19.2186431  16.3257149  56.1507479  18.5499324  16.7330085
  57.7240274  19.0871872  21.2429355  57.3325839  18.4405219  21.6785133
  57.8926136  19.6783307  21.8623610  57.6911184  19.0786140  21.3992061
  71.7986723  27.0908949  17.0066589  71.8569846  27.5395597  17.7526565
  71.1653190  27.5007762  16.5696669  71.7138018  27.2182683  17.0519137
  65.4385817  32.7112491  13.4421335  65.2405506  33.2003305  12.7477546
  64.8173528  32.9153732  14.0205468  65.3173382  32.8129029  13.4244558
  59.4993796  24.4797387   7.7831579  60.2435841  24.8671664   8.0214529
  59.6454492  23.6354813   7.9472067  59.6304381  24.4127860   7.8425549
  61.4173371  16.2747646  12.8163441  60.5709416  16.4470454  12.6904790
  61.4144504  15.4696990  13.1529269  61.2920521  16.1808675  12.8474568
  62.4871672  20.0522861  13.6825498  62.0131626  19.5264623  14.1930809
  62.8589807  19.5052334  13.1140360  62.4721561  19.8938857  13.6740646
  52.8644702  22.0494367  19.0509044  53.7270315  21.9490077  18.9646374
  52.5336485  21.4689077  18.4894616  52.9429898  21.9485994  18.9554450
  68.7508402  25.1125236  15.0932279  68.5106625  24.2731652  15.0974705
  69.2300409  25.1925403  15.8173052  68.7860586  25.0006636  15.2007081
  70.7513589  21.8926694  13.0461538  70.5123359  21.8522528  12.2082323
  70.9147491  22.7397846  13.1727259  70.7403893  22.0118779  12.9415020
  67.3559619  26.2776643  18.9766583  68.0793818  25.8249169  18.7977603
  67.0909582  26.5581309  18.1938911  67.4240893  26.2527611  18.8345299
  56.2246488  20.8736816  15.7119462  55.5999558  20.8855208  15.1045415
  55.8892083  21.3496992  16.3610703  56.0831980  20.9455333  15.7176031
  56.4088236  19.2161935   1.7692147  56.0601041  19.8681660   2.2323697
  55.9284682  19.2019048   1.0416019  56.2858480  19.3104988   1.7303239
  52.9372163  28.9337277  17.1523227  52.4072088  28.2429715  17.2018201
  53.2097257  28.9247462  16.3235935  52.8996886  28.8304408  17.0370643
  63.9692254  29.5162979   5.8760909  64.6926453  29.9821092   5.7325483
  63.5292845  29.5836589   5.1258506  64.0107946  29.5946816   5.7445691
  63.1378409  26.3760521  17.1261598  62.5235402  25.8318571  17.4210234
  63.6545694  25.8624758  16.6467414  63.1234071  26.2196930  17.0985827
  62.3774706  27.4464791  14.8605897  61.9502314  26.8214510  14.4271332
  62.3699650  27.1639713  15.6864904  62.3133847  27.3117572  14.9185724
  55.4937233  22.4829964  17.9294331  55.6530720  21.7273288  18.3346053
  55.3130127  23.0320904  18.5835069  55.4902592  22.4523778  18.0857037
  63.4357536  14.6491200  18.4845120  62.9398097  14.8454874  17.7936687
  64.1926598  15.0483868  18.3133922  63.4744361  14.7368934  18.3565257
  60.7060416  18.3233546  15.0748431  60.7302903  17.7893658  14.3861211
  60.9571889  17.8150855  15.7374022  60.7470334  18.1694450  15.0713076
  48.2168006  25.6065041  14.5091575  48.1111455  25.5611885  13.6443659
  47.4668226  25.9518821  14.7905860  48.0903608  25.6505949  14.4228905
  56.9861738  17.0504364  14.4554175  57.0260110  17.5513571  15.1688883
  56.1611403  17.1414758  14.1860098  56.8701264  17.1386180  14.5204713
  59.1691351  26.6165104  22.5574470  58.3186981  26.7536818  22.6932115
  59.3319479  25.8828882  23.0022172  59.0675214  26.5279205  22.6430069
  58.4076101  23.5664874  16.7528074  57.5768031  23.7338692  16.5463322
  58.3527619  23.1900825  17.5376960  58.2765516  23.5354605  16.8376602
  56.2159885  17.0573767  22.3884485  56.8412588  16.5135900  22.6613917
  55.7610365  16.5768684  21.8192275  56.2408145  16.9063248  22.3446079
  56.7812145  21.8420465   7.2818192  56.9215106  22.3392930   7.9846833
  57.2794678  21.1406760   7.4232406  56.8753226  21.8122444   7.4069771
  56.8112368  22.7087576   4.6110769  57.4457447  23.3048001   4.5460231
  56.8937978  22.4091034   5.4256639  56.9168919  22.7528485   4.7213855
  69.7894933  25.2403054  17.4797133  70.3812774  25.8800304  17.5115331
  70.2253928  24.5426090  17.7689200  69.9413365  25.2321404  17.5277966
  58.3891350  18.6401552   4.5856211  58.7107191  18.1604634   3.9315473
  58.6518294  19.4501198   4.3947022  58.4757376  18.6891450   4.4611703
  61.6188323  29.6620426  18.1055027  61.1113414  30.2156273  18.5495657
  61.3214969  29.7228716  17.2873801  61.4993208  29.7526737  18.0503484
  63.7850505  18.0273746  16.9479690  64.2105577  17.5746272  16.3363216
  63.1707499  17.4733816  17.2244477  63.7579151  17.8787722  16.8984715
  53.3165355  24.9055417   7.8800315  53.8257585  25.5019925   8.2611620
  53.7899628  24.6381391   7.1976734  53.4608731  24.9541233   7.8354838
  64.2296104  33.5783684   6.0358970  63.5125413  33.4044546   5.5706208
  64.8802841  33.3436256   5.5034456  64.2197954  33.5179476   5.8888188
  62.2244728  14.4988846  10.3570267  61.5813046  14.3486492  10.9255405
  61.8844135  14.2531191   9.5919371  62.0789806  14.4400968  10.3273282
  66.8144075  22.4548272   9.7800275  66.1435265  22.9977975   9.6513341
  67.5083825  22.9243128   9.5381970  66.8172942  22.6046544   9.7255803
  60.8630808  34.5944984  15.0112034  60.6396463  33.8363814  15.3796060
  60.3740652  34.6243006  14.2892473  60.7574257  34.4867209  14.9588775
  66.9772202  18.9104156  12.6890649  67.3299812  18.4833879  13.3636447
  66.1187004  18.8255000  12.8191725  66.9021647  18.8348897  12.8085659
  55.6755887  21.5411676  10.7473495  54.9567876  21.9575808  11.0146359
  56.0468249  22.1065914  10.1965133  55.6247819  21.6860957  10.7056302
  64.9755468  22.1739525  16.6375491  64.9553395  21.9922820  17.4910270
  65.0234669  23.0451543  16.6135075  64.9790109  22.2756063  16.7598786
  62.9201798  28.7626717  22.5623967  62.8797653  28.1176394  21.9769123
  63.7325116  28.7063334  22.8749380  63.0344951  28.6585683  22.5220917
  59.5109265  34.8145442  12.4649118  59.0969664  34.1519573  12.0752960
  60.1956640  34.9623301  11.9444813  59.5507637  34.7386101  12.3305616
  62.8774560  33.9735528  13.2172735  62.4790843  34.0837798  12.4493555
  62.2625779  34.1817594  13.7999295  62.7273449  34.0209096  13.1904034
  61.4502462  20.5809676   6.0846875  60.8567301  20.9026672   5.5331442
  61.4877739  19.7350771   5.8767981  61.3676851  20.5034004   5.9729646
  64.3260278  20.5389180   9.5148625  64.0973971  20.5621882   8.6726983
  64.5858354  19.7146647   9.6343635  64.3306466  20.4205260   9.4073823
  58.6079507  22.3923653  19.1173725  58.0958410  21.7844836  19.4758757
  58.4359003  23.1080246  19.5847701  58.5069144  22.4086952  19.2389949
  53.4545221  20.8361228  21.7676087  53.2847812  21.4962603  21.2224294
  53.0111171  21.0467790  22.4888576  53.3644555  20.9647211  21.7937716
  57.3805041  19.0765726  10.8102821  57.8562407  19.4382806  10.1753002
  56.8793640  19.7322194  11.0902963  57.3770400  19.2259915  10.7579562
  62.4848577  20.3147898  21.5575981  63.0420007  20.0861707  20.9254446
  62.1609642  21.0753563  21.2811193  62.5194987  20.3931734  21.4232478
  50.3547286  23.7408094  17.0264577  49.8074005  23.0708740  17.1445445
  51.1439664  23.3737942  17.0908044  50.3899469  23.5873080  17.0533277
  60.2031694  23.4015551  22.5227988  60.9543021  23.7167228  22.8367542
  60.3954271  23.1994722  21.6961910  60.3423108  23.4182933  22.4471384
  59.4231694  21.2206926   4.1776205  59.8030659  21.2386555   3.3927319
  58.6824290  21.6660915   4.0567052  59.3700532  21.2888701   4.0439773
  67.0516984  19.5289117   9.7651783  67.0511211  19.3737774  10.6236060
  66.8473164  20.3752104   9.7093169  67.0216762  19.6309738   9.8839723
  49.1134255  22.9528902  14.1810600  48.9356016  22.5005511  14.9065515
  48.8253277  23.7555063  14.3649077  49.0447208  23.0051460  14.3154103
  64.7757836  24.2086619  13.4187990  65.2711502  23.4909614  13.3792010
  63.9657612  23.9057417  13.3042477  64.7301730  24.0584265  13.3961716
  50.8506725  25.4856626  11.2932359  49.9852245  25.4742316  11.1815130
  50.9505541  25.2986848  12.1403498  50.7380892  25.4562687  11.4021303
  66.8409655  26.9590307  16.1065119  67.2664727  26.4364729  15.5535544
  66.4766575  27.5571144  15.5853742  66.8496258  26.9700534  15.9474129
  56.4763735  35.2554524  14.8662464  56.7910294  36.0690913  14.8740246
  56.8857148  34.8704743  15.5344624  56.5831833  35.3183227  14.9666556
  63.4288255  30.6724571  12.4366276  63.8999433  31.3864834  12.6056262
  63.7648433  30.0723321  12.9726146  63.5483370  30.6896035  12.5398652
  65.5165239  32.2825884  24.6158348  65.6262205  31.4934445  24.9715096
  65.8456136  32.1931821  23.8132687  65.5817645  32.1531737  24.5500739
  60.3457750  15.4452042  19.3924371  60.4785655  14.6483035  19.7205347
  60.7302902  15.9718445  19.9722647  60.4214078  15.4051958  19.5267874
  64.0662201  30.4642505  19.1993969  63.5183147  29.8400389  18.9314034
  64.5275230  30.6536777  18.4838048  64.0529410  30.4001555  19.0544400
  63.4190105  12.3682368  15.9905464  62.6136069  12.2580097  16.3073303
  63.2896840  12.4694823  15.1335330  63.2810238  12.3666038  15.9113505
  66.8756065  18.5327860  16.5845161  66.2919054  19.0337066  16.1722729
  67.1960359  18.0257416  15.9509485  66.8369241  18.5319695  16.4303668
  59.4150864  17.4468454   6.8603836  60.2366559  17.6166767   6.6185531
  58.9520515  17.6015715   6.1370134  59.4682027  17.4950187   6.7175480
  58.0046196  15.4411217  17.6402265  58.5490609  15.1002343  18.2306607
  58.0583132  16.2996678  17.7823549  58.0935316  15.5166476  17.7484138
  53.8176755  29.2027633  14.5141073  54.4221613  29.1623467  13.8854894
  53.6104068  30.0498785  14.5445129  53.8765652  29.3215635  14.4257189
  63.6320527  31.4693578  15.7303310  64.4518901  31.3256544  15.9919605
  63.3514605  32.0939777  16.2719748  63.7117271  31.5403930  15.8491250
  49.0528037  28.1862250  14.3839996  48.9552315  27.3758522  14.6930053
  49.8356907  28.1654044  13.9986264  49.1544174  28.0629340  14.3726859
  73.3033863  38.2134080  13.4499117  72.4471758  38.3742579  13.5008234
  73.3501516  37.3426144  13.4704178  73.1832974  38.1084882  13.4605183
  67.6875002  47.7496798   9.2136349  66.9357902  47.3712337   8.9852394
  68.1361014  47.7815232   8.4655159  67.6424669  47.6982406   9.0693851
  76.6127579  44.4820606  23.0559573  77.3194346  43.9872637  23.1846508
  76.8015514  44.9229688  22.3262231  76.7455485  44.4738956  22.9668619
  76.1485684  40.2726124  16.0930769  76.6941644  40.9511211  16.1524738
  76.0902560  40.1313585  15.2332350  76.2201598  40.3518126  15.9742829
  69.2659758  47.7615191  11.4799121  69.3670121  46.9515544  11.7896249
  68.6701504  47.6672137  10.8498800  69.1932297  47.6280219  11.4325359
  69.1060498  52.6792780  12.8813977  69.7497953  53.1205944  13.2710135
  69.4316754  51.8746206  12.7944236  69.2492327  52.6257974  12.9259454
  62.4624803  43.7835477  11.1051455  62.2274987  42.9503129  10.9983723
  62.6010443  44.0640143  10.2912656  62.4480465  43.7018980  10.9693810
  64.7614890  35.9521208  14.0035762  64.1419922  35.3613855  13.8345777
  64.6598754  36.5432643  13.3700086  64.6552566  35.9525290  13.8840752
  71.8582786  37.6920749   8.3368226  72.5562950  37.8708877   8.8289689
  72.1735118  37.1691089   7.7138615  72.0078123  37.6414522   8.3170236
  64.4884023  39.4973489  16.2479331  64.3642720  40.0835935  16.8829150
  65.1402308  39.0033685  16.5491606  64.5657673  39.5112294  16.3865261
  72.0470721  44.0791195   8.3248017  72.4864357  43.4708295   8.7702790
  71.8975384  43.6998568   7.5533482  72.0892187  43.9329666   8.2767184
  69.5142364  42.6735206  15.5266842  70.1591367  42.1807649  15.2077791
  69.7544141  42.8159993  16.3532921  69.6452949  42.6212649  15.6016376
  72.0528456  45.5190112  15.1773735  72.3351698  44.7241518  14.9560491
  72.7814616  45.9970700  15.1978796  72.2018019  45.4724709  15.1476750
  70.0309649  33.0613146  12.4189500  69.7012979  33.5124290  11.7493199
  69.3554651  32.9829309  12.9662507  69.8820086  33.1164281  12.4012723
  64.0242127  48.6621148  12.3807661  63.5409706  49.3871638  12.3567244
  64.8365446  48.9597278  12.4917819  64.0732875  48.8123502  12.3934940
  70.0956281  47.4553329  14.9857475  69.5783223  47.0960744  14.3818783
  70.7930673  46.9315503  14.9963541  70.1221863  47.3251017  14.8987734
  73.7519873  47.9048143  20.9473648  73.8403219  47.7174283  21.7951859
  74.1809586  47.2585572  20.5478495  73.8281976  47.7811150  21.0145400
  71.3190333  47.1879303  19.9291311  70.7561168  46.7751912  20.4530972
  72.0811357  47.1132208  20.3484454  71.3484782  47.1156703  20.0684311
  68.2365603  31.1225435   7.9012448  68.9911571  31.4903752   7.6629498
  68.0593138  31.4964989   8.6691627  68.3220082  31.2323622   7.9797336
  66.8786325  49.1777324  12.5327941  67.5806904  48.6629313  12.5900697
  66.7983808  49.5051475  13.3374816  66.9710085  49.1491550  12.6600733
  67.9265231  39.4152911  21.6608356  68.0985735  39.3058805  22.5093637
  68.4634589  40.0607316  21.4239548  68.0310235  39.4944912  21.7513452
  66.5922668  33.5295754   4.5990561  66.4098241  33.7467634   3.7731554
  67.4548281  33.6434766   4.6549175  66.6927258  33.5785651   4.4845048
  66.2037100  45.3683676  12.0413549  67.0425999  45.6006609  12.0887310
  66.2348869  44.4987987  11.9720584  66.3318818  45.2740622  12.0378193
  66.8289803  45.7884551  16.3426854  67.3688028  45.6455682  17.0130227
  66.1459749  46.1881302  16.7110880  66.8081957  45.8264222  16.4961276
  76.2530688  41.4675552  11.5371879  77.0088203  41.9007066  11.5760787
  76.3593012  40.8180321  12.1106515  76.3800859  41.4353035  11.6269904
  73.8639933  47.3357162  23.6117432  74.6480349  47.4488009  23.9773174
  73.6636527  46.5098299  23.8076118  73.9505958  47.2303881  23.6951818
  62.2326948  42.0084842  16.4961276  61.9665363  41.1923958  16.6552266
  62.2465512  42.0537997  15.6256791  62.1951670  41.8941747  16.3914758
  66.1384695  36.8069926   3.1113034  65.4242872  36.5208106   3.5235466
  66.6228664  37.1466552   3.7519421  66.1044058  36.8151576   3.2668669
  66.9825555  35.5463220  19.1428283  66.2897351  35.0760200  19.3889015
  67.5985882  35.3201525  19.7169991  66.9710084  35.4430352  19.2637436
  74.0210326  49.2467264  17.2583888  73.2225572  49.0066764  17.5157756
  74.4696338  49.2981657  18.0050935  73.9684937  49.2189655  17.4068812
  62.6420362  42.7943621  13.7773020  62.4595935  42.7690507  12.9245312
  63.3770031  43.2642559  13.8161929  62.7234426  42.8604983  13.6570939
  65.7066113  39.5128624  20.2855129  66.4306086  39.4981655  20.7720023
  65.8082250  40.2223979  19.7877097  65.8284323  39.6153327  20.2833915
  73.0811063  42.9927709  25.1504076  72.2884044  43.3071220  25.3356695
  73.1959990  43.2079177  24.3124860  72.9806473  43.0711545  25.0542410
  75.7542382  39.7161700   9.4399092  75.8489236  40.4550994   9.8938717
  75.1301225  39.2879175   9.8733656  75.6751412  39.7623020   9.5707239
  74.0094856  42.8947912  20.0889372  74.5833717  42.2575157  20.2437936
  73.9309659  42.8951995  19.2199030  74.0828091  42.8013024  19.9835783
  62.6091272  39.6737122  13.9272087  63.1864775  39.5373573  14.5664332
  61.9105334  39.2172906  14.1817671  62.5912294  39.5859388  14.0594376
  69.3658574  41.3271178  12.1410570  69.1077819  40.4942912  12.1141869
  69.4207057  41.5528791  11.3003070  69.3358352  41.2368949  12.0130707
  74.4459624  33.4299628  12.2414662  73.7415951  32.9408814  12.3998582
  74.4944599  33.4422103  11.3703107  74.3489676  33.3589276  12.1354002
  68.3393286  38.8808940  12.6275465  67.7642878  39.0401108  13.2639426
  67.9628963  38.2444349  12.1643915  68.1996099  38.8106753  12.6530023
  72.0066575  37.3532289  17.4867843  71.6181008  36.9286507  16.8320034
  71.3421273  37.6014439  17.9944870  71.8513503  37.3271010  17.4655711
  58.0850105  38.5249015  10.6419905  58.1710357  38.1480883  11.4233435
  58.7125903  38.1509460  10.1639863  58.1906656  38.4134497  10.6865383
  75.8292937  31.0506918  14.9991827  76.2103448  30.3685089  15.3859701
  75.0256221  30.7616520  14.8167492  75.7669398  30.9073967  15.0295883
  68.9813422  45.0552411  10.8116962  69.6187369  44.8164159  11.3568755
  69.4068493  45.2589570  10.0770123  69.1389588  45.0503422  10.7834119
  63.6726064  47.2940748  14.6951266  63.7130209  47.5655599  13.8671045
  64.2320588  47.8182656  15.1109054  63.7609410  47.4116503  14.6343154
  69.6216237  40.2754701   5.1491851  70.0061389  40.0562408   5.9008397
  69.3727857  41.1017646   5.2792928  69.6418309  40.3652847   5.2792928
  69.7884777  33.5561116  24.8654436  69.4738218  34.3260679  24.6023998
  69.4674710  32.9931372  24.2806663  69.6943696  33.5871385  24.7395786
  71.3634894  45.5324834  12.4910748  71.4373902  45.3700006  13.3452598
  72.1804400  45.7215024  12.2471230  71.4951252  45.5361576  12.5808774
  65.1240650  45.8782697   9.5205192  64.2978768  46.1244434   9.3939471
  65.1852641  45.7994778  10.3867250  65.0114817  45.9027646   9.6294136
  67.3416674  31.9451638  10.4800632  66.4739099  32.0174237  10.5458241
  67.6291878  32.7473717  10.6688607  67.2556422  32.0745785  10.5175399
  76.4649563  32.0929497  18.8111954  77.2103155  31.9039308  18.3975379
  76.0486867  32.6187735  18.2525810  76.5134537  32.1431643  18.6676527
  70.4934224  43.2977323  18.3077352  69.9945918  44.0093091  18.3862241
  71.3034449  43.6177990  18.2695515  70.5390331  43.4504172  18.3133921
  67.8445395  50.4726959  10.2884371  67.6245690  50.1824314  11.0811038
  67.6239917  49.8141914   9.7602284  67.7792989  50.3326668  10.3273280
  66.7562342  42.5600276  12.5540073  66.4675591  41.9337747  13.0885800
  67.6245690  42.5020563  12.6204754  66.8422594  42.4587820  12.6431028
  77.5440240  37.7035059  12.8722055  77.2005006  36.9825395  13.2229305
  77.6433282  37.4948910  12.0300413  77.5082283  37.5659263  12.7993735
  66.9594615  44.1995527   8.4782438  67.7140583  44.5808566   8.6917901
  66.3665228  44.6506671   8.9329135  66.9831329  44.3224354   8.5765317
  69.4201282  36.1558367  23.6039651  68.6101058  36.4616147  23.4929493
  69.8975969  36.8763950  23.7192235  69.3704761  36.3072968  23.6046722
  68.2792842  45.3704088  13.8522554  67.7573596  45.5104380  14.5374418
  68.6666862  44.6114753  14.0424671  68.2596543  45.2789612  13.9823630
  65.2684026  35.4209897   7.9217508  64.9808822  35.0511167   7.1849456
  65.9554494  35.8904752   7.6601213  65.3272923  35.4356866   7.7732584
  69.7059168  42.4008107   9.2504045  69.5101950  43.0082842   8.6564348
  69.9293513  41.7076051   8.7695719  69.7093809  42.3885633   9.0920125
  68.1037698  39.2862845   9.3684913  68.8260350  39.4504003   8.9088719
  67.6245690  40.0072510   9.2624253  68.1401428  39.4161075   9.2850527
  76.0631205  35.6226644  14.7481598  75.2242306  35.6487923  14.5119861
  76.1335573  36.2697380  15.3286945  75.9499599  35.7222770  14.7990715
  65.7545314  41.6920918  18.4739053  66.2666411  41.9705171  17.8247813
  65.4681657  42.4310212  18.8401866  65.7880178  41.8423271  18.4328931
  62.8412221  36.1991110   8.7702789  62.9428357  37.0017271   9.0983765
  63.6368107  35.9978445   8.4725870  62.9740126  36.2877008   8.7738145
  69.2729040  33.7847306  18.5340094  69.0812237  33.8002441  19.3839518
  70.1227636  33.9810981  18.5106749  69.3704762  33.8161657  18.6563389
  63.6575953  36.3138288  16.5123911  63.5161445  35.4622228  16.6368419
  63.9416516  36.3566948  15.6886117  63.6783799  36.1938038  16.4091535
  73.8114545  38.1505378  10.6568399  73.5649259  38.0701129  11.4905188
  74.1399668  37.3658846  10.4630927  73.8235789  38.0231643  10.7515922
  77.7062594  44.8588737  14.4455180  77.5676953  45.5569783  14.9503923
  76.9262592  44.7037394  14.0891362  77.5705821  44.9388904  14.4681455
  76.0440679  41.1585113  20.6977562  76.0388718  40.2864929  20.7019989
  76.7501673  41.3573282  20.2247018  76.1485683  41.0588987  20.6284597
  69.7711572  40.8862097  20.0691382  69.9154948  41.4663305  19.4334492
  70.1187221  41.2638393  20.7741237  69.8439034  41.0282801  20.0790377
  71.9431490  40.0852265  17.8516514  71.1954804  40.2783279  17.4464792
  72.0973015  39.2597484  17.6140635  71.8553917  39.9917376  17.7561920
  68.8439327  49.0764868  16.9352409  68.9928891  48.5167784  16.2825814
  69.6239330  49.1556870  17.3184928  68.9813421  49.0050434  16.8949358
  71.3692628  49.2479511  18.2136900  71.2936299  48.5788322  18.7687688
  71.2982487  49.9497299  18.7277566  71.3473235  49.2524419  18.3713748
  72.1833267  33.9802816  18.7411918  72.6405881  34.7126790  18.8684710
  72.2589596  33.5569281  19.4999173  72.2624237  34.0260054  18.8712994
  64.4266258  34.2268635  19.8301361  63.8908448  33.6148993  20.1462129
  64.4884023  34.8016771  20.4835028  64.3561891  34.2215563  19.9736788
  70.0615645  35.9704920  15.5853742  69.2711719  35.7896380  15.9071077
  70.4576268  35.1931872  15.5684036  70.0032521  35.8292380  15.6306290
  75.4459331  43.6047350  13.3113188  74.7704333  43.3732582  13.8126575
  75.4551707  42.9968533  12.6855293  75.3477836  43.4806275  13.2929340
  72.5753475  38.4465179  20.0677241  72.5112616  39.3075135  19.9397377
  72.7150663  38.1297172  19.2672792  72.5868945  38.5265345  19.9305453
  71.2572569  41.1397318  14.2093443  70.8334818  41.3401817  13.4732462
  71.0817424  40.2926166  14.3217743  71.1683450  41.0446099  14.1167134
  70.7584262  52.6547831  16.6714901  71.2480193  51.9558620  16.4890565
  70.1868495  52.3571701  17.2590958  70.7468792  52.5074055  16.7315941
  66.5455014  41.6349369   9.6421416  66.7019633  41.5696172  10.4977408
  66.8855607  42.4097922   9.4300096  66.6188249  41.7398568   9.7376010
  73.0834158  41.0107253   8.5114779  73.6249704  40.5077634   8.9753400
  73.3980718  40.9572448   7.7004264  73.2098556  40.9286674   8.4598591
  76.9551266  45.2209900  25.6241691  77.7686131  44.9495049  25.7846824
  76.7946232  44.9217440  24.8201887  77.0521214  45.1364826  25.5287097
  74.2323428  35.9043558  18.5637080  74.4465397  35.2654472  18.0100434
  73.6157327  36.3489381  18.1344941  74.1728757  35.8753701  18.4187511
  63.1189275  38.8184320   9.9582183  63.4988240  39.2368865   9.2942450
  62.5444640  39.3997776  10.2651026  63.0900600  38.9662179   9.9058924
  76.3962516  37.5132623  19.5020387  75.5839198  37.2058513  19.5833559
  76.8552450  37.0331623  20.0663099  76.3442901  37.3969115  19.5974981
  73.6238157  29.0143493  13.5524422  72.7531714  28.9882214  13.5057732
  73.8778498  28.8420685  12.7350268  73.5331717  28.9853637  13.4244559
  73.4916023  38.9192694  24.2849089  73.9615655  39.5434811  24.6716963
  73.5377904  38.2509670  24.8442304  73.5683899  38.9127374  24.4249160
  70.6487297  31.0249722  15.0097893  70.1325786  30.3329913  15.1349472
  70.0881226  31.6920499  14.9560492  70.4893810  31.0212979  15.0203959
  72.7179530  31.5642682  16.8390745  72.3311284  31.5891713  17.6204275
  72.2312468  30.9984360  16.3865262  72.5892039  31.4838433  16.8878649
  76.9672510  46.2816191  20.8964532  77.6052230  45.7876386  20.5626988
  76.3246601  46.2093591  20.3116759  76.9666736  46.1975199  20.7606887
  78.6929510  38.1305337  15.4630448  78.2657118  38.0431685  14.7078547
  78.0555563  38.2383112  16.0485292  78.5359117  38.1337996  15.4375889
  72.3836672  28.4509667  19.1301005  73.0129790  28.9869967  18.8522076
  72.5522535  28.3587026  19.9814571  72.5014467  28.5171029  19.2149533
  72.1850587  33.2380862  21.4027417  73.0124016  32.9666011  21.4586031
  72.2058433  34.0341704  21.7591235  72.3103437  33.3160616  21.4642600
  77.0226766  46.9735999  17.5369889  77.8119145  46.6225064  17.6571970
  77.1970364  47.7872387  17.2746522  77.1647048  47.0421856  17.5157757
  66.7620077  40.3844725  14.5897678  65.9208083  40.2848599  14.7976571
  66.9710085  41.1540205  14.9411998  66.6684769  40.4836768  14.6724992
  64.2395644  38.0064262  12.4182428  63.8452342  38.0807273  11.6432538
  63.6835761  38.3922208  12.9690790  64.0998456  38.0746036  12.3850088
  75.8760591  30.9845556  12.0986307  76.0810184  30.9167863  12.9443304
  75.5487015  31.7904377  12.0307485  75.8575839  31.0931496  12.2145962
  70.5736742  38.3126124  13.8395275  70.2699879  37.7582112  14.4405683
  69.8716163  38.4918334  13.3523309  70.4252952  38.2570906  13.8564981
  69.6302839  35.6226644   8.4039977  69.9062573  34.9045556   7.9917544
  70.2301508  36.2211564   8.1961083  69.7596103  35.6047014   8.3120738
  68.6355093  45.5275845  18.5467373  68.5275448  45.5377907  19.4129431
  68.8450874  46.3530625  18.3572327  68.6505204  45.6516919  18.6471464
  66.6528885  42.7788487  16.0089310  66.0616818  43.4197985  15.9792325
  67.4149908  43.2026104  15.9820610  66.6777145  42.9364325  16.0004458
  67.0489508  33.9390485  16.6757328  67.5090989  34.0129414  17.4132452
  67.0945614  34.7371739  16.3257149  67.1240063  34.0684632  16.7330085
  68.6972857  34.6057180  21.2429355  68.3058422  33.9590527  21.6785133
  68.8658720  35.1968615  21.8623610  68.6643768  34.5971447  21.3992061
  76.4118401  48.2297799  13.4421335  76.2138090  48.7188613  12.7477546
  75.7906112  48.4339040  14.0205468  76.2905965  48.3314337  13.4244558
  70.4726379  39.9982695   7.7831579  71.2168424  40.3856972   8.0214529
  70.6187076  39.1540121   7.9472067  70.6036964  39.9313168   7.8425549
  72.3905955  31.7932954  12.8163441  71.5442000  31.9655762  12.6904790
  72.3877087  30.9882298  13.1529269  72.2653105  31.6993983  12.8474568
  73.4604255  35.5708169  13.6825498  72.9864209  35.0449931  14.1930809
  73.8322391  35.0237642  13.1140360  73.4454144  35.4124165  13.6740646
  63.8377285  37.5679675  19.0509044  64.7002898  37.4675385  18.9646374
  63.5069068  36.9874385  18.4894616  63.9162482  37.4671302  18.9554450
  67.1979071  36.3922124  15.7119462  66.5732141  36.4040516  15.1045415
  66.8624666  36.8682300  16.3610703  67.0564563  36.4640641  15.7176031
  67.3820820  34.7347243   1.7692147  67.0333624  35.3866968   2.2323697
  66.9017266  34.7204356   1.0416019  67.2591064  34.8290296   1.7303239
  63.9104747  44.4522584  17.1523227  63.3804671  43.7615023  17.2018201
  64.1829840  44.4432770  16.3235935  63.8729469  44.3489716  17.0370643
  74.1110992  41.8945829  17.1261598  73.4967986  41.3503879  17.4210234
  74.6278277  41.3810066  16.6467414  74.0966655  41.7382238  17.0985827
  73.3507290  42.9650099  14.8605897  72.9234898  42.3399818  14.4271332
  73.3432234  42.6825021  15.6864904  73.2866431  42.8302880  14.9185724
  66.4669817  38.0015272  17.9294331  66.6263303  37.2458596  18.3346053
  66.2862710  38.5506212  18.5835069  66.4635176  37.9709086  18.0857037
  74.4090120  30.1676508  18.4845120  73.9130681  30.3640182  17.7936687
  75.1659182  30.5669176  18.3133922  74.4476944  30.2554242  18.3565257
  71.6792999  33.8418854  15.0748431  71.7035486  33.3078966  14.3861211
  71.9304473  33.3336162  15.7374022  71.7202918  33.6879758  15.0713076
  59.1900589  41.1250349  14.5091575  59.0844038  41.0797193  13.6443659
  58.4400809  41.4704129  14.7905860  59.0636192  41.1691257  14.4228905
  67.9594322  32.5689672  14.4554175  67.9992693  33.0698878  15.1688883
  67.1343986  32.6600066  14.1860098  67.8433847  32.6571488  14.5204713
  70.1423934  42.1350412  22.5574470  69.2919565  42.2722126  22.6932115
  70.3052062  41.4014190  23.0022172  70.0407798  42.0464513  22.6430069
  69.3808685  39.0850182  16.7528074  68.5500615  39.2524000  16.5463322
  69.3260202  38.7086133  17.5376960  69.2498100  39.0539913  16.8376602
  67.1892468  32.5759075  22.3884485  67.8145172  32.0321207  22.6613917
  66.7342948  32.0953992  21.8192275  67.2140729  32.4248556  22.3446079
  67.7544729  37.3605773   7.2818192  67.8947690  37.8578238   7.9846833
  68.2527262  36.6592068   7.4232406  67.8485810  37.3307752   7.4069771
  67.7844951  38.2272884   4.6110769  68.4190031  38.8233309   4.5460231
  67.8670562  37.9276342   5.4256639  67.8901502  38.2713792   4.7213855
  69.3623934  34.1586860   4.5856211  69.6839775  33.6789942   3.9315473
  69.6250878  34.9686506   4.3947022  69.4489959  34.2076758   4.4611703
  72.5920907  45.1805734  18.1055027  72.0845998  45.7341581  18.5495657
  72.2947553  45.2414024  17.2873801  72.4725792  45.2712045  18.0503484
  74.7583089  33.5459054  16.9479690  75.1838161  33.0931580  16.3363216
  74.1440082  32.9919124  17.2244477  74.7311734  33.3973030  16.8984715
  64.2897939  40.4240725   7.8800315  64.7990168  41.0205233   8.2611620
  64.7632211  40.1566699   7.1976734  64.4341315  40.4726541   7.8354838
  73.1977312  30.0174153  10.3570267  72.5545630  29.8671800  10.9255405
  72.8576719  29.7716499   9.5919371  73.0522389  29.9586276  10.3273282
  77.7876658  37.9733580   9.7800275  77.1167848  38.5163283   9.6513341
  78.4816409  38.4428436   9.5381970  77.7905526  38.1231852   9.7255803
  71.8363392  50.1130292  15.0112034  71.6129046  49.3549122  15.3796060
  71.3473235  50.1428313  14.2892473  71.7306841  50.0052517  14.9588775
  77.9504786  34.4289464  12.6890649  78.3032396  34.0019187  13.3636447
  77.0919587  34.3440307  12.8191725  77.8754230  34.3534205  12.8085659
  66.6488471  37.0596984  10.7473495  65.9300460  37.4761116  11.0146359
  67.0200833  37.6251222  10.1965133  66.5980403  37.2046265  10.7056302
  75.9488052  37.6924833  16.6375491  75.9285979  37.5108128  17.4910270
  75.9967252  38.5636851  16.6135075  75.9522693  37.7941371  16.7598786
  73.8934381  44.2812025  22.5623967  73.8530236  43.6361701  21.9769123
  74.7057700  44.2248642  22.8749380  74.0077535  44.1770991  22.5220917
  70.4841849  50.3330750  12.4649118  70.0702248  49.6704881  12.0752960
  71.1689223  50.4808609  11.9444813  70.5240221  50.2571409  12.3305616
  73.8507143  49.4920836  13.2172735  73.4523426  49.6023106  12.4493555
  73.2358363  49.7002902  13.7999295  73.7006032  49.5394404  13.1904034
  72.4235045  36.0994984   6.0846875  71.8299884  36.4211980   5.5331442
  72.4610323  35.2536079   5.8767981  72.3409434  36.0219312   5.9729646
  75.2992862  36.0574488   9.5148625  75.0706555  36.0807189   8.6726983
  75.5590938  35.2331955   9.6343635  75.3039050  35.9390568   9.4073823
  69.5812090  37.9108961  19.1173725  69.0690993  37.3030144  19.4758757
  69.4091586  38.6265554  19.5847701  69.4801727  37.9272260  19.2389949
  64.4277805  36.3546536  21.7676087  64.2580395  37.0147911  21.2224294
  63.9843755  36.5653098  22.4888576  64.3377138  36.4832518  21.7937716
  68.3537624  34.5951034  10.8102821  68.8294990  34.9568114  10.1753002
  67.8526224  35.2507502  11.0902963  68.3502983  34.7445223  10.7579562
  73.4581160  35.8333206  21.5575981  74.0152591  35.6047015  20.9254446
  73.1342225  36.5938871  21.2811193  73.4927571  35.9117042  21.4232478
  61.3279869  39.2593402  17.0264577  60.7806589  38.5894047  17.1445445
  62.1172248  38.8923250  17.0908044  61.3632053  39.1058388  17.0533277
  71.1764278  38.9200859  22.5227988  71.9275605  39.2352536  22.8367542
  71.3686854  38.7180030  21.6961910  71.3155692  38.9368241  22.4471384
  70.3964277  36.7392234   4.1776205  70.7763242  36.7571863   3.3927319
  69.6556873  37.1846223   4.0567052  70.3433115  36.8074009   4.0439773
  78.0249568  35.0474425   9.7651783  78.0243794  34.8923082  10.6236060
  77.8205748  35.8937412   9.7093169  77.9949346  35.1495046   9.8839723
  60.0866839  38.4714210  14.1810600  59.9088600  38.0190819  14.9065515
  59.7985861  39.2740371  14.3649077  60.0179792  38.5236768  14.3154103
  75.7490420  39.7271927  13.4187990  76.2444085  39.0094922  13.3792010
  74.9390196  39.4242725  13.3042477  75.7034313  39.5769573  13.3961716
  61.8239309  41.0041933  11.2932359  60.9584828  40.9927624  11.1815130
  61.9238125  40.8172156  12.1403498  61.7113476  40.9747995  11.4021303
  77.8142239  42.4775615  16.1065119  78.2397310  41.9550036  15.5535544
  77.4499159  43.0756452  15.5853742  77.8228841  42.4885842  15.9474129
  67.4496319  50.7739832  14.8662464  67.7642878  51.5876221  14.8740246
  67.8589732  50.3890051  15.5344624  67.5564417  50.8368534  14.9666556
  74.4020838  46.1909879  12.4366276  74.8732016  46.9050141  12.6056262
  74.7381017  45.5908629  12.9726146  74.5215953  46.2081343  12.5398652
  76.4897823  47.8011192  24.6158348  76.5994788  47.0119753  24.9715096
  76.8188719  47.7117128  23.8132687  76.5550229  47.6717045  24.5500739
  71.3190333  30.9637349  19.3924371  71.4518239  30.1668343  19.7205347
  71.7035486  31.4903752  19.9722647  71.3946662  30.9237266  19.5267874
  75.0394785  45.9827813  19.1993969  74.4915731  45.3585697  18.9314034
  75.5007813  46.1722085  18.4838048  75.0261994  45.9186863  19.0544400
  74.3922688  27.8867676  15.9905464  73.5868652  27.7765405  16.3073303
  74.2629424  27.9880131  15.1335330  74.2542821  27.8851346  15.9113505
  77.8488649  34.0513167  16.5845161  77.2651638  34.5522374  16.1722729
  78.1692943  33.5442724  15.9509485  77.8101824  34.0505003  16.4303668
  70.3883448  32.9653762   6.8603836  71.2099142  33.1352075   6.6185531
  69.9253099  33.1201023   6.1370134  70.4414610  33.0135495   6.7175480
  68.9778780  30.9596525  17.6402265  69.5223193  30.6187651  18.2306607
  69.0315716  31.8181986  17.7823549  69.0667899  31.0351784  17.7484138
  64.7909339  44.7212941  14.5141073  65.3954196  44.6808775  13.8854894
  64.5836651  45.5684093  14.5445129  64.8498236  44.8400943  14.4257189
  74.6053111  46.9878886  15.7303310  75.4251485  46.8441852  15.9919605
  74.3247189  47.6125085  16.2719748  74.6849854  47.0589238  15.8491250
  60.0260621  43.7047558  14.3839996  59.9284899  42.8943830  14.6930053
  60.8089491  43.6839351  13.9986264  60.1276758  43.5814648  14.3726859
  75.4616607  55.0158797  16.2479331  75.3375304  55.6021243  16.8829150
  76.1134891  54.5218993  16.5491606  75.5390256  55.0297602  16.3865261
  73.2059532  57.5270150  16.4961276  72.9397947  56.7109266  16.6552266
  73.2198096  57.5723305  15.6256791  73.1684254  57.4127054  16.3914758
  77.9558138  51.0648528  19.1428283  77.2629935  50.5945508  19.3889015
  78.5718465  50.8386832  19.7169991  77.9442668  50.9615660  19.2637436
  76.6798697  55.0313932  20.2855129  77.4038669  55.0166963  20.7720023
  76.7814834  55.7409287  19.7877097  76.8016906  55.1338635  20.2833915
  76.7277898  57.2106226  18.4739053  77.2398995  57.4890479  17.8247813
  76.4414241  57.9495520  18.8401866  76.7612761  57.3608579  18.4328931
  74.6308536  51.8323596  16.5123911  74.4894028  50.9807536  16.6368419
  74.9149100  51.8752256  15.6886117  74.6516382  51.7123346  16.4091535
  75.3998842  49.7453943  19.8301361  74.8641031  49.1334301  20.1462129
  75.4616606  50.3202079  20.4835028  75.3294474  49.7400871  19.9736788
  78.0222091  49.4575793  16.6757328  78.4823573  49.5314722  17.4132452
  78.0678198  50.2557047  16.3257149  78.0972646  49.5869940  16.7330085
  74.8109869  53.0864983  19.0509044  75.6735482  52.9860693  18.9646374
  74.4801652  52.5059693  18.4894616  74.8895065  52.9856610  18.9554450
  78.1711655  51.9107432  15.7119462  77.5464725  51.9225824  15.1045415
  77.8357250  52.3867607  16.3610703  78.0297147  51.9825949  15.7176031
  77.4402400  53.5200580  17.9294331  77.5995887  52.7643904  18.3346053
  77.2595294  54.0691520  18.5835069  77.4367759  53.4894394  18.0857037
  75.4010388  51.8731844  21.7676087  75.2312979  52.5333219  21.2224294
  74.9576338  52.0838406  22.4888576  75.3109722  52.0017826  21.7937716
  72.3012453  54.7778710  17.0264577  71.7539172  54.1079355  17.1445445
  73.0904831  54.4108558  17.0908044  72.3364637  54.6243696  17.0533277
  71.0599422  53.9899518  14.1810600  70.8821184  53.5376127  14.9065515
  70.7718445  54.7925679  14.3649077  70.9912376  54.0422075  14.3154103
   4.5919154  45.9649459  47.6191407   4.5613158  46.8194096  47.7909676
   5.1900503  45.6644752  48.1777550   4.6756312  46.0465956  47.7266209
   1.1012555  51.3211636  61.9804793   1.8079323  50.8263667  62.1091728
   1.2900491  51.7620718  61.2507451   1.2340461  51.3129986  61.8913839
   0.6370660  47.1117154  55.0175989   1.1826620  47.7902241  55.0769958
   0.5787536  46.9704615  54.1577570   0.7086574  47.1909156  54.8988049
   2.4135729  48.5401761  45.8909716   2.2975255  49.2909448  46.3201855
   3.2091615  48.2825715  46.1405803   2.5140318  48.6136608  45.9913808
   1.7271034  35.8889699  49.5884331   1.4124475  36.5793178  50.0204753
   1.2097975  35.8334481  48.8869831   1.6035504  35.9824588  49.5481280
   1.0683467  45.8894200  45.7021741   0.5394939  46.1053833  46.3619048
   1.5908487  46.5830338  45.6222711   1.0671920  46.0237337  45.7877341
   6.5231520  51.4640504  51.0754786   5.6929223  51.6751148  51.2388202
   6.4740773  50.6377559  50.7997069   6.3938256  51.3730111  51.0592151
   6.0185479  44.1110905  54.8705207   5.1813900  44.1813092  55.1052802
   5.9873710  44.1135400  53.9979510   5.8903761  44.1221132  54.7764755
   0.7415664  48.3066582  50.4617099   1.4973179  48.7398096  50.5006007
   0.8477989  47.6571351  51.0351735   0.8685835  48.2744065  50.5515124
   3.7795835  52.1339859  51.2119502   3.3431067  52.1376601  51.9678473
   3.4458751  52.8145358  50.7799079   3.6658455  52.2352315  51.2600334
   3.6993318  39.1753687  53.4548930   4.3419227  39.2451791  54.0410845
   3.9516339  38.5082910  52.9528471   3.8315451  39.0880035  53.4676209
   6.9140182  48.8520779  50.1039139   7.5756616  48.2911447  50.0035047
   6.2731594  48.3572809  50.4291830   6.9169049  48.6957188  50.1371479
   3.2005012  49.8686161  49.8451128   3.4360602  50.0131360  49.0177978
   3.3494576  50.6328569  50.2382641   3.2570816  50.0025215  49.7814731
   5.0295469  48.7087827  47.6820731   5.3603686  49.2415467  47.0760826
   5.6028557  48.7626715  48.3382682   5.1629148  48.7957396  47.6898513
   0.4950380  48.4001470  41.5981264   0.4130542  48.4703657  42.4636251
   1.1330100  48.9631213  41.4065004   0.5770217  48.4940441  41.6971213
   6.1374821  43.9498324  49.1860893   5.8811385  43.1378265  48.9958776
   6.9804135  43.9575891  48.9591080   6.2240846  43.8310321  49.1245710
   3.8199980  51.1047920  59.0219446   3.5838617  50.2735985  58.9031506
   4.4643209  51.0533527  59.6074290   3.8794651  50.9745608  59.0905339
   4.8436401  50.8892369  55.0847740   4.5382218  51.6220426  55.4461056
   4.1242616  50.4830298  54.8040526   4.6923743  50.9374102  55.0960877
  10.5438193  47.5285369  54.4116084  10.4762693  47.5481329  53.5418671
  10.5293855  48.3715697  54.6371755  10.5316949  47.6559104  54.3168561
   0.9534539  38.9320527  57.7357174   1.6988131  38.7430337  57.3220599
   0.5371844  39.4578765  57.1771030   1.0019513  38.9822672  57.5921747
   8.3296810  46.3029756  52.6862679   8.8804732  45.6697825  52.9259771
   8.3140925  46.8345148  53.3778183   8.4082006  46.2878704  52.8241537
   2.0325216  44.5426089  51.7967275   1.6889982  43.8216424  52.1474525
   2.1318259  44.3339940  50.9545633   1.9967259  44.4050293  51.7238955
   2.4938245  51.0051793  47.3391263   3.0596278  51.6645003  47.2549806
   1.8466149  51.3501491  47.8107665   2.4817002  51.1533735  47.3964020
   4.4273706  47.6685661  50.9588060   4.3407680  47.8241087  51.8122838
   3.9724185  48.3123736  50.5847465   4.3476962  47.7861416  51.0295166
   2.1947570  51.6979767  53.3700400   2.0561930  52.3960813  53.8749143
   1.4147568  51.5428424  53.0136582   2.0590797  51.7779934  53.3926675
   0.5325656  47.9976143  59.6222782   0.5273694  47.1255959  59.6265209
   1.2386649  48.1964312  59.1492238   0.6370660  47.8980017  59.5529817
   3.6900943  51.0558021  44.1316900   3.3107752  50.2695159  44.1246189
   3.0267189  51.6044878  43.9888544   3.5359418  51.0202845  44.1097697
   1.1445569  33.9983721  51.5350981   1.2629137  34.4560184  50.8018283
   0.9707745  33.1928982  51.2487198   1.1364740  33.9477493  51.3851914
   1.9361042  53.3003512  44.4668585   2.0180879  54.1070498  44.1430036
   2.4210784  53.3199471  45.1909359   2.0198200  53.4224174  44.5255484
   1.4436242  52.0600930  64.5486911   2.2571108  51.7886079  64.7092044
   1.2831209  51.7608470  63.7447107   1.5406191  51.9755856  64.4532317
   1.4557486  53.1207221  59.8209752   2.0937207  52.6267416  59.4872208
   0.8131578  53.0484621  59.2361979   1.4551713  53.0366229  59.6852107
   3.1814486  44.9696367  54.3875668   2.7542094  44.8822715  53.6323767
   2.5440539  45.0774142  54.9730512   3.0244094  44.9729026  54.3621109
   1.5111743  53.8127029  56.4615109   2.3004121  53.4616094  56.5817190
   1.6855341  54.6263417  56.1991742   1.6532025  53.8812886  56.4402977
   3.6179255  38.3768350  50.5034293   3.0053568  38.8638752  50.8888024
   3.7143430  37.7011841  51.0471944   3.5417152  38.3486659  50.6413151
   7.2604283  49.4485287  55.9311809   7.3187406  49.8971935  56.6771785
   6.6270750  49.8584099  55.4941889   7.1755578  49.5759021  55.9764357
   4.2125962  47.4701574  54.0177499   3.9724185  46.6307989  54.0219925
   4.6917969  47.5501741  54.7418272   4.2478146  47.3582974  54.1252301
   6.2131149  44.2503032  51.9706758   5.9740919  44.2098866  51.1327543
   6.3765051  45.0974184  52.0972479   6.2021453  44.3695117  51.8660240
   2.8177179  48.6352981  57.9011803   3.5411378  48.1825507  57.7222823
   2.5527142  48.9157646  57.1184131   2.8858453  48.6103949  57.7590519
   5.2512493  47.5979392  56.4042353   5.8430334  48.2376642  56.4360551
   5.6871488  46.9002428  56.6934420   5.4030925  47.5897742  56.4523186
   2.2761635  44.8124610  48.7045495   1.6052825  45.3554313  48.5758561
   2.9701385  45.2819466  48.4627190   2.2790502  44.9622881  48.6501023
   2.4389762  41.2680494  51.6135869   2.7917372  40.8410217  52.2881667
   1.5804564  41.1831337  51.7436945   2.3639207  41.1925235  51.7330879
   0.4373028  44.5315862  55.5620711   0.4170955  44.3499158  56.4155490
   0.4852229  45.4027881  55.5380295   0.4407669  44.6332401  55.6844006
   3.8713822  36.3898906  52.5420181   3.3644687  35.6828045  52.4741359
   4.6681256  36.0592095  52.6721258   3.9141061  36.2372057  52.5519176
   6.0733962  50.9063832  45.5261046   6.4567568  51.6555189  45.7559143
   5.2778076  51.1529652  45.2673035   6.0127744  51.0533526  45.5218619
   2.5134544  41.8865455  48.6897003   2.5128771  41.7314112  49.5481280
   2.3090724  42.7328442  48.6338389   2.4834322  41.9886076  48.8084943
   2.3027215  49.3166645  55.0310339   2.7282287  48.7941066  54.4780764
   1.9384135  49.9147482  54.5098962   2.3113818  49.3276872  54.8719349
   2.3373625  40.8904197  55.5090381   1.7536614  41.3913404  55.0967949
   2.6577919  40.3833754  54.8754705   2.2986801  40.8896032  55.3548889
  15.5651738  61.4834767  47.6191407  15.5345742  62.3379404  47.7909676
  16.1633086  61.1830060  48.1777550  15.6488896  61.5651264  47.7266209
   8.7651423  60.5710418  52.3744337   7.9089318  60.7318917  52.4253454
   8.8119076  59.7002482  52.3949398   8.6450534  60.4661220  52.3850403
  12.0745139  66.8396944  61.9804793  12.7811906  66.3448975  62.1091728
  12.2633075  67.2806026  61.2507451  12.2073045  66.8315294  61.8913839
  11.6103244  62.6302462  55.0175989  12.1559204  63.3087549  55.0769958
  11.5520120  62.4889923  54.1577570  11.6819158  62.7094464  54.8988049
  13.3868312  64.0587069  45.8909716  13.2707838  64.8094755  46.3201855
  14.1824199  63.8011023  46.1405803  13.4872902  64.1321916  45.9913808
   5.2698638  68.0481092  47.1779059   5.5914479  68.5886300  46.5740367
   5.9170734  67.4777864  47.3101349   5.4124693  68.0440268  47.1086094
   7.3200346  60.0497087  47.2613446   8.0180510  60.2285215  47.7534909
   7.6352678  59.5267427  46.6383835   7.4695683  59.9990859  47.2415456
   7.5088281  66.4367532  47.2493237   7.9481917  65.8284633  47.6948010
   7.3592944  66.0574906  46.4778702   7.5509747  66.2906004  47.2012404
   4.9759924  65.0311544  54.4512062   5.6208927  64.5383987  54.1323011
   5.2161701  65.1736331  55.2778141   5.1070509  64.9788986  54.5261596
   7.5146016  67.8766450  54.1018955   7.7969258  67.0817856  53.8805711
   8.2432176  68.3547038  54.1224016   7.6635579  67.8301047  54.0721970
   5.4927209  55.4189484  51.3434720   5.1630539  55.8700628  50.6738419
   4.8172211  55.3405647  51.8907727   5.3437646  55.4740619  51.3257943
  11.1097618  64.7894714  44.2024006  11.0248913  65.6455680  44.3473575
  11.5982001  64.5139038  44.8706165  11.1686515  64.8752035  44.3226088
  12.7003617  51.4075007  49.5884331  12.3857058  52.0978486  50.0204753
  12.1830559  51.3519789  48.8869831  12.5768088  51.5009895  49.5481280
  12.0416051  61.4079508  45.7021741  11.5127522  61.6239141  46.3619048
  12.5641071  62.1015646  45.6222711  12.0404504  61.5422645  45.7877341
  17.4964104  66.9825812  51.0754786  16.6661807  67.1936456  51.2388202
  17.4473356  66.1562867  50.7997069  17.3670839  66.8915419  51.0592151
   3.9315659  65.3042725  44.5029209   3.3472874  65.8092756  44.9095073
   3.5285754  65.0785112  43.7625801   3.7854963  65.3450973  44.4534235
   9.2137433  70.2624481  59.8718868   9.3020779  70.0750621  60.7197079
   9.6427146  69.6161910  59.4723715   9.2899536  70.1387488  59.9390620
   8.3892873  61.5508377  42.9798130   8.6288877  61.7586360  42.1673473
   8.7108714  60.7465885  43.0887074   8.4730031  61.4622478  42.8758683
   3.6983163  53.4801772  46.8257668   4.4529131  53.8480090  46.5874718
   3.5210698  53.8541327  47.5936847   3.7837642  53.5899960  46.9042556
  16.9918062  59.6296213  54.8705207  16.1546483  59.6998400  55.1052802
  16.9606293  59.6320708  53.9979510  16.8636345  59.6406440  54.7764755
   3.3882791  61.7729249  60.5853576   3.5603295  61.6635143  61.4338857
   3.9252149  62.4183654  60.3484768   3.4927795  61.8521250  60.6758672
   2.0540228  55.8872091  43.5235781   1.8715801  56.1043972  42.6976774
   2.9165841  56.0011104  43.5794395   2.1544818  55.9361989  43.4090268
   1.6654660  67.7260014  50.9658769   2.5043559  67.9582946  51.0132530
   1.6966429  66.8564325  50.8965804   1.7936378  67.6316960  50.9623413
   7.7339947  52.8898502  46.5584805   8.4626108  52.7114457  46.1122961
   7.8234840  53.7316582  46.7691983   7.8546609  52.9882381  46.5238322
  11.7148248  63.8251889  50.4617099  12.4705763  64.2583404  50.5006007
  11.8210572  63.1756659  51.0351735  11.8418419  63.7929373  50.5515124
  14.7528419  67.6525167  51.2119502  14.3163651  67.6561909  51.9678473
  14.4191335  68.3330666  50.7799079  14.6391039  67.7537623  51.2600334
  14.6725902  54.6938995  53.4548930  15.3151810  54.7637099  54.0410845
  14.9248923  54.0268217  52.9528471  14.8048034  54.6065343  53.4676209
   1.6002255  59.1646264  42.0358254   0.8860432  58.8784444  42.4480686
   2.0846224  59.5042890  42.6764641   1.5661618  59.1727914  42.1913889
   2.4443115  57.9039558  58.0673504   1.7514911  57.4336538  58.3134235
   3.0603442  57.6777862  58.6415211   2.4327644  57.8006690  58.1882656
  17.8872765  64.3706087  50.1039139  18.5489199  63.8096755  50.0035047
  17.2464177  63.8758117  50.4291830  17.8901633  64.2142496  50.1371479
   8.7749573  67.6676218  42.4120062   9.1900722  67.3361242  41.7204558
   7.9441503  67.4345120  42.2840199   8.7137582  67.5847474  42.2910910
  14.1737596  65.3871469  49.8451128  14.4093185  65.5316668  49.0177978
  14.3227160  66.1513877  50.2382641  14.2303399  65.5210523  49.7814731
   1.1683673  61.8704962  59.2100349   1.8923646  61.8557993  59.6965243
   1.2699810  62.5800317  58.7122317   1.2901883  61.9729665  59.2079136
  16.0028053  64.2273135  47.6820731  16.3336270  64.7600775  47.0760826
  16.5761141  64.2812023  48.3382682  16.1361732  64.3142704  47.6898513
  11.2159942  62.0738038  48.3644312  11.3106796  62.8127332  48.8183937
  10.5918785  61.6455513  48.7978876  11.1368972  62.1199358  48.4952459
   9.4712416  65.2524250  59.0134592  10.0451277  64.6151494  59.1683156
   9.3927219  65.2528333  58.1444250   9.5445651  65.1589362  58.9081003
  11.4682963  63.9186777  41.5981264  11.3863126  63.9888965  42.4636251
  12.1062684  64.4816521  41.4065004  11.5502801  64.0125749  41.6971213
   4.8276134  63.6847515  51.0655790   4.5695379  62.8519250  51.0387089
   4.8824617  63.9105128  50.2248290   4.7975912  63.5945287  50.9375927
   9.9077184  55.7875966  51.1659883   9.2033511  55.2985152  51.3243802
   9.9562159  55.7998441  50.2948327   9.8107236  55.7165614  51.0599222
   3.8010846  61.2385278  51.5520685   3.2260438  61.3977446  52.1884646
   3.4246523  60.6020687  51.0889135   3.6613659  61.1683091  51.5775243
   7.4684135  59.7108627  56.4113063   7.0798568  59.2862845  55.7565254
   6.8038833  59.9590777  56.9190090   7.3131063  59.6847348  56.3900931
  17.1107404  59.4683632  49.1860893  16.8543969  58.6563573  48.9958776
  17.9536718  59.4761199  48.9591080  17.1973430  59.3495629  49.1245710
  11.2910497  53.4083256  53.9237047  11.6721008  52.7261427  54.3104921
  10.4873781  53.1192858  53.7412712  11.2286958  53.2650304  53.9541103
   8.5723073  63.9407232  44.6089870   9.3863712  64.2322125  44.4972641
   8.5082215  63.2867094  44.0348163   8.6825812  63.8872426  44.5078707
  14.7932564  66.6233228  59.0219446  14.5571201  65.7921293  58.9031506
  15.4375792  66.5718835  59.6074290  14.8527234  66.4930916  59.0905339
   4.4430982  67.4128749  49.7362182   5.0804929  67.1740497  50.2813975
   4.8686053  67.6165908  49.0015343   4.6007148  67.4079759  49.7079339
   5.0833797  62.6331039  44.0737071   5.4678949  62.4138746  44.8253617
   4.8345417  63.4593984  44.2038148   5.1035869  62.7229185  44.2038148
   5.2502337  55.9137454  63.7899656   4.9355778  56.6837017  63.5269218
   4.9292270  55.3507710  63.2051883   5.1561256  55.9447723  63.6641006
  15.8168984  66.4077677  55.0847740  15.5114801  67.1405733  55.4461056
  15.0975200  66.0015606  54.8040526  15.6656326  66.4559410  55.0960877
   6.8252454  67.8901172  51.4155968   6.8991462  67.7276344  52.2697818
   7.6421960  68.0791361  51.1716450   6.9568812  67.8937914  51.5053994
  21.5170776  63.0470677  54.4116084  21.4495277  63.0666636  53.5418671
  21.5026439  63.8901005  54.6371755  21.5049533  63.1744412  54.3168561
   2.8034234  54.3027976  49.4045852   1.9356659  54.3750575  49.4703461
   3.0909438  55.1050055  49.5933827   2.7173982  54.4322123  49.4420619
  11.9267123  54.4505835  57.7357174  12.6720715  54.2615645  57.3220599
  11.5104427  54.9764073  57.1771030  11.9752097  54.5007980  57.5921747
  19.3029394  61.8215064  52.6862679  19.8537315  61.1883133  52.9259771
  19.2873509  62.3530456  53.3778183  19.3814590  61.8064012  52.8241537
   5.9551784  65.6553661  57.2322572   5.4563478  66.3669429  57.3107461
   6.7652009  65.9754327  57.1940735   6.0007891  65.8080509  57.2379141
   2.2179902  64.9176614  51.4785293   1.9293151  64.2914085  52.0131020
   3.0863250  64.8596901  51.5449974   2.3040154  64.8164158  51.5676248
  13.0057800  60.0611397  51.7967275  12.6622566  59.3401732  52.1474525
  13.1050842  59.8525248  50.9545633  12.9699843  59.9235600  51.7238955
   2.4212175  66.5571865  47.4027658   3.1758143  66.9384904  47.6163121
   1.8282788  67.0083009  47.8574355   2.4448889  66.6800692  47.5010537
  13.4670829  66.5237101  47.3391263  14.0328862  67.1830311  47.2549806
  12.8198732  66.8686799  47.8107665  13.4549585  66.6719043  47.3964020
   4.8818842  58.5134705  62.5284871   4.0718618  58.8192485  62.4174713
   5.3593529  59.2340288  62.6437455   4.8322321  58.6649306  62.5291942
   3.7410402  67.7280426  52.7767774   3.2191156  67.8680718  53.4619638
   4.1284422  66.9691090  52.9669891   3.7214103  67.6365950  52.9068850
   0.7301586  57.7786235  46.8462728   0.4426382  57.4087505  46.1094676
   1.4172054  58.2481090  46.5846433   0.7890483  57.7933204  46.6977804
   9.9377407  69.4675885  46.7628342   9.6964083  68.7343746  46.3555407
  10.1178740  70.0162742  46.1094676   9.9285031  69.4398277  46.6058565
   5.1676728  64.7584445  48.1749265   4.9719510  65.3659180  47.5809568
   5.3911073  64.0652389  47.6940939   5.1711369  64.7461971  48.0165345
   3.5655258  61.6439183  48.2930133   4.2877910  61.8080341  47.8333939
   3.0863250  62.3648848  48.1869473   3.6018988  61.7737413  48.2095747
  11.5248765  57.9802982  53.6726818  10.6859866  58.0064261  53.4365081
  11.5953133  58.6273717  54.2532165  11.4117159  58.0799108  53.7235935
   9.9718044  54.8788359  48.4054434  10.6744396  54.6796107  47.9274392
   9.7062232  54.1064301  48.7123277  10.0364676  54.7351325  48.3799875
  15.4006289  63.1870969  50.9588060  15.3140264  63.3426395  51.8122838
  14.9456769  63.8309044  50.5847465  15.3209546  63.3046724  51.0295166
   4.7346600  56.1423644  57.4585314   4.5429797  56.1578779  58.3084738
   5.5845196  56.3387318  57.4351969   4.8322322  56.1737995  57.5808609
   9.2732105  60.5081716  49.5813619   9.0266819  60.4277467  50.4150408
   9.6017228  59.7235184  49.3876147   9.2853349  60.3807981  49.6761142
  13.1680154  67.2165075  53.3700400  13.0294513  67.9146121  53.8749143
  12.3880152  67.0613732  53.0136582  13.0323381  67.2965242  53.3926675
  11.5058239  63.5161451  59.6222782  11.5006278  62.6441267  59.6265209
  12.2119233  63.7149620  59.1492238  11.6103243  63.4165325  59.5529817
   5.2329132  63.2438434  58.9936602   5.3772508  63.8239643  58.3579712
   5.5804781  63.6214731  59.6986457   5.3056594  63.3859138  59.0035597
   7.4049050  62.4428603  56.7761734   6.6572364  62.6359617  56.3710012
   7.5590575  61.6173822  56.5385855   7.3171477  62.3493714  56.6807140
  14.6633527  66.5743329  44.1316900  14.2840336  65.7880467  44.1246189
  13.9999772  67.1230186  43.9888544  14.5092002  66.5388153  44.1097697
   7.6450827  56.3379153  57.6657138   8.1023441  57.0703128  57.7929930
   7.7207156  55.9145619  58.4244393   7.7241797  56.3836392  57.7958214
  12.1178153  49.5169029  51.5350981  12.2361721  49.9745492  50.8018283
  11.9440328  48.7114290  51.2487198  12.1097324  49.4662801  51.3851914
   5.5233205  58.3281257  54.5098962   4.7329280  58.1472718  54.8316297
   5.9193828  57.5508210  54.4929256   5.4650081  58.1868718  54.5551510
  10.0099096  67.1569032  39.9505675  10.7772081  67.2169157  39.5411527
   9.5630404  66.5849473  39.4661994  10.0572523  67.0805607  39.8183386
  10.9076891  65.9623688  52.2358408  10.2321893  65.7308920  52.7371795
  10.9169267  65.3544871  51.6100513  10.8095396  65.8382613  52.2174560
   8.0371035  60.8041517  58.9922461   7.9730176  61.6651473  58.8642597
   8.1768223  60.4873510  58.1918012   8.0486505  60.8841683  58.8550673
  12.9093626  68.8188820  44.4668585  12.9913463  69.6255806  44.1430036
  13.3943368  68.8384779  45.1909359  12.9930783  68.9409482  44.5255484
   6.7190129  63.4973656  53.1338663   6.2952378  63.6978155  52.3977682
   6.5434984  62.6502504  53.2462963   6.6301010  63.4022437  53.0412354
   2.0072574  63.9925707  48.5666636   2.1637193  63.9272510  49.4222628
   2.3473167  64.7674260  48.3545316   2.0805809  64.0974905  48.6621230
   8.5451718  63.3683591  47.4359999   9.0867264  62.8653972  47.8998620
   8.8598278  63.3148786  46.6249484   8.6716116  63.2863012  47.3843811
  12.4168826  67.5786238  64.5486911  13.2303691  67.3071387  64.7092044
  12.2563792  67.2793778  63.7447107  12.5138774  67.4941164  64.4532317
   6.7138168  68.7600942  44.7200027   6.7830989  67.9015481  44.8593028
   7.4926623  68.9772823  44.3919052   6.8391018  68.6653806  44.6917184
   9.6940988  58.2619895  57.4882300   9.9082957  57.6230810  56.9345654
   9.0774887  58.7065719  57.0590161   9.6346317  58.2330039  57.3432731
  11.8580076  59.8708961  58.4265607  11.0456758  59.5634851  58.5078779
  12.3170010  59.3907961  58.9908319  11.8060461  59.7545453  58.5220201
  11.2685331  67.7488633  48.8742551  10.9099985  67.9203275  49.6506583
  10.7824041  68.2101838  48.3170550  11.1444027  67.8427604  48.9067820
   9.0855717  51.3719831  52.4769642   8.2149274  51.3458552  52.4302952
   9.3396058  51.1997023  51.6595488   8.9949277  51.3429975  52.3489779
   6.0573696  63.4287798  41.4142785   6.3466221  64.2052680  41.6886360
   6.1445495  62.9176529  42.1157285   6.1127952  63.4679716  41.5585283
   8.9533583  61.2769032  63.2094309   9.4233215  61.9011148  63.5962183
   8.9995464  60.6086008  63.7687524   9.0301459  61.2703712  63.3494380
   6.1104857  53.3826059  53.9343113   5.5943346  52.6906251  54.0594692
   5.5498786  54.0496837  53.8805712   5.9511370  53.3789317  53.9449179
   8.1797090  53.9219020  55.7635965   7.7928844  53.9468051  56.5449495
   7.6930028  53.3560698  55.3110482   8.0509599  53.8414770  55.8123869
  12.4290070  68.6392529  59.8209752  13.0669790  68.1452724  59.4872208
  11.7864161  68.5669929  59.2361979  12.4284296  68.5551537  59.6852107
  14.1547070  60.4881674  54.3875668  13.7274678  60.4008023  53.6323767
  13.5173123  60.5959450  54.9730512  13.9976677  60.4914334  54.3621109
   7.8454232  50.8086005  58.0546225   8.4747350  51.3446305  57.7767296
   8.0140095  50.7163364  58.9059791   7.9632027  50.8747367  58.1394753
   7.6468147  55.5957200  60.3272637   8.4741576  55.3242349  60.3831251
   7.6675993  56.3918041  60.6836455   7.7720997  55.6736954  60.3887820
  12.4844326  69.3312337  56.4615109  13.2736705  68.9801402  56.5817190
  12.6587924  70.1448725  56.1991742  12.6264608  69.3998194  56.4402977
   2.2237637  62.7421063  53.5142898   1.3825643  62.6424937  53.7221791
   2.4327645  63.5116543  53.8657218   2.1302329  62.8413106  53.5970212
  11.3378151  53.3421893  51.0231527  11.5427744  53.2744201  51.8688524
  11.0104575  54.1480715  50.9552705  11.3193399  53.4507834  51.1391182
   6.0354302  60.6702462  52.7640495   5.7317439  60.1158450  53.3650903
   5.3333723  60.8494672  52.2768529   5.8870512  60.6147244  52.7810201
   5.0920399  57.9802982  47.3285197   5.3680133  57.2621894  46.9162764
   5.6919068  58.5787901  47.1206303   5.2213663  57.9623352  47.2365958
  14.5911838  53.8953658  50.5034293  13.9786152  54.3824060  50.8888024
  14.6876013  53.2197149  51.0471944  14.5149736  53.8671966  50.6413151
   8.5930919  55.6516499  45.6031792   9.0474666  55.8227059  46.3279636
   9.0670965  55.0384610  45.2029568   8.7299240  55.5867384  45.6505553
   2.1146445  65.1364825  54.9334530   1.5234378  65.7774323  54.9037546
   2.8767468  65.5602442  54.9065830   2.1394705  65.2940663  54.9249678
   2.5107068  56.2966823  55.6002548   2.9708549  56.3705752  56.3377672
   2.5563174  57.0948077  55.2502369   2.5857623  56.4260970  55.6575305
   4.1590417  56.9633517  60.1674575   3.7675982  56.3166865  60.6030353
   4.3276280  57.5544953  60.7868831   4.1261328  56.9547785  60.3237281
  18.2336866  64.9670595  55.9311809  18.2919990  65.4157243  56.6771785
  17.6003334  65.3769407  55.4941889  18.1488161  65.0944329  55.9764357
  11.8735961  70.5874136  52.3666555  11.6755650  71.0764951  51.6722766
  11.2523672  70.7915378  52.9450688  11.7523525  70.6890675  52.3489778
   5.9343939  62.3559033  46.7076799   6.6785984  62.7433310  46.9459749
   6.0804636  61.5116459  46.8717287   6.0654524  62.2889506  46.7670769
   7.8523515  54.1509292  51.7408661   7.0059560  54.3232100  51.6150010
   7.8494647  53.3458636  52.0774489   7.7270665  54.0570321  51.7719788
   8.9221815  57.9284507  52.6070718   8.4481769  57.4026269  53.1176029
   9.2939951  57.3813979  52.0385580   8.9071704  57.7700503  52.5985866
  15.1858546  62.9886882  54.0177499  14.9456769  62.1493297  54.0219925
  15.6650553  63.0687049  54.7418272  15.2210729  62.8768282  54.1252301
  10.8505315  58.8221061  45.6696472  10.3228333  58.9049805  44.9802181
  11.3101023  59.5638933  45.6661117  10.8407165  58.9441724  45.5671167
  17.1863733  59.7688339  51.9706758  16.9473503  59.7284174  51.1327543
  17.3497634  60.6159491  52.0972479  17.1754036  59.8880424  51.8660240
  13.7909763  64.1538289  57.9011803  14.5143962  63.7010815  57.7222823
  13.5259725  64.4342954  57.1184131  13.8591036  64.1289257  57.7590519
   2.6596631  58.7498462  54.6364682   2.0349701  58.7616854  54.0290635
   2.3242226  59.2258637  55.2855923   2.5182123  58.8216979  54.6421251
   2.8438380  57.0923581  40.6937367   2.4951184  57.7443306  41.1568917
   2.3634826  57.0780694  39.9661239   2.7208624  57.1866634  40.6548459
  10.4042397  67.3924625  44.8006129  11.1276596  67.8582738  44.6570703
   9.9642988  67.4598234  44.0503726  10.4458090  67.4708461  44.6690911
   9.5728552  64.2522167  56.0506818   8.9585546  63.7080217  56.3455454
  10.0895837  63.7386403  55.5712634   9.5584215  64.0958576  56.0231047
   8.8124850  65.3226437  53.7851117   8.3852458  64.6976156  53.3516552
   8.8049794  65.0401359  54.6110124   8.7483991  65.1879218  53.8430945
   1.9287377  60.3591610  56.8539551   2.0880863  59.6034934  57.2591273
   1.7480270  60.9082550  57.5080289   1.9252736  60.3285424  57.0102257
   9.8707680  52.5252846  57.4090340   9.3748241  52.7216520  56.7181907
  10.6276742  52.9245514  57.2379142   9.9094504  52.6130579  57.2810477
   7.1410559  56.1995192  53.9993651   7.1653046  55.6655304  53.3106431
   7.3922033  55.6912500  54.6619242   7.1820478  56.0456095  53.9958296
   3.4211882  54.9266010  53.3799395   3.4610253  55.4275216  54.0934103
   2.5961546  55.0176403  53.1105318   3.3051407  55.0147826  53.4449933
   4.8426245  61.4426520  55.6773294   4.0118175  61.6100338  55.4708542
   4.7877762  61.0662470  56.4622180   4.7115660  61.4116251  55.7621822
   2.6510028  54.9335413  61.3129705   3.2762732  54.3897545  61.5859137
   2.1960508  54.4530330  60.7437495   2.6758289  54.7824894  61.2691299
   3.2162289  59.7182111  46.2063412   3.3565250  60.2154575  46.9092053
   3.7144822  59.0168406  46.3477626   3.3103370  59.6884090  46.3314991
   3.2462511  60.5849222  43.5355989   3.8807591  61.1809647  43.4705451
   3.3288122  60.2852680  44.3501859   3.3519062  60.6290130  43.6459075
  16.2245077  63.1164700  56.4042353  16.8162917  63.7561950  56.4360551
  16.6604071  62.4187736  56.6934420  16.3763508  63.1083050  56.4523186
   4.8241494  56.5163198  43.5101431   5.1457335  56.0366280  42.8560693
   5.0868438  57.3262844  43.3192242   4.9107519  56.5653096  43.3856923
   8.0538467  67.5382072  57.0300247   7.5463558  68.0917919  57.4740877
   7.7565113  67.5990362  56.2119021   7.9343352  67.6288383  56.9748704
  10.2200649  55.9035392  55.8724910  10.6455721  55.4507918  55.2608436
   9.6057642  55.3495462  56.1489697  10.1929294  55.7549368  55.8229935
   8.6594872  52.3750491  49.2815487   8.0163190  52.2248138  49.8500625
   8.3194279  52.1292837  48.5164592   8.5139949  52.3162614  49.2518502
  13.2494218  60.3309918  48.7045495  12.5785408  60.8739620  48.5758561
  13.9433969  60.8004774  48.4627190  13.2523086  60.4808189  48.6501023
  13.4122346  56.7865802  51.6135869  13.7649956  56.3595525  52.2881667
  12.5537147  56.7016645  51.7436945  13.3371790  56.7110542  51.7330879
   2.1106031  59.4173322  49.6718715   1.3918020  59.8337454  49.9391579
   2.4818393  59.9827560  49.1210353   2.0597963  59.5622603  49.6301522
  11.4105612  60.0501170  55.5620711  11.3903539  59.8684466  56.4155490
  11.4584812  60.9213189  55.5380295  11.4140253  60.1517709  55.6844006
   9.3551941  66.6388362  61.4869188   9.3147796  65.9938039  60.9014343
  10.1675260  66.5824980  61.7994600   9.4695095  66.5347329  61.4466137
   7.8852605  58.4571321  45.0092095   7.2917444  58.7788318  44.4576662
   7.9227883  57.6112417  44.8013201   7.8026994  58.3795650  44.8974866
  14.8446406  51.9084214  52.5420181  14.3377271  51.2013353  52.4741359
  15.6413840  51.5777402  52.6721258  14.8873645  51.7557365  52.5519176
  10.7610422  58.4150826  48.4393845  10.5324115  58.4383527  47.5972203
  11.0208498  57.5908293  48.5588855  10.7656610  58.2966906  48.3319043
   5.0429650  60.2685299  58.0418945   4.5308553  59.6606482  58.4003977
   4.8709146  60.9841891  58.5092921   4.9419287  60.2848598  58.1635169
   3.8155184  56.9527372  49.7348041   4.2912550  57.3144452  49.0998222
   3.3143784  57.6083840  50.0148183   3.8120543  57.1021561  49.6824782
  17.0466546  66.4249140  45.5261046  17.4300152  67.1740496  45.7559143
  16.2510659  66.6714960  45.2673035  16.9860328  66.5718834  45.5218619
   8.9198720  58.1909544  60.4821201   9.4770151  57.9623353  59.8499666
   8.5959786  58.9515209  60.2056413   8.9545131  58.2693380  60.3477698
   6.6381838  61.2777197  61.4473208   7.3893165  61.5928874  61.7612762
   6.8304414  61.0756368  60.6207130   6.7773252  61.2944579  61.3716604
   5.8581837  59.0968572  43.1021425   6.2380802  59.1148201  42.3172539
   5.1174433  59.5422561  42.9812272   5.8050675  59.1650347  42.9684993
  13.4867128  57.4050763  48.6897003  13.4861354  57.2499420  49.5481280
  13.2823308  58.2513750  48.6338389  13.4566906  57.5071384  48.8084943
  11.2107980  62.0848265  52.3433210  11.7061645  61.3671260  52.3037230
  10.4007756  61.7819063  52.2287697  11.1651873  61.9345911  52.3206936
   6.6566591  65.9346078  44.4930215   5.8477914  65.6112752  44.4463524
   7.1641500  65.2279300  44.4258463   6.6116258  65.7827395  44.4760509
  13.2759799  64.8351952  55.0310339  13.7014870  64.3126374  54.4780764
  12.9116719  65.4332790  54.5098962  13.2846401  64.8462180  54.8719349
   9.8638398  68.5486217  51.3611496  10.3349576  69.2626479  51.5301482
  10.1998577  67.9484967  51.8971366   9.9833513  68.5657681  51.4643872
   6.7807893  53.3213687  58.3169591   6.9135799  52.5244681  58.6450567
   7.1653046  53.8480090  58.8967867   6.8564222  53.2813604  58.4513094
  10.5012345  68.3404151  58.1239189   9.9533291  67.7162035  57.8559254
  10.9625373  68.5298423  57.4083268  10.4879554  68.2763201  57.9789620
   9.8540248  50.2444013  54.9150684   9.0486212  50.1341743  55.2318523
   9.7246984  50.3456469  54.0580550   9.7160381  50.2427684  54.8358725
  13.3106209  56.4089505  55.5090381  12.7269198  56.9098712  55.0967949
  13.6310503  55.9019062  54.8754705  13.2719384  56.4081340  55.3548889
   5.8501008  55.3230100  45.7849056   6.6716702  55.4928413  45.5430751
   5.3870659  55.4777361  45.0615354   5.9032170  55.3711833  45.6420700
   4.4396340  53.3172862  56.5647485   4.9840753  52.9763989  57.1551827
   4.4933276  54.1758324  56.7068769   4.5285459  53.3928122  56.6729358
  10.0670671  69.3455224  54.6548530  10.8869045  69.2018190  54.9164825
   9.7864749  69.9701422  55.1964968  10.1467414  69.4165576  54.7736470
  16.4659793  70.9374792  51.3434720  16.1363123  71.3885936  50.6738419
  15.7904795  70.8590955  51.8907727  16.3170229  70.9925927  51.3257943
  23.6736201  66.9260315  49.5884331  23.3589642  67.6163793  50.0204753
  23.1563142  66.8705097  48.8869831  23.5500671  67.0195203  49.5481280
  14.6715747  68.9987080  46.8257668  15.4261715  69.3665397  46.5874718
  14.4943282  69.3726635  47.5936847  14.7570225  69.1085268  46.9042556
  27.9650646  75.1481521  54.8705207  27.1279067  75.2183708  55.1052802
  27.9338877  75.1506016  53.9979510  27.8368928  75.1591748  54.7764755
  13.0272812  71.4057399  43.5235781  12.8448385  71.6229280  42.6976774
  13.8898425  71.5196412  43.5794395  13.1277401  71.4547297  43.4090268
  18.7072531  68.4083810  46.5584805  19.4358691  68.2299765  46.1122961
  18.7967424  69.2501890  46.7691983  18.8279193  68.5067688  46.5238322
  25.6458486  70.2124302  53.4548930  26.2884394  70.2822407  54.0410845
  25.8981506  69.5453525  52.9528471  25.7780618  70.1250651  53.4676209
  20.8809768  71.3061274  51.1659883  20.1766095  70.8170460  51.3243802
  20.9294742  71.3183748  50.2948327  20.7839820  71.2350922  51.0599222
  28.0839988  74.9868940  49.1860893  27.8276553  74.1748881  48.9958776
  28.9269302  74.9946507  48.9591080  28.1706013  74.8680937  49.1245710
  22.2643080  68.9268564  53.9237047  22.6453592  68.2446735  54.3104921
  21.4606365  68.6378166  53.7412712  22.2019542  68.7835612  53.9541103
  16.2234921  71.4322762  63.7899656  15.9088362  72.2022325  63.5269218
  15.9024853  70.8693018  63.2051883  16.1293840  71.4633031  63.6641006
  13.7766818  69.8213284  49.4045852  12.9089243  69.8935883  49.4703461
  14.0642022  70.6235363  49.5933827  13.6906566  69.9507431  49.4420619
  22.8999706  69.9691143  57.7357174  23.6453298  69.7800953  57.3220599
  22.4837011  70.4949381  57.1771030  22.9484681  70.0193288  57.5921747
  30.2761977  77.3400371  52.6862679  30.8269899  76.7068440  52.9259771
  30.2606093  77.8715764  53.3778183  30.3547174  77.3249320  52.8241537
  23.9790383  75.5796705  51.7967275  23.6355149  74.8587040  52.1474525
  24.0783426  75.3710556  50.9545633  23.9432426  75.4420908  51.7238955
  22.4981349  73.4988290  53.6726818  21.6592449  73.5249569  53.4365081
  22.5685716  74.1459025  54.2532165  22.3849742  73.5984416  53.7235935
  20.9450627  70.3973667  48.4054434  21.6476980  70.1981415  47.9274392
  20.6794816  69.6249609  48.7123277  21.0097259  70.2536633  48.3799875
  15.7079183  71.6608952  57.4585314  15.5162380  71.6764087  58.3084738
  16.5577779  71.8572626  57.4351969  15.8054905  71.6923303  57.5808609
  18.6183410  71.8564461  57.6657138  19.0756025  72.5888436  57.7929930
  18.6939739  71.4330927  58.4244393  18.6974380  71.9021700  57.7958214
  23.0910736  65.0354337  51.5350981  23.2094304  65.4930800  50.8018283
  22.9172912  64.2299598  51.2487198  23.0829907  64.9848109  51.3851914
  20.6673571  73.7805203  57.4882300  20.8815541  73.1416118  56.9345654
  20.0507471  74.2251027  57.0590161  20.6078901  73.7515347  57.3432731
  22.8312659  75.3894269  58.4265607  22.0189341  75.0820159  58.5078779
  23.2902594  74.9093269  58.9908319  22.7793044  75.2730761  58.5220201
  20.0588300  66.8905139  52.4769642  19.1881858  66.8643860  52.4302952
  20.3128641  66.7182331  51.6595488  19.9681860  66.8615283  52.3489779
  17.0837441  68.9011367  53.9343113  16.5675929  68.2091559  54.0594692
  16.5231369  69.5682144  53.8805712  16.9243954  68.8974625  53.9449179
  19.1529674  69.4404327  55.7635965  18.7661427  69.4653359  56.5449495
  18.6662611  68.8746006  55.3110482  19.0242183  69.3600078  55.8123869
  18.8186816  66.3271313  58.0546225  19.4479934  66.8631613  57.7767296
  18.9872678  66.2348672  58.9059791  18.9364610  66.3932675  58.1394753
  18.6200731  71.1142508  60.3272637  19.4474160  70.8427657  60.3831251
  18.6408577  71.9103349  60.6836455  18.7453581  71.1922262  60.3887820
  22.3110734  68.8607201  51.0231527  22.5160328  68.7929509  51.8688524
  21.9837158  69.6666023  50.9552705  22.2925982  68.9693142  51.1391182
  25.5644422  69.4138966  50.5034293  24.9518736  69.9009368  50.8888024
  25.6608597  68.7382457  51.0471944  25.4882320  69.3857274  50.6413151
  19.5663503  71.1701807  45.6031792  20.0207249  71.3412367  46.3279636
  20.0403549  70.5569917  45.2029568  19.7031823  71.1052692  45.6505553
  18.8256098  69.6694600  51.7408661  17.9792143  69.8417408  51.6150010
  18.8227231  68.8643944  52.0774489  18.7003248  69.5755629  51.7719788
  19.8954399  73.4469814  52.6070718  19.4214353  72.9211577  53.1176029
  20.2672535  72.8999287  52.0385580  19.8804288  73.2885811  52.5985866
  21.8237898  74.3406369  45.6696472  21.2960917  74.4235113  44.9802181
  22.2833607  75.0824241  45.6661117  21.8139749  74.4627031  45.5671167
  28.1596316  75.2873647  51.9706758  27.9206086  75.2469482  51.1327543
  28.3230218  76.1344799  52.0972479  28.1486620  75.4065732  51.8660240
  20.8440263  68.0438154  57.4090340  20.3480825  68.2401828  56.7181907
  21.6009325  68.4430822  57.2379142  20.8827088  68.1315887  57.2810477
  18.1143143  71.7180499  53.9993651  18.1385630  71.1840612  53.3106431
  18.3654616  71.2097808  54.6619242  18.1553062  71.5641403  53.9958296
  14.3944465  70.4451318  53.3799395  14.4342837  70.9460524  54.0934103
  13.5694130  70.5361711  53.1105318  14.2783991  70.5333134  53.4449933
  13.6242612  70.4520720  61.3129705  14.2495315  69.9082853  61.5859137
  13.1693092  69.9715638  60.7437495  13.6490872  70.3010202  61.2691299
  15.7974078  72.0348505  43.5101431  16.1189919  71.5551588  42.8560693
  16.0601021  72.8448152  43.3192242  15.8840103  72.0838403  43.3856923
  21.1933233  71.4220699  55.8724910  21.6188304  70.9693226  55.2608436
  20.5790226  70.8680770  56.1489697  21.1661878  71.2734676  55.8229935
  19.6327455  67.8935799  49.2815487  18.9895773  67.7433446  49.8500625
  19.2926862  67.6478145  48.5164592  19.4872533  67.8347922  49.2518502
  24.3854929  72.3051110  51.6135869  24.7382539  71.8780833  52.2881667
  23.5269731  72.2201953  51.7436945  24.3104374  72.2295850  51.7330879
  25.8178989  67.4269522  52.5420181  25.3109854  66.7198661  52.4741359
  26.6146423  67.0962710  52.6721258  25.8606229  67.2742673  52.5519176
  21.7343005  73.9336134  48.4393845  21.5056698  73.9568835  47.5972203
  21.9941081  73.1093601  48.5588855  21.7389193  73.8152214  48.3319043
  24.4599711  72.9236071  48.6897003  24.4593938  72.7684728  49.5481280
  24.2555892  73.7699058  48.6338389  24.4299489  73.0256692  48.8084943
  17.7540477  68.8398995  58.3169591  17.8868382  68.0429989  58.6450567
  18.1385630  69.3665398  58.8967867  17.8296806  68.7998912  58.4513094
  20.8272832  65.7629321  54.9150684  20.0218796  65.6527051  55.2318523
  20.6979567  65.8641777  54.0580550  20.6892965  65.7612991  54.8358725
  24.2838793  71.9274813  55.5090381  23.7001781  72.4284020  55.0967949
  24.6043087  71.4204369  54.8754705  24.2451968  71.9266648  55.3548889
  16.8233592  70.8415408  45.7849056  17.6449286  71.0113721  45.5430751
  16.3603243  70.9962669  45.0615354  16.8764754  70.8897141  45.6420700
  15.4128924  68.8358170  56.5647485  15.9573337  68.4949297  57.1551827
  15.4665859  69.6943632  56.7068769  15.5018043  68.9113430  56.6729358
   4.2869978  22.9027591  34.5531453   4.2563982  23.7572227  34.7249723
   4.8851327  22.6022883  35.1117597   4.3707136  22.9844087  34.6606256
   0.7963379  28.2589767  48.9144840   1.5030147  27.7641798  49.0431774
   0.9851315  28.6998849  48.1847498   0.9291285  28.2508118  48.8253885
   2.1086553  25.4779893  32.8249763   1.9926078  26.2287579  33.2541901
   2.9042439  25.2203846  33.0745850   2.2091142  25.5514740  32.9253855
   1.4221858  12.8267830  36.5224378   1.1075299  13.5171309  36.9544800
   0.9048799  12.7712612  35.8209878   1.2986328  12.9202719  36.4821327
   6.2182344  28.4018636  38.0094833   5.3880047  28.6129279  38.1728249
   6.1691597  27.5755690  37.7337116   6.0889080  28.3108242  37.9932198
   5.7136303  21.0489036  41.8045254   4.8764724  21.1191223  42.0392848
   5.6824533  21.0513531  40.9319556   5.5854585  21.0599263  41.7104802
   0.4366488  25.2444713  37.3957145   1.1924003  25.6776227  37.4346054
   0.5428813  24.5949482  37.9691781   0.5636659  25.2122197  37.4855171
   3.4746659  29.0717990  38.1459548   3.0381891  29.0754732  38.9018520
   3.1409575  29.7523489  37.7139126   3.3609279  29.1730446  38.1940381
   3.3944142  16.1131818  40.3888976   4.0370051  16.1829922  40.9750892
   3.6467163  15.4461041  39.8868518   3.5266274  16.0258166  40.4016256
   6.6091006  25.7898910  37.0379186   7.2707440  25.2289578  36.9375094
   5.9682418  25.2950941  37.3631877   6.6119873  25.6335319  37.0711526
   2.8955836  26.8064292  36.7791174   3.1311426  26.9509491  35.9518025
   3.0445400  27.5706700  37.1722688   2.9521640  26.9403347  36.7154778
   4.7246293  25.6465958  34.6160778   5.0554510  26.1793598  34.0100873
   5.2979381  25.7004846  35.2722729   4.8579972  25.7335527  34.6238560
   5.8325645  20.8876455  36.1200940   5.5762209  20.0756397  35.9298823
   6.6754959  20.8954022  35.8931127   5.9191670  20.7688453  36.0585757
   3.5150804  28.0426051  45.9559492   3.2789441  27.2114116  45.8371553
   4.1594033  27.9911658  46.5414337   3.5745475  27.9123739  46.0245386
   4.5387225  27.8270500  42.0187787   4.2333042  28.5598557  42.3801103
   3.8193440  27.4208429  41.7380573   4.3874567  27.8752233  42.0300924
  10.2389017  24.4663501  41.3456131  10.1713517  24.4859460  40.4758718
  10.2244679  25.3093828  41.5711802  10.2267773  24.5937235  41.2508608
   8.0247634  23.2407887  39.6202726   8.5755556  22.6075956  39.8599818
   8.0091749  23.7723280  40.3118230   8.1032830  23.2256835  39.7581584
   1.7276040  21.4804220  38.7307322   1.3840806  20.7594556  39.0814571
   1.8269083  21.2718072  37.8885680   1.6918083  21.3428424  38.6579002
   2.1889069  27.9429925  34.2731310   2.7547102  28.6023134  34.1889853
   1.5416973  28.2879623  34.7447712   2.1767826  28.0911866  34.3304066
   4.1224529  24.6063792  37.8928106   4.0358504  24.7619218  38.7462885
   3.6675009  25.2501867  37.5187512   4.0427786  24.7239547  37.9635213
   1.8898394  28.6357898  40.3040447   1.7512754  29.3338944  40.8089190
   1.1098392  28.4806555  39.9476629   1.7541621  28.7158065  40.3266721
   3.3851767  27.9936152  31.0656946   3.0058576  27.2073290  31.0586236
   2.7218013  28.5423009  30.9228591   3.2310242  27.9580976  31.0437743
   1.6311866  30.2381643  31.4008632   1.7131703  31.0448629  31.0770083
   2.1161608  30.2577602  32.1249406   1.7149024  30.3602306  31.4595531
   1.1387066  28.9979061  51.4826958   1.9521932  28.7264210  51.6432091
   0.9782033  28.6986601  50.6787154   1.2357015  28.9133988  51.3872364
   1.1508310  30.0585352  46.7549799   1.7888031  29.5645547  46.4212255
   0.5082402  29.9862752  46.1702026   1.1502537  29.9744360  46.6192154
   2.8765310  21.9074498  41.3215714   2.4492918  21.8200846  40.5663814
   2.2391363  22.0152273  41.9070558   2.7194918  21.9107158  41.2961156
   1.2062567  30.7505160  43.3955156   1.9954945  30.3994225  43.5157237
   1.3806165  31.5641548  43.1331789   1.3482849  30.8191017  43.3743023
   3.3130079  15.3146481  37.4374339   2.7004392  15.8016883  37.8228071
   3.4094254  14.6389972  37.9811991   3.2367976  15.2864790  37.5753198
   6.9555107  26.3863418  42.8651855   7.0138230  26.8350067  43.6111832
   6.3221574  26.7962231  42.4281935   6.8706402  26.5137152  42.9104404
   3.9076786  24.4079705  40.9517546   3.6675009  23.5686121  40.9559972
   4.3868793  24.4879872  41.6758319   3.9428970  24.2961105  41.0592348
   5.9081973  21.1881163  38.9046805   5.6691743  21.1476997  38.0667590
   6.0715874  22.0352315  39.0312526   5.8972277  21.3073248  38.8000287
   2.5128003  25.5731112  44.8351850   3.2362202  25.1203638  44.6562870
   2.2477966  25.8535778  44.0524178   2.5809277  25.5482080  44.6930565
   4.9463317  24.5357523  43.3382400   5.5381158  25.1754774  43.3700598
   5.3822312  23.8380560  43.6274467   5.0981748  24.5275873  43.3863232
   1.9712459  21.7502741  35.6385542   1.3003649  22.2932444  35.5098608
   2.6652209  22.2197597  35.3967237   1.9741326  21.9001013  35.5841070
   2.1340586  18.2058625  38.5475916   2.4868196  17.7788348  39.2221714
   1.2755388  18.1209469  38.6776992   2.0590031  18.1303366  38.6670926
   3.5664646  13.3277037  39.4760228   3.0595511  12.6206176  39.4081406
   4.3632080  12.9970226  39.6061305   3.6091885  13.1750188  39.4859223
   5.7684786  27.8441964  32.4601092   6.1518392  28.5933320  32.6899189
   4.9728899  28.0907783  32.2013082   5.7078568  27.9911657  32.4558666
   2.2085368  18.8243586  35.6237050   2.2079595  18.6692243  36.4821326
   2.0041548  19.6706574  35.5678436   2.1785146  18.9264207  35.7424989
   1.9978039  26.2544776  41.9650386   2.4233111  25.7319198  41.4120811
   1.6334959  26.8525613  41.4439009   2.0064642  26.2655003  41.8059395
   0.6733623  31.5780353  50.4743615   0.7830589  30.7888914  50.8300362
   1.0024520  31.4886290  49.6717953   0.7386029  31.4486206  50.4086006
   2.0324449  17.8282329  42.4430428   1.4487438  18.3291535  42.0307995
   2.3528743  17.3211885  41.8094751   1.9937625  17.8274164  42.2888935
  15.2602562  38.4212899  34.5531453  15.2296566  39.2757535  34.7249723
  15.8583910  38.1208191  35.1117597  15.3439720  38.5029395  34.6606256
   8.4602246  37.5088550  39.3084384   7.6040142  37.6697048  39.3593501
   8.5069900  36.6380614  39.3289445   8.3401358  37.4039351  39.3190450
   2.8443386  47.0451267  35.0721615   2.0926286  46.6666806  34.8437660
   3.2929398  47.0769701  34.3240426   2.7993053  46.9936875  34.9279118
  11.7695963  43.7775075  48.9144840  12.4762730  43.2827106  49.0431774
  11.9583898  44.2184157  48.1847498  11.9023869  43.7693426  48.8253885
   8.2968346  47.4676637  30.5007162   7.9619715  48.1453559  30.0651385
   8.8095216  47.0781948  29.9124034   8.3233927  47.5101215  30.3493954
   7.8372637  49.4190906  36.4418274   8.2212017  49.9877804  35.9023049
   7.7731779  48.6940416  35.9624090   7.8846065  49.3966369  36.2912137
  11.3054067  39.5680593  41.9516035  11.8510028  40.2465680  42.0110005
  11.2470944  39.4268054  41.0917617  11.3769982  39.6472595  41.8328096
   4.4228142  47.0569660  37.3384388   4.5238505  46.2470014  37.6481516
   3.8269888  46.9626606  36.7084066   4.3500681  46.9234688  37.2910626
  13.0819136  40.9965201  32.8249763  12.9658662  41.7472887  33.2541901
  13.8775023  40.7389154  33.0745850  13.1823726  41.0700048  32.9253855
   4.2628882  51.9747249  38.7399244   4.9066337  52.4160413  39.1295402
   4.5885137  51.1700675  38.6529503   4.4060711  51.9212443  38.7844721
   4.9649462  44.9859224  34.1119106   5.2865303  45.5264431  33.5080414
   5.6121558  44.4155995  34.2441395   5.1075517  44.9818399  34.0426141
   7.0151170  36.9875219  34.1953492   7.7131334  37.1663346  34.6874956
   7.3303502  36.4645558  33.5723882   7.1646507  36.9368991  34.1755502
   7.2039105  43.3745664  34.1833284   7.6432741  42.7662764  34.6288057
   7.0543768  42.9953037  33.4118749   7.2460571  43.2284135  34.1352451
   4.6710748  41.9689675  41.3852109   5.3159751  41.4762119  41.0663058
   4.9112525  42.1114462  42.2118188   4.8021333  41.9167118  41.4601642
   7.2096839  44.8144581  41.0359002   7.4920082  44.0195987  40.8145758
   7.9383000  45.2925169  41.0564063   7.3586403  44.7679178  41.0062017
   5.1878033  32.3567615  38.2774767   4.8581363  32.8078759  37.6078466
   4.5123035  32.2783779  38.8247773   5.0388470  32.4118750  38.2597990
  10.8048442  41.7272845  31.1364053  10.7199737  42.5833812  31.2813622
  11.2932825  41.4517169  31.8046212  10.8637339  41.8130166  31.2566135
  12.3954441  28.3453138  36.5224378  12.0807882  29.0356617  36.9544800
  11.8781383  28.2897920  35.8209878  12.2718912  28.4388027  36.4821327
  11.7366875  38.3457639  32.6361788  11.2078346  38.5617273  33.2959094
  12.2591895  39.0393778  32.5562758  11.7355328  38.4800776  32.7217387
  17.1914928  43.9203943  38.0094833  16.3612631  44.1314587  38.1728249
  17.1424180  43.0940998  37.7337116  17.0621663  43.8293550  37.9932198
   3.6266483  42.2420856  31.4369256   3.0423698  42.7470887  31.8435120
   3.2236578  42.0163243  30.6965848   3.4805787  42.2829104  31.3874281
   5.2524665  46.7507798  40.8442742   4.7351607  46.3915213  40.2404050
   5.9499057  46.2269972  40.8548808   5.2790247  46.6205486  40.7573001
   8.9088257  47.2002612  46.8058915   8.9971603  47.0128752  47.6537126
   9.3377970  46.5540041  46.4063762   8.9850360  47.0765619  46.8730667
   6.4758717  46.4833772  45.7876577   5.9129552  46.0706381  46.3116239
   7.2379741  46.4086677  46.2069721   6.5053166  46.4111172  45.9269578
   8.0843697  38.4886508  29.9138177   8.3239701  38.6964492  29.1013520
   8.4059538  37.6844017  30.0227121   8.1680855  38.4000609  29.8098730
   3.3933987  30.4179904  33.7597715   4.1479955  30.7858221  33.5214765
   3.2161522  30.7919458  34.5276894   3.4788466  30.5278092  33.8382603
   2.0354709  48.4731793  38.3913207   2.7375288  47.9583782  38.4485964
   1.9552192  48.8005944  39.1960083   2.1278469  48.4446019  38.5186000
  16.6868886  36.5674344  41.8045254  15.8497307  36.6376531  42.0392848
  16.6557117  36.5698839  40.9319556  16.5587169  36.5784571  41.7104802
   3.0833615  38.7107380  47.5193623   3.2554119  38.6013274  48.3678904
   3.6202973  39.3561785  47.2824815   3.1878619  38.7899381  47.6098719
   1.7491052  32.8250223  30.4575828   1.5666625  33.0422103  29.6316820
   2.6116665  32.9389235  30.5134442   1.8495642  32.8740121  30.3430315
   1.3605484  44.6638145  37.8998816   2.1994383  44.8961078  37.9472577
   1.3917253  43.7942456  37.8305851   1.4887202  44.5695091  37.8963460
   1.9858187  45.0839020  42.2012121   2.5256412  44.9410151  42.8715493
   1.3028133  45.4835771  42.5696147   1.9650341  45.1218691  42.3546543
   7.4290771  29.8276633  33.4924851   8.1576932  29.6492588  33.0463008
   7.5185664  30.6694713  33.7032030   7.5497433  29.9260512  33.4578369
  11.4099072  40.7630021  37.3957145  12.1656587  41.1961535  37.4346054
  11.5161396  40.1134790  37.9691781  11.5369242  40.7307505  37.4855171
  14.4479243  44.5903298  38.1459548  14.0114475  44.5940040  38.9018520
  14.1142158  45.2708797  37.7139126  14.3341863  44.6915754  38.1940381
   9.0208317  46.6311631  49.4702699   9.8048733  46.7442479  49.8358441
   8.8204911  45.8052768  49.6661385   9.1074342  46.5258350  49.5537085
  14.3676726  31.6317126  40.3888976  15.0102634  31.7015230  40.9750892
  14.6199747  30.9646349  39.8868518  14.4998858  31.5443474  40.4016256
   2.1393938  34.8417689  45.0013550   1.4465735  34.3714669  45.2474282
   2.7554266  34.6155994  45.5755257   2.1278468  34.7384821  45.1222703
   9.1778710  48.5421733  43.1169154   8.3793956  48.3021233  43.3743023
   9.6264721  48.5936126  43.8636202   9.1253321  48.5144124  43.2654079
   8.4700397  44.6054349  29.3460109   8.8851545  44.2739373  28.6544605
   7.6392327  44.3723251  29.2180246   8.4088406  44.5225605  29.2250956
  13.8688420  42.3249600  36.7791174  14.1044009  42.4694799  35.9518025
  14.0177984  43.0892008  37.1722688  13.9254223  42.4588655  36.7154778
   0.8634497  38.8083093  46.1440396   1.5874470  38.7936124  46.6305290
   0.9650634  39.5178448  45.6462364   0.9852706  38.9107796  46.1419182
  15.6978877  41.1651266  34.6160778  16.0287094  41.6978906  34.0100873
  16.2711965  41.2190154  35.2722729  15.8312556  41.2520835  34.6238560
   8.2379447  42.2882178  51.0089343   7.4452428  42.6025690  51.1941962
   8.3528374  42.5033646  50.1710127   8.1374857  42.3666014  50.9127677
  10.9110766  39.0116169  35.2984358  11.0057620  39.7505463  35.7523984
  10.2869609  38.5833644  35.7318923  10.8319796  39.0577489  35.4292506
   9.1663240  42.1902381  45.9474639   9.7402101  41.5529626  46.1023203
   9.0878043  42.1906464  45.0784297   9.2396474  42.0967493  45.8421050
  11.1633787  40.8564909  28.5321310  11.0813950  40.9267096  29.3976297
  11.8013508  41.4194653  28.3405051  11.2453624  40.9503880  28.6311260
   4.5226958  40.6225647  37.9995837   4.2646203  39.7897381  37.9727136
   4.5775441  40.8483260  37.1588337   4.4926736  40.5323418  37.8715973
   9.6028008  32.7254097  38.0999929   8.8984335  32.2363283  38.2583848
   9.6512983  32.7376572  37.2288374   9.5058060  32.6543745  37.9939269
   3.4961670  38.1763409  38.4860731   2.9211262  38.3355577  39.1224692
   3.1197347  37.5398818  38.0229182   3.3564483  38.1061222  38.5115290
   7.1634959  36.6486758  43.3453110   6.7749392  36.2240976  42.6905301
   6.4989657  36.8968908  43.8530136   7.0081887  36.6225479  43.3240978
  16.8058228  36.4061763  36.1200940  16.5494793  35.5941705  35.9298823
  17.6487542  36.4139330  35.8931127  16.8924254  36.2873760  36.0585757
  10.9861321  30.3461387  40.8577094  11.3671832  29.6639558  41.2444968
  10.1824605  30.0570989  40.6752759  10.9237782  30.2028436  40.8881150
   8.2673897  40.8785363  31.5429917   9.0814536  41.1700256  31.4312688
   8.2033039  40.2245225  30.9688210   8.3776636  40.8250558  31.4418754
  14.4883387  43.5611359  45.9559492  14.2522025  42.7299424  45.8371553
  15.1326616  43.5096966  46.5414337  14.5478058  43.4309047  46.0245386
   4.1381806  44.3506880  36.6702229   4.7755752  44.1118628  37.2154022
   4.5636877  44.5544039  35.9355389   4.2957972  44.3457891  36.6419386
   4.7784621  39.5709170  31.0077118   5.1629773  39.3516877  31.7593663
   4.5296241  40.3972116  31.1378195   4.7986693  39.6607316  31.1378195
   4.9453161  32.8515585  50.7239703   4.6306602  33.6215148  50.4609265
   4.6243094  32.2885841  50.1391929   4.8512080  32.8825854  50.5981052
  15.5119808  43.3455808  42.0187787  15.2065625  44.0783865  42.3801103
  14.7926024  42.9393737  41.7380573  15.3607150  43.3937541  42.0300924
   6.5203278  44.8279303  38.3496015   6.5942286  44.6654475  39.2037865
   7.3372784  45.0169493  38.1056497   6.6519636  44.8316045  38.4394041
   2.4985058  31.2406107  36.3385899   1.6307483  31.3128706  36.4043508
   2.7860262  32.0428186  36.5273874   2.4124806  31.3700254  36.3760665
  11.6217947  31.3883966  44.6697221  12.3671539  31.1993777  44.2560646
  11.2055251  31.9142204  44.1111077  11.6702921  31.4386112  44.5261794
   5.0607863  47.7914046  33.0809489   5.3506162  47.4003027  32.3568715
   5.7911344  47.9730751  33.5214764   5.2114747  47.7607860  33.0392296
   5.6502608  42.5931792  44.1662619   5.1514302  43.3047560  44.2447507
   6.4602833  42.9132459  44.1280781   5.6958715  42.7458641  44.1719188
   3.0013779  49.7681428  36.1469638   2.7814074  49.4778783  36.9396305
   2.7808301  49.1096384  35.6187551   2.9361373  49.6281137  36.1858547
   1.9130726  41.8554745  38.4125340   1.6243975  41.2292216  38.9471067
   2.7814074  41.7975032  38.4790020   1.9990978  41.7542289  38.5016295
  12.7008624  36.9989528  38.7307322  12.3573390  36.2779864  39.0814571
  12.8001666  36.7903380  37.8885680  12.6650667  36.8613732  38.6579002
   5.1681735  51.1410818  34.9300331   5.8205793  50.6087261  35.1591357
   4.4707343  50.7879471  35.3168205   5.1612452  51.0100341  35.0212498
   2.1162999  43.4949996  34.3367705   2.8708967  43.8763035  34.5503168
   1.5233612  43.9461140  34.7914402   2.1399713  43.6178823  34.4350583
  13.1621653  43.4615232  34.2731310  13.7279686  44.1208442  34.1889853
  12.5149556  43.8064931  34.7447712  13.1500409  43.6097174  34.3304066
   4.5769666  35.4512836  49.4624917   3.7669442  35.7570616  49.3514760
   5.0544353  36.1718419  49.5777501   4.5273145  35.6027438  49.4631988
   3.4361226  44.6658557  39.7107820   2.9141980  44.8058849  40.3959685
   3.8235246  43.9069222  39.9009938   3.4164927  44.5744081  39.8408897
   9.6328231  46.4054017  33.6968389   9.3914907  45.6721877  33.2895454
   9.8129564  46.9540874  33.0434722   9.6235855  46.3776408  33.5398612
   4.8627552  41.6962576  35.1089311   4.6670334  42.3037311  34.5149614
   5.0861897  41.0030520  34.6280985   4.8662193  41.6840102  34.9505392
   3.2606082  38.5817314  35.2270180   3.9828734  38.7458472  34.7673986
   2.7814074  39.3026979  35.1209520   3.2969812  38.7115544  35.1435794
  11.2199589  34.9181113  40.6066865  10.3810690  34.9442392  40.3705128
  11.2903956  35.5651849  41.1872211  11.1067983  35.0177239  40.6575982
   0.9113698  40.9875387  44.3324320   1.4234795  41.2659640  43.6833079
   0.6250041  41.7264681  44.6987133   0.9448561  41.1377740  44.2914198
   9.6668867  31.8166490  35.3394481  10.3695220  31.6174238  34.8614439
   9.4013056  31.0442433  35.6463324   9.7315500  31.6729456  35.3139922
  15.0957113  40.1249100  37.8928106  15.0091088  40.2804526  38.7462885
  14.6407593  40.7687175  37.5187512  15.0160370  40.2424855  37.9635213
   4.4297424  33.0801775  44.3925361   4.2380621  33.0956910  45.2424785
   5.2796020  33.2765450  44.3692016   4.5273146  33.1116127  44.5148656
   8.9682929  37.4459847  36.5153666   8.7217643  37.3655598  37.3490455
   9.2968052  36.6613315  36.3216193   8.9804173  37.3186112  36.6101189
  12.8630978  44.1543206  40.3040447  12.7245337  44.8524252  40.8089190
  12.0830976  43.9991863  39.9476629  12.7274205  44.2343373  40.3266721
  11.2009063  40.4539582  46.5562829  11.1957102  39.5819398  46.5605255
  11.9070057  40.6527751  46.0832285  11.3054067  40.3543456  46.4869864
   4.9279956  40.1816566  45.9276649   5.0723332  40.7617774  45.2919759
   5.2755605  40.5592862  46.6326504   5.0007418  40.3237270  45.9375644
   7.0999874  39.3806734  43.7101781   6.3523188  39.5737748  43.3050059
   7.2541399  38.5551954  43.4725902   7.0122301  39.2871845  43.6147187
   4.0007711  48.3719337  42.7937676   4.1497275  47.8122253  42.1411080
   4.7807713  48.4511339  43.1770195   4.1381805  48.3004903  42.7534625
  14.3584351  43.5121460  31.0656946  13.9791159  42.7258598  31.0586236
  13.6950596  44.0608317  30.9228591  14.2042826  43.4766284  31.0437743
   6.5261012  48.5433980  44.0722167   6.4504683  47.8742791  44.6272955
   6.4550871  49.2451768  44.5862833   6.5041619  48.5478888  44.2299015
   7.3401651  33.2757285  44.5997184   7.7974265  34.0081259  44.7269977
   7.4157980  32.8523750  45.3584440   7.4192621  33.3214523  44.7298261
  11.8128977  26.4547160  38.4691027  11.9312545  26.9123623  37.7358330
  11.6391152  25.6492421  38.1827245  11.8048148  26.4040932  38.3191961
   7.1831259  47.0634979  34.9045773   7.9481150  46.7944623  34.5828437
   7.0809349  46.5784990  35.6215835   7.2812754  46.9524544  34.9625600
   5.2184029  35.2659389  41.4439008   4.4280103  35.0850849  41.7656344
   5.6144652  34.4886341  41.4269303   5.1600905  35.1246850  41.4891557
   9.7049919  44.0947163  26.8845722  10.4722905  44.1547288  26.4751574
   9.2581228  43.5227604  26.4002041   9.7523347  44.0183739  26.7523432
  10.6027715  42.9001819  39.1698454   9.9272717  42.6687051  39.6711841
  10.6120091  42.2923002  38.5440559  10.5046220  42.7760744  39.1514607
   7.7321859  37.7419648  45.9262507   7.6681000  38.6029604  45.7982644
   7.8719047  37.4251641  45.1258059   7.7437329  37.8219814  45.7890720
  12.6044450  45.7566951  31.4008632  12.6864287  46.5633937  31.0770083
  13.0894192  45.7762910  32.1249406  12.6881607  45.8787614  31.4595531
   6.4140953  40.4351787  40.0678710   5.9903202  40.6356286  39.3317729
   6.2385808  39.5880635  40.1803010   6.3251833  40.3400569  39.9752400
   5.9152646  51.9502300  42.5300168   6.4048577  51.2513089  42.3475832
   5.3436879  51.6526170  43.1176225   5.9037176  51.8028524  42.5901208
   1.7023398  40.9303839  35.5006683   1.8588017  40.8650641  36.3562675
   2.0423991  41.7052391  35.2885362   1.7756633  41.0353037  35.5961277
   8.2402542  40.3061722  34.3700046   8.7818088  39.8032103  34.8338667
   8.5549101  40.2526917  33.5589531   8.3666940  40.2241143  34.3183858
  12.1119650  44.5164369  51.4826958  12.9254515  44.2449518  51.6432091
  11.9514616  44.2171909  50.6787154  12.2089598  44.4319295  51.3872364
   6.4088992  45.6979074  31.6540074   6.4781812  44.8393612  31.7933074
   7.1877447  45.9150955  31.3259099   6.5341842  45.6031938  31.6257231
   9.3891812  35.1998027  44.4222346   9.6033781  34.5608941  43.8685700
   8.7725711  35.6443850  43.9930208   9.3297141  35.1708170  44.2772778
  10.7996480  48.1216775  35.8676567  10.4076271  47.8183490  35.1499433
  10.9549552  48.9585865  35.6781521  10.7650070  48.2000612  35.7333064
  11.5530900  36.8087092  45.3605654  10.7407582  36.5012982  45.4418826
  12.0120834  36.3286092  45.9248366  11.5011285  36.6923584  45.4560248
  10.9636154  44.6866764  35.8082598  10.6050809  44.8581407  36.5846630
  10.4774865  45.1479969  35.2510596  10.8394851  44.7805735  35.8407867
   8.7806540  28.3097962  39.4109689   7.9100098  28.2836683  39.3642999
   9.0346882  28.1375154  38.5935535   8.6900101  28.2808106  39.2829826
   5.7524520  40.3665929  28.3482832   6.0417045  41.1430812  28.6226407
   5.8396319  39.8554661  29.0497332   5.8078776  40.4057848  28.4925330
   8.6484407  38.2147163  50.1434356   9.1184038  38.8389280  50.5302230
   8.6946287  37.5464139  50.7027571   8.7252283  38.2081844  50.2834427
   5.8055681  30.3204191  40.8683160   5.2894170  29.6284382  40.9934739
   5.2449610  30.9874968  40.8145758   5.6462194  30.3167448  40.8789226
   7.8747914  30.8597151  42.6976012   7.4879668  30.8846182  43.4789542
   7.3880852  30.2938829  42.2450529   7.7460423  30.7792902  42.7463916
  12.1240894  45.5770660  46.7549799  12.7620614  45.0830855  46.4212255
  11.4814985  45.5048060  46.1702026  12.1235120  45.4929668  46.6192154
  13.8497894  37.4259806  41.3215714  13.4225502  37.3386154  40.5663814
  13.2123947  37.5337581  41.9070558  13.6927501  37.4292466  41.2961156
   7.5405056  27.7464136  44.9886272   8.1698174  28.2824436  44.7107342
   7.7090919  27.6541495  45.8399838   7.6582851  27.8125498  45.0734800
   7.3418971  32.5335331  47.2612684   8.1692400  32.2620480  47.3171298
   7.3626817  33.3296173  47.6176502   7.4671821  32.6115085  47.3227867
  12.1795150  46.2690468  43.3955156  12.9687529  45.9179533  43.5157237
  12.3538748  47.0826856  43.1331789  12.3215432  46.3376325  43.3743023
   1.9188461  39.6799194  40.4482944   1.0776467  39.5803068  40.6561838
   2.1278469  40.4494674  40.7997265   1.8253153  39.7791237  40.5310259
  11.0328975  30.2800025  37.9571574  11.2378568  30.2122333  38.8028571
  10.7055399  31.0858846  37.8892751  11.0144222  30.3885965  38.0731229
   5.7305126  37.6080593  39.6980542   5.4268263  37.0536581  40.2990950
   5.0284546  37.7872803  39.2108576   5.5821336  37.5525375  39.7150248
   4.7871223  34.9181113  34.2625244   5.0630957  34.2000025  33.8502811
   5.3869892  35.5166033  34.0546350   4.9164487  34.9001483  34.1706005
   3.7923477  44.8230314  44.4052640   3.6843832  44.8332376  45.2714698
   4.0019258  45.6485094  44.2157593   3.8073588  44.9471388  44.5056731
  14.2862662  30.8331789  37.4374339  13.6736976  31.3202191  37.8228071
  14.3826837  30.1575280  37.9811991  14.2100560  30.8050098  37.5753198
   8.2881743  32.5894630  32.5371839   8.7425490  32.7605190  33.2619683
   8.7621789  31.9762741  32.1369614   8.4250063  32.5245515  32.5845600
   1.8097269  42.0742956  41.8674577   1.2185202  42.7152454  41.8377592
   2.5718292  42.4980573  41.8405877   1.8345529  42.2318794  41.8589724
   2.2057892  33.2344954  42.5342595   2.6659373  33.3083883  43.2717719
   2.2513998  34.0326208  42.1842416   2.2808447  33.3639101  42.5915351
   3.8541241  33.9011649  47.1014622   3.4626806  33.2544996  47.5370400
   4.0227104  34.4923084  47.7208877   3.8212152  33.8925917  47.2577328
  17.9287690  41.9048726  42.8651855  17.9870814  42.3535374  43.6111832
  17.2954158  42.3147539  42.4281935  17.8438985  42.0322460  42.9104404
  11.5686785  47.5252268  39.3006602  11.3706474  48.0143082  38.6062813
  10.9474496  47.7293509  39.8790735  11.4474349  47.6268806  39.2829825
   5.6294763  39.2937164  33.6416846   6.3736808  39.6811441  33.8799796
   5.7755459  38.4494590  33.8057334   5.7605348  39.2267637  33.7010816
   7.5474339  31.0887423  38.6748707   6.7010384  31.2610231  38.5490057
   7.5445471  30.2836767  39.0114536   7.4221489  30.9948452  38.7059834
   8.6172639  34.8662638  39.5410765   8.1432593  34.3404400  40.0516076
   8.9890775  34.3192111  38.9725627   8.6022528  34.7078634  39.5325912
  14.8809370  39.9265013  40.9517546  14.6407593  39.0871429  40.9559972
  15.3601377  40.0065180  41.6758319  14.9161553  39.8146413  41.0592348
  10.5456139  35.7599192  32.6036519  10.0179157  35.8427936  31.9142228
  11.0051847  36.5017064  32.6001164  10.5357989  35.8819855  32.5011214
  16.8814557  36.7066471  38.9046805  16.6424327  36.6662305  38.0667590
  17.0448458  37.5537623  39.0312526  16.8704860  36.8258556  38.8000287
  13.4860587  41.0916420  44.8351850  14.2094786  40.6388946  44.6562870
  13.2210549  41.3721086  44.0524178  13.5541860  41.0667388  44.6930565
   2.3547455  35.6876593  41.5704729   1.7300525  35.6994985  40.9630682
   2.0193050  36.1636769  42.2195969   2.2132947  35.7595110  41.5761298
   2.5389204  34.0301712  27.6277414   2.1902008  34.6821437  28.0908964
   2.0585650  34.0158825  26.9001285   2.4159448  34.1244765  27.5888506
  10.0993221  44.3302756  31.7346176  10.8227420  44.7960869  31.5910749
   9.6593812  44.3976366  30.9843773  10.1408914  44.4086593  31.6030958
   9.2679376  41.1900298  42.9846865   8.6536369  40.6458348  43.2795500
   9.7846661  40.6764535  42.5052681   9.2535039  41.0336707  42.9571094
   8.5075674  42.2604568  40.7191164   8.0803282  41.6354287  40.2856599
   8.5000618  41.9779490  41.5450171   8.4434815  42.1257349  40.7770991
   1.6238201  37.2969741  43.7879598   1.7831687  36.5413065  44.1931320
   1.4431094  37.8460681  44.4420335   1.6203560  37.2663555  43.9442304
   9.5658504  29.4630977  44.3430387   9.0699065  29.6594651  43.6521954
  10.3227566  29.8623645  44.1719189   9.6045328  29.5508711  44.2150524
   6.8361383  33.1373323  40.9333698   6.8603870  32.6033435  40.2446478
   7.0872857  32.6290632  41.5959288   6.8771302  32.9834227  40.9298342
   3.1162705  31.8644141  40.3139442   3.1561077  32.3653348  41.0274149
   2.2912370  31.9554535  40.0445365   3.0002231  31.9525957  40.3789980
   5.2992318  41.4304881  48.4159737   4.4487949  41.5676595  48.5517382
   5.4620446  40.6968659  48.8607438   5.1976182  41.3418982  48.5015336
   4.5377069  38.3804651  42.6113341   3.7068999  38.5478469  42.4048589
   4.4828586  38.0040602  43.3962226   4.4066484  38.3494382  42.6961869
   2.3460852  31.8713544  48.2469752   2.9713556  31.3275677  48.5199184
   1.8911332  31.3908461  47.6777542   2.3709113  31.7203025  48.2031346
   2.9113113  36.6560242  33.1403459   3.0516074  37.1532707  33.8432100
   3.4095645  35.9546537  33.2817672   3.0054194  36.6262221  33.2655038
   2.9413335  37.5227353  30.4696036   3.5758415  38.1187778  30.4045497
   3.0238946  37.2230811  31.2841906   3.0469886  37.5668262  30.5799122
  15.9195901  40.0542831  43.3382400  16.5113741  40.6940081  43.3700598
  16.3554895  39.3565867  43.6274467  16.0714332  40.0461181  43.3863232
   4.5192318  33.4541329  30.4441478   4.8408159  32.9744411  29.7900740
   4.7819262  34.2640975  30.2532289   4.6058343  33.5031227  30.3196970
   7.7489291  44.4760203  43.9640294   7.2414382  45.0296050  44.4080924
   7.4515937  44.5368493  43.1459068   7.6294176  44.5666514  43.9088750
   9.9151473  32.8413523  42.8064957  10.3406544  32.3886049  42.1948483
   9.3008466  32.2873593  43.0829744   9.8880118  32.6927499  42.7569982
  10.3597071  48.3923461  31.8944237   9.6426381  48.2184323  31.4291475
  11.0103809  48.1576033  31.3619723  10.3498922  48.3319253  31.7473455
   8.3545696  29.3128623  36.2155534   7.7114014  29.1626269  36.7840672
   8.0145103  29.0670968  35.4504638   8.2090773  29.2540745  36.1858549
  12.9445042  37.2688049  35.6385542  12.2736232  37.8117752  35.5098608
  13.6384792  37.7382905  35.3967237  12.9473910  37.4186321  35.5841070
   6.9931776  49.4084761  40.8697301   6.7697430  48.6503591  41.2381327
   6.5041619  49.4382783  40.1477740   6.8875225  49.3006986  40.8174042
  13.1073170  33.7243933  38.5475916  13.4600780  33.2973656  39.2221714
  12.2487971  33.6394777  38.6776992  13.0322614  33.6488674  38.6670926
   1.8056855  36.3551453  36.6058762   1.0868844  36.7715585  36.8731626
   2.1769217  36.9205691  36.0550400   1.7548786  36.5000734  36.5641569
  11.1056436  36.9879302  42.4960758  11.0854363  36.8062597  43.3495537
  11.1535636  37.8591320  42.4720341  11.1091077  37.0895840  42.6184052
   9.0502765  43.5766494  48.4209234   9.0098620  42.9316171  47.8354390
   9.8626084  43.5203111  48.7334646   9.1645919  43.4725460  48.3806183
   5.6410233  49.6285219  38.3234385   5.2270632  48.9659350  37.9338227
   6.3257607  49.7763078  37.8030079   5.6808605  49.5525878  38.1890882
   9.0075527  48.7875305  39.0758002   8.6091810  48.8977575  38.3078822
   8.3926747  48.9957371  39.6584562   8.8574416  48.8348873  39.0489301
   7.5803429  35.3949453  31.9432142   6.9868268  35.7166449  31.3916709
   7.6178707  34.5490548  31.7353248   7.4977818  35.3173781  31.8314913
  14.5397230  28.8462345  39.4760228  14.0328094  28.1391484  39.4081406
  15.3364664  28.5155534  39.6061305  14.5824469  28.6935496  39.4859223
  10.4561246  35.3528957  35.3733892  10.2274939  35.3761659  34.5312250
  10.7159322  34.5286424  35.4928902  10.4607434  35.2345037  35.2659089
   4.7380474  37.2063430  44.9758992   4.2259377  36.5984613  45.3344023
   4.5659970  37.9220023  45.4432968   4.6370111  37.2226729  45.0975216
   3.5106008  33.8905503  36.6688087   3.9863374  34.2522583  36.0338269
   3.0094608  34.5461971  36.9488230   3.5071367  34.0399692  36.6164828
  16.7417370  43.3627271  32.4601092  17.1250976  44.1118628  32.6899189
  15.9461483  43.6093091  32.2013082  16.6811152  43.5096965  32.4558666
   8.6149544  35.1287675  47.4161247   9.1720975  34.9001484  46.7839713
   8.2910609  35.8893340  47.1396460   8.6495955  35.2071511  47.2817745
   6.3332662  38.2155328  48.3813255   7.0843989  38.5307005  48.6952809
   6.5255238  38.0134499  47.5547176   6.4724076  38.2322710  48.3056650
   5.5532661  36.0346703  30.0361471   5.9331626  36.0526332  29.2512586
   4.8125257  36.4800692  29.9152319   5.5001499  36.1028478  29.9025040
  13.1817952  34.3428894  35.6237050  13.1812178  34.1877551  36.4821326
  12.9774132  35.1891881  35.5678436  13.1517730  34.4449515  35.7424989
  10.9058804  39.0226396  39.2773257  11.4012469  38.3049391  39.2377277
  10.0958580  38.7197194  39.1627744  10.8602697  38.8724042  39.2546983
   6.3517415  42.8724209  31.4270261   5.5428738  42.5490883  31.3803571
   6.8592324  42.1657432  31.3598510   6.3067082  42.7205526  31.4100556
  12.9710623  41.7730084  41.9650386  13.3965694  41.2504506  41.4120811
  12.6067543  42.3710921  41.4439009  12.9797225  41.7840311  41.8059395
   2.6064703  50.0694301  40.7247731   2.9211262  50.8830690  40.7325513
   3.0158116  49.6844520  41.3929890   2.7132801  50.1323004  40.8251823
   9.5589222  45.4864348  38.2951543  10.0300400  46.2004611  38.4641528
   9.8949401  44.8863098  38.8311413   9.6784337  45.5035812  38.3983919
  11.6466207  47.0965661  50.4743615  11.7563172  46.3074222  50.8300362
  11.9757103  47.0071598  49.6717953  11.7118613  46.9671514  50.4086006
   6.4758717  30.2591819  45.2509638   6.6086623  29.4622812  45.5790614
   6.8603870  30.7858222  45.8307914   6.5515046  30.2191735  45.3853141
  10.1963169  45.2782282  45.0579236   9.6484114  44.6540166  44.7899301
  10.6576197  45.4676554  44.3423315  10.1830378  45.2141332  44.9129667
   9.5491072  27.1822145  41.8490731   8.7437036  27.0719874  42.1658570
   9.4197808  27.2834600  40.9920597   9.4111205  27.1805815  41.7698772
  13.0057033  33.3467637  42.4430428  12.4220022  33.8476843  42.0307995
  13.3261327  32.8397193  41.8094751  12.9670208  33.3459472  42.2888935
   5.5451832  32.2608231  32.7189103   6.3667526  32.4306544  32.4770798
   5.0821483  32.4155492  31.9955400   5.5982994  32.3089964  32.5760747
   4.1347164  30.2550994  43.4987532   4.6791577  29.9142120  44.0891873
   4.1884100  31.1136455  43.6408816   4.2236283  30.3306253  43.6069405
   9.7621495  46.2833355  41.5888577  10.5819869  46.1396321  41.8504872
   9.4815572  46.9079554  42.1305015   9.8418238  46.3543707  41.7076516
  19.4334830  53.0273857  39.3084384  18.5772726  53.1882356  39.3593501
  19.4802484  52.1565921  39.3289445  19.3133941  52.9224659  39.3190450
  13.8175970  62.5636575  35.0721615  13.0658869  62.1852114  34.8437660
  14.2661981  62.5955009  34.3240426  13.7725637  62.5122183  34.9279118
  22.7428547  59.2960383  48.9144840  23.4495314  58.8012414  49.0431774
  22.9316482  59.7369465  48.1847498  22.8756452  59.2878733  48.8253885
  19.2700930  62.9861945  30.5007162  18.9352298  63.6638866  30.0651385
  19.7827800  62.5967256  29.9124034  19.2966511  63.0286523  30.3493954
  18.8105221  64.9376214  36.4418274  19.1944600  65.5063112  35.9023049
  18.7464362  64.2125724  35.9624090  18.8578648  64.9151677  36.2912137
  22.2786651  55.0865901  41.9516035  22.8242611  55.7650988  42.0110005
  22.2203527  54.9453362  41.0917617  22.3502565  55.1657903  41.8328096
  15.3960726  62.5754968  37.3384388  15.4971089  61.7655321  37.6481516
  14.8002471  62.4811914  36.7084066  15.3233265  62.4419996  37.2910626
  24.0551720  56.5150508  32.8249763  23.9391246  57.2658195  33.2541901
  24.8507606  56.2574462  33.0745850  24.1556309  56.5885355  32.9253855
  15.2361466  67.4932557  38.7399244  15.8798921  67.9345721  39.1295402
  15.5617721  66.6885983  38.6529503  15.3793294  67.4397751  38.7844721
   8.5925770  58.5975254  36.9636722   8.3575955  57.7642906  36.8568990
   8.7311411  58.8779920  36.1497922   8.5781433  58.5158757  36.8279077
  10.8915858  50.7660985  39.8621029  10.2720889  50.1753632  39.6931044
  10.7899721  51.3572420  39.2285352  10.7853533  50.7665067  39.7426019
  15.9382045  60.5044532  34.1119106  16.2597886  61.0449739  33.5080414
  16.5854142  59.9341303  34.2441395  16.0808100  60.5003707  34.0426141
  17.9883753  52.5060526  34.1953492  18.6863918  52.6848654  34.6874956
  18.3036086  51.9830866  33.5723882  18.1379090  52.4554299  34.1755502
  10.6184991  54.3113266  42.1064598  10.4943688  54.8975712  42.7414417
  11.2703275  53.8173462  42.4076873  10.6958640  54.3252071  42.2450527
  18.1771689  58.8930972  34.1833284  18.6165324  58.2848072  34.6288057
  18.0276352  58.5138345  33.4118749  18.2193154  58.7469443  34.1352451
  15.6443332  57.4874983  41.3852109  16.2892334  56.9947426  41.0663058
  15.8845109  57.6299770  42.2118188  15.7753917  57.4352426  41.4601642
  18.1829423  60.3329889  41.0359002  18.4652666  59.5381295  40.8145758
  18.9115583  60.8110477  41.0564063  18.3318987  60.2864486  41.0062017
  16.1610617  47.8752923  38.2774767  15.8313947  48.3264067  37.6078466
  15.4855619  47.7969086  38.8247773  16.0121053  47.9304058  38.2597990
  21.7781025  57.2458153  31.1364053  21.6932320  58.1019119  31.2813622
  22.2665408  56.9702477  31.8046212  21.8369923  57.3315474  31.2566135
  22.7099458  53.8642947  32.6361788  22.1810930  54.0802580  33.2959094
  23.2324478  54.5579085  32.5562758  22.7087911  53.9986084  32.7217387
  14.5999066  57.7606164  31.4369256  14.0156281  58.2656195  31.8435120
  14.1969161  57.5348551  30.6965848  14.4538370  57.8014412  31.3874281
  10.1543095  63.4760925  38.2392928   9.6710673  64.2011415  38.2152511
  10.9666413  63.7737055  38.3503085  10.2033843  63.6263279  38.2520207
  16.2257249  62.2693106  40.8442742  15.7084191  61.9100521  40.2404050
  16.9231640  61.7455280  40.8548808  16.2522830  62.1390794  40.7573001
  19.8820841  62.7187920  46.8058915  19.9704187  62.5314060  47.6537126
  20.3110553  62.0725349  46.4063762  19.9582943  62.5950927  46.8730667
  17.4491301  62.0019080  45.7876577  16.8862136  61.5891689  46.3116239
  18.2112324  61.9271985  46.2069721  17.4785749  61.9296480  45.9269578
  19.0576281  54.0071816  29.9138177  19.2972284  54.2149800  29.1013520
  19.3792122  53.2029325  30.0227121  19.1413439  53.9185917  29.8098730
  14.3666571  45.9365212  33.7597715  15.1212539  46.3043529  33.5214765
  14.1894106  46.3104766  34.5276894  14.4521049  46.0463399  33.8382603
  13.0087292  63.9917101  38.3913207  13.7107871  63.4769090  38.4485964
  12.9284775  64.3191252  39.1960083  13.1011053  63.9631327  38.5186000
  27.6601470  52.0859652  41.8045254  26.8229891  52.1561839  42.0392848
  27.6289701  52.0884147  40.9319556  27.5319752  52.0969879  41.7104802
  14.0566199  54.2292688  47.5193623  14.2286702  54.1198582  48.3678904
  14.5935556  54.8747093  47.2824815  14.1611203  54.3084689  47.6098719
  12.7223636  48.3435531  30.4575828  12.5399209  48.5607411  29.6316820
  13.5849249  48.4574543  30.5134442  12.8228225  48.3925428  30.3430315
  12.3338068  60.1823453  37.8998816  13.1726967  60.4146386  37.9472577
  12.3649837  59.3127764  37.8305851  12.4619785  60.0880399  37.8963460
  12.9590771  60.6024328  42.2012121  13.4988996  60.4595459  42.8715493
  12.2760717  61.0021079  42.5696147  12.9382924  60.6403999  42.3546543
  18.4023355  45.3461941  33.4924851  19.1309515  45.1677896  33.0463008
  18.4918248  46.1880021  33.7032030  18.5230017  45.4445820  33.4578369
  22.3831655  56.2815329  37.3957145  23.1389171  56.7146843  37.4346054
  22.4893980  55.6320098  37.9691781  22.5101826  56.2492812  37.4855171
  25.4211827  60.1088606  38.1459548  24.9847058  60.1125348  38.9018520
  25.0874742  60.7894105  37.7139126  25.3074447  60.2101062  38.1940381
  19.9940900  62.1496939  49.4702699  20.7781317  62.2627786  49.8358441
  19.7937495  61.3238076  49.6661385  20.0806926  62.0443658  49.5537085
   8.3627916  56.8224619  42.3546543   8.0966331  56.0063735  42.5137533
   8.3766480  56.8677774  41.4842058   8.3252638  56.7081524  42.2500025
  12.2685663  51.6209703  28.9698301  11.5543840  51.3347883  29.3820733
  12.7529631  51.9606329  29.6104688  12.2345026  51.6291353  29.1253936
  13.1126522  50.3602997  45.0013550  12.4198319  49.8899977  45.2474282
  13.7286849  50.1341302  45.5755257  13.1011052  50.2570129  45.1222703
  20.1511294  64.0607041  43.1169154  19.3526539  63.8206541  43.3743023
  20.5997305  64.1121434  43.8636202  20.0985905  64.0329432  43.2654079
  19.4432981  60.1239657  29.3460109  19.8584129  59.7924681  28.6544605
  18.6124910  59.8908559  29.2180246  19.3820989  60.0410913  29.2250956
   8.7721329  57.6083398  39.6358287   8.5896903  57.5830284  38.7830579
   9.5070998  58.0782336  39.6747196   8.8535393  57.6744760  39.5156205
  11.8367081  54.3268401  46.1440396  12.5607053  54.3121432  46.6305290
  11.9383218  55.0363756  45.6462364  11.9585290  54.4293104  46.1419182
  19.2112030  57.8067486  51.0089343  18.4185011  58.1210997  51.1941962
  19.3260958  58.0218954  50.1710127  19.1107441  57.8851322  50.9127677
  21.8843349  54.5301477  35.2984358  21.9790204  55.2690771  35.7523984
  21.2602193  54.1018952  35.7318923  21.8052379  54.5762797  35.4292506
  20.1395823  57.7087689  45.9474639  20.7134685  57.0714934  46.1023203
  20.0610627  57.7091772  45.0784297  20.2129058  57.6152801  45.8421050
   8.7392240  54.4876899  39.7857353   9.3165742  54.3513350  40.4249599
   8.0406301  54.0312683  40.0402938   8.7213261  54.3999165  39.9179643
  22.1366371  56.3750217  28.5321310  22.0546533  56.4452404  29.3976297
  22.7746091  56.9379960  28.3405051  22.2186208  56.4689188  28.6311260
  15.4959542  56.1410955  37.9995837  15.2378786  55.3082689  37.9727136
  15.5508025  56.3668567  37.1588337  15.4659320  56.0508726  37.8715973
  20.5760592  48.2439405  38.0999929  19.8716919  47.7548591  38.2583848
  20.6245566  48.2561880  37.2288374  20.4790644  48.1729053  37.9939269
  14.4694254  53.6948717  38.4860731  13.8943845  53.8540885  39.1224692
  14.0929930  53.0584126  38.0229182  14.3297066  53.6246530  38.5115290
  18.1367543  52.1672066  43.3453110  17.7481975  51.7426284  42.6905301
  17.4722241  52.4154216  43.8530136  17.9814470  52.1410787  43.3240978
   4.2151073  53.3388792  36.5005172   4.3011325  52.9620660  37.2818702
   4.8426870  52.9649237  36.0225130   4.3207624  53.2274274  36.5450649
  19.2406481  56.3970671  31.5429917  20.0547120  56.6885564  31.4312688
  19.1765622  55.7430533  30.9688210  19.3509220  56.3435866  31.4418754
  25.4615971  59.0796667  45.9559492  25.2254608  58.2484732  45.8371553
  26.1059200  59.0282274  46.5414337  25.5210642  58.9494355  46.0245386
  15.1114389  59.8692188  36.6702229  15.7488336  59.6303936  37.2154022
  15.5369461  60.0729347  35.9355389  15.2690555  59.8643199  36.6419386
   9.8027032  62.1080525  40.5536533   9.8431177  62.3795376  39.7256312
  10.3621556  62.6322433  40.9694321   9.8910377  62.2256280  40.4928421
  15.7517204  55.0894478  31.0077118  16.1362357  54.8702185  31.7593663
  15.5028824  55.9157423  31.1378195  15.7719277  55.1792624  31.1378195
  15.9185745  48.3700893  50.7239703  15.6039186  49.1400456  50.4609265
  15.5975677  47.8071149  50.1391929  15.8244664  48.4011162  50.5981052
  26.4852392  58.8641116  42.0187787  26.1798209  59.5969173  42.3801103
  25.7658607  58.4579045  41.7380573  26.3339734  58.9122849  42.0300924
  17.4935861  60.3464611  38.3496015  17.5674869  60.1839783  39.2037865
  18.3105367  60.5354800  38.1056497  17.6252220  60.3501353  38.4394041
  32.1854184  55.5034116  41.3456131  32.1178684  55.5230076  40.4758718
  32.1709846  56.3464444  41.5711802  32.1732940  55.6307851  41.2508608
  11.2541618  60.6922474  35.3790459  10.4279735  60.9384211  35.2524737
  11.3153609  60.6134555  36.2452517  11.1415785  60.7167423  35.4879403
  13.4717642  46.7591415  36.3385899  12.6040067  46.8314014  36.4043508
  13.7592846  47.5613494  36.5273874  13.3857390  46.8885562  36.3760665
  22.5950530  46.9069274  44.6697221  23.3404122  46.7179085  44.2560646
  22.1787835  47.4327512  44.1111077  22.6435505  46.9571420  44.5261794
  16.0340447  63.3099354  33.0809489  16.3238745  62.9188335  32.3568715
  16.7643928  63.4916059  33.5214764  16.1847331  63.2793168  33.0392296
  16.6235192  58.1117100  44.1662619  16.1246886  58.8232868  44.2447507
  17.4335416  58.4317766  44.1280781  16.6691299  58.2643949  44.1719188
  13.9746362  65.2866736  36.1469638  13.7546658  64.9964091  36.9396305
  13.7540884  64.6281691  35.6187551  13.9093957  65.1466445  36.1858547
  12.8863310  57.3740053  38.4125340  12.5976558  56.7477524  38.9471067
  13.7546658  57.3160340  38.4790020  12.9723562  57.2727597  38.5016295
  23.6741207  52.5174836  38.7307322  23.3305973  51.7965172  39.0814571
  23.7734250  52.3088687  37.8885680  23.6383250  52.3799040  38.6579002
  16.1414318  66.6596126  34.9300331  16.7938376  66.1272569  35.1591357
  15.4439927  66.3064779  35.3168205  16.1345036  66.5285649  35.0212498
  13.0895583  59.0135304  34.3367705  13.8441551  59.3948343  34.5503168
  12.4966196  59.4646448  34.7914402  13.1132297  59.1364131  34.4350583
  24.1354236  58.9800540  34.2731310  24.7012269  59.6393750  34.1889853
  23.4882140  59.3250238  34.7447712  24.1232993  59.1282482  34.3304066
  15.5502250  50.9698144  49.4624917  14.7402026  51.2755924  49.3514760
  16.0276937  51.6903727  49.5777501  15.5005729  51.1212745  49.4631988
  14.4093810  60.1843865  39.7107820  13.8874563  60.3244157  40.3959685
  14.7967830  59.4254530  39.9009938  14.3897510  60.0929389  39.8408897
  11.3984994  50.2349674  33.7802775  11.1109789  49.8650944  33.0434722
  12.0855462  50.7044529  33.5186480  11.4573891  50.2496643  33.6317851
  20.6060815  61.9239325  33.6968389  20.3647490  61.1907185  33.2895454
  20.7862147  62.4726182  33.0434722  20.5968439  61.8961716  33.5398612
  15.8360135  57.2147884  35.1089311  15.6402918  57.8222619  34.5149614
  16.0594481  56.5215828  34.6280985  15.8394776  57.2025410  34.9505392
  14.2338665  54.1002622  35.2270180  14.9561317  54.2643780  34.7673986
  13.7546658  54.8212287  35.1209520  14.2702396  54.2300852  35.1435794
  22.1932173  50.4366421  40.6066865  21.3543273  50.4627700  40.3705128
  22.2636540  51.0837156  41.1872211  22.0800566  50.5362547  40.6575982
  11.8846282  56.5060695  44.3324320  12.3967379  56.7844948  43.6833079
  11.5982625  57.2449989  44.6987133  11.9181145  56.6563048  44.2914198
  20.6401451  47.3351798  35.3394481  21.3427804  47.1359546  34.8614439
  20.3745640  46.5627740  35.6463324  20.7048083  47.1914764  35.3139922
   8.9713188  51.0130887  34.6288056   9.0729325  51.8157048  34.9569032
   9.7669075  50.8118222  34.3311137   9.1041094  51.1016785  34.6323411
  15.4030007  48.5987083  44.3925361  15.2113204  48.6142218  45.2424785
  16.2528603  48.7950758  44.3692016  15.5005729  48.6301434  44.5148656
   9.7876920  51.1278065  42.3709178   9.6462412  50.2762005  42.4953686
  10.0717484  51.1706725  41.5471384   9.8084766  51.0077815  42.2676802
  19.9415513  52.9645155  36.5153666  19.6950227  52.8840906  37.3490455
  20.2700636  52.1798623  36.3216193  19.9536756  52.8371420  36.6101189
  23.8363561  59.6728514  40.3040447  23.6977921  60.3709560  40.8089190
  23.0563559  59.5177171  39.9476629  23.7006788  59.7528681  40.3266721
  22.1741647  55.9724890  46.5562829  22.1689685  55.1004706  46.5605255
  22.8802640  56.1713059  46.0832285  22.2786651  55.8728764  46.4869864
  15.9012540  55.7001873  45.9276649  16.0455916  56.2803082  45.2919759
  16.2488189  56.0778170  46.6326504  15.9740001  55.8422578  45.9375644
  18.0732457  54.8992042  43.7101781  17.3255771  55.0923056  43.3050059
  18.2273983  54.0737261  43.4725902  17.9854885  54.8057153  43.6147187
  14.9740295  63.8904645  42.7937676  15.1229859  63.3307561  42.1411080
  15.7540297  63.9696647  43.1770195  15.1114389  63.8190211  42.7534625
  25.3316934  59.0306768  31.0656946  24.9523743  58.2443906  31.0586236
  24.6683180  59.5793625  30.9228591  25.1775409  58.9951592  31.0437743
  17.4993596  64.0619288  44.0722167  17.4237267  63.3928099  44.6272955
  17.4283455  64.7637076  44.5862833  17.4774202  64.0664196  44.2299015
  18.3134234  48.7942593  44.5997184  18.7706848  49.5266567  44.7269977
  18.3890563  48.3709058  45.3584440  18.3925204  48.8399831  44.7298261
  10.5567226  49.0408412  45.6886628  10.0209415  48.4288770  46.0047395
  10.6184990  49.6156548  46.3420295  10.4862858  49.0355340  45.8322055
  18.1563843  62.5820287  34.9045773  18.9213734  62.3129931  34.5828437
  18.0541932  62.0970297  35.6215835  18.2545338  62.4709852  34.9625600
  16.1916612  50.7844697  41.4439008  15.4012687  50.6036157  41.7656344
  16.5877235  50.0071649  41.4269303  16.1333488  50.6432157  41.4891557
  20.6782503  59.6132471  26.8845722  21.4455488  59.6732596  26.4751574
  20.2313812  59.0412912  26.4002041  20.7255930  59.5369047  26.7523432
  21.5760299  58.4187127  39.1698454  20.9005300  58.1872359  39.6711841
  21.5852675  57.8108310  38.5440559  21.4778803  58.2946052  39.1514607
  18.7054443  53.2604956  45.9262507  18.6413584  54.1214912  45.7982644
  18.8451630  52.9436949  45.1258059  18.7169913  53.3405122  45.7890720
  23.5777033  61.2752259  31.4008632  23.6596871  62.0819245  31.0770083
  24.0626775  61.2948218  32.1249406  23.6614191  61.3972921  31.4595531
  17.3873536  55.9537095  40.0678710  16.9635786  56.1541594  39.3317729
  17.2118392  55.1065943  40.1803010  17.2984417  55.8585876  39.9752400
  16.8885230  67.4687608  42.5300168  17.3781160  66.7698397  42.3475832
  16.3169462  67.1711478  43.1176225  16.8769760  67.3213832  42.5901208
  12.6755981  56.4489146  35.5006683  12.8320601  56.3835949  36.3562675
  13.0156575  57.2237699  35.2885362  12.7489216  56.5538345  35.5961277
  19.2135126  55.8247030  34.3700046  19.7550671  55.3217411  34.8338667
  19.5281685  55.7712225  33.5589531  19.3399523  55.7426451  34.3183858
  23.0852233  60.0349677  51.4826958  23.8987099  59.7634826  51.6432091
  22.9247200  59.7357217  50.6787154  23.1822182  59.9504603  51.3872364
  17.3821576  61.2164382  31.6540074  17.4514396  60.3578920  31.7933074
  18.1610031  61.4336262  31.3259099  17.5074426  61.1217246  31.6257231
  20.3624395  50.7183335  44.4222346  20.5766365  50.0794249  43.8685700
  19.7458295  51.1629158  43.9930208  20.3029725  50.6893478  44.2772778
  21.7729063  63.6402083  35.8676567  21.3808855  63.3368798  35.1499433
  21.9282136  64.4771173  35.6781521  21.7382653  63.7185920  35.7333064
   9.2490243  53.6324097  35.8167450   9.6289208  54.0508642  35.1527717
   8.6745608  54.2137553  36.1236293   9.2201568  53.7801956  35.7644191
  22.5263483  52.3272400  45.3605654  21.7140165  52.0198290  45.4418826
  22.9853418  51.8471400  45.9248366  22.4743868  52.2108892  45.4560248
  21.9368738  60.2052072  35.8082598  21.5783393  60.3766715  36.5846630
  21.4507449  60.6665277  35.2510596  21.8127435  60.2991043  35.8407867
  19.7539124  43.8283270  39.4109689  18.8832682  43.8021991  39.3642999
  20.0079465  43.6560462  38.5935535  19.6632684  43.7993414  39.2829826
  16.7257103  55.8851237  28.3482832  17.0149628  56.6616120  28.6226407
  16.8128902  55.3739969  29.0497332  16.7811360  55.9243155  28.4925330
  19.6216991  53.7332471  50.1434356  20.0916622  54.3574588  50.5302230
  19.6678871  53.0649447  50.7027571  19.6984867  53.7267151  50.2834427
  16.7788265  45.8389499  40.8683160  16.2626753  45.1469690  40.9934739
  16.2182193  46.5060276  40.8145758  16.6194778  45.8352756  40.8789226
  18.8480498  46.3782459  42.6976012  18.4612251  46.4031490  43.4789542
  18.3613435  45.8124137  42.2450529  18.7193007  46.2978210  42.7463916
  23.0973477  61.0955968  46.7549799  23.7353198  60.6016163  46.4212255
  22.4547569  61.0233368  46.1702026  23.0967704  61.0114976  46.6192154
  24.8230477  52.9445114  41.3215714  24.3958086  52.8571462  40.5663814
  24.1856530  53.0522889  41.9070558  24.6660085  52.9477773  41.2961156
  18.5137640  43.2649444  44.9886272  19.1430758  43.8009744  44.7107342
  18.6823502  43.1726803  45.8399838  18.6315434  43.3310806  45.0734800
  18.3151555  48.0520639  47.2612684  19.1424984  47.7805788  47.3171298
  18.3359401  48.8481481  47.6176502  18.4404405  48.1300393  47.3227867
  23.1527734  61.7875776  43.3955156  23.9420112  61.4364841  43.5157237
  23.3271332  62.6012164  43.1331789  23.2948016  61.8561633  43.3743023
  12.8921044  55.1984502  40.4482944  12.0509051  55.0988376  40.6561838
  13.1011052  55.9679982  40.7997265  12.7985737  55.2976545  40.5310259
  10.3696611  52.8204039  38.2767695   9.9753309  52.8947050  37.5017805
   9.8136728  53.2061985  38.8276057  10.2299424  52.8885813  38.2435355
  16.7037709  53.1265901  39.6980542  16.4000847  52.5721889  40.2990950
  16.0017130  53.3058111  39.2108576  16.5553919  53.0710683  39.7150248
  15.7603806  50.4366421  34.2625244  16.0363541  49.7185333  33.8502811
  16.3602476  51.0351341  34.0546350  15.8897071  50.4186791  34.1706005
  14.7656060  60.3415622  44.4052640  14.6576415  60.3517684  45.2714698
  14.9751842  61.1670402  44.2157593  14.7806171  60.4656696  44.5056731
  19.2614327  48.1079938  32.5371839  19.7158073  48.2790498  33.2619683
  19.7354373  47.4948049  32.1369614  19.3982647  48.0430823  32.5845600
  12.7829852  57.5928264  41.8674577  12.1917786  58.2337762  41.8377592
  13.5450876  58.0165881  41.8405877  12.8078113  57.7504102  41.8589724
  13.1790475  48.7530262  42.5342595  13.6391957  48.8269191  43.2717719
  13.2246582  49.5511516  42.1842416  13.2541030  48.8824409  42.5915351
  14.8273825  49.4196957  47.1014622  14.4359390  48.7730304  47.5370400
  14.9959688  50.0108392  47.7208877  14.7944735  49.4111224  47.2577328
  28.9020274  57.4234034  42.8651855  28.9603398  57.8720682  43.6111832
  28.2686741  57.8332846  42.4281935  28.8171569  57.5507768  42.9104404
  22.5419369  63.0437576  39.3006602  22.3439057  63.5328390  38.6062813
  21.9207080  63.2478817  39.8790735  22.4206933  63.1454114  39.2829825
  16.6027347  54.8122472  33.6416846  17.3469392  55.1996749  33.8799796
  16.7488043  53.9679898  33.8057334  16.7337932  54.7452945  33.7010816
  18.5206922  46.6072731  38.6748707  17.6742967  46.7795539  38.5490057
  18.5178055  45.8022075  39.0114536  18.3954072  46.5133760  38.7059834
  19.5905223  50.3847946  39.5410765  19.1165177  49.8589708  40.0516076
  19.9623359  49.8377419  38.9725627  19.5755112  50.2263942  39.5325912
   9.9678253  52.3819452  44.9094311  10.8303866  52.2815162  44.8231641
   9.6370036  51.8014162  44.3479883  10.0463449  52.2811079  44.8139717
  25.8541953  55.4450321  40.9517546  25.6140176  54.6056736  40.9559972
  26.3333960  55.5250488  41.6758319  25.8894137  55.3331721  41.0592348
  21.5188722  51.2784500  32.6036519  20.9911741  51.3613244  31.9142228
  21.9784431  52.0202372  32.6001164  21.5090573  51.4005163  32.5011214
  27.8547140  52.2251779  38.9046805  27.6156910  52.1847613  38.0667590
  28.0181042  53.0722931  39.0312526  27.8437444  52.3443864  38.8000287
  24.4593170  56.6101728  44.8351850  25.1827369  56.1574254  44.6562870
  24.1943133  56.8906394  44.0524178  24.5274444  56.5852696  44.6930565
  13.3280039  51.2061901  41.5704729  12.7033109  51.2180293  40.9630682
  12.9925634  51.6822077  42.2195969  13.1865531  51.2780418  41.5761298
  13.5121788  49.5487020  27.6277414  13.1634592  50.2006745  28.0908964
  13.0318233  49.5344133  26.9001285  13.3892031  49.6430073  27.5888506
  10.0405714  59.2662361  43.0108494   9.5105639  58.5754800  43.0603468
  10.3130808  59.2572547  42.1821202  10.0030437  59.1629493  42.8955909
  21.0725805  59.8488064  31.7346176  21.7960004  60.3146177  31.5910749
  20.6326396  59.9161673  30.9843773  21.1141497  59.9271901  31.6030958
  20.2411960  56.7085606  42.9846865  19.6268953  56.1643656  43.2795500
  20.7579245  56.1949843  42.5052681  20.2267622  56.5522015  42.9571094
  19.4808257  57.7789876  40.7191164  19.0535865  57.1539595  40.2856599
  19.4733202  57.4964798  41.5450171  19.4167398  57.6442657  40.7770991
  12.5970784  52.8155049  43.7879598  12.7564271  52.0598373  44.1931320
  12.4163678  53.3645989  44.4420335  12.5936143  52.7848863  43.9442304
  20.5391087  44.9816285  44.3430387  20.0431648  45.1779959  43.6521954
  21.2960149  45.3808953  44.1719189  20.5777912  45.0694019  44.2150524
  17.8093967  48.6558631  40.9333698  17.8336454  48.1218743  40.2446478
  18.0605440  48.1475939  41.5959288  17.8503886  48.5019535  40.9298342
   5.3201557  55.9390126  40.3676842   5.2145006  55.8936970  39.5028926
   4.5701777  56.2843906  40.6491127   5.1937160  55.9831034  40.2814172
  14.0895289  47.3829449  40.3139442  14.1293661  47.8838655  41.0274149
  13.2644954  47.4739843  40.0445365  13.9734815  47.4711265  40.3789980
  16.2724902  56.9490189  48.4159737  15.4220532  57.0861903  48.5517382
  16.4353030  56.2153967  48.8607438  16.1708765  56.8604290  48.5015336
  15.5109652  53.8989959  42.6113341  14.6801582  54.0663777  42.4048589
  15.4561170  53.5225910  43.3962226  15.3799067  53.8679690  42.6961869
  13.3193436  47.3898852  48.2469752  13.9446139  46.8460984  48.5199184
  12.8643916  46.9093769  47.6777542  13.3441696  47.2388333  48.2031346
  13.8845696  52.1745550  33.1403459  14.0248657  52.6718015  33.8432100
  14.3828229  51.4731845  33.2817672  13.9786777  52.1447529  33.2655038
  13.9145919  53.0412661  30.4696036  14.5490998  53.6373086  30.4045497
  13.9971529  52.7416119  31.2841906  14.0202470  53.0853569  30.5799122
  26.8928484  55.5728139  43.3382400  27.4846325  56.2125389  43.3700598
  27.3287479  54.8751175  43.6274467  27.0446916  55.5646489  43.3863232
  15.4924902  48.9726637  30.4441478  15.8140743  48.4929719  29.7900740
  15.7551845  49.7826283  30.2532289  15.5790927  49.0216535  30.3196970
  18.7221874  59.9945511  43.9640294  18.2146965  60.5481358  44.4080924
  18.4248520  60.0553801  43.1459068  18.6026759  60.0851822  43.9088750
  20.8884057  48.3598831  42.8064957  21.3139128  47.9071357  42.1948483
  20.2741050  47.8058901  43.0829744  20.8612702  48.2112807  42.7569982
  10.4198907  55.2380502  33.7385582  10.9291136  55.8345010  34.1196887
  10.8933179  54.9706476  33.0562001  10.5642282  55.2866317  33.6940104
  21.3329655  63.9108769  31.8944237  20.6158964  63.7369631  31.4291475
  21.9836392  63.6761341  31.3619723  21.3231505  63.8504561  31.7473455
  19.3278279  44.8313930  36.2155534  18.6846597  44.6811577  36.7840672
  18.9877686  44.5856276  35.4504638  19.1823357  44.7726053  36.1858549
  23.9177626  52.7873357  35.6385542  23.2468816  53.3303060  35.5098608
  24.6117376  53.2568213  35.3967237  23.9206493  52.9371629  35.5841070
  17.9664360  64.9270069  40.8697301  17.7430014  64.1688899  41.2381327
  17.4774203  64.9568090  40.1477740  17.8607809  64.8192294  40.8174042
  24.0805753  49.2429241  38.5475916  24.4333363  48.8158964  39.2221714
  23.2220555  49.1580084  38.6776992  24.0055198  49.1673982  38.6670926
  12.7789438  51.8736761  36.6058762  12.0601427  52.2900893  36.8731626
  13.1501801  52.4390999  36.0550400  12.7281370  52.0186042  36.5641569
  22.0789019  52.5064610  42.4960758  22.0586946  52.3247905  43.3495537
  22.1268220  53.3776628  42.4720341  22.0823660  52.6081148  42.6184052
  20.0235349  59.0951802  48.4209234  19.9831204  58.4501478  47.8354390
  20.8358667  59.0388419  48.7334646  20.1378502  58.9910768  48.3806183
  16.6142816  65.1470527  38.3234385  16.2003215  64.4844658  37.9338227
  17.2990191  65.2948386  37.8030079  16.6541188  65.0711186  38.1890882
  19.9808111  64.3060613  39.0758002  19.5824394  64.4162883  38.3078822
  19.3659330  64.5142679  39.6584562  19.8307000  64.3534181  39.0489301
  18.5536013  50.9134761  31.9432142  17.9600852  51.2351757  31.3916709
  18.5911290  50.0675856  31.7353248  18.4710402  50.8359089  31.8314913
  21.4293829  50.8714265  35.3733892  21.2007522  50.8946966  34.5312250
  21.6891905  50.0471732  35.4928902  21.4340017  50.7530345  35.2659089
  15.7113058  52.7248738  44.9758992  15.1991961  52.1169921  45.3344023
  15.5392554  53.4405331  45.4432968  15.6102695  52.7412037  45.0975216
  10.5578772  51.1686313  47.6261354  10.3881363  51.8287688  47.0809560
  10.1144722  51.3792875  48.3473843  10.4678106  51.2972295  47.6522983
  14.4838592  49.4090811  36.6688087  14.9595958  49.7707891  36.0338269
  13.9827191  50.0647279  36.9488230  14.4803951  49.5585000  36.6164828
  19.5882128  50.6472983  47.4161247  20.1453558  50.4186792  46.7839713
  19.2643193  51.4078648  47.1396460  19.6228538  50.7256819  47.2817745
   7.4580837  54.0733179  42.8849844   6.9107556  53.4033824  43.0030712
   8.2473215  53.7063027  42.9493311   7.4933021  53.9198165  42.9118544
  17.3065245  53.7340636  48.3813255  18.0576572  54.0492313  48.6952809
  17.4987822  53.5319807  47.5547176  17.4456659  53.7508018  48.3056650
  16.5265245  51.5532011  30.0361471  16.9064210  51.5711640  29.2512586
  15.7857841  51.9986000  29.9152319  16.4734083  51.6213786  29.9025040
   6.2167806  53.2853987  40.0395867   6.0389567  52.8330596  40.7650782
   5.9286828  54.0880148  40.2234344   6.1480760  53.3376545  40.1739370
  21.8791387  54.5411704  39.2773257  22.3745053  53.8234699  39.2377277
  21.0691163  54.2382502  39.1627744  21.8335281  54.3909350  39.2546983
  17.3249999  58.3909517  31.4270261  16.5161322  58.0676191  31.3803571
  17.8324908  57.6842739  31.3598510  17.2799666  58.2390834  31.4100556
   7.9540276  55.8181710  37.1517626   7.0885796  55.8067401  37.0400397
   8.0539092  55.6311933  37.9988765   7.8414443  55.7887772  37.2606570
  23.9443206  57.2915392  41.9650386  24.3698278  56.7689813  41.4120811
  23.5800126  57.8896229  41.4439009  23.9529809  57.3025619  41.8059395
  13.5797286  65.5879609  40.7247731  13.8943845  66.4015998  40.7325513
  13.9890699  65.2029828  41.3929890  13.6865384  65.6508311  40.8251823
  20.5321806  61.0049656  38.2951543  21.0032984  61.7189918  38.4641528
  20.8681984  60.4048406  38.8311413  20.6516921  61.0221120  38.3983919
  22.6198790  62.6150969  50.4743615  22.7295756  61.8259530  50.8300362
  22.9489687  62.5256905  49.6717953  22.6851196  62.4856822  50.4086006
  17.4491301  45.7777126  45.2509638  17.5819206  44.9808120  45.5790614
  17.8336453  46.3043529  45.8307914  17.5247630  45.7377043  45.3853141
  21.1695752  60.7967590  45.0579236  20.6216698  60.1725474  44.7899301
  21.6308781  60.9861862  44.3423315  21.1562962  60.7326640  44.9129667
  20.5223656  42.7007453  41.8490731  19.7169620  42.5905182  42.1658570
  20.3930391  42.8019908  40.9920597  20.3843789  42.6991123  41.7698772
  16.5184416  47.7793539  32.7189103  17.3400110  47.9491852  32.4770798
  16.0554066  47.9340800  31.9955400  16.5715578  47.8275272  32.5760747
  15.1079747  45.7736302  43.4987532  15.6524160  45.4327428  44.0891873
  15.1616683  46.6321763  43.6408816  15.1968867  45.8491561  43.6069405
  10.9210306  59.5352718  40.3726340  11.5255164  59.4948552  39.7440160
  10.7137619  60.3823870  40.4030395  10.9799204  59.6540720  40.2842456
  20.7354078  61.8018663  41.5888577  21.5552452  61.6581629  41.8504872
  20.4548156  62.4264862  42.1305015  20.8150822  61.8729015  41.7076516
   6.1561589  58.5187335  40.2425263   6.0585867  57.7083607  40.5515319
   6.9390458  58.4979128  39.8571531   6.2577725  58.3954425  40.2312126
  37.2067729  69.4583514  34.5531453  37.1761733  70.3128151  34.7249723
  37.8049078  69.1578807  35.1117597  37.2904887  69.5400011  34.6606256
  30.4067414  68.5459165  39.3084384  29.5505309  68.7067664  39.3593501
  30.4535067  67.6751229  39.3289445  30.2866525  68.4409967  39.3190450
  33.7161130  74.8145691  48.9144840  34.4227897  74.3197722  49.0431774
  33.9049066  75.2554773  48.1847498  33.8489036  74.8064041  48.8253885
  33.2519235  70.6051209  41.9516035  33.7975195  71.2836296  42.0110005
  33.1936111  70.4638670  41.0917617  33.3235149  70.6843211  41.8328096
  35.0284303  72.0335816  32.8249763  34.9123829  72.7843503  33.2541901
  35.8240190  71.7759770  33.0745850  35.1288893  72.1070663  32.9253855
  21.8648441  66.2846293  39.8621029  21.2453473  65.6938940  39.6931044
  21.7632305  66.8757728  39.2285352  21.7586117  66.2850375  39.7426019
  26.9114629  76.0229839  34.1119106  27.2330470  76.5635047  33.5080414
  27.5586725  75.4526611  34.2441395  27.0540684  76.0189015  34.0426141
  28.9616337  68.0245834  34.1953492  29.6596502  68.2033962  34.6874956
  29.2768669  67.5016174  33.5723882  29.1111674  67.9739607  34.1755502
  21.5917574  69.8298574  42.1064598  21.4676271  70.4161020  42.7414417
  22.2435859  69.3358770  42.4076873  21.6691224  69.8437379  42.2450527
  29.1504272  74.4116279  34.1833284  29.5897908  73.8033380  34.6288057
  29.0008935  74.0323653  33.4118749  29.1925738  74.2654751  34.1352451
  26.6175915  73.0060291  41.3852109  27.2624918  72.5132734  41.0663058
  26.8577692  73.1485078  42.2118188  26.7486500  72.9537733  41.4601642
  29.1562007  75.8515197  41.0359002  29.4385249  75.0566603  40.8145758
  29.8848167  76.3295785  41.0564063  29.3051570  75.8049794  41.0062017
  27.1343200  63.3938231  38.2774767  26.8046530  63.8449375  37.6078466
  26.4588202  63.3154394  38.8247773  26.9853637  63.4489366  38.2597990
  32.7513609  72.7643461  31.1364053  32.6664904  73.6204427  31.2813622
  33.2397992  72.4887785  31.8046212  32.8102506  72.8500782  31.2566135
  33.6832042  69.3828255  32.6361788  33.1543514  69.5987888  33.2959094
  34.2057062  70.0764393  32.5562758  33.6820495  69.5171392  32.7217387
  39.1380095  74.9574559  38.0094833  38.3077798  75.1685203  38.1728249
  39.0889347  74.1311614  37.7337116  39.0086830  74.8664166  37.9932198
  25.5731650  73.2791472  31.4369256  24.9888865  73.7841503  31.8435120
  25.1701745  73.0533859  30.6965848  25.4270954  73.3199720  31.3874281
  30.8553425  78.2373228  46.8058915  30.9436770  78.0499368  47.6537126
  31.2843137  77.5910657  46.4063762  30.9315527  78.1136235  46.8730667
  30.0308864  69.5257124  29.9138177  30.2704868  69.7335107  29.1013520
  30.3524705  68.7214632  30.0227121  30.1146022  69.4371225  29.8098730
  25.3399155  61.4550519  33.7597715  26.0945123  61.8228837  33.5214765
  25.1626689  61.8290074  34.5276894  25.4253633  61.5648707  33.8382603
  38.6334053  67.6044960  41.8045254  37.7962474  67.6747147  42.0392848
  38.6022284  67.6069455  40.9319556  38.5052336  67.6155187  41.7104802
  25.0298782  69.7477996  47.5193623  25.2019286  69.6383890  48.3678904
  25.5668140  70.3932401  47.2824815  25.1343786  69.8269997  47.6098719
  23.6956219  63.8620838  30.4575828  23.5131792  64.0792719  29.6316820
  24.5581832  63.9759851  30.5134442  23.7960809  63.9110736  30.3430315
  33.3564239  71.8000637  37.3957145  34.1121754  72.2332151  37.4346054
  33.4626564  71.1505406  37.9691781  33.4834410  71.7678120  37.4855171
  36.3944410  75.6273914  38.1459548  35.9579642  75.6310656  38.9018520
  36.0607326  76.3079413  37.7139126  36.2807030  75.7286370  38.1940381
  30.9673484  77.6682247  49.4702699  31.7513900  77.7813094  49.8358441
  30.7670078  76.8423384  49.6661385  31.0539509  77.5628966  49.5537085
  19.3360499  72.3409927  42.3546543  19.0698914  71.5249043  42.5137533
  19.3499063  72.3863082  41.4842058  19.2985222  72.2266831  42.2500025
  36.3141893  62.6687742  40.3888976  36.9567802  62.7385846  40.9750892
  36.5664914  62.0016964  39.8868518  36.4464025  62.5814090  40.4016256
  23.2418246  67.1395011  28.9698301  22.5276423  66.8533191  29.3820733
  23.7262215  67.4791637  29.6104688  23.2077610  67.1476661  29.1253936
  24.0859106  65.8788305  45.0013550  23.3930902  65.4085285  45.2474282
  24.7019433  65.6526609  45.5755257  24.0743636  65.7755437  45.1222703
  39.5288756  72.3454834  37.0379186  40.1905190  71.7845502  36.9375094
  38.8880168  71.8506864  37.3631877  39.5317624  72.1891243  37.0711526
  30.4165564  75.6424965  29.3460109  30.8316713  75.3109989  28.6544605
  29.5857494  75.4093867  29.2180246  30.3553573  75.5596221  29.2250956
  19.7453913  73.1268706  39.6358287  19.5629486  73.1015592  38.7830579
  20.4803582  73.5967644  39.6747196  19.8267977  73.1930068  39.5156205
  35.8153587  73.3620216  36.7791174  36.0509176  73.5065415  35.9518025
  35.9643151  74.1262624  37.1722688  35.8719390  73.4959270  36.7154778
  22.8099665  69.8453709  46.1440396  23.5339637  69.8306740  46.6305290
  22.9115801  70.5549064  45.6462364  22.9317874  69.9478412  46.1419182
  37.6444044  72.2021882  34.6160778  37.9752261  72.7349522  34.0100873
  38.2177132  72.2560770  35.2722729  37.7777723  72.2891451  34.6238560
  30.1844614  73.3252794  51.0089343  29.3917595  73.6396305  51.1941962
  30.2993541  73.5404262  50.1710127  30.0840025  73.4036630  50.9127677
  32.8575933  70.0486785  35.2984358  32.9522787  70.7876079  35.7523984
  32.2334776  69.6204260  35.7318923  32.7784963  70.0948105  35.4292506
  31.1128407  73.2272997  45.9474639  31.6867268  72.5900242  46.1023203
  31.0343211  73.2277080  45.0784297  31.1861642  73.1338109  45.8421050
  19.7124823  70.0062207  39.7857353  20.2898326  69.8698658  40.4249599
  19.0138885  69.5497991  40.0402938  19.6945845  69.9184473  39.9179643
  33.1098954  71.8935525  28.5321310  33.0279117  71.9637712  29.3976297
  33.7478675  72.4565268  28.3405051  33.1918792  71.9874496  28.6311260
  26.4692125  71.6596262  37.9995837  26.2111370  70.8267997  37.9727136
  26.5240608  71.8853875  37.1588337  26.4391903  71.5694034  37.8715973
  31.5493176  63.7624713  38.0999929  30.8449502  63.2733899  38.2583848
  31.5978150  63.7747188  37.2288374  31.4523227  63.6914361  37.9939269
  25.4426838  69.2134025  38.4860731  24.8676429  69.3726193  39.1224692
  25.0662514  68.5769434  38.0229182  25.3029650  69.1431838  38.5115290
  29.1100126  67.6857374  43.3453110  28.7214559  67.2611592  42.6905301
  28.4454825  67.9339524  43.8530136  28.9547054  67.6596095  43.3240978
  38.7523395  67.4432379  36.1200940  38.4959960  66.6312320  35.9298823
  39.5952709  67.4509946  35.8931127  38.8389421  67.3244376  36.0585757
  15.1883656  68.8574100  36.5005172  15.2743908  68.4805968  37.2818702
  15.8159454  68.4834545  36.0225130  15.2940207  68.7459582  36.5450649
  32.9326488  61.3832003  40.8577094  33.3136999  60.7010174  41.2444968
  32.1289772  61.0941605  40.6752759  32.8702949  61.2399051  40.8881150
  30.2139064  71.9155979  31.5429917  31.0279703  72.2070872  31.4312688
  30.1498206  71.2615841  30.9688210  30.3241803  71.8621174  31.4418754
  36.4348555  74.5981975  45.9559492  36.1987192  73.7670040  45.8371553
  37.0791784  74.5467582  46.5414337  36.4943225  74.4679663  46.0245386
  26.7249788  70.6079786  31.0077118  27.1094940  70.3887493  31.7593663
  26.4761408  71.4342731  31.1378195  26.7451860  70.6977932  31.1378195
  26.8918328  63.8886201  50.7239703  26.5771769  64.6585764  50.4609265
  26.5708261  63.3256457  50.1391929  26.7977247  63.9196470  50.5981052
  37.4584975  74.3826424  42.0187787  37.1530792  75.1154481  42.3801103
  36.7391191  73.9764353  41.7380573  37.3072318  74.4308157  42.0300924
  28.4668445  75.8649919  38.3496015  28.5407453  75.7025091  39.2037865
  29.2837951  76.0540108  38.1056497  28.5984803  75.8686661  38.4394041
  43.1586767  71.0219424  41.3456131  43.0911268  71.0415383  40.4758718
  43.1442430  71.8649752  41.5711802  43.1465524  71.1493159  41.2508608
  24.4450225  62.2776723  36.3385899  23.5772651  62.3499322  36.4043508
  24.7325429  63.0798802  36.5273874  24.3589973  62.4070870  36.3760665
  33.5683114  62.4254582  44.6697221  34.3136706  62.2364392  44.2560646
  33.1520418  62.9512820  44.1111077  33.6168088  62.4756727  44.5261794
  40.9445385  69.7963811  39.6202726  41.4953306  69.1631880  39.8599818
  40.9289500  70.3279203  40.3118230  41.0230581  69.7812759  39.7581584
  27.5967776  73.6302408  44.1662619  27.0979469  74.3418176  44.2447507
  28.4068000  73.9503074  44.1280781  27.6423882  73.7829256  44.1719188
  23.8595893  72.8925361  38.4125340  23.5709142  72.2662832  38.9471067
  24.7279241  72.8345648  38.4790020  23.9456145  72.7912905  38.5016295
  34.6473791  68.0360144  38.7307322  34.3038557  67.3150479  39.0814571
  34.7466833  67.8273995  37.8885680  34.6115834  67.8984347  38.6579002
  24.0628167  74.5320612  34.3367705  24.8174135  74.9133651  34.5503168
  23.4698779  74.9831756  34.7914402  24.0864880  74.6549439  34.4350583
  35.1086820  74.4985848  34.2731310  35.6744853  75.1579058  34.1889853
  34.4614723  74.8435546  34.7447712  35.0965576  74.6467790  34.3304066
  26.5234834  66.4883452  49.4624917  25.7134609  66.7941232  49.3514760
  27.0009520  67.2089035  49.5777501  26.4738312  66.6398053  49.4631988
  25.3826393  75.7029173  39.7107820  24.8607147  75.8429465  40.3959685
  25.7700413  74.9439838  39.9009938  25.3630094  75.6114697  39.8408897
  22.3717577  65.7534982  33.7802775  22.0842373  65.3836252  33.0434722
  23.0588045  66.2229837  33.5186480  22.4306474  65.7681951  33.6317851
  31.5793398  77.4424632  33.6968389  31.3380074  76.7092493  33.2895454
  31.7594731  77.9911489  33.0434722  31.5701022  77.4147024  33.5398612
  26.8092719  72.7333192  35.1089311  26.6135501  73.3407927  34.5149614
  27.0327064  72.0401136  34.6280985  26.8127360  72.7210718  34.9505392
  25.2071249  69.6187930  35.2270180  25.9293901  69.7829088  34.7673986
  24.7279242  70.3397595  35.1209520  25.2434979  69.7486160  35.1435794
  33.1664756  65.9551729  40.6066865  32.3275857  65.9813008  40.3705128
  33.2369124  66.6022464  41.1872211  33.0533150  66.0547855  40.6575982
  22.8578865  72.0246003  44.3324320  23.3699962  72.3030256  43.6833079
  22.5715208  72.7635297  44.6987133  22.8913729  72.1748356  44.2914198
  37.0422280  71.1619716  37.8928106  36.9556255  71.3175142  38.7462885
  36.5872760  71.8057791  37.5187512  36.9625537  71.2795471  37.9635213
  19.9445772  66.5316194  34.6288056  20.0461908  67.3342356  34.9569032
  20.7401659  66.3303530  34.3311137  20.0773677  66.6202093  34.6323411
  26.3762591  64.1172391  44.3925361  26.1845788  64.1327526  45.2424785
  27.2261187  64.3136065  44.3692016  26.4738313  64.1486742  44.5148656
  20.7609504  66.6463373  42.3709178  20.6194996  65.7947313  42.4953686
  21.0450067  66.6892033  41.5471384  20.7817350  66.5263123  42.2676802
  30.9148096  68.4830463  36.5153666  30.6682811  68.4026214  37.3490455
  31.2433219  67.6983931  36.3216193  30.9269340  68.3556728  36.6101189
  34.8096145  75.1913822  40.3040447  34.6710504  75.8894868  40.8089190
  34.0296143  75.0362479  39.9476629  34.6739372  75.2713989  40.3266721
  33.1474230  71.4910198  46.5562829  33.1422269  70.6190014  46.5605255
  33.8535224  71.6898367  46.0832285  33.2519234  71.3914072  46.4869864
  26.8745124  71.2187181  45.9276649  27.0188499  71.7988390  45.2919759
  27.2220772  71.5963478  46.6326504  26.9472585  71.3607885  45.9375644
  29.0465041  70.4177350  43.7101781  28.2988355  70.6108364  43.3050059
  29.2006566  69.5922569  43.4725902  28.9587468  70.3242461  43.6147187
  36.3049518  74.5492076  31.0656946  35.9256327  73.7629214  31.0586236
  35.6415763  75.0978933  30.9228591  36.1507993  74.5136900  31.0437743
  29.2866818  64.3127901  44.5997184  29.7439432  65.0451875  44.7269977
  29.3623147  63.8894366  45.3584440  29.3657788  64.3585139  44.7298261
  21.5299809  64.5593720  45.6886628  20.9941999  63.9474078  46.0047395
  21.5917574  65.1341856  46.3420295  21.4595442  64.5540648  45.8322055
  33.7594144  57.4917776  38.4691027  33.8777712  57.9494239  37.7358330
  33.5856320  56.6863037  38.1827245  33.7513315  57.4411548  38.3191961
  27.1649196  66.3030004  41.4439008  26.3745271  66.1221465  41.7656344
  27.5609819  65.5256957  41.4269303  27.1066072  66.1617465  41.4891557
  31.6515087  75.1317779  26.8845722  32.4188072  75.1917904  26.4751574
  31.2046396  74.5598220  26.4002041  31.6988514  75.0554354  26.7523432
  32.5492882  73.9372435  39.1698454  31.8737884  73.7057667  39.6711841
  32.5585258  73.3293618  38.5440559  32.4511387  73.8131360  39.1514607
  29.6787026  68.7790264  45.9262507  29.6146167  69.6400220  45.7982644
  29.8184214  68.4622257  45.1258059  29.6902496  68.8590430  45.7890720
  34.5509617  76.7937567  31.4008632  34.6329454  77.6004553  31.0770083
  35.0359359  76.8133526  32.1249406  34.6346775  76.9158229  31.4595531
  28.3606120  71.4722403  40.0678710  27.9368369  71.6726902  39.3317729
  28.1850975  70.6251251  40.1803010  28.2717001  71.3771184  39.9752400
  23.6488565  71.9674454  35.5006683  23.8053184  71.9021257  36.3562675
  23.9889158  72.7423007  35.2885362  23.7221800  72.0723652  35.5961277
  30.1867710  71.3432338  34.3700046  30.7283255  70.8402719  34.8338667
  30.5014269  71.2897533  33.5589531  30.3132107  71.2611759  34.3183858
  34.0584817  75.5534985  51.4826958  34.8719682  75.2820134  51.6432091
  33.8979783  75.2542525  50.6787154  34.1554765  75.4689911  51.3872364
  28.3554159  76.7349689  31.6540074  28.4246980  75.8764228  31.7933074
  29.1342614  76.9521570  31.3259099  28.4807009  76.6402553  31.6257231
  31.3356979  66.2368642  44.4222346  31.5498949  65.5979557  43.8685700
  30.7190878  66.6814466  43.9930208  31.2762308  66.2078786  44.2772778
  20.2222826  69.1509405  35.8167450  20.6021791  69.5693950  35.1527717
  19.6478191  69.7322861  36.1236293  20.1934151  69.2987264  35.7644191
  33.4996067  67.8457708  45.3605654  32.6872749  67.5383598  45.4418826
  33.9586002  67.3656708  45.9248366  33.4476452  67.7294200  45.4560248
  32.9101322  75.7237380  35.8082598  32.5515976  75.8952022  36.5846630
  32.4240032  76.1850585  35.2510596  32.7860019  75.8176351  35.8407867
  27.6989687  71.4036545  28.3482832  27.9882212  72.1801428  28.6226407
  27.7861486  70.8925276  29.0497332  27.7543943  71.4428463  28.4925330
  30.5949574  69.2517779  50.1434356  31.0649206  69.8759895  50.5302230
  30.6411455  68.5834755  50.7027571  30.6717450  69.2452459  50.2834427
  27.7520848  61.3574807  40.8683160  27.2359337  60.6654998  40.9934739
  27.1914777  62.0245584  40.8145758  27.5927361  61.3538064  40.8789226
  29.8213082  61.8967767  42.6976012  29.4344835  61.9216798  43.4789542
  29.3346019  61.3309445  42.2450529  29.6925590  61.8163517  42.7463916
  34.0706061  76.6141276  46.7549799  34.7085782  76.1201471  46.4212255
  33.4280153  76.5418676  46.1702026  34.0700288  76.5300284  46.6192154
  35.7963061  68.4630422  41.3215714  35.3690669  68.3756770  40.5663814
  35.1589114  68.5708197  41.9070558  35.6392668  68.4663081  41.2961156
  29.4870223  58.7834752  44.9886272  30.1163341  59.3195052  44.7107342
  29.6556086  58.6912111  45.8399838  29.6048018  58.8496114  45.0734800
  29.2884138  63.5705947  47.2612684  30.1157568  63.2991096  47.3171298
  29.3091984  64.3666788  47.6176502  29.4136988  63.6485701  47.3227867
  34.1260318  77.3061084  43.3955156  34.9152696  76.9550149  43.5157237
  34.3003915  78.1197472  43.1331789  34.2680599  77.3746941  43.3743023
  23.8653628  70.7169810  40.4482944  23.0241635  70.6173684  40.6561838
  24.0743636  71.4865290  40.7997265  23.7718321  70.8161853  40.5310259
  21.3429195  68.3389347  38.2767695  20.9485893  68.4132358  37.5017805
  20.7869312  68.7247293  38.8276057  21.2032007  68.4071121  38.2435355
  27.6770293  68.6451209  39.6980542  27.3733430  68.0907197  40.2990950
  26.9749714  68.8243419  39.2108576  27.5286503  68.5895991  39.7150248
  26.7336390  65.9551729  34.2625244  27.0096124  65.2370641  33.8502811
  27.3335059  66.5536648  34.0546350  26.8629655  65.9372099  34.1706005
  23.7562436  73.1113572  41.8674577  23.1650369  73.7523070  41.8377592
  24.5183459  73.5351189  41.8405877  23.7810696  73.2689410  41.8589724
  24.1523059  64.2715570  42.5342595  24.6124540  64.3454499  43.2717719
  24.1979165  65.0696824  42.1842416  24.2273614  64.4009717  42.5915351
  25.8006408  64.9382265  47.1014622  25.4091974  64.2915612  47.5370400
  25.9692271  65.5293700  47.7208877  25.7677319  64.9296532  47.2577328
  39.8752857  72.9419342  42.8651855  39.9335981  73.3905990  43.6111832
  39.2419325  73.3518154  42.4281935  39.7904153  73.0693076  42.9104404
  33.5151952  78.5622883  39.3006602  33.3171641  79.0513698  38.6062813
  32.8939663  78.7664125  39.8790735  33.3939517  78.6639422  39.2829825
  27.5759930  70.3307780  33.6416846  28.3201975  70.7182057  33.8799796
  27.7220627  69.4865206  33.8057334  27.7070516  70.2638253  33.7010816
  29.4939506  62.1258039  38.6748707  28.6475551  62.2980847  38.5490057
  29.4910638  61.3207383  39.0114536  29.3686656  62.0319068  38.7059834
  30.5637806  65.9033254  39.5410765  30.0897761  65.3775016  40.0516076
  30.9355942  65.3562726  38.9725627  30.5487695  65.7449250  39.5325912
  20.9410836  67.9004760  44.9094311  21.8036449  67.8000470  44.8231641
  20.6102619  67.3199470  44.3479883  21.0196033  67.7996387  44.8139717
  36.8274537  70.9635629  40.9517546  36.5872760  70.1242044  40.9559972
  37.3066544  71.0435796  41.6758319  36.8626721  70.8517029  41.0592348
  32.4921306  66.7969808  32.6036519  31.9644325  66.8798552  31.9142228
  32.9517014  67.5387680  32.6001164  32.4823156  66.9190471  32.5011214
  38.8279724  67.7437086  38.9046805  38.5889494  67.7032921  38.0667590
  38.9913625  68.5908239  39.0312526  38.8170027  67.8629171  38.8000287
  35.4325754  72.1287036  44.8351850  36.1559953  71.6759562  44.6562870
  35.1675716  72.4091701  44.0524178  35.5007027  72.1038004  44.6930565
  24.3012622  66.7247209  41.5704729  23.6765693  66.7365601  40.9630682
  23.9658217  67.2007384  42.2195969  24.1598114  66.7965726  41.5761298
  24.4854371  65.0672328  27.6277414  24.1367175  65.7192053  28.0908964
  24.0050817  65.0529441  26.9001285  24.3624615  65.1615381  27.5888506
  21.0138298  74.7847669  43.0108494  20.4838223  74.0940108  43.0603468
  21.2863391  74.7757855  42.1821202  20.9763020  74.6814801  42.8955909
  32.0458388  75.3673372  31.7346176  32.7692587  75.8331485  31.5910749
  31.6058980  75.4346981  30.9843773  32.0874081  75.4457208  31.6030958
  31.2144544  72.2270914  42.9846865  30.6001537  71.6828964  43.2795500
  31.7311828  71.7135150  42.5052681  31.2000206  72.0707323  42.9571094
  30.4540841  73.2975184  40.7191164  30.0268449  72.6724903  40.2856599
  30.4465785  73.0150106  41.5450171  30.3899982  73.1627965  40.7770991
  23.5703368  68.3340357  43.7879598  23.7296855  67.5783681  44.1931320
  23.3896261  68.8831297  44.4420335  23.5668727  68.3034171  43.9442304
  31.5123671  60.5001593  44.3430387  31.0164232  60.6965267  43.6521954
  32.2692733  60.8994261  44.1719189  31.5510495  60.5879326  44.2150524
  28.7826550  64.1743939  40.9333698  28.8069038  63.6404051  40.2446478
  29.0338024  63.6661247  41.5959288  28.8236469  64.0204843  40.9298342
  16.2934140  71.4575434  40.3676842  16.1877589  71.4122278  39.5028926
  15.5434360  71.8029214  40.6491127  16.1669743  71.5016342  40.2814172
  25.0627873  62.9014757  40.3139442  25.1026244  63.4023963  41.0274149
  24.2377537  62.9925151  40.0445365  24.9467399  62.9896573  40.3789980
  27.2457486  72.4675497  48.4159737  26.3953116  72.6047211  48.5517382
  27.4085613  71.7339275  48.8607438  27.1441349  72.3789598  48.5015336
  26.4842236  69.4175267  42.6113341  25.6534166  69.5849085  42.4048589
  26.4293753  69.0411217  43.3962226  26.3531651  69.3864998  42.6961869
  24.2926019  62.9084160  48.2469752  24.9178723  62.3646292  48.5199184
  23.8376499  62.4279077  47.6777542  24.3174280  62.7573641  48.2031346
  24.8578280  67.6930858  33.1403459  24.9981241  68.1903322  33.8432100
  25.3560813  66.9917153  33.2817672  24.9519361  67.6632837  33.2655038
  24.8878502  68.5597969  30.4696036  25.5223582  69.1558394  30.4045497
  24.9704113  68.2601427  31.2841906  24.9935053  68.6038877  30.5799122
  37.8661068  71.0913447  43.3382400  38.4578908  71.7310697  43.3700598
  38.3020063  70.3936483  43.6274467  38.0179499  71.0831797  43.3863232
  26.4657485  64.4911945  30.4441478  26.7873326  64.0115027  29.7900740
  26.7284429  65.3011591  30.2532289  26.5523511  64.5401843  30.3196970
  29.6954458  75.5130819  43.9640294  29.1879549  76.0666666  44.4080924
  29.3981104  75.5739109  43.1459068  29.5759343  75.6037130  43.9088750
  31.8616640  63.8784139  42.8064957  32.2871712  63.4256665  42.1948483
  31.2473633  63.3244209  43.0829744  31.8345285  63.7298115  42.7569982
  21.3931490  70.7565810  33.7385582  21.9023719  71.3530318  34.1196887
  21.8665762  70.4891784  33.0562001  21.5374866  70.8051625  33.6940104
  34.8910209  68.3058665  35.6385542  34.2201399  68.8488367  35.5098608
  35.5849960  68.7753521  35.3967237  34.8939077  68.4556936  35.5841070
  35.0538337  64.7614549  38.5475916  35.4065947  64.3344272  39.2221714
  34.1953138  64.6765392  38.6776992  34.9787782  64.6859290  38.6670926
  23.7522022  67.3922069  36.6058762  23.0334011  67.8086201  36.8731626
  24.1234384  67.9576307  36.0550400  23.7013954  67.5371350  36.5641569
  33.0521603  68.0249917  42.4960758  33.0319530  67.8433213  43.3495537
  33.1000803  68.8961936  42.4720341  33.0556244  68.1266456  42.6184052
  30.9967933  74.6137109  48.4209234  30.9563787  73.9686786  47.8354390
  31.8091251  74.5573727  48.7334646  31.1111086  74.5096076  48.3806183
  29.5268596  66.4320068  31.9432142  28.9333436  66.7537065  31.3916709
  29.5643874  65.5861164  31.7353248  29.4442985  66.3544397  31.8314913
  36.4862397  59.8832961  39.4760228  35.9793262  59.1762100  39.4081406
  37.2829831  59.5526150  39.6061305  36.5289636  59.7306112  39.4859223
  32.4026413  66.3899573  35.3733892  32.1740106  66.4132274  34.5312250
  32.6624489  65.5657040  35.4928902  32.4072601  66.2715653  35.2659089
  26.6845641  68.2434046  44.9758992  26.1724544  67.6355229  45.3344023
  26.5125137  68.9590639  45.4432968  26.5835278  68.2597345  45.0975216
  21.5311356  66.6871621  47.6261354  21.3613946  67.3472996  47.0809560
  21.0877306  66.8978183  48.3473843  21.4410690  66.8157603  47.6522983
  25.4571175  64.9276119  36.6688087  25.9328542  65.2893199  36.0338269
  24.9559775  65.5832587  36.9488230  25.4536534  65.0770308  36.6164828
  38.6882537  74.3997887  32.4601092  39.0716143  75.1489243  32.6899189
  37.8926650  74.6463707  32.2013082  38.6276319  74.5467581  32.4558666
  30.5614712  66.1658291  47.4161247  31.1186142  65.9372100  46.7839713
  30.2375777  66.9263956  47.1396460  30.5961122  66.2442127  47.2817745
  18.4313420  69.5918487  42.8849844  17.8840140  68.9219132  43.0030712
  19.2205799  69.2248335  42.9493311  18.4665604  69.4383473  42.9118544
  28.2797829  69.2525944  48.3813255  29.0309156  69.5677621  48.6952809
  28.4720405  69.0505115  47.5547176  28.4189243  69.2693326  48.3056650
  27.4997828  67.0717319  30.0361471  27.8796793  67.0896948  29.2512586
  26.7590425  67.5171308  29.9152319  27.4466666  67.1399094  29.9025040
  35.1283119  65.3799510  35.6237050  35.1277345  65.2248167  36.4821326
  34.9239299  66.2262497  35.5678436  35.0982897  65.4820131  35.7424989
  17.1900390  68.8039295  40.0395867  17.0122151  68.3515904  40.7650782
  16.9019412  69.6065456  40.2234344  17.1213343  68.8561852  40.1739370
  32.8523971  70.0597012  39.2773257  33.3477636  69.3420007  39.2377277
  32.0423747  69.7567810  39.1627744  32.8067864  69.9094658  39.2546983
  28.2982583  73.9094825  31.4270261  27.4893905  73.5861499  31.3803571
  28.8057491  73.2028047  31.3598510  28.2532249  73.7576142  31.4100556
  18.9272860  71.3367018  37.1517626  18.0618379  71.3252709  37.0400397
  19.0271676  71.1497241  37.9988765  18.8147027  71.3073080  37.2606570
  34.9175790  72.8100700  41.9650386  35.3430861  72.2875121  41.4120811
  34.5532710  73.4081537  41.4439009  34.9262392  72.8210927  41.8059395
  31.5054389  76.5234964  38.2951543  31.9765568  77.2375226  38.4641528
  31.8414568  75.9233714  38.8311413  31.6249504  76.5406428  38.3983919
  33.5931374  78.1336277  50.4743615  33.7028339  77.3444838  50.8300362
  33.9222271  78.0442213  49.6717953  33.6583780  78.0042130  50.4086006
  28.4223884  61.2962434  45.2509638  28.5551790  60.4993428  45.5790614
  28.8069037  61.8228837  45.8307914  28.4980213  61.2562351  45.3853141
  32.1428336  76.3152898  45.0579236  31.5949282  75.6910782  44.7899301
  32.6041364  76.5047170  44.3423315  32.1295545  76.2511948  44.9129667
  31.4956239  58.2192761  41.8490731  30.6902203  58.1090490  42.1658570
  31.3662975  58.3205216  40.9920597  31.3576372  58.2176431  41.7698772
  34.9522200  64.3838252  42.4430428  34.3685189  64.8847459  42.0307995
  35.2726494  63.8767809  41.8094751  34.9135375  64.3830087  42.2888935
  27.4916999  63.2978847  32.7189103  28.3132694  63.4677160  32.4770798
  27.0286650  63.4526108  31.9955400  27.5448161  63.3460580  32.5760747
  26.0812331  61.2921609  43.4987532  26.6256744  60.9512736  44.0891873
  26.1349267  62.1507071  43.6408816  26.1701450  61.3676869  43.6069405
  31.7086662  77.3203971  41.5888577  32.5285036  77.1766937  41.8504872
  31.4280740  77.9450170  42.1305015  31.7883405  77.3914323  41.7076516
  38.1075784  78.9123539  38.2774767  37.7779114  79.3634683  37.6078466
  37.4320786  78.8339702  38.8247773  37.9586220  78.9674674  38.2597990
  45.3152192  74.9009062  36.5224378  45.0005633  75.5912540  36.9544800
  44.7979133  74.8453844  35.8209878  45.1916662  74.9943950  36.4821327
  36.3131738  76.9735827  33.7597715  37.0677706  77.3414144  33.5214765
  36.1359273  77.3475382  34.5276894  36.3986216  77.0834015  33.8382603
  49.6066637  83.1230268  41.8045254  48.7695058  83.1932455  42.0392848
  49.5754868  83.1254763  40.9319556  49.4784919  83.1340495  41.7104802
  40.3488522  76.3832557  33.4924851  41.0774682  76.2048512  33.0463008
  40.4383415  77.2250637  33.7032030  40.4695184  76.4816435  33.4578369
  47.2874477  78.1873050  40.3888976  47.9300385  78.2571154  40.9750892
  47.5397497  77.5202272  39.8868518  47.4196609  78.0999398  40.4016256
  42.5225759  79.2810021  38.0999929  41.8182086  78.7919207  38.2583848
  42.5710733  79.2932495  37.2288374  42.4255811  79.2099669  37.9939269
  49.7255979  82.9617687  36.1200940  49.4692544  82.1497628  35.9298823
  50.5685293  82.9695254  35.8931127  49.8122004  82.8429684  36.0585757
  43.9059071  76.9017311  40.8577094  44.2869583  76.2195482  41.2444968
  43.1022356  76.6126913  40.6752759  43.8435533  76.7584359  40.8881150
  37.8650912  79.4071509  50.7239703  37.5504353  80.1771072  50.4609265
  37.5440844  78.8441765  50.1391929  37.7709831  79.4381778  50.5981052
  35.4182809  77.7962031  36.3385899  34.5505234  77.8684630  36.4043508
  35.7058013  78.5984110  36.5273874  35.3322557  77.9256178  36.3760665
  44.5415697  77.9439890  44.6697221  45.2869289  77.7549700  44.2560646
  44.1253002  78.4698128  44.1111077  44.5900672  77.9942035  44.5261794
  44.1397340  81.4737037  40.6066865  43.3008441  81.4998316  40.3705128
  44.2101707  82.1207772  41.1872211  44.0265733  81.5733163  40.6575982
  42.5866618  78.3722414  35.3394481  43.2892971  78.1730162  34.8614439
  42.3210807  77.5998356  35.6463324  42.6513251  78.2285380  35.3139922
  37.3495174  79.6357699  44.3925361  37.1578371  79.6512834  45.2424785
  38.1993770  79.8321373  44.3692016  37.4470896  79.6672050  44.5148656
  40.2599401  79.8313208  44.5997184  40.7172016  80.5637183  44.7269977
  40.3355730  79.4079674  45.3584440  40.3390371  79.8770447  44.7298261
  44.7326727  73.0103084  38.4691027  44.8510296  73.4679547  37.7358330
  44.5588903  72.2048345  38.1827245  44.7245898  72.9596856  38.3191961
  41.7004291  74.8653886  39.4109689  40.8297849  74.8392607  39.3642999
  41.9544632  74.6931078  38.5935535  41.6097851  74.8364030  39.2829826
  38.7253432  76.8760114  40.8683160  38.2091920  76.1840306  40.9934739
  38.1647361  77.5430892  40.8145758  38.5659945  76.8723372  40.8789226
  40.7945665  77.4153074  42.6976012  40.4077418  77.4402106  43.4789542
  40.3078602  76.8494753  42.2450529  40.6658174  77.3348825  42.7463916
  40.4602807  74.3020060  44.9886272  41.0895925  74.8380360  44.7107342
  40.6288670  74.2097419  45.8399838  40.5780601  74.3681422  45.0734800
  40.2616722  79.0891255  47.2612684  41.0890151  78.8176404  47.3171298
  40.2824568  79.8852096  47.6176502  40.3869572  79.1671009  47.3227867
  43.9526725  76.8355948  37.9571574  44.1576319  76.7678256  38.8028571
  43.6253149  77.6414770  37.8892751  43.9341973  76.9441889  38.0731229
  47.2060413  77.3887713  37.4374339  46.5934727  77.8758115  37.8228071
  47.3024588  76.7131204  37.9811991  47.1298311  77.3606021  37.5753198
  41.2079494  79.1450554  32.5371839  41.6623241  79.3161114  33.2619683
  41.6819540  78.5318665  32.1369614  41.3447814  79.0801439  32.5845600
  40.4672090  77.6443347  38.6748707  39.6208135  77.8166155  38.5490057
  40.4643222  76.8392691  39.0114536  40.3419239  77.5504376  38.7059834
  41.5370390  81.4218562  39.5410765  41.0630344  80.8960324  40.0516076
  41.9088526  80.8748034  38.9725627  41.5220279  81.2634558  39.5325912
  49.8012308  83.2622394  38.9046805  49.5622077  83.2218229  38.0667590
  49.9646209  84.1093546  39.0312526  49.7902611  83.3814479  38.8000287
  42.4856254  76.0186901  44.3430387  41.9896816  76.2150575  43.6521954
  43.2425316  76.4179569  44.1719189  42.5243079  76.1064634  44.2150524
  39.7559134  79.6929247  40.9333698  39.7801621  79.1589359  40.2446478
  40.0070608  79.1846555  41.5959288  39.7969053  79.5390150  40.9298342
  36.0360456  78.4200065  40.3139442  36.0758828  78.9209271  41.0274149
  35.2110121  78.5110458  40.0445365  35.9199982  78.5081881  40.3789980
  35.2658603  78.4269468  48.2469752  35.8911306  77.8831600  48.5199184
  34.8109083  77.9464385  47.6777542  35.2906863  78.2758949  48.2031346
  42.8349224  79.3969447  42.8064957  43.2604295  78.9441973  42.1948483
  42.2206217  78.8429517  43.0829744  42.8077869  79.2483423  42.7569982
  41.2743447  75.8684546  36.2155534  40.6311764  75.7182193  36.7840672
  40.9342853  75.6226892  35.4504638  41.1288524  75.8096669  36.1858549
  46.0270920  80.2799857  38.5475916  46.3798531  79.8529580  39.2221714
  45.1685722  80.1950700  38.6776992  45.9520365  80.2044597  38.6670926
  47.4594981  75.4018269  39.4760228  46.9525845  74.6947408  39.4081406
  48.2562414  75.0711457  39.6061305  47.5022220  75.2491420  39.4859223
  43.3758996  81.9084881  35.3733892  43.1472689  81.9317582  34.5312250
  43.6357073  81.0842348  35.4928902  43.3805184  81.7900961  35.2659089
  46.1015703  80.8984818  35.6237050  46.1009929  80.7433475  36.4821326
  45.8971883  81.7447805  35.5678436  46.0715480  81.0005439  35.7424989
  39.3956468  76.8147742  45.2509638  39.5284373  76.0178736  45.5790614
  39.7801621  77.3414145  45.8307914  39.4712797  76.7747659  45.3853141
  42.4688823  73.7378068  41.8490731  41.6634787  73.6275798  42.1658570
  42.3395559  73.8390524  40.9920597  42.3308956  73.7361738  41.7698772
  45.9254784  79.9023560  42.4430428  45.3417772  80.4032767  42.0307995
  46.2459078  79.3953117  41.8094751  45.8867959  79.9015395  42.2888935
  38.4649583  78.8164155  32.7189103  39.2865277  78.9862468  32.4770798
  38.0019234  78.9711416  31.9955400  38.5180745  78.8645888  32.5760747
  37.0544915  76.8106917  43.4987532  37.5989328  76.4698044  44.0891873
  37.1081850  77.6692379  43.6408816  37.1434034  76.8862177  43.6069405
  14.9553386  15.3591030  21.4871500  14.9247390  16.2135666  21.6589770
  15.5534734  15.0586322  22.0457644  15.0390543  15.4407526  21.5946302
   8.1553070  14.4466681  26.2424431   7.2990966  14.6075179  26.2933547
   8.2020724  13.5758745  26.2629492   8.0352182  14.3417483  26.2530497
   2.5394210  23.9829399  22.0061662   1.7877110  23.6044937  21.7777707
   2.9880222  24.0147832  21.2580472   2.4943877  23.9315006  21.8619164
  11.4646787  20.7153206  35.8484887  12.1713554  20.2205237  35.9771821
  11.6534722  21.1562288  35.1187545  11.5974693  20.7071557  35.7593932
   7.9919170  24.4054768  17.4347209   7.6570538  25.0831690  16.9991431
   8.5046040  24.0160079  16.8464081   8.0184751  24.4479346  17.2834001
   7.5323461  26.3569037  23.3758321   7.9162841  26.9255935  22.8363096
   7.4682603  25.6318547  22.8964137   7.5796889  26.3344500  23.2252183
  11.0004891  16.5058725  28.8856082  11.5460851  17.1843811  28.9450052
  10.9421768  16.3646186  28.0257664  11.0720806  16.5850726  28.7668143
   4.1178966  23.9947791  24.2724435   4.2189329  23.1848145  24.5821562
   3.5220712  23.9004737  23.6424113   4.0451505  23.8612819  24.2250673
  12.7769960  17.9343332  19.7589810  12.6609486  18.6851018  20.1881948
  13.5725847  17.6767285  20.0085897  12.8774550  18.0078179  19.8593902
   3.9579706  28.9125380  25.6739291   4.6017161  29.3538544  26.0635449
   4.2835961  28.1078806  25.5869549   4.1011535  28.8590575  25.7184768
   4.6600286  21.9237355  21.0459152   4.9816127  22.4642562  20.4420461
   5.3072382  21.3534126  21.1781442   4.8026341  21.9196530  20.9766188
   6.7101994  13.9253350  21.1293539   7.4082158  14.1041477  21.6215002
   7.0254326  13.4023689  20.5063928   6.8597331  13.8747122  21.1095549
   6.8989929  20.3123795  21.1173331   7.3383565  19.7040895  21.5628103
   6.7494592  19.9331168  20.3458796   6.9411395  20.1662266  21.0692498
   6.9047663  21.7522712  27.9699049   7.1870906  20.9574118  27.7485805
   7.6333824  22.2303300  27.9904110   7.0537227  21.7057309  27.9402064
  10.4999266  18.6650976  18.0704100  10.4150561  19.5211943  18.2153669
  10.9883649  18.3895300  18.7386259  10.5588163  18.7508297  18.1906181
  11.4317699  15.2835770  19.5701835  10.9029170  15.4995404  20.2299141
  11.9542719  15.9771909  19.4902804  11.4306152  15.4178907  19.6557434
  16.8865752  20.8582075  24.9434879  16.0563455  21.0692718  25.1068296
  16.8375004  20.0319129  24.6677163  16.7572487  20.7671681  24.9272245
   4.9475489  23.6885929  27.7782789   4.4302431  23.3293344  27.1744097
   5.6449881  23.1648103  27.7888855   4.9741070  23.5583617  27.6913048
   8.6039081  24.1380743  33.7398962   8.6922427  23.9506883  34.5877172
   9.0328794  23.4918172  33.3403809   8.6801184  24.0143751  33.8070713
   6.1709541  23.4211903  32.7216624   5.6080376  23.0084513  33.2456285
   6.9330565  23.3464809  33.1409767   6.2003990  23.3489303  32.8609625
   1.7305533  25.4109924  25.3253254   2.4326112  24.8961913  25.3826011
   1.6503016  25.7384075  26.1300129   1.8229293  25.3824150  25.4526047
  16.3819710  13.5052475  28.7385301  15.5448131  13.5754662  28.9732895
  16.3507941  13.5076970  27.8659603  16.2537992  13.5162702  28.6444849
   2.7784439  15.6485511  34.4533669   2.9504943  15.5391406  35.3018951
   3.3153797  16.2939916  34.2164862   2.8829443  15.7277513  34.5438766
   1.0556308  21.6016276  24.8338862   1.8945207  21.8339209  24.8812624
   1.0868077  20.7320587  24.7645898   1.1838026  21.5073222  24.8303507
   1.6809011  22.0217151  29.1352168   2.2207236  21.8788282  29.8055540
   0.9978957  22.4213902  29.5036194   1.6601165  22.0596822  29.2886590
  11.1049896  17.7008152  24.3297192  11.8607411  18.1339666  24.3686101
  11.2112220  17.0512922  24.9031828  11.2320066  17.6685636  24.4195218
  14.1430067  21.5281429  25.0799595  13.7065299  21.5318172  25.8358567
  13.8092982  22.2086928  24.6479173  14.0292687  21.6293885  25.1280428
   8.7159141  23.5689762  36.4042746   9.4999557  23.6820610  36.7698488
   8.5155735  22.7430899  36.6001431   8.8025166  23.4636481  36.4877132
  14.0627550   8.5695257  27.3229023  14.7053458   8.6393362  27.9090938
  14.3150571   7.9024480  26.8208565  14.1949682   8.4821606  27.3356302
   8.8729534  25.4799864  30.0509201   8.0744780  25.2399364  30.3083070
   9.3215545  25.5314257  30.7976249   8.8204145  25.4522255  30.1994125
  17.2774413  18.2462349  23.9719232  17.9390847  17.6853017  23.8715141
  16.6365825  17.7514380  24.2971924  17.2803281  18.0898758  24.0051573
   8.1651221  21.5432480  16.2800156   8.5802369  21.2117504  15.5884651
   7.3343151  21.3101383  16.1520292   8.1039230  21.4603736  16.1591003
  13.5639244  19.2627731  23.7131221  13.7994833  19.4072930  22.8858072
  13.7128808  20.0270139  24.1062735  13.6205047  19.3966786  23.6494825
   0.5585321  15.7461224  33.0780442   1.2825294  15.7314255  33.5645337
   0.6601458  16.4556580  32.5802411   0.6803530  15.8485927  33.0759229
  15.3929701  18.1029397  21.5500825  15.7237918  18.6357037  20.9440920
  15.9662789  18.1568285  22.2062776  15.5263380  18.1898966  21.5578607
   7.9330271  19.2260309  37.9429389   7.1403252  19.5403821  38.1282009
   8.0479198  19.4411777  37.1050174   7.8325681  19.3044146  37.8467724
  10.6061590  15.9494300  22.2324405  10.7008444  16.6883594  22.6864031
   9.9820433  15.5211775  22.6658970  10.5270620  15.9955621  22.3632553
   8.8614064  19.1280513  32.8814686   9.4352925  18.4907757  33.0363250
   8.7828867  19.1284595  32.0124344   8.9347298  19.0345624  32.7761097
   4.2177782  17.5603778  24.9335883   3.9597026  16.7275513  24.9067183
   4.2726265  17.7861391  24.0928384   4.1877560  17.4701549  24.8056020
   9.2978832   9.6632228  25.0339976   8.5935159   9.1741414  25.1923895
   9.3463807   9.6754703  24.1628421   9.2008884   9.5921876  24.9279316
   3.1912494  15.1141540  25.4200778   2.6162086  15.2733709  26.0564739
   2.8148171  14.4776949  24.9569229   3.0515307  15.0439353  25.4455337
   6.8585783  13.5864890  30.2793157   6.4700216  13.1619107  29.6245348
   6.1940481  13.8347039  30.7870183   6.7032711  13.5603611  30.2581025
  16.5009052  13.3439894  23.0540987  16.2445617  12.5319836  22.8638869
  17.3438366  13.3517461  22.8271174  16.5875078  13.2251892  22.9925804
  10.6812145   7.2839518  27.7917141  11.0622656   6.6017689  28.1785015
   9.8775429   6.9949120  27.6092805  10.6188606   7.1406567  27.8221197
   7.9624721  17.8163494  18.4769964   8.7765360  18.1078387  18.3652735
   7.8983863  17.1623356  17.9028257   8.0727460  17.7628689  18.3758801
  14.1834211  20.4989490  32.8899539  13.9472849  19.6677555  32.7711600
  14.8277440  20.4475097  33.4754383  14.2428882  20.3687178  32.9585433
   3.8332630  21.2885012  23.6042276   4.4706576  21.0496759  24.1494069
   4.2587701  21.4922170  22.8695436   3.9908796  21.2836022  23.5759433
  15.2070632  20.2833939  28.9527834  14.9016449  21.0161996  29.3141149
  14.4876848  19.8771868  28.6720620  15.0557974  20.3315672  28.9640971
   6.2154101  21.7657434  25.2836062   6.2893110  21.6032606  26.1377912
   7.0323608  21.9547624  25.0396544   6.3470460  21.7694177  25.3734088
  20.9072424  16.9226940  28.2796178  20.8396924  16.9422899  27.4098765
  20.8928087  17.7657267  28.5051849  20.8951181  17.0500674  28.1848655
  11.3168771   8.3262097  31.6037267  12.0622363   8.1371908  31.1900693
  10.9006075   8.8520335  31.0451124  11.3653745   8.3764243  31.4601841
   4.7558687  24.7292177  20.0149535   5.0456986  24.3381159  19.2908762
   5.4862168  24.9108882  20.4554811   4.9065571  24.6985991  19.9732342
  18.6931042  15.6971326  26.5542772  19.2438963  15.0639395  26.7939865
  18.6775157  16.2286719  27.2458277  18.7716238  15.6820274  26.6921631
   5.3453432  19.5309923  31.1002666   4.8465126  20.2425691  31.1787554
   6.1553657  19.8510590  31.0620828   5.3909539  19.6836772  31.1059234
   2.6964603  26.7059560  23.0809685   2.4764898  26.4156914  23.8736352
   2.4759125  26.0474515  22.5527597   2.6312197  26.5659268  23.1198594
   1.6081550  18.7932876  25.3465387   1.3194799  18.1670347  25.8811114
   2.4764898  18.7353164  25.4130067   1.6941802  18.6920420  25.4356341
  12.3959448  13.9367660  25.6647369  12.0524214  13.2157995  26.0154618
  12.4952490  13.7281511  24.8225727  12.3601491  13.7991863  25.5919049
   4.8632558  28.0788950  21.8640377   5.5156617  27.5465392  22.0931404
   4.1658167  27.7257602  22.2508252   4.8563276  27.9478473  21.9552545
   1.8113823  20.4328127  21.2707752   2.5659791  20.8141166  21.4843214
   1.2184436  20.8839271  21.7254448   1.8350537  20.5556955  21.3690630
  12.8572477  20.3993364  21.2071357  13.4230509  21.0586574  21.1229900
  12.2100380  20.7443062  21.6787759  12.8451233  20.5475305  21.2644113
   4.2720490  12.3890968  36.3964964   3.4620266  12.6948747  36.2854806
   4.7495177  13.1096550  36.5117548   4.2223969  12.5405569  36.3972035
   3.1312050  21.6036689  26.6447867   2.6092803  21.7436980  27.3299732
   3.5186070  20.8447353  26.8349985   3.1115751  21.5122212  26.7748944
   9.3279055  23.3432148  20.6308436   9.0865731  22.6100008  20.2235501
   9.5080388  23.8919005  19.9774769   9.3186679  23.3154539  20.4738659
   4.5578376  18.6340708  22.0429358   4.3621158  19.2415442  21.4489661
   4.7812721  17.9408652  21.5621032   4.5613017  18.6218233  21.8845439
   2.9556906  15.5195446  22.1610227   3.6779557  15.6836604  21.7014033
   2.4764898  16.2405110  22.0549566   2.9920636  15.6493675  22.0775841
  10.9150413  11.8559244  27.5406912  10.0761514  11.8820523  27.3045175
  10.9854780  12.5029980  28.1212258  10.8018807  11.9555370  27.5916028
   9.3619691   8.7544621  22.2734527  10.0646044   8.5552370  21.7954486
   9.0963880   7.9820564  22.5803371   9.4266324   8.6107587  22.2479969
  14.7907937  17.0627231  24.8268153  14.7041912  17.2182657  25.6802932
  14.3358417  17.7065307  24.4527558  14.7111194  17.1802986  24.8975260
   4.1248248  10.0179907  31.3265408   3.9331445  10.0335041  32.1764832
   4.9746844  10.2143581  31.3032063   4.2223970  10.0494258  31.4488703
   8.6633753  14.3837978  23.4493713   8.4168467  14.3033729  24.2830502
   8.9918876  13.5991446  23.2556240   8.6754997  14.2564244  23.5441236
  12.5581802  21.0921338  27.2380494  12.4196161  21.7902383  27.7429236
  11.7781800  20.9369994  26.8816676  12.4225029  21.1721504  27.2606768
  10.8959887  17.3917713  33.4902876  10.8907925  16.5197529  33.4945302
  11.6020881  17.5905882  33.0172331  11.0004891  17.2921587  33.4209911
   4.6230780  17.1194697  32.8616696   4.7674156  17.6995905  32.2259806
   4.9706429  17.4970993  33.5666550   4.6958242  17.2615401  32.8715691
   6.7950698  16.3184865  30.6441827   6.0474012  16.5115880  30.2390106
   6.9492223  15.4930085  30.4065949   6.7073125  16.2249977  30.5487233
   3.6958535  25.3097469  29.7277723   3.8448099  24.7500384  29.0751127
   4.4758537  25.3889470  30.1110242   3.8332629  25.2383034  29.6874672
  14.0535175  20.4499591  17.9996993  13.6741983  19.6636729  17.9926283
  13.3901420  20.9986448  17.8568637  13.8993649  20.4144415  17.9777790
   6.2211836  25.4812111  31.0062214   6.1455507  24.8120922  31.5613002
   6.1501695  26.1829900  31.5202880   6.1992443  25.4857019  31.1639062
   7.0352475  10.2135416  31.5337231   7.4925089  10.9459390  31.6610023
   7.1108803   9.7901881  32.2924487   7.1143445  10.2592654  31.6638308
   6.8782083  24.0013110  21.8385820   7.6431974  23.7322754  21.5168484
   6.7760173  23.5163121  22.5555882   6.9763578  23.8902675  21.8965647
   4.9134853  12.2037520  28.3779055   4.1230927  12.0228980  28.6996391
   5.3095475  11.4264472  28.3609350   4.8551729  12.0624981  28.4231604
  10.2978539  19.8379950  26.1038501   9.6223541  19.6065182  26.6051888
  10.3070915  19.2301133  25.4780606  10.1997043  19.7138875  26.0854653
   7.4272683  14.6797779  32.8602554   7.3631824  15.5407735  32.7322691
   7.5669871  14.3629772  32.0598105   7.4388153  14.7597946  32.7230767
  12.2995273  22.6945082  18.3348679  12.3815111  23.5012069  18.0110130
  12.7845016  22.7141042  19.0589453  12.3832431  22.8165745  18.3935578
   6.1091777  17.3729918  27.0018757   5.6854026  17.5734417  26.2657775
   5.9336632  16.5258766  27.1143057   6.0202657  17.2778700  26.9092447
   5.6103470  28.8880431  29.4640214   6.0999401  28.1891220  29.2815879
   5.0387703  28.5904301  30.0516272   5.5988000  28.7406655  29.5241255
   1.3974222  17.8681970  22.4346730   1.5538841  17.8028772  23.2902722
   1.7374815  18.6430522  22.2225409   1.4707457  17.9731168  22.5301324
   7.9353366  17.2439853  21.3040093   8.4768912  16.7410234  21.7678713
   8.2499925  17.1905048  20.4929578   8.0617763  17.1619274  21.2523905
  11.8070474  21.4542501  38.4167005  12.6205339  21.1827649  38.5772137
  11.6465440  21.1550041  37.6127201  11.9040422  21.3697427  38.3212411
   6.1039816  22.6357205  18.5880121   6.1732636  21.7771743  18.7273121
   6.8828271  22.8529086  18.2599145   6.2292666  22.5410069  18.5597278
   9.0842636  12.1376158  31.3562393   9.2984605  11.4987072  30.8025747
   8.4676535  12.5821982  30.9270255   9.0247965  12.1086301  31.2112824
  10.4947304  25.0594906  22.8016614  10.1027095  24.7561621  22.0839480
  10.6500376  25.8963996  22.6121568  10.4600893  25.1378743  22.6673111
  11.2481724  13.7465223  32.2945700  10.4358405  13.4391113  32.3758873
  11.7071658  13.2664223  32.8588413  11.1962109  13.6301715  32.3900294
  10.6586978  21.6244895  22.7422645  10.3001633  21.7959538  23.5186677
  10.1725689  22.0858101  22.1850643  10.5345675  21.7183866  22.7747914
   8.3435231  15.1525294  37.0774403   8.8134862  15.7767411  37.4642277
   8.3897111  14.4842270  37.6367617   8.4203107  15.1459975  37.2174474
  11.8191718  22.5148791  33.6889846  12.4571438  22.0208987  33.3552302
  11.1765809  22.4426191  33.1042072  11.8185944  22.4307799  33.5532201
  13.5448718  14.3637937  28.2555761  13.1176326  14.2764285  27.5003861
  12.9074771  14.4715712  28.8410605  13.3878325  14.3670597  28.2301203
   7.0369795   9.4713462  34.1952731   7.8643224   9.1998611  34.2511345
   7.0577641  10.2674304  34.5516549   7.1622645   9.5493216  34.2567913
  11.8745974  23.2068599  30.3295202  12.6638353  22.8557664  30.4497284
  12.0489572  24.0204988  30.0671836  12.0166256  23.2754456  30.3083070
   1.6139285  16.6177325  27.3822991   0.7727291  16.5181199  27.5901885
   1.8229293  17.3872805  27.7337312   1.5203977  16.7169368  27.4650306
  10.7279799   7.2178156  24.8911621  10.9329392   7.1500464  25.7368618
  10.4006223   8.0236977  24.8232798  10.7095046   7.3264096  25.0071276
   5.4255950  14.5458724  26.6320589   5.1219087  13.9914712  27.2330996
   4.7235370  14.7250934  26.1448623   5.2772159  14.4903506  26.6490294
   3.4874301  21.7608445  31.3392686   3.3794656  21.7710507  32.2054745
   3.6970082  22.5863225  31.1497640   3.5024412  21.8849520  31.4396778
  13.9813486   7.7709920  24.3714386  13.3687800   8.2580322  24.7568118
  14.0777661   7.0953411  24.9152037  13.9051384   7.7428229  24.5093244
   1.5048093  19.0121087  28.8014624   0.9136026  19.6530585  28.7717639
   2.2669116  19.4358704  28.7745924   1.5296353  19.1696926  28.7929771
   3.5492065  10.8389780  34.0354669   3.1577630  10.1923127  34.4710447
   3.7177928  11.4301215  34.6548924   3.5162976  10.8304048  34.1917375
  17.6238514  18.8426857  29.7991902  17.6821638  19.2913506  30.5451879
  16.9904982  19.2525670  29.3621982  17.5389809  18.9700592  29.8444451
  11.2637609  24.4630399  26.2346648  11.0657298  24.9521213  25.5402860
  10.6425320  24.6671640  26.8130782  11.1425173  24.5646937  26.2169872
   5.3245587  16.2315296  20.5756893   6.0687632  16.6189572  20.8139843
   5.4706283  15.3872721  20.7397381   5.4556172  16.1645768  20.6350862
   8.3123463  11.8040769  26.4750812   7.8383417  11.2782531  26.9856123
   8.6841599  11.2570242  25.9065674   8.2973352  11.6456766  26.4665959
  14.5760194  16.8643145  27.8857593  14.3358417  16.0249560  27.8900019
  15.0552201  16.9443311  28.6098366  14.6112377  16.7524544  27.9932395
  16.5765381  13.6444602  25.8386852  16.3375151  13.6040436  25.0007636
  16.7399282  14.4915754  25.9652573  16.5655684  13.7636687  25.7340334
  13.1811411  18.0294551  31.7691897  13.9045610  17.5767078  31.5902917
  12.9161373  18.3099217  30.9864225  13.2492684  18.0045520  31.6270612
   2.0498279  12.6254725  28.5044776   1.4251349  12.6373117  27.8970729
   1.7143874  13.1014900  29.1536016   1.9083771  12.6973242  28.5101345
   9.7944045  21.2680887  18.6686223  10.5178244  21.7339000  18.5250796
   9.3544636  21.3354497  17.9183820   9.8359737  21.3464724  18.5371004
   8.9630200  18.1278429  29.9186912   8.3487193  17.5836480  30.2135547
   9.4797485  17.6142666  29.4392728   8.9485863  17.9714838  29.8911140
   8.2026498  19.1982699  27.6531211   7.7754106  18.5732418  27.2196646
   8.1951442  18.9157621  28.4790218   8.1385639  19.0635480  27.7111038
   1.3189025  14.2347872  30.7219645   1.4782511  13.4791197  31.1271366
   1.1381918  14.7838812  31.3760382   1.3154384  14.2041686  30.8782351
   9.2609328   6.4009108  31.2770434   8.7649889   6.5972782  30.5862001
  10.0178390   6.8001776  31.1059236   9.2996152   6.4886842  31.1490571
   6.5312207  10.0751454  27.8673745   6.5554694   9.5411566  27.1786525
   6.7823681   9.5668763  28.5299335   6.5722126   9.9212358  27.8638389
   4.9943142  18.3683012  35.3499783   4.1438773  18.5054726  35.4857428
   5.1571270  17.6346790  35.7947485   4.8927006  18.2797113  35.4355383
   4.2327893  15.3182782  29.5453388   3.4019822  15.4856600  29.3388636
   4.1779410  14.9418733  30.3302273   4.1017308  15.2872513  29.6301916
  15.6146725  16.9920962  30.2722447  16.2064565  17.6318213  30.3040645
  16.0505719  16.2943999  30.5614513  15.7665156  16.9839312  30.3203279
   7.4440115  21.4138334  30.8980341   6.9365206  21.9674181  31.3420971
   7.1466761  21.4746624  30.0799115   7.3245000  21.5044645  30.8428797
   9.6102297   9.7791654  29.7405004  10.0357368   9.3264180  29.1288530
   8.9959290   9.2251725  30.0169791   9.5830942   9.6305630  29.6910029
  10.0547895  25.3301592  18.8284284   9.3377205  25.1562454  18.3631521
  10.7054633  25.0954164  18.2959770  10.0449745  25.2697385  18.6813502
  12.6395866  14.2066181  22.5725589  11.9687056  14.7495883  22.4438655
  13.3335616  14.6761036  22.3307284  12.6424734  14.3564452  22.5181117
   6.6882600  26.3462893  27.8037347   6.4648254  25.5881722  28.1721374
   6.1992443  26.3760914  27.0817787   6.5826049  26.2385117  27.7514088
  12.8023994  10.6622064  25.4815962  13.1551604  10.2351787  26.1561761
  11.9438795  10.5772908  25.6117039  12.7273438  10.5866805  25.6010973
   1.5007679  13.2929584  23.5398809   0.7819668  13.7093716  23.8071672
   1.8720041  13.8583823  22.9890447   1.4499610  13.4378865  23.4981616
  10.8007259  13.9257433  29.4300805  10.7805187  13.7440728  30.2835583
  10.8486460  14.7969451  29.4060388  10.8041900  14.0273971  29.5524099
   8.7453589  20.5144625  35.3549281   8.7049444  19.8694302  34.7694437
   9.5576908  20.4581242  35.6674693   8.8596743  20.4103592  35.3146230
   5.3361057  26.5663351  25.2574432   4.9221455  25.9037481  24.8678274
   6.0208431  26.7141209  24.7370126   5.3759429  26.4904009  25.1230929
   8.7026351  25.7253436  26.0098049   8.3042634  25.8355706  25.2418869
   8.0877571  25.9335502  26.5924608   8.5525240  25.7727004  25.9829348
  14.2348054   5.7840476  26.4100275  13.7278918   5.0769616  26.3421452
  15.0315487   5.4533665  26.5401351  14.2775293   5.6313627  26.4199270
  10.1512070  12.2907088  22.3073939   9.9225763  12.3139790  21.4652297
  10.4110146  11.4664555  22.4268949  10.1558258  12.1723168  22.1999136
   4.4331298  14.1441561  31.9099039   3.9210201  13.5362744  32.2684070
   4.2610794  14.8598154  32.3773015   4.3320935  14.1604861  32.0315262
   3.2056832  10.8283635  23.6028134   3.6814198  11.1900714  22.9678315
   2.7045432  11.4840102  23.8828277   3.2022191  10.9777823  23.5504875
  16.4368194  20.3005403  19.3941139  16.8201799  21.0496759  19.6239236
  15.6412307  20.5471222  19.1353128  16.3761976  20.4475096  19.3898713
   8.3100368  12.0665806  34.3501294   8.8671799  11.8379615  33.7179760
   7.9861433  12.8271472  34.0736507   8.3446779  12.1449643  34.2157791
   6.0283486  15.1533459  35.3153301   6.7794813  15.4685136  35.6292856
   6.2206062  14.9512630  34.4887223   6.1674900  15.1700841  35.2396697
  12.8768776  11.2807026  22.5577097  12.8763002  11.1255682  23.4161373
  12.6724956  12.1270013  22.5018482  12.8468554  11.3827646  22.6765036
  10.6009628  15.9604527  26.2113304  11.0963293  15.2427522  26.1717324
   9.7909404  15.6575325  26.0967791  10.5553521  15.8102174  26.1887030
   6.0468239  19.8102341  18.3610308   5.2379562  19.4869014  18.3143618
   6.5543148  19.1035563  18.2938557   6.0017906  19.6583657  18.3440603
  12.6661447  18.7108215  28.8990433  13.0916518  18.1882637  28.3460858
  12.3018367  19.3089052  28.3779055  12.6748049  18.7218442  28.7399442
   2.3015526  27.0072432  27.6587778   2.6162085  27.8208821  27.6665560
   2.7108940  26.6222651  28.3269937   2.4083624  27.0701135  27.7591870
   9.2540046  22.4242479  25.2291590   9.7251224  23.1382742  25.3981575
   9.5900225  21.8241229  25.7651459   9.3735161  22.4413943  25.3323966
  11.3417031  24.0343792  37.4083662  11.4513996  23.2452353  37.7640409
  11.6707927  23.9449729  36.6058000  11.4069437  23.9049645  37.3426053
   9.8913992  22.2160413  31.9919283   9.3434938  21.5918297  31.7239348
  10.3527021  22.4054685  31.2763362   9.8781202  22.1519463  31.8469714
  12.7007857  10.2845768  29.3770475  12.1170846  10.7854974  28.9648042
  13.0212151   9.7775324  28.7434798  12.6621032  10.2837603  29.2228982
   9.4572319  23.2211486  28.5228624  10.2770693  23.0774452  28.7844919
   9.1766396  23.8457685  29.0645062   9.5369062  23.2921838  28.6416563
  19.1285654  29.9651989  26.2424431  18.2723549  30.1260487  26.2933547
  19.1753308  29.0944053  26.2629492  19.0084765  29.8602791  26.2530497
  13.5126794  39.5014707  22.0061662  12.7609693  39.1230245  21.7777707
  13.9612805  39.5333140  21.2580472  13.4676461  39.4500314  21.8619164
  18.9651754  39.9240076  17.4347209  18.6303122  40.6016998  16.9991431
  19.4778624  39.5345387  16.8464081  18.9917335  39.9664654  17.2834001
  18.5056045  41.8754345  23.3758321  18.8895424  42.4441243  22.8363096
  18.4415186  41.1503855  22.8964137  18.5529472  41.8529808  23.2252183
  15.0911550  39.5133099  24.2724435  15.1921913  38.7033453  24.5821562
  14.4953295  39.4190045  23.6424113  15.0184089  39.3798127  24.2250673
  23.7502544  33.4528640  19.7589810  23.6342070  34.2036326  20.1881948
  24.5458430  33.1952593  20.0085897  23.8507133  33.5263487  19.8593902
  14.9312289  44.4310688  25.6739291  15.5749745  44.8723852  26.0635449
  15.2568545  43.6264114  25.5869549  15.0744118  44.3775883  25.7184768
   8.2876594  35.5353385  23.8976768   8.0526779  34.7021038  23.7909037
   8.4262235  35.8158051  23.0837969   8.2732257  35.4536889  23.7619123
  10.5866682  27.7039116  26.7961076   9.9671713  27.1131763  26.6271091
  10.4850545  28.2950551  26.1625399  10.4804357  27.7043198  26.6766066
  15.6332869  37.4422663  21.0459152  15.9548710  37.9827870  20.4420461
  16.2804966  36.8719434  21.1781442  15.7758924  37.4381838  20.9766188
  17.6834577  29.4438658  21.1293539  18.3814742  29.6226785  21.6215002
  17.9986910  28.9208997  20.5063928  17.8329914  29.3932430  21.1095549
  10.3135815  31.2491398  29.0404645  10.1894511  31.8353843  29.6754464
  10.9654099  30.7551593  29.3416920  10.3909464  31.2630202  29.1790574
  17.8722513  35.8309103  21.1173331  18.3116148  35.2226203  21.5628103
  17.7227175  35.4516476  20.3458796  17.9143978  35.6847574  21.0692498
  15.3394156  34.4253115  28.3192156  15.9843158  33.9325558  28.0003105
  15.5795933  34.5677901  29.1458234  15.4704741  34.3730557  28.3941689
  17.8780247  37.2708020  27.9699049  18.1603490  36.4759426  27.7485805
  18.6066407  37.7488608  27.9904110  18.0269811  37.2242617  27.9402064
  15.8561441  24.8131054  25.2114814  15.5264771  25.2642198  24.5418512
  15.1806443  24.7347218  25.7587820  15.7071877  24.8682190  25.1938037
  21.4731849  34.1836284  18.0704100  21.3883144  35.0397251  18.2153669
  21.9616232  33.9080608  18.7386259  21.5320746  34.2693605  18.1906181
  22.4050282  30.8021078  19.5701835  21.8761754  31.0180712  20.2299141
  22.9275302  31.4957217  19.4902804  22.4038735  30.9364215  19.6557434
  14.2949890  34.6984295  18.3709303  13.7107105  35.2034326  18.7775167
  13.8919985  34.4726682  17.6305895  14.1489194  34.7392543  18.3214328
   9.8493919  40.4139056  25.1732974   9.3661497  41.1389546  25.1492558
  10.6617237  40.7115186  25.2843132   9.8984667  40.5641410  25.1860254
  15.9208073  39.2071237  27.7782789  15.4035015  38.8478652  27.1744097
  16.6182464  38.6833411  27.7888855  15.9473654  39.0768925  27.6913048
  18.7527105  30.9449947  16.8478224  18.9923108  31.1527931  16.0353567
  19.0742946  30.1407456  16.9567168  18.8364263  30.8564048  16.7438777
  14.0617395  22.8743343  20.6937761  14.8163363  23.2421660  20.4554812
  13.8844929  23.2482897  21.4616941  14.1471873  22.9841531  20.7722650
  12.7038116  40.9295232  25.3253254  13.4058695  40.4147221  25.3826011
  12.6235599  41.2569383  26.1300129  12.7961877  40.9009458  25.4526047
  13.7517023  31.1670819  34.4533669  13.9237526  31.0576714  35.3018951
  14.2886380  31.8125224  34.2164862  13.8562027  31.2462821  34.5438766
  12.4174460  25.2813662  17.3915874  12.2350033  25.4985543  16.5656867
  13.2800073  25.3952674  17.4474489  12.5179049  25.3303560  17.2770361
  12.0288892  37.1201584  24.8338862  12.8677791  37.3524517  24.8812624
  12.0600661  36.2505895  24.7645898  12.1570609  37.0258530  24.8303507
  12.6541595  37.5402459  29.1352168  13.1939819  37.3973590  29.8055540
  11.9711541  37.9399210  29.5036194  12.6333748  37.5782130  29.2886590
  18.0974179  22.2840072  20.4264898  18.8260339  22.1056027  19.9803055
  18.1869072  23.1258152  20.6372076  18.2180841  22.3823951  20.3918416
   8.0578740  33.7602750  29.2886589   7.7917155  32.9441867  29.4477580
   8.0717304  33.8055905  28.4182105   8.0203462  33.6459655  29.1840071
  11.9636487  28.5587834  15.9038348  11.2494664  28.2726014  16.3160780
  12.4480455  28.8984460  16.5444735  11.9295850  28.5669484  16.0593982
  12.8077346  27.2981128  31.9353597  12.1149143  26.8278108  32.1814329
  13.4237673  27.0719433  32.5095304  12.7961876  27.1948260  32.0562750
  19.1383804  37.0617788  16.2800156  19.5534953  36.7302812  15.5884651
  18.3075734  36.8286691  16.1520292  19.0771813  36.9789044  16.1591003
   8.4672153  34.5461529  26.5698334   8.2847726  34.5208415  25.7170626
   9.2021822  35.0160467  26.6087242   8.5486217  34.6122892  26.4496252
  24.5371827  34.7813039  23.7131221  24.7727417  34.9258238  22.8858072
  24.6861391  35.5455447  24.1062735  24.5937631  34.9152094  23.6494825
  11.5317905  31.2646532  33.0780442  12.2557877  31.2499563  33.5645337
  11.6334041  31.9741887  32.5802411  11.6536114  31.3671235  33.0759229
  26.3662284  33.6214705  21.5500825  26.6970501  34.1542345  20.9440920
  26.9395372  33.6753593  22.2062776  26.4995963  33.7084274  21.5578607
  18.9062854  34.7445617  37.9429389  18.1135835  35.0589129  38.1282009
  19.0211781  34.9597085  37.1050174  18.8058265  34.8229454  37.8467724
  21.5794173  31.4679608  22.2324405  21.6741028  32.2068902  22.6864031
  20.9553017  31.0397083  22.6658970  21.5003203  31.5140929  22.3632553
   8.4343064  31.4255030  26.7197400   9.0116566  31.2891481  27.3589646
   7.7357125  30.9690814  26.9742985   8.4164085  31.3377296  26.8519690
  21.8317195  33.3128348  15.4661357  21.7497357  33.3830535  16.3316344
  22.4696915  33.8758092  15.2745098  21.9137032  33.4067319  15.5651307
  15.1910366  33.0789086  24.9335883  14.9329610  32.2460821  24.9067183
  15.2458849  33.3046699  24.0928384  15.1610144  32.9886857  24.8056020
  20.2711416  25.1817536  25.0339976  19.5667743  24.6926722  25.1923895
  20.3196390  25.1940011  24.1628421  20.1741467  25.1107184  24.9279316
  14.1645078  30.6326848  25.4200778  13.5894669  30.7919017  26.0564739
  13.7880754  29.9962257  24.9569229  14.0247890  30.5624661  25.4455337
  17.8318367  29.1050197  30.2793157  17.4432799  28.6804415  29.6245348
  17.1673065  29.3532347  30.7870183  17.6765294  29.0788919  30.2581025
   3.9101897  30.2766923  23.4345219   3.9962149  29.8998791  24.2158749
   4.5377694  29.9027369  22.9565177   4.0158448  30.1652405  23.4790696
  18.9357305  33.3348802  18.4769964  19.7497944  33.6263695  18.3652735
  18.8716446  32.6808664  17.9028257  19.0460044  33.2813997  18.3758801
  14.8065213  36.8070319  23.6042276  15.4439160  36.5682067  24.1494069
  15.2320285  37.0107478  22.8695436  14.9641379  36.8021330  23.5759433
   9.4977855  39.0458656  27.4876579   9.5382001  39.3173507  26.6596359
  10.0572380  39.5700564  27.9034367   9.5861201  39.1634411  27.4268468
  15.4468028  32.0272609  17.9417165  15.8313181  31.8080316  18.6933710
  15.1979648  32.8535555  18.0718241  15.4670101  32.1170755  18.0718242
  17.1886685  37.2842742  25.2836062  17.2625693  37.1217914  26.1377912
  18.0056191  37.4732932  25.0396544  17.3203044  37.2879484  25.3734088
  10.9492442  37.6300605  22.3130505  10.1230559  37.8762342  22.1864784
  11.0104433  37.5512686  23.1792564  10.8366609  37.6545554  22.4219450
  13.1668465  23.6969546  23.2725946  12.2990891  23.7692145  23.3383555
  13.4543670  24.4991625  23.4613921  13.0808214  23.8263693  23.3100712
  15.7291271  40.2477485  20.0149535  16.0189569  39.8566466  19.2908762
  16.4594752  40.4294190  20.4554811  15.8798155  40.2171299  19.9732342
  16.3186016  35.0495231  31.1002666  15.8197710  35.7610999  31.1787554
  17.1286240  35.3695898  31.0620828  16.3642123  35.2022080  31.1059234
  13.6697186  42.2244868  23.0809685  13.4497482  41.9342222  23.8736352
  13.4491708  41.5659823  22.5527597  13.6044781  42.0844576  23.1198594
  12.5814134  34.3118184  25.3465387  12.2927382  33.6855655  25.8811114
  13.4497482  34.2538472  25.4130067  12.6674385  34.2105728  25.4356341
  15.8365142  43.5974258  21.8640377  16.4889200  43.0650700  22.0931404
  15.1390751  43.2442910  22.2508252  15.8295860  43.4663781  21.9552545
  12.7846407  35.9513435  21.2707752  13.5392375  36.3326474  21.4843214
  12.1917020  36.4024579  21.7254448  12.8083120  36.0742263  21.3690630
  23.8305060  35.9178672  21.2071357  24.3963093  36.5771881  21.1229900
  23.1832964  36.2628370  21.6787759  23.8183817  36.0660613  21.2644113
  15.2453074  27.9076275  36.3964964  14.4352850  28.2134055  36.2854806
  15.7227761  28.6281858  36.5117548  15.1956553  28.0590877  36.3972035
  14.1044634  37.1221996  26.6447867  13.5825387  37.2622288  27.3299732
  14.4918654  36.3632661  26.8349985  14.0848334  37.0307520  26.7748944
  11.0935818  27.1727805  20.7142822  10.8060613  26.8029076  19.9774769
  11.7806286  27.6422661  20.4526527  11.1524715  27.1874775  20.5657898
  20.3011638  38.8617456  20.6308436  20.0598314  38.1285316  20.2235501
  20.4812971  39.4104313  19.9774769  20.2919262  38.8339847  20.4738659
  15.5310959  34.1526016  22.0429358  15.3353742  34.7600750  21.4489661
  15.7545305  33.4593960  21.5621032  15.5345600  34.1403541  21.8845439
  13.9289489  31.0380753  22.1610227  14.6512141  31.2021912  21.7014033
  13.4497482  31.7590418  22.0549566  13.9653220  31.1678983  22.0775841
  11.5797106  33.4438826  31.2664366  12.0918203  33.7223079  30.6173126
  11.2933448  34.1828120  31.6327180  11.6131969  33.5941180  31.2254245
  20.3352275  24.2729929  22.2734527  21.0378628  24.0737678  21.7954486
  20.0696464  23.5005872  22.5803371  20.3998907  24.1292895  22.2479969
   8.6664012  27.9509018  21.5628103   8.7680149  28.7535179  21.8909078
   9.4619899  27.7496354  21.2651184   8.7991918  28.0394916  21.5663458
  15.0980831  25.5365214  31.3265408  14.9064028  25.5520349  32.1764832
  15.9479427  25.7328889  31.3032063  15.1956553  25.5679566  31.4488703
   9.4827744  28.0656196  29.3049225   9.3413236  27.2140137  29.4293732
   9.7668308  28.1084857  28.4811431   9.5035590  27.9455946  29.2016849
  19.6366337  29.9023286  23.4493713  19.3901051  29.8219037  24.2830502
  19.9651460  29.1176754  23.2556240  19.6487580  29.7749551  23.5441236
  15.5963364  32.6380005  32.8616696  15.7406740  33.2181213  32.2259806
  15.9439012  33.0156301  33.5666550  15.6690825  32.7800709  32.8715691
  14.6691119  40.8282776  29.7277723  14.8180683  40.2685692  29.0751127
  15.4491121  40.9074778  30.1110242  14.8065213  40.7568342  29.6874672
  25.0267758  35.9684899  17.9996993  24.6474567  35.1822037  17.9926283
  24.3634004  36.5171756  17.8568637  24.8726233  35.9329723  17.9777790
  18.0085058  25.7320724  31.5337231  18.4657672  26.4644698  31.6610023
  18.0841387  25.3087189  32.2924487  18.0876028  25.7777962  31.6638308
  10.2518049  25.9786544  32.6226675   9.7160239  25.3666902  32.9387442
  10.3135814  26.5534679  33.2760342  10.1813682  25.9733471  32.7662102
  22.4812384  18.9110599  25.4031074  22.5995952  19.3687062  24.6698377
  22.3074560  18.1055860  25.1167292  22.4731555  18.8604371  25.2532008
  17.8514666  39.5198418  21.8385820  18.6164558  39.2508062  21.5168484
  17.7492756  39.0348429  22.5555882  17.9496162  39.4087983  21.8965647
  15.8867436  27.7222828  28.3779055  15.0963511  27.5414288  28.6996391
  16.2828059  26.9449780  28.3609350  15.8284312  27.5810289  28.4231604
  20.3733327  36.5510602  13.8185769  21.1406312  36.6110727  13.4091621
  19.9264636  35.9791043  13.3342087  20.4206754  36.4747178  13.6863479
  21.2711122  35.3565258  26.1038501  20.5956124  35.1250490  26.6051888
  21.2803499  34.7486441  25.4780606  21.1729627  35.2324183  26.0854653
  18.4005266  30.1983087  32.8602554  18.3364408  31.0593043  32.7322691
  18.5402454  29.8815080  32.0598105  18.4120737  30.2783253  32.7230767
  23.2727857  38.2130390  18.3348679  23.3547694  39.0197376  18.0110130
  23.7577599  38.2326349  19.0589453  23.3565015  38.3351053  18.3935578
  17.0824360  32.8915226  27.0018757  16.6586609  33.0919725  26.2657775
  16.9069216  32.0444074  27.1143057  16.9935241  32.7964008  26.9092447
  16.5836054  44.4065739  29.4640214  17.0731984  43.7076528  29.2815879
  16.0120286  44.1089609  30.0516272  16.5720584  44.2591963  29.5241255
  12.3706805  33.3867278  22.4346730  12.5271424  33.3214080  23.2902722
  12.7107398  34.1615830  22.2225409  12.4440040  33.4916476  22.5301324
  18.9085950  32.7625161  21.3040093  19.4501495  32.2595542  21.7678713
  19.2232509  32.7090356  20.4929578  19.0350347  32.6804582  21.2523905
  17.0772400  38.1542513  18.5880121  17.1465220  37.2957051  18.7273121
  17.8560855  38.3714394  18.2599145  17.2025250  38.0595377  18.5597278
  21.4679887  40.5780214  22.8016614  21.0759679  40.2746929  22.0839480
  21.6232959  41.4149304  22.6121568  21.4333477  40.6564051  22.6673111
   8.9441067  30.5702228  22.7507497   9.3240032  30.9886773  22.0867764
   8.3696432  31.1515684  23.0576340   8.9152392  30.7180087  22.6984238
  21.6319562  37.1430203  22.7422645  21.2734217  37.3144846  23.5186677
  21.1458273  37.6043408  22.1850643  21.5078259  37.2369174  22.7747914
  19.4489948  20.7661401  26.3449736  18.5783506  20.7400122  26.2983046
  19.7030289  20.5938594  25.5275582  19.3583508  20.7371545  26.2169873
  16.4207927  32.8229368  15.2822879  16.7100452  33.5994251  15.5566453
  16.5079726  32.3118100  15.9837378  16.4762184  32.8621287  15.4265377
  19.3167815  30.6710602  37.0774403  19.7867446  31.2952719  37.4642277
  19.3629695  30.0027578  37.6367617  19.3935691  30.6645283  37.2174474
  16.4739088  22.7767630  27.8023206  15.9577577  22.0847821  27.9274785
  15.9133017  23.4438407  27.7485805  16.3145602  22.7730887  27.8129272
  18.5431322  23.3160590  29.6316059  18.1563075  23.3409621  30.4129589
  18.0564259  22.7502268  29.1790576  18.4143831  23.2356341  29.6803963
  18.2088464  20.2027575  31.9226319  18.8381582  20.7387875  31.6447389
  18.3774326  20.1104934  32.7739885  18.3266258  20.2688938  32.0074847
  18.0102379  24.9898770  34.1952731  18.8375808  24.7183919  34.2511345
  18.0310225  25.7859612  34.5516549  18.1355229  25.0678524  34.2567913
  12.5871868  32.1362633  27.3822991  11.7459875  32.0366507  27.5901885
  12.7961876  32.9058113  27.7337312  12.4936561  32.2354676  27.4650306
  10.0647435  29.7582170  25.2107742   9.6704133  29.8325182  24.4357851
   9.5087552  30.1440116  25.7616104   9.9250248  29.8263944  25.1775402
  21.7012382  22.7363464  24.8911621  21.9061975  22.6685772  25.7368618
  21.3738806  23.5422285  24.8232798  21.6827630  22.8449404  25.0071276
  16.3988533  30.0644032  26.6320589  16.0951671  29.5100020  27.2330996
  15.6967954  30.2436242  26.1448623  16.2504743  30.0088814  26.6490294
  15.4554630  27.3744552  21.1965291  15.7314365  26.6563464  20.7842858
  16.0553300  27.9729472  20.9886397  15.5847895  27.3564923  21.1046052
  14.4606884  37.2793753  31.3392686  14.3527239  37.2895815  32.2054745
  14.6702666  38.1048533  31.1497640  14.4756995  37.4034828  31.4396778
  24.9546070  23.2895228  24.3714386  24.3420383  23.7765630  24.7568118
  25.0510245  22.6138719  24.9152037  24.8783967  23.2613537  24.5093244
  18.9565151  25.0458069  19.4711886  19.4108897  25.2168630  20.1959730
  19.4305197  24.4326180  19.0709661  19.0933471  24.9808954  19.5185647
  12.4780676  34.5306395  28.8014624  11.8868609  35.1715893  28.7717639
  13.2401700  34.9544012  28.7745924  12.5028937  34.6882234  28.7929771
  12.8741299  25.6908393  29.4682642  13.3342781  25.7647322  30.2057765
  12.9197406  26.4889647  29.1182463  12.9491854  25.8202540  29.5255398
  14.5224649  26.3575088  34.0354669  14.1310214  25.7108435  34.4710447
  14.6910512  26.9486523  34.6548924  14.4895559  26.3489356  34.1917375
  22.2370192  39.9815707  26.2346648  22.0389881  40.4706521  25.5402860
  21.6157904  40.1856948  26.8130782  22.1157757  40.0832245  26.2169872
  16.2978171  31.7500604  20.5756893  17.0420216  32.1374880  20.8139843
  16.4438867  30.9058029  20.7397381  16.4288756  31.6831076  20.6350862
  18.2157746  23.5450862  25.6088754  17.3693791  23.7173670  25.4830104
  18.2128879  22.7400206  25.9454583  18.0904896  23.4511891  25.6399881
  19.2856047  27.3226077  26.4750812  18.8116001  26.7967839  26.9856123
  19.6574182  26.7755550  25.9065674  19.2705936  27.1642073  26.4665959
   9.6629077  29.3197584  31.8434358  10.5254690  29.2193293  31.7571688
   9.3320860  28.7392293  31.2819930   9.7414273  29.2189210  31.7479764
  21.2139546  28.2162631  19.5376566  20.6862565  28.2991375  18.8482275
  21.6735254  28.9580503  19.5341211  21.2041397  28.3383294  19.4351261
  13.0230863  28.1440033  28.5044776  12.3983933  28.1558425  27.8970729
  12.6876458  28.6200208  29.1536016  12.8816355  28.2158550  28.5101345
  13.2072611  26.4865151  14.5617461  12.8585416  27.1384876  15.0249010
  12.7269057  26.4722264  13.8341332  13.0842855  26.5808205  14.5228552
   9.7356538  36.2040493  29.9448540   9.2056463  35.5132932  29.9943515
  10.0081632  36.1950678  29.1161249   9.6981261  36.1007624  29.8295956
  20.7676629  36.7866195  18.6686223  21.4910828  37.2524308  18.5250796
  20.3277220  36.8539805  17.9183820  20.8092321  36.8650032  18.5371004
  19.1759081  34.7168007  27.6531211  18.7486689  34.0917726  27.2196646
  19.1684025  34.4342929  28.4790218  19.1118222  34.5820788  27.7111038
  12.2921608  29.7533180  30.7219645  12.4515095  28.9976504  31.1271366
  12.1114502  30.3024120  31.3760382  12.2886967  29.7226994  30.8782351
  20.2341911  21.9194416  31.2770434  19.7382472  22.1158090  30.5862001
  20.9910973  22.3187084  31.1059236  20.2728736  22.0072150  31.1490571
  17.5044791  25.5936762  27.8673745  17.5287278  25.0596874  27.1786525
  17.7556264  25.0854071  28.5299335  17.5454709  25.4397666  27.8638389
   5.0152381  32.8768257  27.3016889   4.9095830  32.8315101  26.4368973
   4.2652601  33.2222037  27.5831174   4.8887984  32.9209165  27.2154218
  13.7846113  24.3207580  27.2479489  13.8244485  24.8216787  27.9614196
  12.9595778  24.4117974  26.9785412  13.6685639  24.4089396  27.3130027
  15.9675726  33.8868320  35.3499783  15.1171356  34.0240034  35.4857428
  16.1303854  33.1532098  35.7947485  15.8659589  33.7982421  35.4355383
  15.2060476  30.8368090  29.5453388  14.3752406  31.0041908  29.3388636
  15.1511994  30.4604041  30.3302273  15.0749891  30.8057821  29.6301916
  13.0144260  24.3276983  35.1809799  13.6396963  23.7839116  35.4539231
  12.5594740  23.8471900  34.6117589  13.0392520  24.1766464  35.1371392
  13.5796520  29.1123681  20.0743506  13.7199481  29.6096146  20.7772147
  14.0779053  28.4109976  20.2157719  13.6737601  29.0825660  20.1995085
  13.6096743  29.9790792  17.4036082  14.2441822  30.5751218  17.3385544
  13.6922353  29.6794250  18.2181953  13.7153294  30.0231701  17.5139169
  15.1875725  25.9104768  17.3781524  15.5091567  25.4307850  16.7240787
  15.4502669  26.7204414  17.1872336  15.2741751  25.9594666  17.2537016
  18.4172698  36.9323642  30.8980341  17.9097789  37.4859489  31.3420971
  18.1199344  36.9931932  30.0799115  18.2977583  37.0229953  30.8428797
  10.1149730  32.1758633  20.6725628  10.6241960  32.7723141  21.0536934
  10.5884003  31.9084607  19.9902048  10.2593106  32.2244449  20.6280151
  21.0280479  40.8486900  18.8284284  20.3109788  40.6747762  18.3631521
  21.6787216  40.6139472  18.2959770  21.0182329  40.7882692  18.6813502
  19.0229103  21.7692062  23.1495581  18.3797421  21.6189708  23.7180719
  18.6828510  21.5234407  22.3844685  18.8774181  21.7104184  23.1198596
  23.7756577  26.1807372  25.4815962  24.1284187  25.7537095  26.1561761
  22.9171379  26.0958216  25.6117039  23.7006022  26.1052113  25.6010973
  12.4740262  28.8114892  23.5398809  11.7552251  29.2279024  23.8071672
  12.8452625  29.3769131  22.9890447  12.4232194  28.9564173  23.4981616
  16.3093640  42.0848659  25.2574432  15.8954039  41.4222789  24.8678274
  16.9941015  42.2326517  24.7370126  16.3492012  42.0089317  25.1230929
  19.6758935  41.2438744  26.0098049  19.2775218  41.3541014  25.2418869
  19.0610154  41.4520810  26.5924608  19.5257824  41.2912312  25.9829348
  18.2486837  27.8512892  18.8772188  17.6551676  28.1729888  18.3256755
  18.2862114  27.0053987  18.6693294  18.1661226  27.7737220  18.7654960
  25.2080637  21.3025784  26.4100275  24.7011502  20.5954924  26.3421452
  26.0048071  20.9718973  26.5401351  25.2507877  21.1498935  26.4199270
  21.1244653  27.8092396  22.3073939  20.8958346  27.8325098  21.4652297
  21.3842729  26.9849863  22.4268949  21.1290841  27.6908476  22.1999136
  15.4063882  29.6626869  31.9099039  14.8942785  29.0548052  32.2684070
  15.2343378  30.3783462  32.3773015  15.3053519  29.6790169  32.0315262
  10.2529596  28.1064445  34.5601401  10.0832187  28.7665819  34.0149607
   9.8095546  28.3171006  35.2813890  10.1628930  28.2350427  34.5863030
  14.1789416  26.3468942  23.6028134  14.6546782  26.7086022  22.9678315
  13.6778015  27.0025410  23.8828277  14.1754775  26.4963131  23.5504875
  27.4100777  35.8190711  19.3941139  27.7934383  36.5682067  19.6239236
  26.6144891  36.0656530  19.1353128  27.3494559  35.9660404  19.3898713
  19.2832952  27.5851114  34.3501294  19.8404382  27.3564923  33.7179760
  18.9594017  28.3456779  34.0736507  19.3179362  27.6634951  34.2157791
   7.1531661  31.0111310  29.8189890   6.6058380  30.3411956  29.9370759
   7.9424039  30.6441158  29.8833358   7.1883844  30.8576297  29.8458591
  17.0016069  30.6718767  35.3153301  17.7527396  30.9870444  35.6292856
  17.1938646  30.4697938  34.4887223  17.1407483  30.6886149  35.2396697
  16.2216069  28.4910142  16.9701518  16.6015034  28.5089771  16.1852633
  15.4808665  28.9364131  16.8492366  16.1684907  28.5591917  16.8365086
  23.8501359  26.7992333  22.5577097  23.8495586  26.6440990  23.4161373
  23.6457539  27.6455321  22.5018482  23.8201137  26.9012954  22.6765036
   5.9118630  30.2232118  26.9735913   5.7340391  29.7708727  27.6990829
   5.6237652  31.0258279  27.1574391   5.8431583  30.2754676  27.1079416
  17.0200823  35.3287649  18.3610308  16.2112146  35.0054322  18.3143618
  17.5275732  34.6220871  18.2938557  16.9750490  35.1768965  18.3440603
   7.6491100  32.7559842  24.0857672   6.7836620  32.7445532  23.9740444
   7.7489916  32.5690065  24.9328812   7.5365267  32.7265903  24.1946617
  13.2748110  42.5257740  27.6587778  13.5894669  43.3394129  27.6665560
  13.6841523  42.1407959  28.3269937  13.3816208  42.5886443  27.7591870
  20.2272630  37.9427787  25.2291590  20.6983808  38.6568050  25.3981575
  20.5632808  37.3426537  25.7651459  20.3467745  37.9599251  25.3323966
  17.1442125  22.7155258  32.1849685  17.2770030  21.9186251  32.5130660
  17.5287277  23.2421661  32.7647960  17.2198454  22.6755174  32.3193188
  20.2174480  19.6385584  28.7830778  19.4120444  19.5283313  29.0998616
  20.0881215  19.7398039  27.9260644  20.0794613  19.6369254  28.7038818
  16.2135240  24.7171670  19.6529150  17.0350934  24.8869983  19.4110845
  15.7504890  24.8718931  18.9295447  16.2666402  24.7653403  19.5100794
  14.8030571  22.7114433  30.4327579  15.3474984  22.3705560  31.0231920
  14.8567507  23.5699894  30.5748863  14.8919691  22.7869692  30.5409452
  10.6161130  36.4730849  27.3066386  11.2205988  36.4326683  26.6780207
  10.4088443  37.3202001  27.3370442  10.6750027  36.5918851  27.2182503
   5.8512412  35.4565466  27.1765310   5.7536691  34.6461738  27.4855366
   6.6341282  35.4357260  26.7911578   5.9528549  35.3332556  27.1652172
  36.9018553  46.3961646  21.4871500  36.8712557  47.2506282  21.6589770
  37.4999901  46.0956938  22.0457644  36.9855711  46.4778142  21.5946302
  30.1018238  45.4837297  26.2424431  29.2456133  45.6445795  26.2933547
  30.1485891  44.6129361  26.2629492  29.9817349  45.3788098  26.2530497
  24.4859377  55.0200014  22.0061662  23.7342277  54.6415553  21.7777707
  24.9345389  55.0518448  21.2580472  24.4409044  54.9685622  21.8619164
  29.9384337  55.4425384  17.4347209  29.6035706  56.1202306  16.9991431
  30.4511208  55.0530695  16.8464081  29.9649918  55.4849962  17.2834001
  29.4788628  57.3939653  23.3758321  29.8628008  57.9626551  22.8363096
  29.4147770  56.6689163  22.8964137  29.5262056  57.3715116  23.2252183
  32.9470059  47.5429341  28.8856082  33.4926019  48.2214427  28.9450052
  32.8886935  47.4016801  28.0257664  33.0185973  47.6221342  28.7668143
  26.0644133  55.0318407  24.2724435  26.1654496  54.2218761  24.5821562
  25.4685879  54.9375353  23.6424113  25.9916672  54.8983435  24.2250673
  34.7235127  48.9713948  19.7589810  34.6074653  49.7221634  20.1881948
  35.5191014  48.7137901  20.0085897  34.8239717  49.0448795  19.8593902
  25.9044873  59.9495996  25.6739291  26.5482329  60.3909160  26.0635449
  26.2301129  59.1449422  25.5869549  26.0476702  59.8961191  25.7184768
  19.2609178  51.0538693  23.8976768  19.0259362  50.2206346  23.7909037
  19.3994818  51.3343359  23.0837969  19.2464840  50.9722197  23.7619123
  21.5599265  43.2224424  26.7961076  20.9404297  42.6317071  26.6271091
  21.4583129  43.8135859  26.1625399  21.4536941  43.2228506  26.6766066
  26.6065453  52.9607971  21.0459152  26.9281294  53.5013178  20.4420461
  27.2537549  52.3904742  21.1781442  26.7491508  52.9567146  20.9766188
  28.6567161  44.9623966  21.1293539  29.3547326  45.1412093  21.6215002
  28.9719493  44.4394305  20.5063928  28.8062498  44.9117738  21.1095549
  21.2868398  46.7676706  29.0404645  21.1627095  47.3539151  29.6754464
  21.9386683  46.2736901  29.3416920  21.3642048  46.7815510  29.1790574
  28.8455096  51.3494411  21.1173331  29.2848732  50.7411511  21.5628103
  28.6959759  50.9701784  20.3458796  28.8876562  51.2032882  21.0692498
  26.3126739  49.9438422  28.3192156  26.9575742  49.4510866  28.0003105
  26.5528516  50.0863209  29.1458234  26.4437324  49.8915865  28.3941689
  28.8512831  52.7893328  27.9699049  29.1336073  51.9944734  27.7485805
  29.5798991  53.2673916  27.9904110  29.0002394  52.7427925  27.9402064
  26.8294024  40.3316362  25.2114814  26.4997354  40.7827506  24.5418512
  26.1539026  40.2532526  25.7587820  26.6804461  40.3867497  25.1938037
  32.4464433  49.7021592  18.0704100  32.3615728  50.5582559  18.2153669
  32.9348816  49.4265916  18.7386259  32.5053330  49.7878913  18.1906181
  33.3782866  46.3206386  19.5701835  32.8494337  46.5366020  20.2299141
  33.9007886  47.0142525  19.4902804  33.3771319  46.4549523  19.6557434
  25.2682474  50.2169603  18.3709303  24.6839689  50.7219634  18.7775167
  24.8652569  49.9911990  17.6305895  25.1221778  50.2577851  18.3214328
  20.8226502  55.9324364  25.1732974  20.3394081  56.6574854  25.1492558
  21.6349821  56.2300494  25.2843132  20.8717250  56.0826718  25.1860254
  26.8940656  54.7256545  27.7782789  26.3767598  54.3663960  27.1744097
  27.5915048  54.2018719  27.7888855  26.9206238  54.5954233  27.6913048
  29.7259688  46.4635255  16.8478224  29.9655692  46.6713239  16.0353567
  30.0475529  45.6592764  16.9567168  29.8096846  46.3749356  16.7438777
  25.0349978  38.3928651  20.6937761  25.7895947  38.7606968  20.4554812
  24.8577513  38.7668205  21.4616941  25.1204457  38.5026839  20.7722650
  23.6770700  56.4480540  25.3253254  24.3791279  55.9332529  25.3826011
  23.5968183  56.7754691  26.1300129  23.7694460  56.4194766  25.4526047
  23.3907043  40.7998970  17.3915874  23.2082616  41.0170850  16.5656867
  24.2532656  40.9137982  17.4474489  23.4911633  40.8488868  17.2770361
  23.0021475  52.6386892  24.8338862  23.8410375  52.8709825  24.8812624
  23.0333244  51.7691203  24.7645898  23.1303193  52.5443838  24.8303507
  23.6274178  53.0587767  29.1352168  24.1672403  52.9158898  29.8055540
  22.9444124  53.4584518  29.5036194  23.6066332  53.0967438  29.2886590
  29.0706762  37.8025380  20.4264898  29.7992923  37.6241335  19.9803055
  29.1601655  38.6443460  20.6372076  29.1913424  37.9009259  20.3918416
  19.0311323  49.2788058  29.2886589  18.7649738  48.4627175  29.4477580
  19.0449887  49.3241213  28.4182105  18.9936045  49.1644963  29.1840071
  22.9369070  44.0773142  15.9038348  22.2227247  43.7911322  16.3160780
  23.4213039  44.4169768  16.5444735  22.9028433  44.0854792  16.0593982
  30.1116388  52.5803096  16.2800156  30.5267537  52.2488120  15.5884651
  29.2808318  52.3471999  16.1520292  30.0504397  52.4974352  16.1591003
  19.4404737  50.0646837  26.5698334  19.2580310  50.0393723  25.7170626
  20.1754406  50.5345775  26.6087242  19.5218801  50.1308200  26.4496252
  22.5050488  46.7831840  33.0780442  23.2290461  46.7684871  33.5645337
  22.6066625  47.4927195  32.5802411  22.6268698  46.8856543  33.0759229
  32.5526757  46.9864916  22.2324405  32.6473611  47.7254210  22.6864031
  31.9285600  46.5582391  22.6658970  32.4735787  47.0326236  22.3632553
  19.4075647  46.9440338  26.7197400  19.9849150  46.8076789  27.3589646
  18.7089709  46.4876122  26.9742985  19.3896669  46.8562604  26.8519690
  32.8049778  48.8313656  15.4661357  32.7229941  48.9015843  16.3316344
  33.4429499  49.3943400  15.2745098  32.8869616  48.9252627  15.5651307
  26.1642949  48.5974394  24.9335883  25.9062194  47.7646128  24.9067183
  26.2191432  48.8232007  24.0928384  26.1342727  48.5072165  24.8056020
  31.2444000  40.7002844  25.0339976  30.5400326  40.2112030  25.1923895
  31.2928974  40.7125319  24.1628421  31.1474051  40.6292492  24.9279316
  25.1377662  46.1512156  25.4200778  24.5627253  46.3104324  26.0564739
  24.7613338  45.5147565  24.9569229  24.9980474  46.0809969  25.4455337
  28.8050950  44.6235505  30.2793157  28.4165383  44.1989723  29.6245348
  28.1405648  44.8717655  30.7870183  28.6497878  44.5974226  30.2581025
  38.4474219  44.3810510  23.0540987  38.1910784  43.5690452  22.8638869
  39.2903533  44.3888077  22.8271174  38.5340245  44.2622508  22.9925804
  14.8834480  45.7952231  23.4345219  14.9694732  45.4184099  24.2158749
  15.5110278  45.4212676  22.9565177  14.9891031  45.6837713  23.4790696
  32.6277312  38.3210134  27.7917141  33.0087823  37.6388305  28.1785015
  31.8240596  38.0319736  27.6092805  32.5653773  38.1777183  27.8221197
  29.9089888  48.8534110  18.4769964  30.7230527  49.1449003  18.3652735
  29.8449030  48.1993972  17.9028257  30.0192627  48.7999305  18.3758801
  25.7797797  52.3255627  23.6042276  26.4171744  52.0867375  24.1494069
  26.2052868  52.5292786  22.8695436  25.9373963  52.3206638  23.5759433
  20.4710439  54.5643964  27.4876579  20.5114584  54.8358815  26.6596359
  21.0304963  55.0885872  27.9034367  20.5593785  54.6819719  27.4268468
  26.4200612  47.5457917  17.9417165  26.8045764  47.3265624  18.6933710
  26.1712232  48.3720863  18.0718241  26.4402684  47.6356063  18.0718242
  28.1619269  52.8028050  25.2836062  28.2358277  52.6403222  26.1377912
  28.9788775  52.9918240  25.0396544  28.2935627  52.8064792  25.3734088
  21.9225025  53.1485913  22.3130505  21.0963143  53.3947650  22.1864784
  21.9837017  53.0697994  23.1792564  21.8099192  53.1730862  22.4219450
  24.1401049  39.2154854  23.2725946  23.2723474  39.2877453  23.3383555
  24.4276253  40.0176933  23.4613921  24.0540797  39.3449001  23.3100712
  26.7023854  55.7662793  20.0149535  26.9922153  55.3751774  19.2908762
  27.4327335  55.9479498  20.4554811  26.8530739  55.7356607  19.9732342
  24.6429770  57.7430176  23.0809685  24.4230065  57.4527530  23.8736352
  24.4224292  57.0845131  22.5527597  24.5777364  57.6029884  23.1198594
  23.5546717  49.8303492  25.3465387  23.2659966  49.2040963  25.8811114
  24.4230065  49.7723779  25.4130067  23.6406969  49.7291036  25.4356341
  26.8097726  59.1159565  21.8640377  27.4621784  58.5836008  22.0931404
  26.1123334  58.7628218  22.2508252  26.8028444  58.9849088  21.9552545
  23.7578990  51.4698743  21.2707752  24.5124958  51.8511782  21.4843214
  23.1649603  51.9209887  21.7254448  23.7815704  51.5927570  21.3690630
  34.8037644  51.4363979  21.2071357  35.3695677  52.0957189  21.1229900
  34.1565547  51.7813678  21.6787759  34.7916400  51.5845921  21.2644113
  25.0777217  52.6407304  26.6447867  24.5557971  52.7807596  27.3299732
  25.4651237  51.8817969  26.8349985  25.0580918  52.5492828  26.7748944
  22.0668401  42.6913113  20.7142822  21.7793197  42.3214384  19.9774769
  22.7538869  43.1607968  20.4526527  22.1257298  42.7060083  20.5657898
  31.2744222  54.3802764  20.6308436  31.0330898  53.6470624  20.2235501
  31.4545555  54.9289621  19.9774769  31.2651846  54.3525155  20.4738659
  26.5043543  49.6711323  22.0429358  26.3086325  50.2786058  21.4489661
  26.7277888  48.9779267  21.5621032  26.5078184  49.6588849  21.8845439
  24.9022073  46.5566061  22.1610227  25.6244725  46.7207219  21.7014033
  24.4230065  47.2775726  22.0549566  24.9385803  46.6864291  22.0775841
  32.8615580  42.8929860  27.5406912  32.0226681  42.9191139  27.3045175
  32.9319948  43.5400596  28.1212258  32.7483974  42.9925986  27.5916028
  22.5529689  48.9624134  31.2664366  23.0650786  49.2408387  30.6173126
  22.2666032  49.7013428  31.6327180  22.5864553  49.1126487  31.2254245
  31.3084859  39.7915237  22.2734527  32.0111211  39.5922985  21.7954486
  31.0429047  39.0191180  22.5803371  31.3731491  39.6478203  22.2479969
  19.6396596  43.4694326  21.5628103  19.7412732  44.2720487  21.8909078
  20.4352482  43.2681662  21.2651184  19.7724501  43.5580224  21.5663458
  30.6098920  45.4208594  23.4493713  30.3633634  45.3404345  24.2830502
  30.9384043  44.6362062  23.2556240  30.6220164  45.2934859  23.5441236
  34.5046969  52.1291953  27.2380494  34.3661328  52.8272999  27.7429236
  33.7246967  51.9740610  26.8816676  34.3690196  52.2092120  27.2606768
  25.6423702  56.3468084  29.7277723  25.7913266  55.7871000  29.0751127
  26.4223705  56.4260086  30.1110242  25.7797796  56.2753650  29.6874672
  36.0000342  51.4870207  17.9996993  35.6207151  50.7007345  17.9926283
  35.3366587  52.0357064  17.8568637  35.8458817  51.4515031  17.9777790
  28.1677003  56.5182727  31.0062214  28.0920674  55.8491538  31.5613002
  28.0966862  57.2200515  31.5202880  28.1457610  56.5227635  31.1639062
  28.8247250  55.0383726  21.8385820  29.5897141  54.7693370  21.5168484
  28.7225340  54.5533737  22.5555882  28.9228745  54.9273291  21.8965647
  26.8600020  43.2408136  28.3779055  26.0696095  43.0599596  28.6996391
  27.2560643  42.4635088  28.3609350  26.8016896  43.0995597  28.4231604
  31.3465911  52.0695910  13.8185769  32.1138896  52.1296035  13.4091621
  30.8997220  51.4976351  13.3342087  31.3939338  51.9932486  13.6863479
  32.2443706  50.8750566  26.1038501  31.5688708  50.6435798  26.6051888
  32.2536082  50.2671749  25.4780606  32.1462211  50.7509491  26.0854653
  34.2460441  53.7315698  18.3348679  34.3280278  54.5382684  18.0110130
  34.7310183  53.7511657  19.0589453  34.3297599  53.8536361  18.3935578
  28.0556944  48.4100534  27.0018757  27.6319193  48.6105033  26.2657775
  27.8801799  47.5629382  27.1143057  27.9667825  48.3149316  26.9092447
  27.5568637  59.9251047  29.4640214  28.0464568  59.2261836  29.2815879
  26.9852870  59.6274917  30.0516272  27.5453167  59.7777271  29.5241255
  23.3439389  48.9052586  22.4346730  23.5004008  48.8399388  23.2902722
  23.6839982  49.6801138  22.2225409  23.4172624  49.0101784  22.5301324
  29.8818534  48.2810469  21.3040093  30.4234079  47.7780850  21.7678713
  30.1965093  48.2275664  20.4929578  30.0082931  48.1989890  21.2523905
  28.0504983  53.6727821  18.5880121  28.1197804  52.8142359  18.7273121
  28.8293438  53.8899702  18.2599145  28.1757833  53.5780685  18.5597278
  32.4412471  56.0965522  22.8016614  32.0492263  55.7932237  22.0839480
  32.5965543  56.9334612  22.6121568  32.4066061  56.1749359  22.6673111
  19.9173650  46.0887536  22.7507497  20.2972615  46.5072081  22.0867764
  19.3429015  46.6700992  23.0576340  19.8884975  46.2365395  22.6984238
  32.6052146  52.6615511  22.7422645  32.2466800  52.8330154  23.5186677
  32.1190856  53.1228716  22.1850643  32.4810842  52.7554482  22.7747914
  27.3940511  48.3414676  15.2822879  27.6833036  49.1179559  15.5566453
  27.4812310  47.8303408  15.9837378  27.4494767  48.3806595  15.4265377
  23.5604452  47.6547941  27.3822991  22.7192459  47.5551815  27.5901885
  23.7694460  48.4243421  27.7337312  23.4669145  47.7539984  27.4650306
  21.0380019  45.2767478  25.2107742  20.6436717  45.3510490  24.4357851
  20.4820136  45.6625424  25.7616104  20.8982831  45.3449252  25.1775402
  27.3721117  45.5829340  26.6320589  27.0684254  45.0285328  27.2330996
  26.6700538  45.7621550  26.1448623  27.2237327  45.5274122  26.6490294
  26.4287214  42.8929860  21.1965291  26.7046948  42.1748772  20.7842858
  27.0285883  43.4914780  20.9886397  26.5580479  42.8750230  21.1046052
  25.4339468  52.7979061  31.3392686  25.3259823  52.8081123  32.2054745
  25.6435249  53.6233841  31.1497640  25.4489579  52.9220135  31.4396778
  35.9278653  38.8080536  24.3714386  35.3152967  39.2950938  24.7568118
  36.0242828  38.1324027  24.9152037  35.8516551  38.7798845  24.5093244
  29.9297734  40.5643377  19.4711886  30.3841481  40.7353938  20.1959730
  30.4037780  39.9511488  19.0709661  30.0666055  40.4994262  19.5185647
  23.4513260  50.0491703  28.8014624  22.8601193  50.6901201  28.7717639
  24.2134283  50.4729320  28.7745924  23.4761520  50.2067541  28.7929771
  27.2710754  47.2685911  20.5756893  28.0152799  47.6560188  20.8139843
  27.4171451  46.4243337  20.7397381  27.4021340  47.2016384  20.6350862
  30.2588630  42.8411385  26.4750812  29.7848585  42.3153147  26.9856123
  30.6306766  42.2940858  25.9065674  30.2438519  42.6827381  26.4665959
  32.1872130  43.7347939  19.5376566  31.6595149  43.8176683  18.8482275
  32.6467838  44.4765811  19.5341211  32.1773980  43.8568602  19.4351261
  23.9963446  43.6625340  28.5044776  23.3716517  43.6743732  27.8970729
  23.6609041  44.1385516  29.1536016  23.8548938  43.7343857  28.5101345
  24.1805195  42.0050459  14.5617461  23.8317999  42.6570184  15.0249010
  23.7001641  41.9907572  13.8341332  24.0575439  42.0993513  14.5228552
  20.7089122  51.7225801  29.9448540  20.1789046  51.0318240  29.9943515
  20.9814215  51.7135986  29.1161249  20.6713844  51.6192932  29.8295956
  31.7409212  52.3051503  18.6686223  32.4643411  52.7709616  18.5250796
  31.3009803  52.3725113  17.9183820  31.7824905  52.3835340  18.5371004
  30.9095367  49.1649045  29.9186912  30.2952361  48.6207095  30.2135547
  31.4262652  48.6513282  29.4392728  30.8951030  49.0085454  29.8911140
  30.1491665  50.2353315  27.6531211  29.7219273  49.6103034  27.2196646
  30.1416609  49.9528237  28.4790218  30.0850806  50.1006096  27.7111038
  23.2654192  45.2718488  30.7219645  23.4247678  44.5161812  31.1271366
  23.0847085  45.8209428  31.3760382  23.2619551  45.2412302  30.8782351
  28.4777374  41.1122070  27.8673745  28.5019862  40.5782182  27.1786525
  28.7288848  40.6039379  28.5299335  28.5187293  40.9582974  27.8638389
  15.9884964  48.3953565  27.3016889  15.8828413  48.3500409  26.4368973
  15.2385184  48.7407345  27.5831174  15.8620567  48.4394473  27.2154218
  24.7578697  39.8392888  27.2479489  24.7977068  40.3402095  27.9614196
  23.9328361  39.9303282  26.9785412  24.6418223  39.9274704  27.3130027
  26.1793060  46.3553398  29.5453388  25.3484990  46.5227216  29.3388636
  26.1244577  45.9789349  30.3302273  26.0482475  46.3243129  29.6301916
  24.5529104  44.6308989  20.0743506  24.6932065  45.1281454  20.7772147
  25.0511637  43.9295284  20.2157719  24.6470185  44.6010968  20.1995085
  24.5829326  45.4976100  17.4036082  25.2174406  46.0936525  17.3385544
  24.6654937  45.1979558  18.2181953  24.6885877  45.5417009  17.5139169
  26.1608309  41.4290076  17.3781524  26.4824150  40.9493158  16.7240787
  26.4235253  42.2389722  17.1872336  26.2474334  41.4779974  17.2537016
  21.0882314  47.6943941  20.6725628  21.5974543  48.2908449  21.0536934
  21.5616586  47.4269915  19.9902048  21.2325690  47.7429757  20.6280151
  32.0013062  56.3672208  18.8284284  31.2842372  56.1933070  18.3631521
  32.6519800  56.1324780  18.2959770  31.9914913  56.3068000  18.6813502
  34.5861033  45.2436796  22.5725589  33.9152223  45.7866499  22.4438655
  35.2800784  45.7131652  22.3307284  34.5889901  45.3935068  22.5181117
  28.6347767  57.3833508  27.8037347  28.4113422  56.6252338  28.1721374
  28.1457610  57.4131530  27.0817787  28.5291216  57.2755733  27.7514088
  34.7489161  41.6992680  25.4815962  35.1016771  41.2722403  26.1561761
  33.8903962  41.6143524  25.6117039  34.6738605  41.6237421  25.6010973
  23.4472846  44.3300200  23.5398809  22.7284835  44.7464332  23.8071672
  23.8185208  44.8954439  22.9890447  23.3964778  44.4749481  23.4981616
  27.2826224  57.6033967  25.2574432  26.8686623  56.9408097  24.8678274
  27.9673598  57.7511825  24.7370126  27.3224596  57.5274625  25.1230929
  30.6491518  56.7624052  26.0098049  30.2507801  56.8726322  25.2418869
  30.0342738  56.9706118  26.5924608  30.4990407  56.8097620  25.9829348
  29.2219420  43.3698200  18.8772188  28.6284259  43.6915196  18.3256755
  29.2594698  42.5239295  18.6693294  29.1393809  43.2922528  18.7654960
  32.0977237  43.3277704  22.3073939  31.8690930  43.3510406  21.4652297
  32.3575313  42.5035171  22.4268949  32.1023425  43.2093784  22.1999136
  25.1521999  41.8654250  23.6028134  25.6279366  42.2271330  22.9678315
  24.6510599  42.5210718  23.8828277  25.1487358  42.0148439  23.5504875
  18.1264244  46.5296618  29.8189890  17.5790964  45.8597264  29.9370759
  18.9156623  46.1626466  29.8833358  18.1616428  46.3761604  29.8458591
  27.1948652  44.0095450  16.9701518  27.5747617  44.0275079  16.1852633
  26.4541248  44.4549439  16.8492366  27.1417490  44.0777225  16.8365086
  34.8233943  42.3177641  22.5577097  34.8228169  42.1626298  23.4161373
  34.6190123  43.1640628  22.5018482  34.7933721  42.4198262  22.6765036
  16.8851214  45.7417426  26.9735913  16.7072975  45.2894035  27.6990829
  16.5970236  46.5443587  27.1574391  16.8164167  45.7939984  27.1079416
  32.5474795  46.9975143  26.2113304  33.0428460  46.2798138  26.1717324
  31.7374571  46.6945941  26.0967791  32.5018688  46.8472789  26.1887030
  27.9933406  50.8472956  18.3610308  27.1844729  50.5239630  18.3143618
  28.5008315  50.1406179  18.2938557  27.9483073  50.6954273  18.3440603
  18.6223684  48.2745150  24.0857672  17.7569203  48.2630840  23.9740444
  18.7222500  48.0875372  24.9328812  18.5097851  48.2451211  24.1946617
  24.2480694  58.0443048  27.6587778  24.5627253  58.8579437  27.6665560
  24.6574107  57.6593267  28.3269937  24.3548792  58.1071751  27.7591870
  31.2005213  53.4613095  25.2291590  31.6716391  54.1753358  25.3981575
  31.5365392  52.8611845  25.7651459  31.3200328  53.4784559  25.3323966
  27.1867823  40.2356978  19.6529150  28.0083517  40.4055291  19.4110845
  26.7237474  40.3904239  18.9295447  27.2398985  40.2838711  19.5100794
  21.5893714  51.9916157  27.3066386  22.1938571  51.9511991  26.6780207
  21.3821026  52.8387309  27.3370442  21.6482611  52.1104159  27.2182503
  16.8244996  50.9750774  27.1765310  16.7269274  50.1647046  27.4855366
  17.6073866  50.9542568  26.7911578  16.9261133  50.8517864  27.1652172
  35.4591961  70.5385322  22.0061662  34.7074860  70.1600861  21.7777707
  35.9077973  70.5703756  21.2580472  35.4141628  70.4870930  21.8619164
  44.3844538  67.2709130  35.8484887  45.0911305  66.7761161  35.9771821
  44.5732473  67.7118212  35.1187545  44.5172443  67.2627480  35.7593932
  40.9116921  70.9610692  17.4347209  40.5768289  71.6387613  16.9991431
  41.4243791  70.5716003  16.8464081  40.9382502  71.0035270  17.2834001
  40.4521212  72.9124961  23.3758321  40.8360591  73.4811859  22.8363096
  40.3880353  72.1874471  22.8964137  40.4994639  72.8900424  23.2252183
  43.9202642  63.0614648  28.8856082  44.4658602  63.7399735  28.9450052
  43.8619518  62.9202109  28.0257664  43.9918557  63.1406650  28.7668143
  37.0376717  70.5503715  24.2724435  37.1387080  69.7404068  24.5821562
  36.4418462  70.4560661  23.6424113  36.9649256  70.4168743  24.2250673
  45.6967711  64.4899256  19.7589810  45.5807237  65.2406942  20.1881948
  46.4923597  64.2323209  20.0085897  45.7972300  64.5634102  19.8593902
  36.8777457  75.4681304  25.6739291  37.5214912  75.9094468  26.0635449
  37.2033712  74.6634730  25.5869549  37.0209285  75.4146498  25.7184768
  30.2341761  66.5724001  23.8976768  29.9991946  65.7391653  23.7909037
  30.3727402  66.8528667  23.0837969  30.2197424  66.4907505  23.7619123
  37.5798036  68.4793279  21.0459152  37.9013877  69.0198486  20.4420461
  38.2270133  67.9090050  21.1781442  37.7224092  68.4752454  20.9766188
  39.6299744  60.4809274  21.1293539  40.3279909  60.6597401  21.6215002
  39.9452077  59.9579613  20.5063928  39.7795082  60.4303046  21.1095549
  39.8187680  66.8679719  21.1173331  40.2581315  66.2596819  21.5628103
  39.6692343  66.4887092  20.3458796  39.8609145  66.7218190  21.0692498
  39.8245414  68.3078636  27.9699049  40.1068657  67.5130042  27.7485805
  40.5531575  68.7859224  27.9904110  39.9734978  68.2613233  27.9402064
  43.4197016  65.2206900  18.0704100  43.3348311  66.0767866  18.2153669
  43.9081400  64.9451224  18.7386259  43.4785914  65.3064221  18.1906181
  44.3515450  61.8391694  19.5701835  43.8226921  62.0551328  20.2299141
  44.8740469  62.5327832  19.4902804  44.3503903  61.9734831  19.6557434
  49.8063502  67.4137998  24.9434879  48.9761206  67.6248642  25.1068296
  49.7572755  66.5875053  24.6677163  49.6770238  67.3227605  24.9272245
  36.2415057  65.7354911  18.3709303  35.6572273  66.2404942  18.7775167
  35.8385153  65.5097298  17.6305895  36.0954361  65.7763159  18.3214328
  31.7959086  71.4509672  25.1732974  31.3126664  72.1760162  25.1492558
  32.6082404  71.7485802  25.2843132  31.8449834  71.6012026  25.1860254
  37.8673240  70.2441853  27.7782789  37.3500182  69.8849268  27.1744097
  38.5647631  69.7204027  27.7888855  37.8938821  70.1139541  27.6913048
  41.5236832  70.6936667  33.7398962  41.6120178  70.5062807  34.5877172
  41.9526545  70.0474096  33.3403809  41.5998934  70.5699674  33.8070713
  39.0907292  69.9767827  32.7216624  38.5278127  69.5640436  33.2456285
  39.8528315  69.9020732  33.1409767  39.1201740  69.9045227  32.8609625
  40.6992272  61.9820563  16.8478224  40.9388275  62.1898547  16.0353567
  41.0208113  61.1778072  16.9567168  40.7829430  61.8934664  16.7438777
  36.0082562  53.9113959  20.6937761  36.7628530  54.2792276  20.4554812
  35.8310097  54.2853513  21.4616941  36.0937040  54.0212146  20.7722650
  34.6503283  71.9665848  25.3253254  35.3523863  71.4517837  25.3826011
  34.5700766  72.2939999  26.1300129  34.7427044  71.9380074  25.4526047
  34.3639627  56.3184278  17.3915874  34.1815200  56.5356158  16.5656867
  35.2265240  56.4323290  17.4474489  34.4644216  56.3674175  17.2770361
  33.9754059  68.1572200  24.8338862  34.8142958  68.3895133  24.8812624
  34.0065828  67.2876511  24.7645898  34.1035776  68.0629146  24.8303507
  34.6006762  68.5773075  29.1352168  35.1404987  68.4344206  29.8055540
  33.9176708  68.9769826  29.5036194  34.5798916  68.6152746  29.2886590
  44.0247647  64.2564076  24.3297192  44.7805162  64.6895590  24.3686101
  44.1309971  63.6068845  24.9031828  44.1517817  64.2241559  24.4195218
  47.0627818  68.0837353  25.0799595  46.6263050  68.0874095  25.8358567
  46.7290733  68.7642852  24.6479173  46.9490438  68.1849809  25.1280428
  41.6356891  70.1245686  36.4042746  42.4197308  70.2376533  36.7698488
  41.4353486  69.2986823  36.6001431  41.7222917  70.0192405  36.4877132
  33.9101654  59.5958450  15.9038348  33.1959831  59.3096630  16.3160780
  34.3945622  59.9355076  16.5444735  33.8761017  59.6040100  16.0593982
  41.7927285  72.0355788  30.0509201  40.9942530  71.7955288  30.3083070
  42.2413296  72.0870181  30.7976249  41.7401896  72.0078179  30.1994125
  41.0848972  68.0988404  16.2800156  41.5000120  67.7673428  15.5884651
  40.2540901  67.8657306  16.1520292  41.0236980  68.0159660  16.1591003
  30.4137320  65.5832145  26.5698334  30.2312894  65.5579031  25.7170626
  31.1486989  66.0531083  26.6087242  30.4951384  65.6493507  26.4496252
  46.4836995  65.8183655  23.7131221  46.7192584  65.9628854  22.8858072
  46.6326558  66.5826063  24.1062735  46.5402798  65.9522710  23.6494825
  48.3127451  64.6585321  21.5500825  48.6435668  65.1912961  20.9440920
  48.8860539  64.7124209  22.2062776  48.4461130  64.7454890  21.5578607
  40.8528021  65.7816233  37.9429389  40.0601002  66.0959745  38.1282009
  40.9676949  65.9967701  37.1050174  40.7523432  65.8600069  37.8467724
  43.5259340  62.5050224  22.2324405  43.6206195  63.2439518  22.6864031
  42.9018184  62.0767699  22.6658970  43.4468371  62.5511544  22.3632553
  41.7811814  65.6836436  32.8814686  42.3550676  65.0463681  33.0363250
  41.7026618  65.6840519  32.0124344  41.8545049  65.5901548  32.7761097
  43.7782362  64.3498964  15.4661357  43.6962524  64.4201151  16.3316344
  44.4162082  64.9128708  15.2745098  43.8602199  64.4437935  15.5651307
  37.1375533  64.1159702  24.9335883  36.8794777  63.2831436  24.9067183
  37.1924016  64.3417315  24.0928384  37.1075311  64.0257473  24.8056020
  25.8567064  61.3137539  23.4345219  25.9427316  60.9369407  24.2158749
  26.4842861  60.9397984  22.9565177  25.9623615  61.2023021  23.4790696
  40.8822472  64.3719418  18.4769964  41.6963111  64.6634311  18.3652735
  40.8181613  63.7179280  17.9028257  40.9925211  64.3184613  18.3758801
  47.1031962  67.0545414  32.8899539  46.8670600  66.2233479  32.7711600
  47.7475191  67.0031021  33.4754383  47.1626633  66.9243102  32.9585433
  36.7530380  67.8440935  23.6042276  37.3904327  67.6052683  24.1494069
  37.1785452  68.0478094  22.8695436  36.9106546  67.8391946  23.5759433
  31.4443023  70.0829272  27.4876579  31.4847168  70.3544123  26.6596359
  32.0037547  70.6071180  27.9034367  31.5326369  70.2005027  27.4268468
  37.3933195  63.0643225  17.9417165  37.7778348  62.8450932  18.6933710
  37.1444816  63.8906171  18.0718241  37.4135268  63.1541371  18.0718242
  39.1351852  68.3213358  25.2836062  39.2090860  68.1588530  26.1377912
  39.9521359  68.5103548  25.0396544  39.2668211  68.3250100  25.3734088
  32.8957609  68.6671221  22.3130505  32.0695727  68.9132958  22.1864784
  32.9569600  68.5883302  23.1792564  32.7831776  68.6916170  22.4219450
  37.6756438  71.2848101  20.0149535  37.9654736  70.8937082  19.2908762
  38.4059919  71.4664806  20.4554811  37.8263322  71.2541915  19.9732342
  38.2651183  66.0865847  31.1002666  37.7662877  66.7981615  31.1787554
  39.0751407  66.4066514  31.0620828  38.3107290  66.2392696  31.1059234
  35.6162353  73.2615483  23.0809685  35.3962649  72.9712838  23.8736352
  35.3956876  72.6030438  22.5527597  35.5509948  73.1215192  23.1198594
  34.5279301  65.3488800  25.3465387  34.2392549  64.7226271  25.8811114
  35.3962649  65.2909087  25.4130067  34.6139553  65.2476344  25.4356341
  37.7830309  74.6344873  21.8640377  38.4354367  74.1021316  22.0931404
  37.0855918  74.2813526  22.2508252  37.7761027  74.5034396  21.9552545
  34.7311574  66.9884051  21.2707752  35.4857542  67.3697090  21.4843214
  34.1382187  67.4395195  21.7254448  34.7548288  67.1112878  21.3690630
  45.7770228  66.9549287  21.2071357  46.3428260  67.6142497  21.1229900
  45.1298131  67.2998985  21.6787759  45.7648984  67.1031229  21.2644113
  36.0509801  68.1592612  26.6447867  35.5290554  68.2992904  27.3299732
  36.4383821  67.4003277  26.8349985  36.0313502  68.0678136  26.7748944
  33.0400985  58.2098421  20.7142822  32.7525780  57.8399692  19.9774769
  33.7271453  58.6793276  20.4526527  33.0989882  58.2245390  20.5657898
  42.2476806  69.8988072  20.6308436  42.0063482  69.1655932  20.2235501
  42.4278139  70.4474929  19.9774769  42.2384430  69.8710463  20.4738659
  37.4776126  65.1896631  22.0429358  37.2818909  65.7971366  21.4489661
  37.7010472  64.4964575  21.5621032  37.4810767  65.1774157  21.8845439
  35.8754656  62.0751369  22.1610227  36.5977308  62.2392527  21.7014033
  35.3962649  62.7961034  22.0549566  35.9118387  62.2049599  22.0775841
  30.6129179  58.9879634  21.5628103  30.7145316  59.7905795  21.8909078
  31.4085066  58.7866969  21.2651184  30.7457085  59.0765532  21.5663458
  41.5831504  60.9393902  23.4493713  41.3366218  60.8589653  24.2830502
  41.9116627  60.1547370  23.2556240  41.5952747  60.8120167  23.5441236
  45.4779553  67.6477261  27.2380494  45.3393912  68.3458307  27.7429236
  44.6979550  67.4925918  26.8816676  45.3422779  67.7277428  27.2606768
  43.8157638  63.9473637  33.4902876  43.8105676  63.0753453  33.4945302
  44.5218632  64.1461806  33.0172331  43.9202642  63.8477511  33.4209911
  36.6156286  71.8653392  29.7277723  36.7645850  71.3056308  29.0751127
  37.3956288  71.9445394  30.1110242  36.7530380  71.7938958  29.6874672
  46.9732925  67.0055515  17.9996993  46.5939734  66.2192653  17.9926283
  46.3099171  67.5542372  17.8568637  46.8191400  66.9700339  17.9777790
  39.1409587  72.0368035  31.0062214  39.0653258  71.3676846  31.5613002
  39.0699446  72.7385823  31.5202880  39.1190194  72.0412943  31.1639062
  39.7979834  70.5569034  21.8385820  40.5629725  70.2878678  21.5168484
  39.6957924  70.0719044  22.5555882  39.8961329  70.4458599  21.8965647
  42.3198494  67.5881218  13.8185769  43.0871479  67.6481343  13.4091621
  41.8729803  67.0161659  13.3342087  42.3671921  67.5117794  13.6863479
  43.2176290  66.3935874  26.1038501  42.5421291  66.1621106  26.6051888
  43.2268666  65.7857057  25.4780606  43.1194794  66.2694799  26.0854653
  45.2193024  69.2501006  18.3348679  45.3012862  70.0567992  18.0110130
  45.7042766  69.2696965  19.0589453  45.3030182  69.3721668  18.3935578
  39.0289528  63.9285842  27.0018757  38.6051777  64.1290341  26.2657775
  38.8534383  63.0814690  27.1143057  38.9400408  63.8334624  26.9092447
  38.5301221  75.4436355  29.4640214  39.0197151  74.7447144  29.2815879
  37.9585453  75.1460225  30.0516272  38.5185751  75.2962579  29.5241255
  34.3171972  64.4237893  22.4346730  34.4736592  64.3584696  23.2902722
  34.6572566  65.1986446  22.2225409  34.3905207  64.5287092  22.5301324
  40.8551117  63.7995777  21.3040093  41.3966663  63.2966158  21.7678713
  41.1697676  63.7460972  20.4929578  40.9815514  63.7175198  21.2523905
  44.7268225  68.0098424  38.4167005  45.5403090  67.7383573  38.5772137
  44.5663191  67.7105964  37.6127201  44.8238173  67.9253350  38.3212411
  39.0237567  69.1913129  18.5880121  39.0930387  68.3327667  18.7273121
  39.8026022  69.4085009  18.2599145  39.1490417  69.0965993  18.5597278
  43.4145054  71.6150830  22.8016614  43.0224846  71.3117545  22.0839480
  43.5698127  72.4519920  22.6121568  43.3798644  71.6934667  22.6673111
  30.8906234  61.6072844  22.7507497  31.2705199  62.0257389  22.0867764
  30.3161599  62.1886300  23.0576340  30.8617559  61.7550703  22.6984238
  43.5784729  68.1800819  22.7422645  43.2199384  68.3515462  23.5186677
  43.0923440  68.6414024  22.1850643  43.4543426  68.2739790  22.7747914
  38.3673095  63.8599984  15.2822879  38.6565619  64.6364867  15.5566453
  38.4544893  63.3488716  15.9837378  38.4227351  63.8991902  15.4265377
  44.7389469  69.0704715  33.6889846  45.3769189  68.5764910  33.3552302
  44.0963560  68.9982115  33.1042072  44.7383695  68.9863723  33.5532201
  44.7943725  69.7624523  30.3295202  45.5836103  69.4113588  30.4497284
  44.9687323  70.5760911  30.0671836  44.9364007  69.8310380  30.3083070
  32.0112602  60.7952786  25.2107742  31.6169300  60.8695797  24.4357851
  31.4552719  61.1810732  25.7616104  31.8715415  60.8634560  25.1775402
  37.4019797  58.4115168  21.1965291  37.6779532  57.6934080  20.7842858
  38.0018467  59.0100088  20.9886397  37.5313062  58.3935538  21.1046052
  36.4072051  68.3164369  31.3392686  36.2992406  68.3266431  32.2054745
  36.6167833  69.1419149  31.1497640  36.4222162  68.4405443  31.4396778
  44.1835360  71.0186323  26.2346648  43.9855048  71.5077137  25.5402860
  43.5623071  71.2227564  26.8130782  44.0622924  71.1202861  26.2169872
  38.2443338  62.7871219  20.5756893  38.9885383  63.1745496  20.8139843
  38.3904034  61.9428645  20.7397381  38.3753923  62.7201692  20.6350862
  46.1009162  64.5850475  31.7691897  46.8243360  64.1323001  31.5902917
  45.8359124  64.8655141  30.9864225  46.1690435  64.5601443  31.6270612
  35.1537779  57.5235767  14.5617461  34.8050583  58.1755492  15.0249010
  34.6734224  57.5092880  13.8341332  35.0308023  57.6178820  14.5228552
  31.6821705  67.2411109  29.9448540  31.1521630  66.5503547  29.9943515
  31.9546799  67.2321294  29.1161249  31.6446428  67.1378240  29.8295956
  42.7141796  67.8236811  18.6686223  43.4375995  68.2894924  18.5250796
  42.2742387  67.8910420  17.9183820  42.7557488  67.9020648  18.5371004
  41.8827951  64.6834353  29.9186912  41.2684944  64.1392403  30.2135547
  42.3995236  64.1698590  29.4392728  41.8683613  64.5270762  29.8911140
  41.1224248  65.7538623  27.6531211  40.6951856  65.1288342  27.2196646
  41.1149193  65.4713545  28.4790218  41.0583389  65.6191404  27.7111038
  26.9617548  63.9138873  27.3016889  26.8560997  63.8685717  26.4368973
  26.2117768  64.2592653  27.5831174  26.8353151  63.9579781  27.2154218
  37.9140893  64.9238936  35.3499783  37.0636524  65.0610650  35.4857428
  38.0769021  64.1902714  35.7947485  37.8124757  64.8353037  35.4355383
  35.5261687  60.1494297  20.0743506  35.6664648  60.6466762  20.7772147
  36.0244220  59.4480592  20.2157719  35.6202768  60.1196276  20.1995085
  35.5561910  61.0161408  17.4036082  36.1906989  61.6121833  17.3385544
  35.6387521  60.7164866  18.2181953  35.6618461  61.0602316  17.5139169
  37.1340893  56.9475384  17.3781524  37.4556734  56.4678466  16.7240787
  37.3967836  57.7575030  17.1872336  37.2206918  56.9965282  17.2537016
  40.3637865  67.9694258  30.8980341  39.8562956  68.5230105  31.3420971
  40.0664512  68.0302548  30.0799115  40.2442750  68.0600569  30.8428797
  32.0614898  63.2129249  20.6725628  32.5707127  63.8093757  21.0536934
  32.5349170  62.9455223  19.9902048  32.2058273  63.2615065  20.6280151
  42.9745646  71.8857516  18.8284284  42.2574955  71.7118378  18.3631521
  43.6252383  71.6510088  18.2959770  42.9647496  71.8253308  18.6813502
  39.6080351  72.9018816  27.8037347  39.3846005  72.1437646  28.1721374
  39.1190194  72.9316838  27.0817787  39.5023800  72.7941041  27.7514088
  34.4205429  59.8485508  23.5398809  33.7017418  60.2649640  23.8071672
  34.7917792  60.4139746  22.9890447  34.3697361  59.9934789  23.4981616
  41.6651340  67.0700549  35.3549281  41.6247195  66.4250226  34.7694437
  42.4774658  67.0137166  35.6674693  41.7794494  66.9659515  35.3146230
  38.2558808  73.1219274  25.2574432  37.8419206  72.4593405  24.8678274
  38.9406182  73.2697133  24.7370126  38.2957179  73.0459933  25.1230929
  41.6224102  72.2809360  26.0098049  41.2240385  72.3911630  25.2418869
  41.0075321  72.4891426  26.5924608  41.4722991  72.3282928  25.9829348
  40.1952004  58.8883508  18.8772188  39.6016843  59.2100504  18.3256755
  40.2327281  58.0424603  18.6693294  40.1126393  58.8107836  18.7654960
  49.3565944  66.8561326  19.3941139  49.7399550  67.6052683  19.6239236
  48.5610058  67.1027146  19.1353128  49.2959727  67.0031020  19.3898713
  29.0996828  62.0481926  29.8189890  28.5523547  61.3782572  29.9370759
  29.8889206  61.6811774  29.8833358  29.1349012  61.8946912  29.8458591
  38.1681236  59.5280758  16.9701518  38.5480201  59.5460387  16.1852633
  37.4273832  59.9734747  16.8492366  38.1150074  59.5962533  16.8365086
  27.8583797  61.2602734  26.9735913  27.6805559  60.8079343  27.6990829
  27.5702820  62.0628895  27.1574391  27.7896751  61.3125292  27.1079416
  43.5207379  62.5160451  26.2113304  44.0161044  61.7983446  26.1717324
  42.7107154  62.2131249  26.0967791  43.4751272  62.3658097  26.1887030
  38.9665990  66.3658264  18.3610308  38.1577313  66.0424938  18.3143618
  39.4740899  65.6591486  18.2938557  38.9215657  66.2139581  18.3440603
  29.5956267  63.7930458  24.0857672  28.7301787  63.7816148  23.9740444
  29.6955083  63.6060680  24.9328812  29.4830434  63.7636519  24.1946617
  35.2213277  73.5628356  27.6587778  35.5359836  74.3764745  27.6665560
  35.6306691  73.1778575  28.3269937  35.3281375  73.6257059  27.7591870
  42.1737797  68.9798403  25.2291590  42.6448975  69.6938665  25.3981575
  42.5097975  68.3797153  25.7651459  42.2932912  68.9969867  25.3323966
  44.2614781  70.5899716  37.4083662  44.3711747  69.8008277  37.7640409
  44.5905678  70.5005652  36.6058000  44.3267187  70.4605569  37.3426053
  42.8111743  68.7716337  31.9919283  42.2632689  68.1474221  31.7239348
  43.2724772  68.9610609  31.2763362  42.7978953  68.7075387  31.8469714
  38.1600407  55.7542286  19.6529150  38.9816101  55.9240599  19.4110845
  37.6970058  55.9089547  18.9295447  38.2131569  55.8024019  19.5100794
  32.5626297  67.5101465  27.3066386  33.1671155  67.4697299  26.6780207
  32.3553610  68.3572617  27.3370442  32.6215195  67.6289467  27.2182503
  42.3770069  69.7767410  28.5228624  43.1968443  69.6330376  28.7844919
  42.0964147  70.4013609  29.0645062  42.4566813  69.8477762  28.6416563
  27.7977580  66.4936082  27.1765310  27.7001858  65.6832354  27.4855366
  28.5806449  66.4727875  26.7911578  27.8993716  66.3703172  27.1652172
  58.8483720  77.4332261  21.4871500  58.8177724  78.2876898  21.6589770
  59.4465069  77.1327554  22.0457644  58.9320878  77.5148758  21.5946302
  52.0483405  76.5207912  26.2424431  51.1921300  76.6816411  26.2933547
  52.0951058  75.6499976  26.2629492  51.9282516  76.4158714  26.2530497
  55.3577121  82.7894438  35.8484887  56.0643889  82.2946469  35.9771821
  55.5465057  83.2303520  35.1187545  55.4905027  82.7812788  35.7593932
  54.8935226  78.5799956  28.8856082  55.4391186  79.2585043  28.9450052
  54.8352102  78.4387417  28.0257664  54.9651140  78.6591958  28.7668143
  43.5064432  74.2595040  26.7961076  42.8869464  73.6687687  26.6271091
  43.4048296  74.8506475  26.1625399  43.4002108  74.2599122  26.6766066
  50.6032328  75.9994581  21.1293539  51.3012493  76.1782709  21.6215002
  50.9184660  75.4764921  20.5063928  50.7527665  75.9488354  21.1095549
  43.2333565  77.8047321  29.0404645  43.1092262  78.3909767  29.6754464
  43.8851850  77.3107517  29.3416920  43.3107215  77.8186126  29.1790574
  48.2591906  80.9809038  28.3192156  48.9040909  80.4881481  28.0003105
  48.4993683  81.1233825  29.1458234  48.3902491  80.9286481  28.3941689
  50.7977998  83.8263944  27.9699049  51.0801241  83.0315350  27.7485805
  51.5264158  84.3044532  27.9904110  50.9467561  83.7798541  27.9402064
  48.7759192  71.3686978  25.2114814  48.4462522  71.8198122  24.5418512
  48.1004193  71.2903141  25.7587820  48.6269628  71.4238113  25.1938037
  55.9835599  67.3572501  23.4564424  55.6689040  68.0475980  23.8884847
  55.4662541  67.3017283  22.7549925  55.8600070  67.4507390  23.4161374
  46.9815146  69.4299266  20.6937761  47.7361114  69.7977584  20.4554812
  46.8042680  69.8038821  21.4616941  47.0669624  69.5397454  20.7722650
  60.2750044  75.5793707  28.7385301  59.4378465  75.6495894  28.9732895
  60.2438275  75.5818202  27.8659603  60.1468327  75.5903934  28.6444849
  46.6714773  77.7226743  34.4533669  46.8435277  77.6132637  35.3018951
  47.2084131  78.3681148  34.2164862  46.7759777  77.8018744  34.5438766
  45.3372210  71.8369585  17.3915874  45.1547783  72.0541466  16.5656867
  46.1997823  71.9508598  17.4474489  45.4376800  71.8859483  17.2770361
  51.0171929  68.8395996  20.4264898  51.7458090  68.6611951  19.9803055
  51.1066822  69.6814076  20.6372076  51.1378592  68.9379875  20.3918416
  54.9980230  79.7749384  24.3297192  55.7537745  80.2080898  24.3686101
  55.1042555  79.1254153  24.9031828  55.1250401  79.7426867  24.4195218
  40.9776490  80.3158674  29.2886589  40.7114906  79.4997790  29.4477580
  40.9915054  80.3611829  28.4182105  40.9401213  80.2015579  29.1840071
  57.9557884  70.6436489  27.3229023  58.5983793  70.7134593  27.9090938
  58.2080905  69.9765712  26.8208565  58.0880016  70.5562837  27.3356302
  44.8834237  75.1143758  15.9038348  44.1692414  74.8281938  16.3160780
  45.3678206  75.4540384  16.5444735  44.8493601  75.1225408  16.0593982
  45.7275097  73.8537052  31.9353597  45.0346893  73.3834032  32.1814329
  46.3435424  73.6275357  32.5095304  45.7159627  73.7504184  32.0562750
  41.3869904  81.1017453  26.5698334  41.2045477  81.0764339  25.7170626
  42.1219573  81.5716391  26.6087242  41.4683968  81.1678815  26.4496252
  44.4515656  77.8202456  33.0780442  45.1755628  77.8055487  33.5645337
  44.5531792  78.5297811  32.5802411  44.5733865  77.9227159  33.0759229
  51.8260605  81.3001541  37.9429389  51.0333586  81.6145052  38.1282009
  51.9409532  81.5153009  37.1050174  51.7256016  81.3785377  37.8467724
  54.4991924  78.0235532  22.2324405  54.5938778  78.7624826  22.6864031
  53.8750768  77.5953007  22.6658970  54.4200954  78.0696852  22.3632553
  52.7544398  81.2021744  32.8814686  53.3283260  80.5648989  33.0363250
  52.6759202  81.2025827  32.0124344  52.8277633  81.1086856  32.7761097
  41.3540814  77.9810954  26.7197400  41.9314317  77.8447405  27.3589646
  40.6554876  77.5246738  26.9742985  41.3361836  77.8933220  26.8519690
  48.1108116  79.6345009  24.9335883  47.8527361  78.8016744  24.9067183
  48.1656599  79.8602622  24.0928384  48.0807894  79.5442781  24.8056020
  53.1909167  71.7373460  25.0339976  52.4865493  71.2482646  25.1923895
  53.2394141  71.7495935  24.1628421  53.0939218  71.6663108  24.9279316
  47.0842829  77.1882772  25.4200778  46.5092420  77.3474940  26.0564739
  46.7078505  76.5518181  24.9569229  46.9445641  77.1180585  25.4455337
  50.7516117  75.6606121  30.2793157  50.3630550  75.2360339  29.6245348
  50.0870816  75.9088271  30.7870183  50.5963045  75.6344842  30.2581025
  60.3939386  75.4181126  23.0540987  60.1375951  74.6061067  22.8638869
  61.2368700  75.4258693  22.8271174  60.4805412  75.2993123  22.9925804
  36.8299648  76.8322847  23.4345219  36.9159899  76.4554715  24.2158749
  37.4575445  76.4583292  22.9565177  36.9356199  76.7208329  23.4790696
  54.5742479  69.3580750  27.7917141  54.9552991  68.6758921  28.1785015
  53.7705763  69.0690352  27.6092805  54.5118941  69.2147798  27.8221197
  47.7262964  83.3626243  23.6042276  48.3636911  83.1237991  24.1494069
  48.1518035  83.5663402  22.8695436  47.8839130  83.3577253  23.5759433
  48.3665779  78.5828533  17.9417165  48.7510932  78.3636240  18.6933710
  48.1177399  79.4091478  18.0718241  48.3867851  78.6726679  18.0718242
  48.5334319  71.8634948  37.6579749  48.2187760  72.6334511  37.3949312
  48.2124252  71.3005204  37.0731976  48.4393238  71.8945217  37.5321099
  50.1084436  83.8398666  25.2836062  50.1823444  83.6773838  26.1377912
  50.9253942  84.0288855  25.0396544  50.2400794  83.8435408  25.3734088
  46.0866216  70.2525470  23.2725946  45.2188642  70.3248069  23.3383555
  46.3741421  71.0547549  23.4613921  46.0005964  70.3819617  23.3100712
  55.2099105  70.4003329  31.6037267  55.9552697  70.2113139  31.1900693
  54.7936410  70.9261567  31.0451124  55.2584079  70.4505474  31.4601841
  62.5861376  77.7712558  26.5542772  63.1369297  77.1380627  26.7939865
  62.5705491  78.3027950  27.2458277  62.6646572  77.7561506  26.6921631
  49.2383767  81.6051155  31.1002666  48.7395460  82.3166923  31.1787554
  50.0483991  81.9251821  31.0620828  49.2839873  81.7578003  31.1059234
  45.5011884  80.8674108  25.3465387  45.2125133  80.2411579  25.8811114
  46.3695232  80.8094395  25.4130067  45.5872136  80.7661652  25.4356341
  56.2889782  76.0108891  25.6647369  55.9454548  75.2899226  26.0154618
  56.3882825  75.8022742  24.8225727  56.2531825  75.8733095  25.5919049
  45.7044158  82.5069359  21.2707752  46.4590126  82.8882398  21.4843214
  45.1114770  82.9580503  21.7254448  45.7280871  82.6298186  21.3690630
  48.1650825  74.4632199  36.3964964  47.3550600  74.7689979  36.2854806
  48.6425511  75.1837782  36.5117548  48.1154303  74.6146800  36.3972035
  44.0133568  73.7283729  20.7142822  43.7258364  73.3584999  19.9774769
  44.7004037  74.1978584  20.4526527  44.0722466  73.7430698  20.5657898
  48.4508710  80.7081939  22.0429358  48.2551492  81.3156674  21.4489661
  48.6743055  80.0149883  21.5621032  48.4543351  80.6959465  21.8845439
  46.8487240  77.5936677  22.1610227  47.5709892  77.7577835  21.7014033
  46.3695233  78.3146342  22.0549566  46.8850971  77.7234907  22.0775841
  54.8080747  73.9300476  27.5406912  53.9691848  73.9561755  27.3045175
  54.8785115  74.5771211  28.1212258  54.6949141  74.0296602  27.5916028
  44.4994857  79.9994750  31.2664366  45.0115953  80.2779003  30.6173126
  44.2131199  80.7384044  31.6327180  44.5329720  80.1497103  31.2254245
  53.2550026  70.8285853  22.2734527  53.9576379  70.6293601  21.7954486
  52.9894214  70.0561795  22.5803371  53.3196658  70.6848819  22.2479969
  58.6838271  79.1368463  24.8268153  58.5972246  79.2923889  25.6802932
  58.2288751  79.7806538  24.4527558  58.6041528  79.2544218  24.8975260
  41.5861763  74.5064941  21.5628103  41.6877899  75.3091103  21.8909078
  42.3817650  74.3052277  21.2651184  41.7189669  74.5950840  21.5663458
  48.0178582  72.0921138  31.3265408  47.8261779  72.1076273  32.1764832
  48.8677178  72.2884813  31.3032063  48.1154304  72.1235489  31.4488703
  42.4025495  74.6212120  29.3049225  42.2610987  73.7696060  29.4293732
  42.6866058  74.6640780  28.4811431  42.4233341  74.5011870  29.2016849
  52.5564087  76.4579210  23.4493713  52.3098802  76.3774961  24.2830502
  52.8849210  75.6732678  23.2556240  52.5685331  76.3305475  23.5441236
  54.7890221  79.4658945  33.4902876  54.7838260  78.5938761  33.4945302
  55.4951215  79.6647114  33.0172331  54.8935225  79.3662819  33.4209911
  48.5161115  79.1935928  32.8616696  48.6604490  79.7737137  32.2259806
  48.8636763  79.5712225  33.5666550  48.5888576  79.3356633  32.8715691
  50.6881032  78.3926097  30.6441827  49.9404346  78.5857111  30.2390106
  50.8422557  77.5671316  30.4065949  50.6003460  78.2991208  30.5487233
  50.9282809  72.2876648  31.5337231  51.3855423  73.0200622  31.6610023
  51.0039138  71.8643113  32.2924487  51.0073779  72.3333886  31.6638308
  43.1715800  72.5342467  32.6226675  42.6357990  71.9222825  32.9387442
  43.2333565  73.1090603  33.2760342  43.1011433  72.5289395  32.7662102
  55.4010135  65.4666523  25.4031074  55.5193703  65.9242986  24.6698377
  55.2272311  64.6611784  25.1167292  55.3929306  65.4160295  25.2532008
  48.8065187  74.2778752  28.3779055  48.0161262  74.0970212  28.6996391
  49.2025810  73.5005704  28.3609350  48.7482063  74.1366212  28.4231604
  54.1908873  81.9121182  26.1038501  53.5153875  81.6806414  26.6051888
  54.2001249  81.3042365  25.4780606  54.0927378  81.7880107  26.0854653
  51.3203017  76.7539011  32.8602554  51.2562158  77.6148967  32.7322691
  51.4600205  76.4371004  32.0598105  51.3318487  76.8339177  32.7230767
  50.0022111  79.4471150  27.0018757  49.5784360  79.6475649  26.2657775
  49.8266966  78.5999998  27.1143057  49.9132992  79.3519931  26.9092447
  45.2904556  79.9423201  22.4346730  45.4469175  79.8770004  23.2902722
  45.6305149  80.7171754  22.2225409  45.3637791  80.0472400  22.5301324
  51.8283701  79.3181085  21.3040093  52.3699246  78.8151466  21.7678713
  52.1430260  79.2646280  20.4929578  51.9548098  79.2360506  21.2523905
  52.9772970  74.2117389  31.3562393  53.1914940  73.5728304  30.8025747
  52.3606869  74.6563213  30.9270255  52.9178299  74.1827533  31.2112824
  41.8638818  77.1258152  22.7507497  42.2437782  77.5442697  22.0867764
  41.2894182  77.7071608  23.0576340  41.8350142  77.2736011  22.6984238
  55.1412058  75.8206455  32.2945700  54.3288740  75.5132345  32.3758873
  55.6001993  75.3405455  32.8588413  55.0892443  75.7042947  32.3900294
  52.2365566  77.2266526  37.0774403  52.7065197  77.8508642  37.4642277
  52.2827446  76.5583502  37.6367617  52.3133441  77.2201206  37.2174474
  49.3936839  69.3323554  27.8023206  48.8775328  68.6403745  27.9274785
  48.8330768  69.9994331  27.7485805  49.2343352  69.3286811  27.8129272
  51.4629073  69.8716514  29.6316059  51.0760826  69.8965545  30.4129589
  50.9762010  69.3058192  29.1790576  51.3341582  69.7912264  29.6803963
  57.4379052  76.4379169  28.2555761  57.0106660  76.3505517  27.5003861
  56.8005105  76.5456944  28.8410605  57.2808659  76.4411828  28.2301203
  50.9300129  71.5454694  34.1952731  51.7573559  71.2739843  34.2511345
  50.9507975  72.3415536  34.5516549  51.0552979  71.6234448  34.2567913
  45.5069619  78.6918557  27.3822991  44.6657626  78.5922431  27.5901885
  45.7159627  79.4614037  27.7337312  45.4134312  78.7910600  27.4650306
  42.9845186  76.3138094  25.2107742  42.5901884  76.3881105  24.4357851
  42.4285303  76.6996040  25.7616104  42.8447998  76.3819868  25.1775402
  54.6210133  69.2919388  24.8911621  54.8259726  69.2241695  25.7368618
  54.2936557  70.0978209  24.8232798  54.6025381  69.4005328  25.0071276
  49.3186284  76.6199956  26.6320589  49.0149421  76.0655944  27.2330996
  48.6165705  76.7992166  26.1448623  49.1702494  76.5644738  26.6490294
  48.3752381  73.9300476  21.1965291  48.6512115  73.2119388  20.7842858
  48.9751050  74.5285396  20.9886397  48.5045646  73.9120846  21.1046052
  57.8743821  69.8451152  24.3714386  57.2618134  70.3321554  24.7568118
  57.9707995  69.1694643  24.9152037  57.7981718  69.8169461  24.5093244
  51.8762902  71.6013993  19.4711886  52.3306648  71.7724553  20.1959730
  52.3502947  70.9882104  19.0709661  52.0131222  71.5364878  19.5185647
  45.3978427  81.0862319  28.8014624  44.8066360  81.7271817  28.7717639
  46.1599451  81.5099936  28.7745924  45.4226688  81.2438157  28.7929771
  45.7939050  72.2464317  29.4682642  46.2540531  72.3203246  30.2057765
  45.8395156  73.0445571  29.1182463  45.8689605  72.3758464  29.5255398
  47.4422400  72.9131012  34.0354669  47.0507965  72.2664359  34.4710447
  47.6108262  73.5042447  34.6548924  47.4093310  72.9045279  34.1917375
  49.2175922  78.3056527  20.5756893  49.9617967  78.6930804  20.8139843
  49.3636618  77.4613953  20.7397381  49.3486507  78.2387000  20.6350862
  51.1355497  70.1006786  25.6088754  50.2891542  70.2729594  25.4830104
  51.1326629  69.2956130  25.9454583  51.0102647  70.0067815  25.6399881
  52.2053797  73.8782001  26.4750812  51.7313752  73.3523763  26.9856123
  52.5771933  73.3311473  25.9065674  52.1903686  73.7197997  26.4665959
  42.5826828  75.8753507  31.8434358  43.4452441  75.7749217  31.7571688
  42.2518611  75.2948217  31.2819930  42.6612024  75.7745134  31.7479764
  58.4690528  78.9384376  27.8857593  58.2288751  78.0990791  27.8900019
  58.9482535  79.0184543  28.6098366  58.5042712  78.8265776  27.9932395
  54.1337297  74.7718555  19.5376566  53.6060316  74.8547299  18.8482275
  54.5933005  75.5136427  19.5341211  54.1239148  74.8939218  19.4351261
  60.4695715  75.7185834  25.8386852  60.2305485  75.6781668  25.0007636
  60.6329616  76.5656986  25.9652573  60.4586018  75.8377919  25.7340334
  57.0741745  80.1035783  31.7691897  57.7975944  79.6508309  31.5902917
  56.8091707  80.3840448  30.9864225  57.1423018  80.0786751  31.6270612
  45.9428614  74.6995956  28.5044776  45.3181684  74.7114348  27.8970729
  45.6074208  75.1756131  29.1536016  45.8014105  74.7714473  28.5101345
  46.1270362  73.0421075  14.5617461  45.7783167  73.6940800  15.0249010
  45.6466808  73.0278188  13.8341332  46.0040606  73.1364128  14.5228552
  52.8560535  80.2019661  29.9186912  52.2417528  79.6577711  30.2135547
  53.3727820  79.6883898  29.4392728  52.8416197  80.0456070  29.8911140
  52.0956832  81.2723931  27.6531211  51.6684440  80.6473650  27.2196646
  52.0881776  80.9898853  28.4790218  52.0315973  81.1376712  27.7111038
  45.2119359  76.3089104  30.7219645  45.3712846  75.5532428  31.1271366
  45.0312253  76.8580044  31.3760382  45.2084718  76.2782918  30.8782351
  53.1539662  68.4750340  31.2770434  52.6580223  68.6714014  30.5862001
  53.9108724  68.8743008  31.1059236  53.1926487  68.5628074  31.1490571
  50.4242541  72.1492686  27.8673745  50.4485029  71.6152798  27.1786525
  50.6754015  71.6409994  28.5299335  50.4652460  71.9953590  27.8638389
  37.9350131  79.4324181  27.3016889  37.8293580  79.3871025  26.4368973
  37.1850351  79.7777961  27.5831174  37.8085734  79.4765089  27.2154218
  46.7043864  70.8763504  27.2479489  46.7442235  71.3772710  27.9614196
  45.8793528  70.9673898  26.9785412  46.5883390  70.9645320  27.3130027
  48.8873477  80.4424244  35.3499783  48.0369107  80.5795958  35.4857428
  49.0501604  79.7088022  35.7947485  48.7857340  80.3538345  35.4355383
  48.1258227  77.3924014  29.5453388  47.2950157  77.5597832  29.3388636
  48.0709744  77.0159964  30.3302273  47.9947642  77.3613745  29.6301916
  45.9342010  70.8832907  35.1809799  46.5594714  70.3395039  35.4539231
  45.4792490  70.4027824  34.6117589  45.9590271  70.7322388  35.1371392
  46.4994271  75.6679605  20.0743506  46.6397232  76.1652069  20.7772147
  46.9976804  74.9665900  20.2157719  46.5935352  75.6381584  20.1995085
  46.5294493  76.5346716  17.4036082  47.1639573  77.1307141  17.3385544
  46.6120104  76.2350174  18.2181953  46.6351044  76.5787624  17.5139169
  59.5077059  79.0662194  30.2722447  60.0994899  79.7059444  30.3040645
  59.9436054  78.3685230  30.5614513  59.6595490  79.0580544  30.3203279
  48.1073476  72.4660692  17.3781524  48.4289317  71.9863774  16.7240787
  48.3700420  73.2760338  17.1872336  48.1939502  72.5150590  17.2537016
  51.3370449  83.4879566  30.8980341  50.8295540  84.0415413  31.3420971
  51.0397095  83.5487856  30.0799115  51.2175334  83.5785877  30.8428797
  53.5032631  71.8532886  29.7405004  53.9287703  71.4005412  29.1288530
  52.8889624  71.2992956  30.0169791  53.4761277  71.7046862  29.6910029
  43.0347481  78.7314557  20.6725628  43.5439711  79.3279065  21.0536934
  43.5081753  78.4640531  19.9902048  43.1790857  78.7800372  20.6280151
  51.9426854  68.3247985  23.1495581  51.2995172  68.1745632  23.7180719
  51.6026261  68.0790331  22.3844685  51.7971931  68.2660108  23.1198596
  56.5326200  76.2807412  22.5725589  55.8617390  76.8237115  22.4438655
  57.2265951  76.7502268  22.3307284  56.5355068  76.4305683  22.5181117
  56.6954328  72.7363296  25.4815962  57.0481938  72.3093019  26.1561761
  55.8369129  72.6514139  25.6117039  56.6203773  72.6608037  25.6010973
  45.3938013  75.3670816  23.5398809  44.6750002  75.7834948  23.8071672
  45.7650375  75.9325054  22.9890447  45.3429945  75.5120097  23.4981616
  54.6937594  75.9998664  29.4300805  54.6735521  75.8181960  30.2835583
  54.7416794  76.8710683  29.4060388  54.6972235  76.1015203  29.5524099
  52.6383924  82.5885856  35.3549281  52.5979778  81.9435533  34.7694437
  53.4507242  82.5322474  35.6674693  52.7527077  82.4844823  35.3146230
  51.1684587  74.4068815  18.8772188  50.5749427  74.7285812  18.3256755
  51.2059865  73.5609911  18.6693294  51.0858976  74.3293144  18.7654960
  58.1278388  67.8581708  26.4100275  57.6209253  67.1510847  26.3421452
  58.9245822  67.5274897  26.5401351  58.1705627  67.7054859  26.4199270
  54.0442404  74.3648320  22.3073939  53.8156097  74.3881021  21.4652297
  54.3040480  73.5405787  22.4268949  54.0488592  74.2464400  22.1999136
  48.3261632  76.2182793  31.9099039  47.8140535  75.6103976  32.2684070
  48.1541128  76.9339386  32.3773015  48.2251269  76.2346092  32.0315262
  43.1727347  74.6620368  34.5601401  43.0029937  75.3221743  34.0149607
  42.7293297  74.8726930  35.2813890  43.0826681  74.7906350  34.5863030
  47.0987166  72.9024866  23.6028134  47.5744533  73.2641946  22.9678315
  46.5975766  73.5581334  23.8828277  47.0952525  73.0519055  23.5504875
  52.2030703  74.1407038  34.3501294  52.7602133  73.9120847  33.7179760
  51.8791768  74.9012703  34.0736507  52.2377113  74.2190874  34.2157791
  40.0729412  77.5667234  29.8189890  39.5256131  76.8967879  29.9370759
  40.8621790  77.1997082  29.8833358  40.1081595  77.4132220  29.8458591
  49.9213820  77.2274691  35.3153301  50.6725147  77.5426368  35.6292856
  50.1136396  77.0253862  34.4887223  50.0605234  77.2442073  35.2396697
  49.1413820  75.0466066  16.9701518  49.5212784  75.0645695  16.1852633
  48.4006416  75.4920055  16.8492366  49.0882657  75.1147841  16.8365086
  56.7699110  73.3548257  22.5577097  56.7693336  73.1996914  23.4161373
  56.5655290  74.2011244  22.5018482  56.7398888  73.4568878  22.6765036
  38.8316381  76.7788042  26.9735913  38.6538142  76.3264651  27.6990829
  38.5435403  77.5814203  27.1574391  38.7629334  76.8310600  27.1079416
  54.4939962  78.0345759  26.2113304  54.9893627  77.3168754  26.1717324
  53.6839738  77.7316557  26.0967791  54.4483855  77.8843405  26.1887030
  40.5688851  79.3115765  24.0857672  39.7034370  79.3001456  23.9740444
  40.6687667  79.1245988  24.9328812  40.4563018  79.2821827  24.1946617
  56.5591781  80.7849447  28.8990433  56.9846853  80.2623868  28.3460858
  56.1948701  81.3830284  28.3779055  56.5678384  80.7959674  28.7399442
  53.1470380  84.4983711  25.2291590  53.6181559  85.2123973  25.3981575
  53.4830559  83.8982461  25.7651459  53.2665495  84.5155175  25.3323966
  50.0639875  69.2711181  32.1849685  50.1967781  68.4742175  32.5130660
  50.4485028  69.7977584  32.7647960  50.1396204  69.2311098  32.3193188
  53.7844327  84.2901645  31.9919283  53.2365273  83.6659529  31.7239348
  54.2457355  84.4795917  31.2763362  53.7711536  84.2260695  31.8469714
  56.5938191  72.3586999  29.3770475  56.0101180  72.8596206  28.9648042
  56.9142485  71.8516556  28.7434798  56.5551366  72.3578834  29.2228982
  49.1332990  71.2727594  19.6529150  49.9548685  71.4425907  19.4110845
  48.6702641  71.4274855  18.9295447  49.1864153  71.3209327  19.5100794
  47.7228322  69.2670356  30.4327579  48.2672735  68.9261483  31.0231920
  47.7765258  70.1255818  30.5748863  47.8117442  69.3425616  30.5409452
  22.1330194  13.1716645  22.7824934  22.8396962  12.6768676  22.9111868
  22.3218130  13.6125727  22.0527592  22.2658100  13.1634996  22.6933979
  19.2722489  16.5944182  20.6739009  19.3605835  16.4070322  21.5217219
  19.7012201  15.9481612  20.2743856  19.3484591  16.4707190  20.7410760
  16.8392949  15.8775342  19.6556671  16.2763783  15.4647952  20.1796332
  17.6013972  15.8028248  20.0749814  16.8687397  15.8052742  19.7949671
  13.4467847   8.1048950  21.3873716  13.6188350   7.9954845  22.2358998
  13.9837204   8.7503356  21.1504909  13.5512851   8.1840952  21.4778813
  19.3842548  16.0253201  23.3382792  20.1682965  16.1384049  23.7038535
  19.1839143  15.1994338  23.5341478  19.4708573  15.9199920  23.4217178
  19.5412941  17.9363303  16.9849248  18.7428187  17.6962803  17.2423117
  19.9898953  17.9877696  17.7316296  19.4887553  17.9085694  17.1334172
  18.6013678  11.6823748  24.8769436  17.8086659  11.9967260  25.0622056
  18.7162605  11.8975216  24.0390221  18.5009089  11.7607585  24.7807771
  19.5297471  11.5843952  19.8154733  20.1036333  10.9471196  19.9703297
  19.4512275  11.5848034  18.9464391  19.6030706  11.4909063  19.7101144
  24.8517619  12.9552929  19.8239586  24.6156256  12.1240994  19.7051647
  25.4960848  12.9038537  20.4094430  24.9112290  12.8250617  19.8925480
  25.8754040  12.7397378  15.8867881  25.5699857  13.4725435  16.2481196
  25.1560255  12.3335308  15.6060667  25.7241382  12.7879111  15.8981018
  31.5755832   9.3790379  15.2136225  31.5080332   9.3986338  14.3438811
  31.5611494  10.2220706  15.4391895  31.5634588   9.5064113  15.1188702
  16.0136840  11.9873362  18.0342713  15.5148534  12.6989130  18.1127601
  16.8237064  12.3074029  17.9960875  16.0592947  12.1400211  18.0399281
  14.9403898   4.8454407  23.3305011  14.1303674   5.1512186  23.2194853
  15.4178585   5.5659989  23.4457595  14.8907377   4.9969008  23.3312082
  21.5643295   9.8481152  20.4242923  21.5591333   8.9760969  20.4285349
  22.2704288  10.0469321  19.9512378  21.6688299   9.7485026  20.3549958
  15.2914188   9.5758136  19.7956743  15.4357564  10.1559344  19.1599853
  15.6389836   9.9534433  20.5006597  15.3641649   9.7178840  19.8055738
  14.3641943  17.7660908  16.6617770  14.5131507  17.2063824  16.0091174
  15.1441945  17.8452909  17.0450288  14.5016036  17.6946473  16.6214719
  16.8895243  17.9375551  17.9402260  16.8138915  17.2684361  18.4953049
  16.8185103  18.6393339  18.4542927  16.8675850  17.9420458  18.0979108
  16.2786878  21.3443870  16.3980261  16.7682808  20.6454660  16.2155926
  15.7071110  21.0467740  16.9856318  16.2671408  21.1970094  16.4581302
  22.4753881  13.9105940  25.3507052  23.2888747  13.6391089  25.5112184
  22.3148848  13.6113480  24.5467248  22.5723830  13.8260866  25.2552458
  21.9165131   6.2028662  19.2285747  21.1041813   5.8954552  19.3098920
  22.3755066   5.7227662  19.7928459  21.8645516   6.0865154  19.3240341
  19.0118639   7.6088734  24.0114449  19.4818270   8.2330850  24.3982324
  19.0580519   6.9405709  24.5707664  19.0886515   7.6023414  24.1514521
  22.4875125  14.9712230  20.6229892  23.1254846  14.4772426  20.2892348
  21.8449217  14.8989630  20.0382119  22.4869352  14.8871238  20.4872247
  22.5429382  15.6632038  17.2635249  23.3321760  15.3121103  17.3837331
  22.7172980  16.4768427  17.0011883  22.6849664  15.7317895  17.2423117
  14.1557708  14.2171884  18.2732733  14.0478063  14.2273946  19.1394791
  14.3653490  15.0426664  18.0837687  14.1707819  14.3412959  18.3736825
  28.2921922  11.2990296  16.7331949  28.3505045  11.7476945  17.4791926
  27.6588389  11.7089109  16.2962029  28.2073217  11.4264031  16.7784497
  21.9321016  16.9193838  13.1686695  21.7340705  17.4084652  12.4742907
  21.3108727  17.1235079  13.7470829  21.8108581  17.0210376  13.1509919
  23.8494818  10.4857990  18.7031944  24.5729017  10.0330517  18.5242964
  23.5844781  10.7662656  17.9204272  23.9176092  10.4608959  18.5610659
  15.6626550  10.8246451  22.2839830  14.8122180  10.9618165  22.4197475
  15.8254678  10.0910229  22.7287532  15.5610413  10.7360552  22.3695429
  26.2830132   9.4484401  17.2062493  26.8747973  10.0881652  17.2380691
  26.7189127   8.7507438  17.4954560  26.4348564   9.4402751  17.2543326
  18.1123522  13.8701773  17.8320387  17.6048613  14.4237620  18.2761018
  17.8150168  13.9310063  17.0139162  17.9928407  13.9608085  17.7768844
  17.3566007  18.8026332  14.7377394  17.1331662  18.0445161  15.1061421
  16.8675851  18.8324353  14.0157834  17.2509456  18.6948556  14.6854135
  19.4136997  12.9708064  22.2889328  19.3732852  12.3257741  21.7034484
  20.2260315  12.9144681  22.6014740  19.5280150  12.8667031  22.2486277
  18.9783776   4.5229245  21.2841341  19.5355206   4.2943055  20.6519807
  18.6544841   5.2834911  21.0076554  19.0130186   4.6013082  21.1497838
  16.6966893   7.6096898  22.2493348  17.4478220   7.9248575  22.5632902
  16.8889470   7.4076069  21.4227270  16.8358307   7.6264280  22.1736744
  23.3344854  11.1671654  15.8330479  23.7599926  10.6446076  15.2800904
  22.9701774  11.7652491  15.3119102  23.3431457  11.1781881  15.6739489
  12.9698934  19.4635871  14.5927825  13.2845493  20.2772260  14.6005607
  13.3792347  19.0786090  15.2609984  13.0767032  19.5264574  14.6931916
  22.0100438  16.4907232  24.3423709  22.1197404  15.7015792  24.6980456
  22.3391335  16.4013168  23.5398047  22.0752844  16.3613085  24.2766100
  20.5597400  14.6723852  18.9259329  20.0118346  14.0481736  18.6579395
  21.0210429  14.8618124  18.2103409  20.5464609  14.6082903  18.7809761
  20.1255726  15.6774925  15.4568671  20.9454100  15.5337891  15.7184966
  19.8449804  16.3021124  15.9985109  20.2052470  15.7485277  15.5756610
  36.5969377  23.3339777   8.4211547  36.5663381  24.1884413   8.5929816
  37.1950725  23.0335069   8.9797691  36.6806535  23.4156273   8.5286349
  29.7969062  22.4215428  13.1764477  28.9406957  22.5823926  13.2273594
  29.8436715  21.5507492  13.1969538  29.6768173  22.3166230  13.1870543
  24.1810201  31.9578146   8.9401709  23.4293101  31.5793684   8.7117754
  24.6296213  31.9896579   8.1920519  24.1359868  31.9063753   8.7959211
  29.6335161  32.3803515   4.3687256  29.2986530  33.0580437   3.9331478
  30.1462032  31.9908826   3.7804128  29.6600742  32.4228093   4.2174048
  29.1739452  34.3317784  10.3098368  29.5578832  34.9004682   9.7703143
  29.1098594  33.6067294   9.8304184  29.2212880  34.3093247  10.1592230
  32.6420883  24.4807472  15.8196129  33.1876843  25.1592558  15.8790099
  32.5837759  24.3394933  14.9597711  32.7136797  24.5599473  15.7008190
  25.7594957  31.9696538  11.2064481  25.8605320  31.1596892  11.5161609
  25.1636703  31.8753484  10.5764160  25.6867496  31.8361566  11.1590720
  34.4185951  25.9092079   6.6929857  34.3025477  26.6599765   7.1221995
  35.2141838  25.6516032   6.9425944  34.5190541  25.9826926   6.7933948
  25.5995697  36.8874127  12.6079338  26.2433152  37.3287291  12.9975496
  25.9251953  36.0827553  12.5209596  25.7427526  36.8339322  12.6524815
  18.9560002  27.9916824  10.8316815  18.7210186  27.1584477  10.7249084
  19.0945642  28.2721490  10.0178016  18.9415664  27.9100328  10.6959170
  21.2550089  20.1602555  13.7301123  20.6355121  19.5695202  13.5611138
  21.1533953  20.7513990  13.0965446  21.1487765  20.1606637  13.6106112
  26.3016277  29.8986102   7.9799199  26.6232118  30.4391309   7.3760507
  26.9488373  29.3282873   8.1121489  26.4442332  29.8945277   7.9106235
  28.3517985  21.9002097   8.0633586  29.0498149  22.0790224   8.5555049
  28.6670317  21.3772436   7.4403975  28.5013322  21.8495869   8.0435596
  20.9819222  23.7054837  15.9744692  20.8577919  24.2917282  16.6094511
  21.6337507  23.2115032  16.2756967  21.0592871  23.7193641  16.1130621
  28.5405920  28.2872542   8.0513377  28.9799556  27.6789642   8.4968150
  28.3910583  27.9079915   7.2798842  28.5827386  28.1411013   8.0032545
  26.0077563  26.8816554  15.2532203  26.6526566  26.3888997  14.9343151
  26.2479340  27.0241340  16.0798281  26.1388148  26.8293996  15.3281736
  28.5463655  29.7271459  14.9039095  28.8286897  28.9322865  14.6825851
  29.2749815  30.2052047  14.9244156  28.6953218  29.6806056  14.8742111
  26.5244848  17.2694493  12.1454861  26.1948178  17.7205637  11.4758559
  25.8489850  17.1910657  12.6927867  26.3755285  17.3245629  12.1278084
  32.1415257  26.6399723   5.0044147  32.0566552  27.4960690   5.1493715
  32.6299640  26.3644047   5.6726306  32.2004154  26.7257044   5.1246228
  33.7321256  13.2580016  10.3904471  33.4174697  13.9483495  10.8224894
  33.2148198  13.2024799   9.6889972  33.6085727  13.3514905  10.3501420
  33.0733690  23.2584517   6.5041882  32.5445161  23.4744151   7.1639188
  33.5958710  23.9520656   6.4242851  33.0722143  23.3927654   6.5897481
  38.5281743  28.8330822  11.8774926  37.6979446  29.0441465  12.0408343
  38.4790995  28.0067876  11.6017210  38.3988478  28.7420428  11.8612292
  20.5177326  32.8702495  12.1073021  20.0344905  33.5952985  12.0832605
  21.3300645  33.1678625  12.2183179  20.5668074  33.0204849  12.1200301
  26.5891480  31.6634676  14.7122836  26.0718422  31.3042091  14.1084144
  27.2865872  31.1396850  14.7228902  26.6157062  31.5332364  14.6253094
  27.8125532  31.3960650  19.6556671  27.2496367  30.9833260  20.1796332
  28.5746556  31.3213556  20.0749814  27.8419981  31.3238050  19.7949671
  23.3721524  33.3858671  12.2593301  24.0742103  32.8710660  12.3166058
  23.2919007  33.7132822  13.0640176  23.4645284  33.3572897  12.3866093
  38.0235701  21.4801222  15.6725348  37.1864122  21.5503409  15.9072942
  37.9923932  21.4825717  14.7999650  37.8953984  21.4911449  15.5784896
  24.4200430  23.6234258  21.3873716  24.5920934  23.5140153  22.2358998
  24.9569788  24.2688663  21.1504909  24.5245434  23.7026260  21.4778813
  22.6972299  29.5765023  11.7678909  23.5361198  29.8087956  11.8152671
  22.7284068  28.7069334  11.6985945  22.8254017  29.4821970  11.7643554
  23.3225002  29.9965898  16.0692215  23.8623227  29.8537029  16.7395587
  22.6394948  30.3962649  16.4376241  23.3017156  30.0345569  16.2226636
  32.7465887  25.6756899  11.2637239  33.5023402  26.1088413  11.3026148
  32.8528211  25.0261669  11.8371875  32.8736058  25.6434383  11.3535265
  35.7846058  29.5030176  12.0139642  35.3481290  29.5066919  12.7698613
  35.4508974  30.1835675  11.5819220  35.6708678  29.6042632  12.0620475
  18.7262147  26.2166189  16.2226636  18.4600562  25.4005306  16.3817627
  18.7400711  26.2619345  15.3522152  18.6886869  26.1023094  16.1180118
  35.7043541  16.5444004  14.2569070  36.3469449  16.6142109  14.8430985
  35.9566562  15.8773227  13.7548612  35.8365673  16.4570353  14.2696349
  23.4760753  19.7544567  18.8693644  22.7832550  19.2841547  19.1154376
  24.0921081  19.5282872  19.4435351  23.4645283  19.6511699  18.9902797
  30.5145525  33.4548611  16.9849248  29.7160771  33.2148111  17.2423117
  30.9631537  33.5063004  17.7316296  30.4620136  33.4271002  17.1334172
  38.9190404  26.2211096  10.9059279  39.5806838  25.6601764  10.8055188
  38.2781816  25.7263127  11.2311970  38.9219272  26.0647505  10.9391619
  29.8067212  29.5181227   3.2140203  30.2218360  29.1866251   2.5224698
  28.9759142  29.2850130   3.0860339  29.7455221  29.4352483   3.0931050
  19.1355561  27.0024968  13.5038380  18.9531134  26.9771854  12.6510673
  19.8705230  27.4723906  13.5427289  19.2169625  27.0686331  13.3836299
  35.2055235  27.2376478  10.6471268  35.4410824  27.3821677   9.8198119
  35.3544799  28.0018886  11.0402782  35.2621038  27.3715533  10.5834872
  22.2001312  23.7209971  20.0120489  22.9241285  23.7063002  20.4985384
  22.3017449  24.4305327  19.5142457  22.3219522  23.8234675  20.0099276
  37.0345692  26.0778144   8.4840872  37.3653909  26.6105784   7.8780967
  37.6078780  26.1317032   9.1402823  37.1679371  26.1647713   8.4918654
  32.2477581  23.9243047   9.1664452  32.3424435  24.6632341   9.6204077
  31.6236424  23.4960523   9.5999017  32.1686611  23.9704368   9.2972600
  30.5030055  27.1029260  19.8154733  31.0768916  26.4656504  19.9703297
  30.4244858  27.1033342  18.9464391  30.5763290  27.0094371  19.7101144
  19.1026471  23.8818469  13.6537447  19.6799974  23.7454920  14.2929692
  18.4040533  23.4254253  13.9083031  19.0847493  23.7940735  13.7859737
  25.8593773  25.5352525  11.8675930  25.6013018  24.7024260  11.8407230
  25.9142256  25.7610138  11.0268431  25.8293551  25.4450296  11.7396067
  30.9394823  17.6380975  11.9680023  30.2351150  17.1490161  12.1263942
  30.9879798  17.6503450  11.0968467  30.8424875  17.5670623  11.8619363
  24.8328485  23.0890287  12.3540825  24.2578077  23.2482456  12.9904786
  24.4564162  22.4525696  11.8909276  24.6931298  23.0188100  12.3795383
  28.5001774  21.5613637  17.2133203  28.1116207  21.1367854  16.5585395
  27.8356472  21.8095786  17.7210230  28.3448702  21.5352358  17.1921071
  38.1425043  21.3188641   9.9881034  37.8861608  20.5068583   9.7978916
  38.9854357  21.3266208   9.7611221  38.2291069  21.2000639   9.9265851
  32.3228136  15.2588265  14.7257188  32.7038647  14.5766436  15.1125062
  31.5191420  14.9697867  14.5432852  32.2604597  15.1155314  14.7561244
  29.6040712  25.7912241   5.4110010  30.4181351  26.0827134   5.2992782
  29.5399854  25.1372103   4.8368303  29.7143451  25.7377436   5.3098848
  25.4748621  29.2633759  10.5382323  26.1122568  29.0245506  11.0834116
  25.9003692  29.4670918   9.8035483  25.6324787  29.2584769  10.5099480
  20.1661263  31.5022095  14.4216626  20.2065408  31.7736946  13.5936406
  20.7255787  32.0264003  14.8374414  20.2544609  31.6197850  14.3608514
  26.2819976  17.7642464  24.5919796  25.9673417  18.5342026  24.3289359
  25.9609909  17.2012720  24.0072023  26.1878895  17.7952732  24.4661146
  36.8486623  28.2582686  15.8867881  36.5432440  28.9910743  16.2481196
  36.1292839  27.8520616  15.6060667  36.6973965  28.3064419  15.8981018
  27.8570093  29.7406181  12.2176109  27.9309101  29.5781353  13.0717959
  28.6739599  29.9296371  11.9736590  27.9886451  29.7442924  12.3074134
  42.5488415  24.8975687  15.2136225  42.4812916  24.9171646  14.3438811
  42.5344078  25.7406014  15.4391895  42.5367172  25.0249421  15.1188702
  21.6175849  30.0864044   9.2470552  20.7913967  30.3325781   9.1204831
  21.6787840  30.0076125  10.1132610  21.5050016  30.1108993   9.3559497
  32.9584762  16.3010844  18.5377314  33.7038354  16.1120655  18.1240740
  32.5422066  16.8269082  17.9791171  33.0069736  16.3512990  18.3941888
  26.3974678  32.7040924   6.9489582  26.6872977  32.3129906   6.2248809
  27.1278159  32.8857629   7.3894857  26.5481562  32.6734738   6.9072389
  40.3347033  23.6720073  13.4882819  40.8854954  23.0388142  13.7279911
  40.3191148  24.2035466  14.1798324  40.4132229  23.6569021  13.6261677
  26.9869423  27.5058670  18.0342713  26.4881117  28.2174438  18.1127601
  27.7969648  27.8259337  17.9960875  27.0325530  27.6585519  18.0399281
  24.3380594  34.6808307  10.0149732  24.1180889  34.3905661  10.8076399
  24.1175116  34.0223262   9.4867644  24.2728188  34.5408015  10.0538641
  23.2497541  26.7681623  12.2805434  22.9610790  26.1419094  12.8151161
  24.1180889  26.7101911  12.3470114  23.3357793  26.6669167  12.3696388
  34.0375439  21.9116407  12.5987415  33.6940205  21.1906742  12.9494665
  34.1368481  21.7030258  11.7565774  34.0017482  21.7740610  12.5259095
  26.5048550  36.0537697   8.7980424  27.1572608  35.5214139   9.0271450
  25.8074158  35.7006349   9.1848298  26.4979268  35.9227220   8.8892592
  23.4529814  28.4076874   8.2047799  24.2075782  28.7889913   8.4183261
  22.8600427  28.8588018   8.6594495  23.4766528  28.5305702   8.3030677
  34.4988468  28.3742111   8.1411404  35.0646501  29.0335321   8.0569947
  33.8516371  28.7191809   8.6127806  34.4867224  28.5224052   8.1984160
  25.9136481  20.3639715  23.3305011  25.1036257  20.6697494  23.2194853
  26.3911168  21.0845297  23.4457595  25.8639960  20.5154316  23.3312082
  24.7728041  29.5785436  13.5787914  24.2508795  29.7185727  14.2639779
  25.1602061  28.8196100  13.7690031  24.7531742  29.4870959  13.7088991
  30.9695046  31.3180895   7.5648483  30.7281722  30.5848756   7.1575548
  31.1496379  31.8667752   6.9114816  30.9602670  31.2903286   7.4078706
  26.1994367  26.6089455   8.9769405  26.0037149  27.2164189   8.3829708
  26.4228712  25.9157399   8.4961079  26.2029008  26.5966980   8.8185486
  24.5972897  23.4944193   9.0950273  25.3195549  23.6585351   8.6354079
  24.1180889  24.2153857   8.9889613  24.6336627  23.6242422   9.0115887
  32.5566404  19.8307991  14.4746958  31.7177505  19.8569270  14.2385222
  32.6270772  20.4778727  15.0552305  32.4434798  19.9304117  14.5256075
  22.2480513  25.9002265  18.2004413  22.7601610  26.1786518  17.5513173
  21.9616856  26.6391559  18.5667226  22.2815376  26.0504619  18.1594291
  31.0035683  16.7293368   9.2074574  31.7062035  16.5301117   8.7294533
  30.7379871  15.9569311   9.5143418  31.0682315  16.5856334   9.1820016
  36.4323928  25.0375978  11.7608200  36.3457903  25.1931404  12.6142979
  35.9774408  25.6814054  11.3867605  36.3527185  25.1551733  11.8315307
  25.7664239  17.9928654  18.2605455  25.5747436  18.0083788  19.1104878
  26.6162835  18.1892328  18.2372110  25.8639961  18.0243005  18.3828750
  20.1511152  20.5219635  16.2389271  20.0096644  19.6703576  16.3633779
  20.4351715  20.5648296  15.4151477  20.1718998  20.4019385  16.1356895
  30.3049744  22.3586725  10.3833760  30.0584458  22.2782476  11.2170549
  30.6334867  21.5740193  10.1896287  30.3170988  22.2312991  10.4781283
  34.1997793  29.0670085  14.1720541  34.0612152  29.7651130  14.6769283
  33.4197791  28.9118741  13.8156723  34.0641020  29.1470251  14.1946815
  26.2646771  25.0943444  19.7956743  26.4090147  25.6744652  19.1599853
  26.6122420  25.4719741  20.5006597  26.3374233  25.2364148  19.8055738
  28.4366689  24.2933612  17.5781874  27.6890003  24.4864627  17.1730152
  28.5908214  23.4678832  17.3405996  28.3489116  24.1998724  17.4827280
  25.3374526  33.2846216  16.6617770  25.4864090  32.7249131  16.0091174
  26.1174528  33.3638217  17.0450288  25.4748620  33.2131781  16.6214719
  35.6951166  28.4248338   4.9337040  35.3157975  27.6385476   4.9266329
  35.0317411  28.9735195   4.7908684  35.5409641  28.3893162   4.9117837
  27.8627827  33.4560859  17.9402260  27.7871498  32.7869669  18.4953049
  27.7917686  34.1578647  18.4542927  27.8408434  33.4605766  18.0979108
  28.6768466  18.1884163  18.4677278  29.1341080  18.9208137  18.5950070
  28.7524795  17.7650628  19.2264534  28.7559436  18.2341401  18.5978355
  20.9201457  18.4349983  19.5566722  20.3843646  17.8230341  19.8727489
  20.9819222  19.0098119  20.2100388  20.8497090  18.4296910  19.7002148
  33.1495792  11.3674038  12.3371121  33.2679360  11.8250501  11.6038424
  32.9757967  10.5619299  12.0507339  33.1414963  11.3167810  12.1872055
  28.5198074  31.9761857   8.7725866  29.2847965  31.7071501   8.4508531
  28.4176164  31.4911868   9.4895929  28.6179569  31.8651422   8.8305694
  26.5550844  20.1786267  15.3119102  25.7646918  19.9977727  15.6336438
  26.9511467  19.4013219  15.2949397  26.4967720  20.0373728  15.3571650
  31.9394530  27.8128697  13.0378548  31.2639532  27.5813929  13.5391935
  31.9486906  27.2049880  12.4120653  31.8413035  27.6887622  13.0194700
  29.0688674  22.6546526  19.7942601  29.0047815  23.5156482  19.6662738
  29.2085862  22.3378519  18.9938152  29.0804144  22.7346693  19.6570814
  33.9411265  30.6693829   5.2688726  34.0231102  31.4760816   4.9450177
  34.4261007  30.6889789   5.9929499  34.0248422  30.7914492   5.3275625
  27.7507768  25.3478665  13.9358804  27.3270017  25.5483164  13.1997822
  27.5752623  24.5007513  14.0483104  27.6618648  25.2527447  13.8432494
  27.2519461  36.8629178  16.3980261  27.7415392  36.1639968  16.2155926
  26.6803694  36.5653048  16.9856318  27.2403991  36.7155402  16.4581302
  23.0390213  25.8430717   9.3686776  23.1954832  25.7777520  10.2242768
  23.3790806  26.6179269   9.1565456  23.1123448  25.9479915   9.4641371
  29.5769357  25.2188600   8.2380140  30.1184903  24.7158981   8.7018760
  29.8915916  25.1653795   7.4269625  29.7033755  25.1368021   8.1863952
  27.7455807  30.6105952   5.5220168  27.8148627  29.7520490   5.6613168
  28.5244262  30.8277833   5.1939192  27.8708657  30.5158816   5.4937325
  30.7258627  20.1124905  18.2902440  30.9400596  19.4735819  17.7365794
  30.1092526  20.5570729  17.8610302  30.6663956  20.0835048  18.1452871
  32.1363295  33.0343653   9.7356661  31.7443086  32.7310368   9.0179527
  32.2916367  33.8712743   9.5461615  32.1016885  33.1127490   9.6013158
  32.8897715  21.7213970  19.2285747  32.0774397  21.4139860  19.3098920
  33.3487649  21.2412970  19.7928459  32.8378100  21.6050462  19.3240341
  32.3002970  29.5993642   9.6762692  31.9417624  29.7708285  10.4526724
  31.8141680  30.0606848   9.1190690  32.1761666  29.6932613   9.7087961
  30.1173355  13.2224840  13.2789783  29.2466913  13.1963562  13.2323092
  30.3713697  13.0502033  12.4615629  30.0266916  13.1934984  13.1509920
  29.9851222  23.1274041  24.0114449  30.4550854  23.7516158  24.3982324
  30.0313103  22.4591017  24.5707664  30.0619098  23.1208722  24.1514521
  27.1422496  15.2331069  14.7363253  26.6260985  14.5411260  14.8614832
  26.5816425  15.9001846  14.6825852  26.9829009  15.2294327  14.7469319
  29.2114729  15.7724029  16.5656106  28.8246483  15.7973060  17.3469636
  28.7247667  15.2065708  16.1130622  29.0827238  15.6919780  16.6144009
  35.1864709  22.3386684  15.1895808  34.7592317  22.2513032  14.4343908
  34.5490762  22.4464459  15.7750652  35.0294316  22.3419344  15.1641250
  28.8771871  12.6591014  18.8566366  29.5064989  13.1951314  18.5787436
  29.0457734  12.5668373  19.7079931  28.9949666  12.7252377  18.9414894
  28.6785786  17.4462209  21.1292777  29.5059215  17.1747358  21.1851392
  28.6993632  18.2423051  21.4856595  28.8038636  17.5241963  21.1907960
  33.5161965  31.1817346  17.2635249  34.3054344  30.8306411  17.3837331
  33.6905563  31.9953735  17.0011883  33.6582247  31.2503203  17.2423117
  23.2555276  24.5926072  14.3163038  22.4143282  24.4929946  14.5241932
  23.4645284  25.3621552  14.6677359  23.1619968  24.6918115  14.3990353
  20.7330843  22.2145609  12.1447789  20.3387541  22.2888621  11.3697898
  20.1770960  22.6003555  12.6956150  20.5933655  22.2827384  12.1115448
  32.3695790  15.1926903  11.8251668  32.5745383  15.1249211  12.6708665
  32.0422214  15.9985724  11.7572845  32.3511038  15.3012843  11.9411323
  27.0671941  22.5207471  13.5660636  26.7635078  21.9663459  14.1671043
  26.3651362  22.6999681  13.0788670  26.9188151  22.4652253  13.5830341
  25.1290292  29.7357192  18.2732733  25.0210647  29.7459254  19.1394791
  25.3386073  30.5611972  18.0837687  25.1440403  29.8598267  18.3736825
  35.6229477  15.7458667  11.3054433  35.0103791  16.2329069  11.6908165
  35.7193652  15.0702158  11.8492084  35.5467375  15.7176976  11.4433291
  23.1464084  26.9869834  15.7354671  22.5552017  27.6279332  15.7057686
  23.9085107  27.4107452  15.7085970  23.1712344  27.1445673  15.7269818
  23.5424707  18.1471832  16.4022688  24.0026188  18.2210761  17.1397812
  23.5880813  18.9453086  16.0522510  23.6175262  18.2765979  16.4595445
  25.1908056  18.8138527  20.9694716  24.7993621  18.1671874  21.4050493
  25.3593919  19.4049962  21.5888971  25.1578967  18.8052795  21.1257422
  39.2654505  26.8175604  16.7331949  39.3237629  27.2662253  17.4791926
  38.6320973  27.2274417  16.2962029  39.1805800  26.9449339  16.7784497
  32.9053600  32.4379146  13.1686695  32.7073289  32.9269960  12.4742907
  32.2841311  32.6420387  13.7470829  32.7841164  32.5395684  13.1509919
  26.9661578  24.2064043   7.5096940  27.7103623  24.5938319   7.7479889
  27.1122275  23.3621468   7.6737427  27.0972163  24.1394515   7.5690909
  28.8841154  16.0014302  12.5428801  28.0377199  16.1737109  12.4170151
  28.8812286  15.1963645  12.8794629  28.7588304  15.9075330  12.5739928
  29.9539454  19.7789516  13.4090859  29.4799408  19.2531278  13.9196170
  30.3257590  19.2318989  12.8405720  29.9389343  19.6205513  13.4006006
  20.3312484  21.7761023  18.7774405  21.1938097  21.6756732  18.6911735
  20.0004267  21.1955732  18.2159977  20.4097681  21.6752649  18.6819811
  36.2176185  24.8391892  14.8197639  35.9774408  23.9998307  14.8240066
  36.6968192  24.9192058  15.5438413  36.2528368  24.7273291  14.9272442
  38.2181372  21.6193349  12.7726899  37.9791142  21.5789183  11.9347683
  38.3815273  22.4664501  12.8992620  38.2071675  21.7385434  12.6680380
  34.8227402  26.0043298  18.7031944  35.5461601  25.5515825  18.5242964
  34.5577364  26.2847964  17.9204272  34.8908675  25.9794267  18.5610659
  23.6914270  20.6003472  15.4384823  23.0667340  20.6121864  14.8310776
  23.3559865  21.0763647  16.0876063  23.5499762  20.6721989  15.4441391
  20.4039946  28.6603932  16.8788587  19.8739870  27.9696371  16.9283562
  20.6765039  28.6514117  16.0501296  20.3664668  28.5571064  16.7636003
  31.4360036  29.2429634   5.6026270  32.1594235  29.7087747   5.4590843
  30.9960627  29.3103244   4.8523867  31.4775729  29.3213471   5.4711051
  30.6046191  26.1027176  16.8526959  29.9903185  25.5585227  17.1475594
  31.1213476  25.5891413  16.3732775  30.5901854  25.9463585  16.8251187
  29.8442489  27.1731446  14.5871257  29.4170097  26.5481165  14.1536693
  29.8367433  26.8906368  15.4130265  29.7801630  27.0384227  14.6451085
  22.9605016  22.2096619  17.6559691  23.1198502  21.4539944  18.0611413
  22.7797909  22.7587559  18.3100429  22.9570375  22.1790433  17.8122397
  30.9025319  14.3757855  18.2110481  30.4065880  14.5721529  17.5202048
  31.6594381  14.7750523  18.0399283  30.9412143  14.4635589  18.0830618
  28.1728198  18.0500201  14.8013791  28.1970685  17.5160313  14.1126571
  28.4239672  17.5417510  15.4639382  28.2138117  17.8961105  14.7978436
  15.6835788  25.3331696  14.2356935  15.5779237  25.2878540  13.3709020
  14.9336008  25.6785476  14.5171220  15.5571391  25.3772604  14.1494265
  24.4529520  16.7771019  14.1819536  24.4927892  17.2780226  14.8954243
  23.6279185  16.8681413  13.9125459  24.3369046  16.8652836  14.2470074
  26.6359133  26.3431759  22.2839830  25.7854764  26.4803473  22.4197475
  26.7987261  25.6095537  22.7287532  26.5342997  26.2545860  22.3695429
  25.8743884  23.2931529  16.4793435  25.0435814  23.4605347  16.2728683
  25.8195401  22.9167480  17.2642320  25.7433299  23.2621260  16.5641963
  23.6827667  16.7840422  22.1149845  24.3080371  16.2402555  22.3879278
  23.2278147  16.3035340  21.5457636  23.7075928  16.6329903  22.0711439
  29.0856106  29.3887081  17.8320387  28.5781197  29.9422928  18.2761018
  28.7882752  29.4495371  17.0139162  28.9660991  29.4793393  17.7768844
  31.2518288  17.7540401  16.6745050  31.6773360  17.3012927  16.0628577
  30.6375281  17.2000472  16.9509838  31.2246933  17.6054377  16.6250076
  31.6963886  33.3050339   5.7624331  30.9793196  33.1311201   5.2971568
  32.3470624  33.0702911   5.2299817  31.6865737  33.2446132   5.6153549
  34.2811857  22.1814928   9.5065636  33.6103047  22.7244630   9.3778701
  34.9751608  22.6509783   9.2647331  34.2840725  22.3313199   9.4521164
  28.3298591  34.3211640  14.7377394  28.1064245  33.5630469  15.1061421
  27.8408434  34.3509661  14.0157834  28.2242040  34.2133864  14.6854135
  23.1423670  21.2678331  10.4738856  22.4235659  21.6842463  10.7411719
  23.5136032  21.8332570   9.9230494  23.0915602  21.4127612  10.4321663
  32.4423251  21.9006180  16.3640851  32.4221178  21.7189475  17.2175630
  32.4902451  22.7718198  16.3400435  32.4457892  22.0022718  16.4864146
  30.3869580  28.4893372  22.2889328  30.3465435  27.8443049  21.7034484
  31.1992899  28.4329989  22.6014740  30.5012734  28.3852339  22.2486277
  26.9777048  34.5412098  12.1914479  26.5637447  33.8786228  11.8018321
  27.6624422  34.6889956  11.6710173  27.0175420  34.4652756  12.0570976
  30.3442342  33.7002183  12.9438095  29.9458625  33.8104453  12.1758916
  29.7293562  33.9084249  13.5264655  30.1941231  33.7475751  12.9169395
  35.8764045  13.7589223  13.3440322  35.3694909  13.0518363  13.2761499
  36.6731479  13.4282412  13.4741398  35.9191284  13.6062374  13.3539317
  31.7928061  20.2655835   9.2413985  31.5641754  20.2888537   8.3992344
  32.0526137  19.4413302   9.3608996  31.7974249  20.1471915   9.1339183
  26.0747289  22.1190308  18.8439086  25.5626192  21.5111491  19.2024117
  25.9026785  22.8346901  19.3113061  25.9736926  22.1353608  18.9655309
  20.9213004  20.5627884  21.4941447  20.7515594  21.2229258  20.9489654
  20.4778954  20.7734445  22.2153936  20.8312337  20.6913866  21.5203077
  24.8472823  18.8032382  10.5368181  25.3230189  19.1649461   9.9018362
  24.3461423  19.4588849  10.8168324  24.8438182  18.9526570  10.4844922
  38.0784185  28.2754150   6.3281186  38.4617791  29.0245506   6.5579283
  37.2828298  28.5219969   6.0693175  38.0177967  28.4223844   6.3238760
  29.9516359  20.0414553  21.2841341  30.5087790  19.8128363  20.6519807
  29.6277424  20.8020219  21.0076554  29.9862770  20.1198390  21.1497838
  17.8215068  23.4674749  16.7529937  17.2741788  22.7975395  16.8710806
  18.6107447  23.1004597  16.8173404  17.8567252  23.3139736  16.7798638
  27.6699477  23.1282206  22.2493348  28.4210804  23.4433883  22.5632902
  27.8622053  22.9261377  21.4227270  27.8090891  23.1449588  22.1736744
  34.5184767  19.2555773   9.4917144  34.5178993  19.1004429  10.3501420
  34.3140947  20.1018760   9.4358529  34.4884545  19.3576393   9.6105083
  16.5802038  22.6795557  13.9075960  16.4023799  22.2272166  14.6330876
  16.2921060  23.4821718  14.0914438  16.5114991  22.7318115  14.0419463
  32.2425619  23.9353274  13.1453351  32.7379284  23.2176269  13.1057371
  31.4325395  23.6324072  13.0307838  32.1969512  23.7850921  13.1227076
  27.6884230  27.7851088   5.2950355  26.8795553  27.4617761   5.2483664
  28.1959139  27.0784310   5.2278604  27.6433897  27.6332404   5.2780649
  18.3174508  25.2123281  11.0197719  17.4520027  25.2008971  10.9080491
  18.4173324  25.0253504  11.8668859  18.2048675  25.1829342  11.1286664
  34.3077438  26.6856962  15.8330479  34.7332509  26.1631384  15.2800904
  33.9434358  27.2837799  15.3119102  34.3164040  26.6967189  15.6739489
  23.9431518  34.9821179  14.5927825  24.2578077  35.7957568  14.6005607
  24.3524931  34.5971398  15.2609984  24.0499616  35.0449882  14.6931916
  30.8956037  30.3991226  12.1631637  31.3667215  31.1131489  12.3321622
  31.2316216  29.7989976  12.6991506  31.0151152  30.4162690  12.2664013
  27.8125532  15.1718697  19.1189732  27.9453438  14.3749690  19.4470707
  28.1970685  15.6985100  19.6988007  27.8881861  15.1318613  19.2533234
  31.5329984  30.1909160  18.9259329  30.9850930  29.5667044  18.6579395
  31.9943012  30.3803432  18.2103409  31.5197193  30.1268210  18.7809761
  30.8857887  12.0949023  15.7170825  30.0803851  11.9846752  16.0338663
  30.7564623  12.1961479  14.8600691  30.7478020  12.0932693  15.6378865
  34.3423848  18.2594515  16.3110522  33.7586837  18.7603721  15.8988089
  34.6628142  17.7524071  15.6774845  34.3037023  18.2586350  16.1569029
  25.4713979  15.1677872  17.3667625  26.0158392  14.8268999  17.9571967
  25.5250915  16.0263333  17.5088910  25.5603098  15.2433131  17.4749499
  21.2844538  28.9294288  14.2406433  21.8889395  28.8890122  13.6120254
  21.0771850  29.7765440  14.2710489  21.3433435  29.0482290  14.1522550
  31.0988310  31.1960233  15.4568671  31.9186684  31.0523199  15.7184966
  30.8182388  31.8206432  15.9985109  31.1785053  31.2670585  15.5756610
  16.5195820  27.9128905  14.1105356  16.4220098  27.1025177  14.4195413
  17.3024690  27.8920699  13.7251624  16.6211956  27.7895996  14.0992219
  47.5701960  38.8525085   8.4211547  47.5395965  39.7069721   8.5929816
  48.1683309  38.5520377   8.9797691  47.6539118  38.9341581   8.5286349
  40.7701645  37.9400736  13.1764477  39.9139541  38.1009234  13.2273594
  40.8169299  37.0692800  13.1969538  40.6500757  37.8351538  13.1870543
  35.1542785  47.4763454   8.9401709  34.4025684  47.0978992   8.7117754
  35.6028796  47.5081887   8.1920519  35.1092452  47.4249061   8.7959211
  40.6067745  47.8988823   4.3687256  40.2719113  48.5765745   3.9331478
  41.1194615  47.5094134   3.7804128  40.6333326  47.9413401   4.2174048
  40.1472036  49.8503092  10.3098368  40.5311415  50.4189990   9.7703143
  40.0831177  49.1252602   9.8304184  40.1945463  49.8278555  10.1592230
  43.6153466  39.9992780  15.8196129  44.1609426  40.6777866  15.8790099
  43.5570342  39.8580240  14.9597711  43.6869380  40.0784781  15.7008190
  36.7327541  47.4881846  11.2064481  36.8337904  46.6782200  11.5161609
  36.1369286  47.3938792  10.5764160  36.6600080  47.3546874  11.1590720
  45.3918535  41.4277387   6.6929857  45.2758061  42.1785073   7.1221995
  46.1874421  41.1701340   6.9425944  45.4923124  41.5012234   6.7933948
  36.5728281  52.4059435  12.6079338  37.2165736  52.8472599  12.9975496
  36.8984536  51.6012861  12.5209596  36.7160109  52.3524630  12.6524815
  29.9292585  43.5102132  10.8316815  29.6942770  42.6769785  10.7249084
  30.0678226  43.7906798  10.0178016  29.9148248  43.4285636  10.6959170
  32.2282673  35.6787863  13.7301123  31.6087704  35.0880510  13.5611138
  32.1266536  36.2699298  13.0965446  32.1220348  35.6791945  13.6106112
  37.2748860  45.4171410   7.9799199  37.5964701  45.9576617   7.3760507
  37.9220957  44.8468181   8.1121489  37.4174915  45.4130585   7.9106235
  39.3250568  37.4187405   8.0633586  40.0230733  37.5975532   8.5555049
  39.6402901  36.8957744   7.4403975  39.4745906  37.3681177   8.0435596
  31.9551806  39.2240145  15.9744692  31.8310503  39.8102590  16.6094511
  32.6070090  38.7300340  16.2756967  32.0325455  39.2378949  16.1130621
  39.5138504  43.8057850   8.0513377  39.9532139  43.1974950   8.4968150
  39.3643167  43.4265223   7.2798842  39.5559969  43.6596321   8.0032545
  36.9810147  42.4001862  15.2532203  37.6259149  41.9074305  14.9343151
  37.2211924  42.5426648  16.0798281  37.1120732  42.3479304  15.3281736
  39.5196238  45.2456767  14.9039095  39.8019481  44.4508173  14.6825851
  40.2482398  45.7237355  14.9244156  39.6685802  45.1991364  14.8742111
  37.4977432  32.7879801  12.1454861  37.1680762  33.2390945  11.4758559
  36.8222434  32.7095965  12.6927867  37.3487868  32.8430937  12.1278084
  43.1147840  42.1585031   5.0044147  43.0299135  43.0145998   5.1493715
  43.6032224  41.8829355   5.6726306  43.1736738  42.2442352   5.1246228
  44.7053840  28.7765324  10.3904471  44.3907281  29.4668803  10.8224894
  44.1880781  28.7210107   9.6889972  44.5818310  28.8700213  10.3501420
  44.0466273  38.7769825   6.5041882  43.5177745  38.9929459   7.1639188
  44.5691293  39.4705964   6.4242851  44.0454726  38.9112962   6.5897481
  49.5014326  44.3516130  11.8774926  48.6712030  44.5626773  12.0408343
  49.4523579  43.5253184  11.6017210  49.3721062  44.2605736  11.8612292
  35.9365881  42.6733042   5.3049350  35.3523097  43.1783073   5.7115214
  35.5335976  42.4475429   4.5645942  35.7905185  42.7141290   5.2554375
  31.4909910  48.3887803  12.1073021  31.0077488  49.1138293  12.0832605
  32.3033228  48.6863933  12.2183179  31.5400658  48.5390157  12.1200301
  37.5624064  47.1819984  14.7122836  37.0451006  46.8227399  14.1084144
  38.2598455  46.6582158  14.7228902  37.5889645  47.0517672  14.6253094
  38.7858116  46.9145958  19.6556671  38.2228951  46.5018568  20.1796332
  39.5479139  46.8398863  20.0749814  38.8152564  46.8423358  19.7949671
  40.3943096  38.9198694   3.7818270  40.6339099  39.1276678   2.9693613
  40.7158937  38.1156203   3.8907215  40.4780254  38.8312795   3.6778823
  35.7033386  30.8492090   7.6277808  36.4579354  31.2170407   7.3894858
  35.5260921  31.2231644   8.3956988  35.7887864  30.9590278   7.7062697
  34.3454107  48.9043979  12.2593301  35.0474686  48.3895968  12.3166058
  34.2651590  49.2318130  13.0640176  34.4377868  48.8758205  12.3866093
  48.9968285  36.9986530  15.6725348  48.1596706  37.0688717  15.9072942
  48.9656516  37.0011025  14.7999650  48.8686567  37.0096757  15.5784896
  35.3933014  39.1419566  21.3873716  35.5653517  39.0325461  22.2358998
  35.9302371  39.7873971  21.1504909  35.4978018  39.2211568  21.4778813
  34.0590451  33.2562409   4.3255921  33.8766024  33.4734290   3.4996914
  34.9216064  33.3701421   4.3814536  34.1595040  33.3052307   4.2110408
  33.6704883  45.0950331  11.7678909  34.5093782  45.3273264  11.8152671
  33.7016652  44.2254642  11.6985945  33.7986600  45.0007277  11.7643554
  34.2957586  45.5151206  16.0692215  34.8355811  45.3722337  16.7395587
  33.6127532  45.9147957  16.4376241  34.2749740  45.5530877  16.2226636
  39.7390170  30.2588819   7.3604945  40.4676330  30.0804774   6.9143101
  39.8285063  31.1006899   7.5712123  39.8596832  30.3572698   7.3258463
  43.7198471  41.1942207  11.2637239  44.4755986  41.6273721  11.3026148
  43.8260795  40.5446977  11.8371875  43.8468641  41.1619691  11.3535265
  46.7578642  45.0215484  12.0139642  46.3213874  45.0252226  12.7698613
  46.4241557  45.7020983  11.5819220  46.6441262  45.1227940  12.0620475
  29.6994731  41.7351497  16.2226636  29.4333146  40.9190614  16.3817627
  29.7133295  41.7804653  15.3522152  29.6619453  41.6208402  16.1180118
  46.6776125  32.0629312  14.2569070  47.3202033  32.1327416  14.8430985
  46.9299145  31.3958535  13.7548612  46.8098257  31.9755661  14.2696349
  33.6052478  36.5336581   2.8378394  32.8910655  36.2474761   3.2500827
  34.0896446  36.8733207   3.4784782  33.5711841  36.5418231   2.9934029
  34.4493337  35.2729875  18.8693644  33.7565134  34.8026855  19.1154376
  35.0653664  35.0468180  19.4435351  34.4377867  35.1697007  18.9902797
  41.4878109  48.9733919  16.9849248  40.6893354  48.7333419  17.2423117
  41.9364120  49.0248312  17.7316296  41.4352720  48.9456310  17.1334172
  49.8922988  41.7396404  10.9059279  50.5539422  41.1787072  10.8055188
  49.2514400  41.2448435  11.2311970  49.8951855  41.5832813  10.9391619
  40.7799796  45.0366535   3.2140203  41.1950944  44.7051559   2.5224698
  39.9491725  44.8035438   3.0860339  40.7187804  44.9537791   3.0931050
  30.1088144  42.5210276  13.5038380  29.9263718  42.4957162  12.6510673
  30.8437813  42.9909214  13.5427289  30.1902208  42.5871639  13.3836299
  46.1787819  42.7561786  10.6471268  46.4143408  42.9006985   9.8198119
  46.3277382  43.5204194  11.0402782  46.2353622  42.8900841  10.5834872
  33.1733896  39.2395279  20.0120489  33.8973868  39.2248310  20.4985384
  33.2750033  39.9490634  19.5142457  33.2952105  39.3419982  20.0099276
  48.0078275  41.5963452   8.4840872  48.3386492  42.1291092   7.8780967
  48.5811363  41.6502340   9.1402823  48.1411954  41.6833021   8.4918654
  43.2210164  39.4428355   9.1664452  43.3157019  40.1817649   9.6204077
  42.5969008  39.0145830   9.5999017  43.1419195  39.4889676   9.2972600
  41.4762638  42.6214568  19.8154733  42.0501500  41.9841812  19.9703297
  41.3977442  42.6218650  18.9464391  41.5495873  42.5279679  19.7101144
  30.0759055  39.4003777  13.6537447  30.6532557  39.2640228  14.2929692
  29.3773116  38.9439561  13.9083031  30.0580076  39.3126043  13.7859737
  43.4733186  41.2877095   2.4001404  43.3913348  41.3579282   3.2656391
  44.1112906  41.8506839   2.2085145  43.5553023  41.3816066   2.4991353
  36.8326357  41.0537833  11.8675930  36.5745601  40.2209568  11.8407230
  36.8874840  41.2795446  11.0268431  36.8026135  40.9635604  11.7396067
  41.9127407  33.1566283  11.9680023  41.2083734  32.6675469  12.1263942
  41.9612381  33.1688758  11.0968467  41.8157459  33.0855931  11.8619363
  35.8061069  38.6075595  12.3540825  35.2310660  38.7667764  12.9904786
  35.4296745  37.9711004  11.8909276  35.6663881  38.5373408  12.3795383
  39.4734358  37.0798944  17.2133203  39.0848790  36.6553162  16.5585395
  38.8089056  37.3281094  17.7210230  39.3181285  37.0537666  17.1921071
  49.1157627  36.8373949   9.9881034  48.8594192  36.0253891   9.7978916
  49.9586941  36.8451516   9.7611221  49.2023652  36.7185947   9.9265851
  25.5517888  38.2515670  10.3685266  25.6378140  37.8747538  11.1498796
  26.1793685  37.8776116   9.8905224  25.6574439  38.1401152  10.4130743
  43.2960719  30.7773573  14.7257188  43.6771231  30.0951744  15.1125062
  42.4924003  30.4883175  14.5432852  43.2337181  30.6340622  14.7561244
  40.5773296  41.3097549   5.4110010  41.3913935  41.6012442   5.2992782
  40.5132437  40.6557411   4.8368303  40.6876035  41.2562744   5.3098848
  46.7982786  43.9923545  19.8239586  46.5621423  43.1611610  19.7051647
  47.4426015  43.9409152  20.4094430  46.8577457  43.8621233  19.8925480
  36.4481204  44.7819067  10.5382323  37.0855151  44.5430814  11.0834116
  36.8736276  44.9856225   9.8035483  36.6057370  44.7770077  10.5099480
  31.1393847  47.0207403  14.4216626  31.1797992  47.2922254  13.5936406
  31.6988371  47.5449311  14.8374414  31.2277192  47.1383158  14.3608514
  37.0884019  40.0021356   4.8757212  37.4729172  39.7829063   5.6273757
  36.8395640  40.8284302   5.0058288  37.1086092  40.0919503   5.0058288
  47.8219207  43.7767994  15.8867881  47.5165024  44.5096051  16.2481196
  47.1025422  43.3705923  15.6060667  47.6706549  43.8249727  15.8981018
  38.8302676  45.2591489  12.2176109  38.9041684  45.0966661  13.0717959
  39.6472182  45.4481679  11.9736590  38.9619035  45.2628231  12.3074134
  53.5220999  40.4160995  15.2136225  53.4545499  40.4356954  14.3438811
  53.5076661  41.2591322  15.4391895  53.5099755  40.5434729  15.1188702
  32.5908433  45.6049352   9.2470552  31.7646550  45.8511089   9.1204831
  32.6520424  45.5261433  10.1132610  32.4782600  45.6294301   9.3559497
  34.8084457  31.6718293  10.2065992  33.9406882  31.7440892  10.2723602
  35.0959661  32.4740372  10.3953968  34.7224205  31.8012440  10.2440759
  43.9317345  31.8196152  18.5377314  44.6770937  31.6305963  18.1240740
  43.5154650  32.3454390  17.9791171  43.9802320  31.8698298  18.3941888
  37.3707262  48.2226232   6.9489582  37.6605560  47.8315214   6.2248809
  38.1010743  48.4042937   7.3894857  37.5214146  48.1920046   6.9072389
  51.3079616  39.1905381  13.4882819  51.8587538  38.5573450  13.7279911
  51.2923732  39.7220774  14.1798324  51.3864813  39.1754329  13.6261677
  37.9602007  43.0243978  18.0342713  37.4613701  43.7359746  18.1127601
  38.7702231  43.3444645  17.9960875  38.0058114  43.1770827  18.0399281
  35.3113177  50.1993615  10.0149732  35.0913473  49.9090969  10.8076399
  35.0907699  49.5408570   9.4867644  35.2460772  50.0593323  10.0538641
  34.2230125  42.2866931  12.2805434  33.9343373  41.6604402  12.8151161
  35.0913473  42.2287219  12.3470114  34.3090377  42.1854475  12.3696388
  45.0108022  37.4301715  12.5987415  44.6672788  36.7092050  12.9494665
  45.1101065  37.2215566  11.7565774  44.9750065  37.2925918  12.5259095
  37.4781133  51.5723005   8.7980424  38.1305191  51.0399447   9.0271450
  36.7806742  51.2191657   9.1848298  37.4711851  51.4412528   8.8892592
  34.4262398  43.9262182   8.2047799  35.1808366  44.3075221   8.4183261
  33.8333011  44.3773326   8.6594495  34.4499112  44.0491010   8.3030677
  45.4721051  43.8927419   8.1411404  46.0379084  44.5520628   8.0569947
  44.8248955  44.2377117   8.6127806  45.4599808  44.0409360   8.1984160
  36.8869065  35.8825023  23.3305011  36.0768841  36.1882802  23.2194853
  37.3643752  36.6030605  23.4457595  36.8372544  36.0339624  23.3312082
  35.7460625  45.0970744  13.5787914  35.2241378  45.2371035  14.2639779
  36.1334645  44.3381408  13.7690031  35.7264326  45.0056267  13.7088991
  32.7351809  35.1476552   7.6482869  32.4476604  34.7777823   6.9114816
  33.4222277  35.6171408   7.3866574  32.7940706  35.1623522   7.4997944
  41.9427630  46.8366203   7.5648483  41.7014305  46.1034063   7.1575548
  42.1228962  47.3853060   6.9114816  41.9335254  46.8088594   7.4078706
  37.1726950  42.1274763   8.9769405  36.9769733  42.7349497   8.3829708
  37.3961296  41.4342707   8.4961079  37.1761591  42.1152288   8.8185486
  35.5705480  39.0129500   9.0950273  36.2928132  39.1770659   8.6354079
  35.0913473  39.7339165   8.9889613  35.6069211  39.1427730   9.0115887
  43.5298988  35.3493299  14.4746958  42.6910088  35.3754578  14.2385222
  43.6003355  35.9964035  15.0552305  43.4167381  35.4489425  14.5256075
  33.2213097  41.4187573  18.2004413  33.7334194  41.6971826  17.5513173
  32.9349440  42.1576867  18.5667226  33.2547960  41.5689927  18.1594291
  41.9768266  32.2478676   9.2074574  42.6794619  32.0486425   8.7294533
  41.7112455  31.4754619   9.5143418  42.0414898  32.1041642   9.1820016
  47.4056512  40.5561286  11.7608200  47.3190486  40.7116712  12.6142979
  46.9506992  41.1999362  11.3867605  47.3259768  40.6737041  11.8315307
  30.3080003  35.9257765   8.4968150  30.4096140  36.7283926   8.8249125
  31.1035890  35.7245101   8.1991230  30.4407909  36.0143664   8.5003505
  36.7396822  33.5113961  18.2605455  36.5480019  33.5269096  19.1104878
  37.5895418  33.7077636  18.2372110  36.8372544  33.5428313  18.3828750
  31.1243735  36.0404943  16.2389271  30.9829227  35.1888884  16.3633779
  31.4084299  36.0833604  15.4151477  31.1451581  35.9204693  16.1356895
  41.2782328  37.8772033  10.3833760  41.0317042  37.7967784  11.2170549
  41.6067451  37.0925501  10.1896287  41.2903571  37.7498298  10.4781283
  45.1730377  44.5855392  14.1720541  45.0344736  45.2836438  14.6769283
  44.3930374  44.4304049  13.8156723  45.0373603  44.6655559  14.1946815
  43.5108462  40.8851768  20.4242923  43.5056500  40.0131584  20.4285349
  44.2169456  41.0839937  19.9512378  43.6153466  40.7855642  20.3549958
  37.2379355  40.6128752  19.7956743  37.3822731  41.1929960  19.1599853
  37.5855004  40.9905048  20.5006597  37.3106816  40.7549456  19.8055738
  39.4099272  39.8118920  17.5781874  38.6622586  40.0049934  17.1730152
  39.5640798  38.9864140  17.3405996  39.3221700  39.7184032  17.4827280
  36.3107110  48.8031524  16.6617770  36.4596674  48.2434439  16.0091174
  37.0907112  48.8823525  17.0450288  36.4481204  48.7317089  16.6214719
  46.6683749  43.9433646   4.9337040  46.2890558  43.1570784   4.9266329
  46.0049995  44.4920503   4.7908684  46.5142224  43.9078470   4.9117837
  38.8360411  48.9746166  17.9402260  38.7604082  48.3054977  18.4953049
  38.7650270  49.6763955  18.4542927  38.8141017  48.9791074  18.0979108
  39.6501049  33.7069471  18.4677278  40.1073663  34.4393445  18.5950070
  39.7257378  33.2835936  19.2264534  39.7292019  33.7526709  18.5978355
  31.8934041  33.9535291  19.5566722  31.3576230  33.3415649  19.8727489
  31.9551805  34.5283427  20.2100388  31.8229673  33.9482218  19.7002148
  44.1228375  26.8859346  12.3371121  44.2411943  27.3435809  11.6038424
  43.9490551  26.0804607  12.0507339  44.1147546  26.8353118  12.1872055
  39.4930658  47.4947165   8.7725866  40.2580549  47.2256809   8.4508531
  39.3908748  47.0097176   9.4895929  39.5912153  47.3836730   8.8305694
  37.5283427  35.6971575  15.3119102  36.7379502  35.5163035  15.6336438
  37.9244050  34.9198527  15.2949397  37.4700303  35.5559036  15.3571650
  42.0149318  44.5259349   0.7525816  42.7822303  44.5859474   0.3431667
  41.5680627  43.9539790   0.2682134  42.0622745  44.4495925   0.6203526
  42.9127114  43.3314005  13.0378548  42.2372115  43.0999237  13.5391935
  42.9219490  42.7235188  12.4120653  42.8145618  43.2072930  13.0194700
  40.0421258  38.1731834  19.7942601  39.9780399  39.0341790  19.6662738
  40.1818445  37.8563827  18.9938152  40.0536728  38.2532001  19.6570814
  44.9143848  46.1879137   5.2688726  44.9963686  46.9946123   4.9450177
  45.3993590  46.2075097   5.9929499  44.9981006  46.3099800   5.3275625
  38.7240351  40.8663973  13.9358804  38.3002601  41.0668472  13.1997822
  38.5485207  40.0192821  14.0483104  38.6351232  40.7712755  13.8432494
  34.0122796  41.3616025   9.3686776  34.1687416  41.2962827  10.2242768
  34.3523390  42.1364577   9.1565456  34.0856031  41.4665223   9.4641371
  40.5501941  40.7373908   8.2380140  41.0917487  40.2344289   8.7018760
  40.8648500  40.6839103   7.4269625  40.6766338  40.6553329   8.1863952
  38.7188391  46.1291260   5.5220168  38.7881211  45.2705798   5.6613168
  39.4976846  46.3463141   5.1939192  38.8441241  46.0344124   5.4937325
  41.6991210  35.6310213  18.2902440  41.9133180  34.9921127  17.7365794
  41.0825110  36.0756037  17.8610302  41.6396540  35.6020356  18.1452871
  43.1095878  48.5528961   9.7356661  42.7175670  48.2495676   9.0179527
  43.2648951  49.3898051   9.5461615  43.0749468  48.6312798   9.6013158
  30.5857058  38.5450975   9.6847544  30.9656023  38.9635520   9.0207811
  30.0112423  39.1264431   9.9916387  30.5568383  38.6928834   9.6324285
  43.8630298  37.2399278  19.2285747  43.0506980  36.9325168  19.3098920
  44.3220233  36.7598278  19.7928459  43.8110683  37.1235770  19.3240341
  43.2735553  45.1178950   9.6762692  42.9150208  45.2893593  10.4526724
  42.7874264  45.5792156   9.1190690  43.1494250  45.2117921   9.7087961
  41.0905939  28.7410148  13.2789783  40.2199497  28.7148869  13.2323092
  41.3446280  28.5687341  12.4615629  40.9999499  28.7120292  13.1509920
  38.0623918  40.7978115   2.2162926  38.3516443  41.5742998   2.4906500
  38.1495717  40.2866847   2.9177425  38.1178175  40.8370034   2.3605424
  38.1155080  30.7516377  14.7363253  37.5993568  30.0596568  14.8614832
  37.5549008  31.4187154  14.6825852  37.9561593  30.7479634  14.7469319
  40.1847313  31.2909337  16.5656106  39.7979066  31.3158368  17.3469636
  39.6980250  30.7251016  16.1130622  40.0559822  31.2105088  16.6144009
  46.1597293  37.8571992  15.1895808  45.7324901  37.7698340  14.4343908
  45.5223345  37.9649767  15.7750652  46.0026900  37.8604652  15.1641250
  39.8504455  28.1776322  18.8566366  40.4797573  28.7136622  18.5787436
  40.0190317  28.0853681  19.7079931  39.9682249  28.2437685  18.9414894
  39.6518370  32.9647517  21.1292777  40.4791799  32.6932666  21.1851392
  39.6726216  33.7608359  21.4856595  39.7771220  33.0427271  21.1907960
  44.4894549  46.7002654  17.2635249  45.2786927  46.3491719  17.3837331
  44.6638147  47.5139043  17.0011883  44.6314831  46.7688511  17.2423117
  34.2287859  40.1111380  14.3163038  33.3875866  40.0115254  14.5241932
  34.4377867  40.8806860  14.6677359  34.1352552  40.2103423  14.3990353
  31.7063426  37.7330917  12.1447789  31.3120124  37.8073929  11.3697898
  31.1503543  38.1188863  12.6956150  31.5666239  37.8012691  12.1115448
  43.3428373  30.7112211  11.8251668  43.5477967  30.6434519  12.6708665
  43.0154797  31.5171032  11.7572845  43.3243621  30.8198151  11.9411323
  38.0404524  38.0392779  13.5660636  37.7367662  37.4848767  14.1671043
  37.3383945  38.2184989  13.0788670  37.8920734  37.9837561  13.5830341
  37.0970621  35.3493299   8.1305337  37.3730356  34.6312211   7.7182905
  37.6969291  35.9478219   7.9226443  37.2263886  35.3313670   8.0386099
  36.1022875  45.2542500  18.2732733  35.9943230  45.2644562  19.1394791
  36.3118657  46.0797280  18.0837687  36.1172986  45.3783575  18.3736825
  46.5962061  31.2643975  11.3054433  45.9836375  31.7514377  11.6908165
  46.6926236  30.5887466  11.8492084  46.5199959  31.2362284  11.4433291
  40.5981142  33.0206816   6.4051932  41.0524888  33.1917377   7.1299777
  41.0721188  32.4074927   6.0049708  40.7349462  32.9557701   6.4525694
  34.1196667  42.5055142  15.7354671  33.5284601  43.1464640  15.7057686
  34.8817691  42.9292759  15.7085970  34.1444928  42.6630981  15.7269818
  34.5157290  33.6657140  16.4022688  34.9758772  33.7396069  17.1397812
  34.5613397  34.4638394  16.0522510  34.5907845  33.7951287  16.4595445
  36.1640640  34.3323835  20.9694716  35.7726205  33.6857182  21.4050493
  36.3326503  34.9235270  21.5888971  36.1311550  34.3238103  21.1257422
  50.2387089  42.3360912  16.7331949  50.2970213  42.7847561  17.4791926
  49.6053556  42.7459725  16.2962029  50.1538384  42.4634647  16.7784497
  43.8786184  47.9564454  13.1686695  43.6805872  48.4455268  12.4742907
  43.2573895  48.1605695  13.7470829  43.7573748  48.0580992  13.1509919
  37.9394162  39.7249351   7.5096940  38.6836207  40.1123627   7.7479889
  38.0854858  38.8806776   7.6737427  38.0704747  39.6579823   7.5690909
  39.8573737  31.5199609  12.5428801  39.0109782  31.6922417  12.4170151
  39.8544870  30.7148953  12.8794629  39.7320887  31.4260638  12.5739928
  40.9272038  35.2974824  13.4090859  40.4531992  34.7716586  13.9196170
  41.2990174  34.7504297  12.8405720  40.9121927  35.1390820  13.4006006
  31.3045068  37.2946331  18.7774405  32.1670681  37.1942040  18.6911735
  30.9736851  36.7141040  18.2159977  31.3830264  37.1937957  18.6819811
  47.1908768  40.3577200  14.8197639  46.9506991  39.5183615  14.8240066
  47.6700776  40.4377366  15.5438413  47.2260952  40.2458599  14.9272442
  42.8555537  36.1911378   6.4716613  42.3278556  36.2740122   5.7822322
  43.3151246  36.9329250   6.4681257  42.8457388  36.3132041   6.3691308
  49.1913955  37.1378657  12.7726899  48.9523725  37.0974491  11.9347683
  49.3547857  37.9849809  12.8992620  49.1804259  37.2570742  12.6680380
  45.7959985  41.5228606  18.7031944  46.5194184  41.0701132  18.5242964
  45.5309948  41.8033272  17.9204272  45.8641259  41.4979575  18.5610659
  34.6646854  36.1188780  15.4384823  34.0399924  36.1307172  14.8310776
  34.3292449  36.5948955  16.0876063  34.5232346  36.1907297  15.4441391
  34.8488603  34.4613898   1.4957508  34.5001407  35.1133623   1.9589057
  34.3685048  34.4471011   0.7681379  34.7258847  34.5556952   1.4568599
  31.3772529  44.1789240  16.8788587  30.8472454  43.4881679  16.9283562
  31.6497623  44.1699425  16.0501296  31.3397252  44.0756372  16.7636003
  42.4092620  44.7614942   5.6026270  43.1326819  45.2273055   5.4590843
  41.9693211  44.8288552   4.8523867  42.4508312  44.8398779   5.4711051
  41.5778775  41.6212484  16.8526959  40.9635768  41.0770535  17.1475594
  42.0946060  41.1076721  16.3732775  41.5634437  41.4648893  16.8251187
  40.8175072  42.6916754  14.5871257  40.3902680  42.0666473  14.1536693
  40.8100017  42.4091676  15.4130265  40.7534213  42.5569535  14.6451085
  33.9337599  37.7281927  17.6559691  34.0931086  36.9725252  18.0611413
  33.7530493  38.2772867  18.3100429  33.9302958  37.6975741  17.8122397
  41.8757902  29.8943163  18.2110481  41.3798464  30.0906837  17.5202048
  42.6326964  30.2935831  18.0399283  41.9144727  29.9820897  18.0830618
  39.1460782  33.5685509  14.8013791  39.1703269  33.0345621  14.1126571
  39.3972255  33.0602818  15.4639382  39.1870701  33.4146413  14.7978436
  26.6568372  40.8517004  14.2356935  26.5511821  40.8063848  13.3709020
  25.9068592  41.1970784  14.5171220  26.5303975  40.8957912  14.1494265
  35.4262104  32.2956327  14.1819536  35.4660476  32.7965534  14.8954243
  34.6011769  32.3866721  13.9125459  35.3101630  32.3838143  14.2470074
  37.6091717  41.8617067  22.2839830  36.7587348  41.9988781  22.4197475
  37.7719845  41.1280845  22.7287532  37.5075581  41.7731168  22.3695429
  36.8476467  38.8116837  16.4793435  36.0168397  38.9790655  16.2728683
  36.7927985  38.4352788  17.2642320  36.7165882  38.7806568  16.5641963
  35.2212511  37.0872428   7.0083552  35.3615472  37.5844893   7.7112194
  35.7195044  36.3858723   7.1497766  35.3153592  37.0574407   7.1335131
  35.2512734  37.9539540   4.3376129  35.8857813  38.5499965   4.2725591
  35.3338344  37.6542997   5.1521999  35.3569285  37.9980448   4.4479216
  48.2295299  40.4855017  17.2062493  48.8213140  41.1252268  17.2380691
  48.6654294  39.7878054  17.4954560  48.3813731  40.4773367  17.2543326
  36.8291717  33.8853515   4.3121571  37.1507558  33.4056597   3.6580834
  37.0918660  34.6953161   4.1212383  36.9157742  33.9343413   4.1877063
  40.0588689  44.9072389  17.8320387  39.5513780  45.4608236  18.2761018
  39.7615336  44.9680679  17.0139162  39.9393574  44.9978700  17.7768844
  42.2250872  33.2725709  16.6745050  42.6505943  32.8198235  16.0628577
  41.6107865  32.7185780  16.9509838  42.1979517  33.1239685  16.6250076
  31.7565722  40.1507380   7.6065675  32.2657951  40.7471888   7.9876981
  32.2299994  39.8833354   6.9242095  31.9009097  40.1993196   7.5620198
  42.6696470  48.8235647   5.7624331  41.9525779  48.6496509   5.2971568
  43.3203207  48.5888219   5.2299817  42.6598320  48.7631439   5.6153549
  45.2544441  37.7000235   9.5065636  44.5835631  38.2429938   9.3778701
  45.9484191  38.1695091   9.2647331  45.2573308  37.8498507   9.4521164
  39.3031175  49.8396947  14.7377394  39.0796829  49.0815777  15.1061421
  38.8141018  49.8694969  14.0157834  39.1974624  49.7319172  14.6854135
  45.4172568  34.1556119  12.4156009  45.7700178  33.7285842  13.0901808
  44.5587370  34.0706963  12.5457086  45.3422013  34.0800860  12.5351020
  34.1156253  36.7863639  10.4738856  33.3968242  37.2027771  10.7411719
  34.4868616  37.3517878   9.9230494  34.0648185  36.9312920  10.4321663
  43.4155834  37.4191488  16.3640851  43.3953761  37.2374783  17.2175630
  43.4635035  38.2903506  16.3400435  43.4190475  37.5208026  16.4864146
  41.3602164  44.0078680  22.2889328  41.3198019  43.3628357  21.7034484
  42.1725482  43.9515297  22.6014740  41.4745318  43.9037647  22.2486277
  37.9509632  50.0597406  12.1914479  37.5370030  49.3971536  11.8018321
  38.6357006  50.2075264  11.6710173  37.9908003  49.9838064  12.0570976
  41.3174926  49.2187491  12.9438095  40.9191209  49.3289761  12.1758916
  40.7026145  49.4269557  13.5264655  41.1673815  49.2661059  12.9169395
  39.8902828  35.8261639   5.8112235  39.2967667  36.1478635   5.2596802
  39.9278105  34.9802734   5.6033341  39.8077217  35.7485967   5.6995006
  46.8496628  29.2774531  13.3440322  46.3427493  28.5703671  13.2761499
  47.6464062  28.9467720  13.4741398  46.8923868  29.1247682  13.3539317
  42.7660644  35.7841143   9.2413985  42.5374337  35.8073845   8.3992344
  43.0258720  34.9598610   9.3608996  42.7706832  35.6657223   9.1339183
  37.0479873  37.6375616  18.8439086  36.5358776  37.0296799  19.2024117
  36.8759369  38.3532209  19.3113061  36.9469510  37.6538916  18.9655309
  35.8205407  34.3217690  10.5368181  36.2962773  34.6834769   9.9018362
  35.3194006  34.9774157  10.8168324  35.8170766  34.4711878  10.4844922
  49.0516768  43.7939458   6.3281186  49.4350374  44.5430814   6.5579283
  48.2560882  44.0405277   6.0693175  48.9910551  43.9409151   6.3238760
  40.9248943  35.5599861  21.2841341  41.4820373  35.3313670  20.6519807
  40.6010008  36.3205527  21.0076554  40.9595353  35.6383698  21.1497838
  28.7947652  38.9860057  16.7529937  28.2474371  38.3160703  16.8710806
  29.5840030  38.6189905  16.8173404  28.8299836  38.8325044  16.7798638
  38.6432060  38.6467514  22.2493348  39.3943387  38.9619191  22.5632902
  38.8354637  38.4446685  21.4227270  38.7823474  38.6634896  22.1736744
  37.8632060  36.4658889   3.9041565  38.2431025  36.4838518   3.1192680
  37.1224656  36.9112878   3.7832412  37.8100898  36.5340664   3.7705133
  45.4917350  34.7741081   9.4917144  45.4911577  34.6189737  10.3501420
  45.2873530  35.6204068   9.4358529  45.4617128  34.8761701   9.6105083
  27.5534621  38.1980865  13.9075960  27.3756382  37.7457474  14.6330876
  27.2653644  39.0007026  14.0914438  27.4847575  38.2503423  14.0419463
  43.2158202  39.4538582  13.1453351  43.7111868  38.7361577  13.1057371
  42.4057978  39.1509380  13.0307838  43.1702096  39.3036229  13.1227076
  38.6616814  43.3036396   5.2950355  37.8528137  42.9803069   5.2483664
  39.1691723  42.5969618   5.2278604  38.6166481  43.1517712   5.2780649
  29.2907091  40.7308589  11.0197719  28.4252611  40.7194279  10.9080491
  29.3905907  40.5438812  11.8668859  29.1781258  40.7014650  11.1286664
  45.2810021  42.2042270  15.8330479  45.7065093  41.6816692  15.2800904
  44.9166941  42.8023107  15.3119102  45.2896624  42.2152497  15.6739489
  34.9164101  50.5006487  14.5927825  35.2310660  51.3142876  14.6005607
  35.3257515  50.1156706  15.2609984  35.0232199  50.5635190  14.6931916
  41.8688621  45.9176534  12.1631637  42.3399799  46.6316797  12.3321622
  42.2048799  45.3175284  12.6991506  41.9883736  45.9347998  12.2664013
  38.7858116  30.6904005  19.1189732  38.9186021  29.8934998  19.4470707
  39.1703269  31.2170408  19.6988007  38.8614445  30.6503921  19.2533234
  42.5062567  45.7094468  18.9259329  41.9583513  45.0852352  18.6579395
  42.9675596  45.8988740  18.2103409  42.4929777  45.6453518  18.7809761
  41.8590471  27.6134331  15.7170825  41.0536435  27.5032060  16.0338663
  41.7297206  27.7146786  14.8600691  41.7210604  27.6118001  15.6378865
  45.3156431  33.7779823  16.3110522  44.7319420  34.2789029  15.8988089
  45.6360726  33.2709379  15.6774845  45.2769607  33.7771658  16.1569029
  37.8551231  32.6920418   6.5869197  38.6766925  32.8618730   6.3450891
  37.3920882  32.8467678   5.8635494  37.9082393  32.7402150   6.4440841
  36.4446563  30.6863180  17.3667625  36.9890976  30.3454307  17.9571967
  36.4983498  31.5448641  17.5088910  36.5335682  30.7618439  17.4749499
  32.2577121  44.4479596  14.2406433  32.8621979  44.4075430  13.6120254
  32.0504434  45.2950748  14.2710489  32.3166019  44.5667598  14.1522550
  42.0720893  46.7145541  15.4568671  42.8919267  46.5708507  15.7184966
  41.7914971  47.3391740  15.9985109  42.1517637  46.7855893  15.5756610
  27.4928404  43.4314213  14.1105356  27.3952682  42.6210485  14.4195413
  28.2757273  43.4106007  13.7251624  27.5944540  43.3081303  14.0992219
  58.5434544  54.3710393   8.4211547  58.5128548  55.2255029   8.5929816
  59.1415893  54.0705685   8.9797691  58.6271702  54.4526889   8.5286349
  51.7434229  53.4586044  13.1764477  50.8872124  53.6194542  13.2273594
  51.7901882  52.5878108  13.1969538  51.6233340  53.3536846  13.1870543
  46.1275368  62.9948762   8.9401709  45.3758268  62.6164300   8.7117754
  46.5761380  63.0267195   8.1920519  46.0825035  62.9434369   8.7959211
  55.0527945  59.7272569  22.7824934  55.7594712  59.2324600  22.9111868
  55.2415881  60.1681651  22.0527592  55.1855851  59.7190920  22.6933979
  54.5886050  55.5178088  15.8196129  55.1342010  56.1963174  15.8790099
  54.5302926  55.3765548  14.9597711  54.6601964  55.5970089  15.7008190
  47.7060125  63.0067154  11.2064481  47.8070487  62.1967508  11.5161609
  47.1101870  62.9124100  10.5764160  47.6332663  62.8732182  11.1590720
  47.5460864  67.9244743  12.6079338  48.1898320  68.3657907  12.9975496
  47.8717120  67.1198169  12.5209596  47.6892693  67.8709938  12.6524815
  40.9025169  59.0287440  10.8316815  40.6675353  58.1955093  10.7249084
  41.0410810  59.3092106  10.0178016  40.8880831  58.9470944  10.6959170
  43.2015256  51.1973171  13.7301123  42.5820288  50.6065818  13.5611138
  43.0999120  51.7884606  13.0965446  43.0952932  51.1977253  13.6106112
  42.9284389  54.7425453  15.9744692  42.8043086  55.3287898  16.6094511
  43.5802674  54.2485648  16.2756967  43.0058039  54.7564257  16.1130621
  50.4871087  59.3243158   8.0513377  50.9264723  58.7160258   8.4968150
  50.3375750  58.9450531   7.2798842  50.5292553  59.1781629   8.0032545
  47.9542730  57.9187169  15.2532203  48.5991733  57.4259613  14.9343151
  48.1944507  58.0611956  16.0798281  48.0853315  57.8664612  15.3281736
  50.4928822  60.7642075  14.9039095  50.7752065  59.9693481  14.6825851
  51.2214982  61.2422663  14.9244156  50.6418385  60.7176672  14.8742111
  48.4710016  48.3065109  12.1454861  48.1413346  48.7576253  11.4758559
  47.7955017  48.2281273  12.6927867  48.3220452  48.3616244  12.1278084
  55.6786423  44.2950632  10.3904471  55.3639864  44.9854111  10.8224894
  55.1613365  44.2395414   9.6889972  55.5550894  44.3885521  10.3501420
  60.4746910  59.8701438  11.8774926  59.6444613  60.0812081  12.0408343
  60.4256162  59.0438492  11.6017210  60.3453645  59.7791044  11.8612292
  42.4642493  63.9073111  12.1073021  41.9810072  64.6323601  12.0832605
  43.2765812  64.2049241  12.2183179  42.5133241  64.0575465  12.1200301
  48.5356648  62.7005292  14.7122836  48.0183589  62.3412707  14.1084144
  49.2331039  62.1767466  14.7228902  48.5622229  62.5702980  14.6253094
  52.1920240  63.1500106  20.6739009  52.2803585  62.9626246  21.5217219
  52.6209952  62.5037535  20.2743856  52.2682342  63.0263113  20.7410760
  49.7590699  62.4331266  19.6556671  49.1961534  62.0203876  20.1796332
  50.5211723  62.3584171  20.0749814  49.7885148  62.3608666  19.7949671
  46.6765970  46.3677398   7.6277808  47.4311938  46.7355715   7.3894858
  46.4993504  46.7416952   8.3956988  46.7620448  46.4775586   7.7062697
  45.3186691  64.4229287  12.2593301  46.0207270  63.9081276  12.3166058
  45.2384174  64.7503438  13.0640176  45.4110451  64.3943513  12.3866093
  59.9700868  52.5171838  15.6725348  59.1329289  52.5874025  15.9072942
  59.9389099  52.5196333  14.7999650  59.8419151  52.5282065  15.5784896
  45.0323034  48.7747717   4.3255921  44.8498607  48.9919598   3.4996914
  45.8948647  48.8886729   4.3814536  45.1327624  48.8237615   4.2110408
  44.6437466  60.6135639  11.7678909  45.4826366  60.8458572  11.8152671
  44.6749235  59.7439950  11.6985945  44.7719184  60.5192585  11.7643554
  45.2690169  61.0336514  16.0692215  45.8088394  60.8907645  16.7395587
  44.5860115  61.4333265  16.4376241  45.2482323  61.0716185  16.2226636
  50.7122753  45.7774127   7.3604945  51.4408914  45.5990082   6.9143101
  50.8017646  46.6192207   7.5712123  50.8329415  45.8758006   7.3258463
  54.6931054  56.7127515  11.2637239  55.4488569  57.1459029  11.3026148
  54.7993379  56.0632284  11.8371875  54.8201225  56.6804999  11.3535265
  57.7311225  60.5400792  12.0139642  57.2946457  60.5437534  12.7698613
  57.3974141  61.2206291  11.5819220  57.6173845  60.6413248  12.0620475
  40.6727314  57.2536805  16.2226636  40.4065729  56.4375922  16.3817627
  40.6865878  57.2989960  15.3522152  40.6352037  57.1393710  16.1180118
  57.6508708  47.5814620  14.2569070  58.2934617  47.6512724  14.8430985
  57.9031729  46.9143843  13.7548612  57.7830840  47.4940968  14.2696349
  44.5785061  52.0521889   2.8378394  43.8643238  51.7660069   3.2500827
  45.0629030  52.3918515   3.4784782  44.5444425  52.0603539   2.9934029
  52.4610692  64.4919227  16.9849248  51.6625938  64.2518727  17.2423117
  52.9096704  64.5433620  17.7316296  52.4085303  64.4641618  17.1334172
  60.8655571  57.2581712  10.9059279  61.5272006  56.6972380  10.8055188
  60.2246983  56.7633743  11.2311970  60.8684439  57.1018121  10.9391619
  41.0820728  58.0395584  13.5038380  40.8996301  58.0142470  12.6510673
  41.8170397  58.5094522  13.5427289  41.1634792  58.1056947  13.3836299
  57.1520402  58.2747094  10.6471268  57.3875991  58.4192293   9.8198119
  57.3009966  59.0389502  11.0402782  57.2086205  58.4086149  10.5834872
  54.1942748  54.9613663   9.1664452  54.2889602  55.7002957   9.6204077
  53.5701592  54.5331138   9.5999017  54.1151778  55.0074983   9.2972600
  52.4495222  58.1399876  19.8154733  53.0234083  57.5027120  19.9703297
  52.3710026  58.1403958  18.9464391  52.5228457  58.0464987  19.7101144
  41.0491638  54.9189085  13.6537447  41.6265141  54.7825536  14.2929692
  40.3505700  54.4624869  13.9083031  41.0312660  54.8311351  13.7859737
  47.8058940  56.5723141  11.8675930  47.5478185  55.7394876  11.8407230
  47.8607423  56.7980754  11.0268431  47.7758718  56.4820912  11.7396067
  52.8859991  48.6751591  11.9680023  52.1816317  48.1860777  12.1263942
  52.9344965  48.6874066  11.0968467  52.7890042  48.6041239  11.8619363
  46.7793653  54.1260903  12.3540825  46.2043244  54.2853071  12.9904786
  46.4029329  53.4896312  11.8909276  46.6396465  54.0558716  12.3795383
  50.4466941  52.5984252  17.2133203  50.0581374  52.1738470  16.5585395
  49.7821640  52.8466402  17.7210230  50.2913869  52.5722973  17.1921071
  60.0890210  52.3559257   9.9881034  59.8326775  51.5439199   9.7978916
  60.9319524  52.3636824   9.7611221  60.1756236  52.2371255   9.9265851
  36.5250471  53.7700978  10.3685266  36.6110723  53.3932846  11.1498796
  37.1526269  53.3961424   9.8905224  36.6307022  53.6586460  10.4130743
  54.2693303  46.2958881  14.7257188  54.6503815  45.6137052  15.1125062
  53.4656587  46.0068483  14.5432852  54.2069764  46.1525930  14.7561244
  57.7715370  59.5108853  19.8239586  57.5354007  58.6796918  19.7051647
  58.4158599  59.4594460  20.4094430  57.8310040  59.3806541  19.8925480
  47.4213788  60.3004374  10.5382323  48.0587735  60.0616122  11.0834116
  47.8468859  60.5041533   9.8035483  47.5789954  60.2955385  10.5099480
  42.1126430  62.5392711  14.4216626  42.1530575  62.8107562  13.5936406
  42.6720954  63.0634619  14.8374414  42.2009776  62.6568466  14.3608514
  48.0616603  55.5206664   4.8757212  48.4461756  55.3014371   5.6273757
  47.8128223  56.3469610   5.0058288  48.0818675  55.6104810   5.0058288
  58.7951790  59.2953302  15.8867881  58.4897607  60.0281359  16.2481196
  58.0758006  58.8891231  15.6060667  58.6439133  59.3435035  15.8981018
  49.8035260  60.7776797  12.2176109  49.8774268  60.6151969  13.0717959
  50.6204766  60.9666987  11.9736590  49.9351618  60.7813539  12.3074134
  64.4953582  55.9346303  15.2136225  64.4278083  55.9542262  14.3438811
  64.4809245  56.7776630  15.4391895  64.4832339  56.0620037  15.1188702
  43.5641016  61.1234660   9.2470552  42.7379134  61.3696397   9.1204831
  43.6253008  61.0446741  10.1132610  43.4515183  61.1479609   9.3559497
  45.7817040  47.1903601  10.2065992  44.9139466  47.2626200  10.2723602
  46.0692244  47.9925680  10.3953968  45.6956788  47.3197748  10.2440759
  54.9049929  47.3381460  18.5377314  55.6503521  47.1491271  18.1240740
  54.4887234  47.8639698  17.9791171  54.9534903  47.3883606  18.3941888
  62.2812200  54.7090689  13.4882819  62.8320121  54.0758758  13.7279911
  62.2656315  55.2406082  14.1798324  62.3597396  54.6939637  13.6261677
  48.9334591  58.5429286  18.0342713  48.4346284  59.2545054  18.1127601
  49.7434815  58.8629953  17.9960875  48.9790697  58.6956135  18.0399281
  46.2845761  65.7178923  10.0149732  46.0646056  65.4276277  10.8076399
  46.0640283  65.0593878   9.4867644  46.2193355  65.5778631  10.0538641
  45.1962708  57.8052239  12.2805434  44.9075957  57.1789710  12.8151161
  46.0646056  57.7472526  12.3470114  45.2822960  57.7039783  12.3696388
  55.9840606  52.9487022  12.5987415  55.6405372  52.2277358  12.9494665
  56.0833649  52.7400874  11.7565774  55.9482649  52.8111226  12.5259095
  45.3994982  59.4447490   8.2047799  46.1540950  59.8260529   8.4183261
  44.8065594  59.8958634   8.6594495  45.4231695  59.5676317   8.3030677
  46.7193208  60.6156051  13.5787914  46.1973962  60.7556343  14.2639779
  47.1067228  59.8566716  13.7690031  46.6996909  60.5241575  13.7088991
  43.7084392  50.6661860   7.6482869  43.4209188  50.2963131   6.9114816
  44.3954860  51.1356716   7.3866574  43.7673290  50.6808830   7.4997944
  48.1459534  57.6460070   8.9769405  47.9502316  58.2534805   8.3829708
  48.3693879  56.9528014   8.4961079  48.1494175  57.6337596   8.8185486
  46.5438064  54.5314808   9.0950273  47.2660716  54.6955967   8.6354079
  46.0646057  55.2524473   8.9889613  46.5801794  54.6613038   9.0115887
  54.5031571  50.8678607  14.4746958  53.6642672  50.8939886  14.2385222
  54.5735939  51.5149343  15.0552305  54.3899965  50.9674733  14.5256075
  52.9500850  47.7663984   9.2074574  53.6527202  47.5671733   8.7294533
  52.6845038  46.9939927   9.5143418  53.0147482  47.6226950   9.1820016
  58.3789095  56.0746594  11.7608200  58.2923070  56.2302020  12.6142979
  57.9239575  56.7184669  11.3867605  58.2992352  56.1922349  11.8315307
  41.2812587  51.4443073   8.4968150  41.3828723  52.2469234   8.8249125
  42.0768474  51.2430409   8.1991230  41.4140492  51.5328971   8.5003505
  42.0976319  51.5590251  16.2389271  41.9561811  50.7074192  16.3633779
  42.3816882  51.6018912  15.4151477  42.1184165  51.4390001  16.1356895
  52.2514911  53.3957341  10.3833760  52.0049626  53.3153092  11.2170549
  52.5800034  52.6110809  10.1896287  52.2636155  53.2683606  10.4781283
  56.1462960  60.1040700  14.1720541  56.0077319  60.8021746  14.6769283
  55.3662958  59.9489357  13.8156723  56.0106187  60.1840867  14.1946815
  54.4841045  56.4037076  20.4242923  54.4789084  55.5316892  20.4285349
  55.1902039  56.6025245  19.9512378  54.5886049  56.3040950  20.3549958
  50.3831856  55.3304228  17.5781874  49.6355170  55.5235242  17.1730152
  50.5373381  54.5049448  17.3405996  50.2954284  55.2369339  17.4827280
  47.2839694  64.3216831  16.6617770  47.4329257  63.7619747  16.0091174
  48.0639696  64.4008833  17.0450288  47.4213787  64.2502397  16.6214719
  49.8092994  64.4931474  17.9402260  49.7336665  63.8240285  18.4953049
  49.7382853  65.1949263  18.4542927  49.7873601  64.4976382  18.0979108
  50.6233633  49.2254779  18.4677278  51.0806247  49.9578753  18.5950070
  50.6989962  48.8021244  19.2264534  50.7024603  49.2712017  18.5978355
  55.0960959  42.4044654  12.3371121  55.2144527  42.8621117  11.6038424
  54.9223135  41.5989915  12.0507339  55.0880130  42.3538426  12.1872055
  48.5016011  51.2156883  15.3119102  47.7112086  51.0348343  15.6336438
  48.8976634  50.4383835  15.2949397  48.4432887  51.0744344  15.3571650
  53.8859697  58.8499313  13.0378548  53.2104699  58.6184545  13.5391935
  53.8952073  58.2420496  12.4120653  53.7878202  58.7258238  13.0194700
  51.0153841  53.6917142  19.7942601  50.9512982  54.5527098  19.6662738
  51.1551029  53.3749135  18.9938152  51.0269311  53.7717308  19.6570814
  49.6972935  56.3849281  13.9358804  49.2735184  56.5853780  13.1997822
  49.5217790  55.5378129  14.0483104  49.6083816  56.2898063  13.8432494
  49.1984628  67.8999794  16.3980261  49.6880559  67.2010583  16.2155926
  48.6268861  67.6023664  16.9856318  49.1869158  67.7526018  16.4581302
  44.9855380  56.8801333   9.3686776  45.1419999  56.8148135  10.2242768
  45.3255973  57.6549885   9.1565456  45.0588615  56.9850531   9.4641371
  51.5234525  56.2559216   8.2380140  52.0650070  55.7529597   8.7018760
  51.8381084  56.2024411   7.4269625  51.6498922  56.1738637   8.1863952
  55.3951632  60.4661863  25.3507052  56.2086497  60.1947012  25.5112184
  55.2346598  60.1669403  24.5467248  55.4921580  60.3816790  25.2552458
  52.6723794  51.1495521  18.2902440  52.8865764  50.5106435  17.7365794
  52.0557693  51.5941345  17.8610302  52.6129123  51.1205664  18.1452871
  41.5589642  54.0636283   9.6847544  41.9388606  54.4820828   9.0207811
  40.9845006  54.6449739   9.9916387  41.5300966  54.2114142   9.6324285
  54.8362882  52.7584586  19.2285747  54.0239564  52.4510476  19.3098920
  55.2952817  52.2783586  19.7928459  54.7843267  52.6421078  19.3240341
  52.0638523  44.2595456  13.2789783  51.1932081  44.2334177  13.2323092
  52.3178864  44.0872648  12.4615629  51.9732083  44.2305600  13.1509920
  49.0887663  46.2701685  14.7363253  48.5726152  45.5781876  14.8614832
  48.5281592  46.9372462  14.6825852  48.9294176  46.2664942  14.7469319
  51.1579897  46.8094645  16.5656106  50.7711650  46.8343676  17.3469636
  50.6712834  46.2436323  16.1130622  51.0292406  46.7290396  16.6144009
  55.4072876  61.5268154  20.6229892  56.0452597  61.0328349  20.2892348
  54.7646968  61.4545554  20.0382119  55.4067103  61.4427162  20.4872247
  57.1329876  53.3757300  15.1895808  56.7057484  53.2883648  14.4343908
  56.4955929  53.4835075  15.7750652  56.9759483  53.3789960  15.1641250
  50.8237038  43.6961630  18.8566366  51.4530156  44.2321930  18.5787436
  50.9922901  43.6038989  19.7079931  50.9414833  43.7622993  18.9414894
  55.4627133  62.2187962  17.2635249  56.2519511  61.8677027  17.3837331
  55.6370730  63.0324350  17.0011883  55.6047414  62.2873819  17.2423117
  45.2020443  55.6296688  14.3163038  44.3608450  55.5300562  14.5241932
  45.4110451  56.3992168  14.6677359  45.1085136  55.7288731  14.3990353
  42.6796010  53.2516225  12.1447789  42.2852708  53.3259237  11.3697898
  42.1236127  53.6374171  12.6956150  42.5398822  53.3197999  12.1115448
  54.3160957  46.2297519  11.8251668  54.5210550  46.1619827  12.6708665
  53.9887381  47.0356340  11.7572845  54.2976205  46.3383459  11.9411323
  49.0137108  53.5578087  13.5660636  48.7100245  53.0034075  14.1671043
  48.3116529  53.7370297  13.0788670  48.8653318  53.5022869  13.5830341
  48.0703205  50.8678607   8.1305337  48.3462939  50.1497519   7.7182905
  48.6701874  51.4663527   7.9226443  48.1996470  50.8498978   8.0386099
  47.0755459  60.7727808  18.2732733  46.9675814  60.7829870  19.1394791
  47.2851240  61.5982588  18.0837687  47.0905570  60.8968882  18.3736825
  57.5694645  46.7829283  11.3054433  56.9568958  47.2699685  11.6908165
  57.6658819  46.1072774  11.8492084  57.4932542  46.7547592  11.4433291
  51.5713725  48.5392124   6.4051932  52.0257472  48.7102685   7.1299777
  52.0453771  47.9260235   6.0049708  51.7082046  48.4743009   6.4525694
  45.0929251  58.0240450  15.7354671  44.5017184  58.6649948  15.7057686
  45.8550274  58.4478067  15.7085970  45.1177512  58.1816289  15.7269818
  45.4889874  49.1842448  16.4022688  45.9491355  49.2581377  17.1397812
  45.5345980  49.9823702  16.0522510  45.5640429  49.3136595  16.4595445
  61.2119672  57.8546220  16.7331949  61.2702796  58.3032869  17.4791926
  60.5786140  58.2645033  16.2962029  61.1270968  57.9819954  16.7784497
  54.8518767  63.4749762  13.1686695  54.6538456  63.9640576  12.4742907
  54.2306478  63.6791003  13.7470829  54.7306332  63.5766300  13.1509919
  48.9126745  55.2434658   7.5096940  49.6568790  55.6308935   7.7479889
  49.0587442  54.3992084   7.6737427  49.0437331  55.1765131   7.5690909
  50.8306321  47.0384917  12.5428801  49.9842366  47.2107725  12.4170151
  50.8277453  46.2334261  12.8794629  50.7053471  46.9445946  12.5739928
  51.9004621  50.8160132  13.4090859  51.4264576  50.2901894  13.9196170
  52.2722757  50.2689605  12.8405720  51.8854510  50.6576128  13.4006006
  58.1641352  55.8762507  14.8197639  57.9239575  55.0368923  14.8240066
  58.6433359  55.9562674  15.5438413  58.1993536  55.7643907  14.9272442
  53.8288121  51.7096686   6.4716613  53.3011140  51.7925430   5.7822322
  54.2883829  52.4514558   6.4681257  53.8189971  51.8317349   6.3691308
  60.1646539  52.6563965  12.7726899  59.9256309  52.6159799  11.9347683
  60.3280440  53.5035117  12.8992620  60.1536842  52.7756050  12.6680380
  56.7692569  57.0413914  18.7031944  57.4926768  56.5886440  18.5242964
  56.5042531  57.3218580  17.9204272  56.8373842  57.0164882  18.5610659
  45.6379437  51.6374088  15.4384823  45.0132508  51.6492479  14.8310776
  45.3025032  52.1134263  16.0876063  45.4964929  51.7092605  15.4441391
  45.8221186  49.9799206   1.4957508  45.4733990  50.6318931   1.9589057
  45.3417632  49.9656319   0.7681379  45.6991430  50.0742260   1.4568599
  42.3505113  59.6974548  16.8788587  41.8205038  59.0066987  16.9283562
  42.6230206  59.6884733  16.0501296  42.3129835  59.5941679  16.7636003
  52.5511359  57.1397792  16.8526959  51.9368352  56.5955843  17.1475594
  53.0678644  56.6262029  16.3732775  52.5367021  56.9834201  16.8251187
  51.7907656  58.2102062  14.5871257  51.3635264  57.5851781  14.1536693
  51.7832600  57.9276984  15.4130265  51.7266797  58.0754843  14.6451085
  44.9070183  53.2467235  17.6559691  45.0663670  52.4910559  18.0611413
  44.7263076  53.7958175  18.3100429  44.9035542  53.2161049  17.8122397
  52.8490486  45.4128471  18.2110481  52.3531047  45.6092145  17.5202048
  53.6059548  45.8121139  18.0399283  52.8877311  45.5006205  18.0830618
  50.1193365  49.0870817  14.8013791  50.1435853  48.5530929  14.1126571
  50.3704839  48.5788126  15.4639382  50.1603284  48.9331721  14.7978436
  37.6300955  56.3702312  14.2356935  37.5244404  56.3249156  13.3709020
  36.8801175  56.7156092  14.5171220  37.5036558  56.4143220  14.1494265
  46.3994688  47.8141635  14.1819536  46.4393059  48.3150842  14.8954243
  45.5744352  47.9052029  13.9125459  46.2834214  47.9023451  14.2470074
  47.8209051  54.3302145  16.4793435  46.9900981  54.4975963  16.2728683
  47.7660568  53.9538096  17.2642320  47.6898466  54.2991876  16.5641963
  46.1945095  52.6057736   7.0083552  46.3348056  53.1030201   7.7112194
  46.6927628  51.9044031   7.1497766  46.2886176  52.5759715   7.1335131
  46.2245317  53.4724847   4.3376129  46.8590397  54.0685272   4.2725591
  46.3070928  53.1728305   5.1521999  46.3301868  53.5165756   4.4479216
  59.2027883  56.0040325  17.2062493  59.7945723  56.6437576  17.2380691
  59.6386878  55.3063362  17.4954560  59.3546314  55.9958675  17.2543326
  47.8024300  49.4038823   4.3121571  48.1240141  48.9241905   3.6580834
  48.0651244  50.2138469   4.1212383  47.8890326  49.4528721   4.1877063
  51.0321273  60.4257697  17.8320387  50.5246364  60.9793544  18.2761018
  50.7347919  60.4865987  17.0139162  50.9126158  60.5164008  17.7768844
  53.1983455  48.7911017  16.6745050  53.6238527  48.3383543  16.0628577
  52.5840448  48.2371088  16.9509838  53.1712100  48.6424993  16.6250076
  42.7298305  55.6692688   7.6065675  43.2390535  56.2657196   7.9876981
  43.2032577  55.4018662   6.9242095  42.8741681  55.7178504   7.5620198
  51.6377678  45.2626117  10.0835627  50.9945996  45.1123763  10.6520766
  51.2977085  45.0168462   9.3184732  51.4922755  45.2038239  10.0538642
  56.2277024  53.2185543   9.5065636  55.5568214  53.7615246   9.3778701
  56.9216775  53.6880399   9.2647331  56.2305892  53.3683815   9.4521164
  50.2763758  65.3582255  14.7377394  50.0529413  64.6001085  15.1061421
  49.7873601  65.3880277  14.0157834  50.1707207  65.2504480  14.6854135
  56.3905152  49.6741427  12.4156009  56.7432762  49.2471150  13.0901808
  55.5319953  49.5892271  12.5457086  56.3154597  49.5986168  12.5351020
  45.0888837  52.3048947  10.4738856  44.3700826  52.7213079  10.7411719
  45.4601199  52.8703186   9.9230494  45.0380769  52.4498228  10.4321663
  54.3888418  52.9376796  16.3640851  54.3686345  52.7560091  17.2175630
  54.4367618  53.8088814  16.3400435  54.3923059  53.0393334  16.4864146
  52.3334748  59.5263988  22.2889328  52.2930602  58.8813665  21.7034484
  53.1458066  59.4700605  22.6014740  52.4477901  59.4222954  22.2486277
  48.9242215  65.5782714  12.1914479  48.5102614  64.9156844  11.8018321
  49.6089589  65.7260572  11.6710173  48.9640587  65.5023372  12.0570976
  52.2907509  64.7372799  12.9438095  51.8923792  64.8475069  12.1758916
  51.6758729  64.9454865  13.5264655  52.1406399  64.7846367  12.9169395
  50.8635411  51.3446947   5.8112235  50.2700251  51.6663943   5.2596802
  50.9010689  50.4988042   5.6033341  50.7809800  51.2671275   5.6995006
  57.8229212  44.7959839  13.3440322  57.3160077  44.0888978  13.2761499
  58.6196646  44.4653028  13.4741398  57.8656451  44.6432990  13.3539317
  53.7393228  51.3026451   9.2413985  53.5106921  51.3259153   8.3992344
  53.9991304  50.4783918   9.3608996  53.7439416  51.1842531   9.1339183
  46.7937990  49.8402997  10.5368181  47.2695357  50.2020077   9.9018362
  46.2926590  50.4959465  10.8168324  46.7903349  49.9897186  10.4844922
  51.8981527  51.0785169  21.2841341  52.4552957  50.8498978  20.6519807
  51.5742592  51.8390834  21.0076554  51.9327937  51.1569006  21.1497838
  48.8364643  51.9844197   3.9041565  49.2163608  52.0023826   3.1192680
  48.0957240  52.4298186   3.7832412  48.7833481  52.0525972   3.7705133
  56.4649934  50.2926388   9.4917144  56.4644160  50.1375045  10.3501420
  56.2606114  51.1389376   9.4358529  56.4349712  50.3947009   9.6105083
  38.5267205  53.7166173  13.9075960  38.3488966  53.2642782  14.6330876
  38.2386227  54.5192334  14.0914438  38.4580158  53.7688731  14.0419463
  54.1890786  54.9723890  13.1453351  54.6844451  54.2546885  13.1057371
  53.3790562  54.6694688  13.0307838  54.1434679  54.8221537  13.1227076
  40.2639675  56.2493897  11.0197719  39.3985194  56.2379587  10.9080491
  40.3638491  56.0624119  11.8668859  40.1513842  56.2199958  11.1286664
  56.2542605  57.7227578  15.8330479  56.6797676  57.2002000  15.2800904
  55.8899525  58.3208415  15.3119102  56.2629207  57.7337805  15.6739489
  45.8896685  66.0191795  14.5927825  46.2043244  66.8328184  14.6005607
  46.2990098  65.6342014  15.2609984  45.9964783  66.0820498  14.6931916
  52.8421204  61.4361842  12.1631637  53.3132383  62.1502105  12.3321622
  53.1781383  60.8360592  12.6991506  52.9616319  61.4533306  12.2664013
  54.9298189  63.0463155  24.3423709  55.0395154  62.2571716  24.6980456
  55.2589086  62.9569092  23.5398047  54.9950595  62.9169008  24.2766100
  53.4795151  61.2279776  18.9259329  52.9316097  60.6037660  18.6579395
  53.9408179  61.4174048  18.2103409  53.4662360  61.1638826  18.7809761
  52.8323054  43.1319639  15.7170825  52.0269018  43.0217368  16.0338663
  52.7029790  43.2332094  14.8600691  52.6943187  43.1303309  15.6378865
  56.2889015  49.2965131  16.3110522  55.7052004  49.7974337  15.8988089
  56.6093309  48.7894687  15.6774845  56.2502190  49.2956966  16.1569029
  48.8283814  48.2105725   6.5869197  49.6499509  48.3804038   6.3450891
  48.3653465  48.3652986   5.8635494  48.8814976  48.2587458   6.4440841
  47.4179146  46.2048488  17.3667625  47.9623559  45.8639614  17.9571967
  47.4716082  47.0633949  17.5088910  47.5068266  46.2803747  17.4749499
  43.2309705  59.9664904  14.2406433  43.8354562  59.9260738  13.6120254
  43.0237017  60.8136056  14.2710489  43.2898602  60.0852906  14.1522550
  53.0453477  62.2330849  15.4568671  53.8651851  62.0893815  15.7184966
  52.7647555  62.8577048  15.9985109  53.1250220  62.3041201  15.5756610
  38.4660987  58.9499521  14.1105356  38.3685265  58.1395793  14.4195413
  39.2489857  58.9291315  13.7251624  38.5677124  58.8266611  14.0992219
  53.9016973  70.2610760  15.9744692  53.7775670  70.8473206  16.6094511
  54.5535257  69.7670956  16.2756967  53.9790622  70.2749565  16.1130621
  57.3398181  70.1790182  21.3873716  57.5118685  70.0696076  22.2358998
  57.8767538  70.8244587  21.1504909  57.4443185  70.2582183  21.4778813
  56.3958504  66.3100491  18.8693644  55.7030301  65.8397471  19.1154376
  57.0118832  66.0838796  19.4435351  56.3843034  66.2067623  18.9902797
  55.1199063  70.2765895  20.0120489  55.8439035  70.2618926  20.4985384
  55.2215200  70.9861250  19.5142457  55.2417272  70.3790598  20.0099276
  62.4944013  73.7564980  24.8769436  61.7016993  74.0708492  25.0622056
  62.6092940  73.9716448  24.0390221  62.3939423  73.8348816  24.7807771
  61.4199525  68.1169560  17.2133203  61.0313958  67.6923778  16.5585395
  60.7554223  68.3651710  17.7210230  61.2646453  68.0908281  17.1921071
  59.2017727  64.3198387  24.5919796  58.8871168  65.0897950  24.3289359
  58.8807659  63.7568643  24.0072023  59.1076646  64.3508656  24.4661146
  65.8782512  62.8566768  18.5377314  66.6236104  62.6676579  18.1240740
  65.4619817  63.3825006  17.9791171  65.9267487  62.9068914  18.3941888
  58.8334232  66.9195638  23.3305011  58.0234008  67.2253418  23.2194853
  59.3108919  67.6401221  23.4457595  58.7837711  67.0710240  23.3312082
  55.1678264  72.4558189  18.2004413  55.6799361  72.7342442  17.5513173
  54.8814607  73.1947483  18.5667226  55.2013127  72.6060542  18.1594291
  58.6861989  64.5484577  18.2605455  58.4945186  64.5639712  19.1104878
  59.5360585  64.7448252  18.2372110  58.7837711  64.5798929  18.3828750
  53.0708902  67.0775559  16.2389271  52.9294394  66.2259499  16.3633779
  53.3549466  67.1204219  15.4151477  53.0916749  66.9575309  16.1356895
  59.1844522  71.6499368  19.7956743  59.3287898  72.2300576  19.1599853
  59.5320171  72.0275664  20.5006597  59.2571983  71.7920072  19.8055738
  61.5966217  64.7440087  18.4677278  62.0538831  65.4764061  18.5950070
  61.6722545  64.3206552  19.2264534  61.6757186  64.7897325  18.5978355
  53.8399208  64.9905906  19.5566722  53.3041397  64.3786265  19.8727489
  53.9016972  65.5654042  20.2100388  53.7694840  64.9852834  19.7002148
  59.4748594  66.7342191  15.3119102  58.6844669  66.5533651  15.6336438
  59.8709217  65.9569143  15.2949397  59.4165471  66.5929652  15.3571650
  61.9886425  69.2102450  19.7942601  61.9245566  70.0712406  19.6662738
  62.1283612  68.8934443  18.9938152  62.0001895  69.2902616  19.6570814
  63.6456378  66.6680829  18.2902440  63.8598347  66.0291743  17.7365794
  63.0290277  67.1126652  17.8610302  63.5861707  66.6390972  18.1452871
  65.8095466  68.2769894  19.2285747  64.9972147  67.9695784  19.3098920
  66.2685400  67.7968894  19.7928459  65.7575850  68.1606386  19.3240341
  62.9048973  69.6829965  24.0114449  63.3748604  70.3072082  24.3982324
  62.9510853  69.0146941  24.5707664  62.9816849  69.6764645  24.1514521
  60.0620247  61.7886993  14.7363253  59.5458735  61.0967184  14.8614832
  59.5014176  62.4557770  14.6825852  59.9026760  61.7850250  14.7469319
  62.1312480  62.3279953  16.5656106  61.7444233  62.3528984  17.3469636
  61.6445417  61.7621631  16.1130622  62.0024989  62.2475704  16.6144009
  61.7969622  59.2146938  18.8566366  62.4262740  59.7507238  18.5787436
  61.9655485  59.1224297  19.7079931  61.9147416  59.2808300  18.9414894
  61.5983537  64.0018133  21.1292777  62.4256966  63.7303282  21.1851392
  61.6191383  64.7978975  21.4856595  61.7236387  64.0797887  21.1907960
  56.4622457  64.7027756  16.4022688  56.9223939  64.7766685  17.1397812
  56.5078564  65.5009010  16.0522510  56.5373013  64.8321903  16.4595445
  58.1105807  65.3694451  20.9694716  57.7191372  64.7227798  21.4050493
  58.2791670  65.9605886  21.5888971  58.0776717  65.3608719  21.1257422
  53.2510235  68.3316946  18.7774405  54.1135848  68.2312656  18.6911735
  52.9202018  67.7511656  18.2159977  53.3295431  68.2308573  18.6819811
  56.6112021  67.1559395  15.4384823  55.9865091  67.1677787  14.8310776
  56.2757616  67.6319571  16.0876063  56.4697513  67.2277912  15.4441391
  55.8802766  68.7652543  17.6559691  56.0396253  68.0095867  18.0611413
  55.6995660  69.3143483  18.3100429  55.8768125  68.7346357  17.8122397
  63.8223069  60.9313779  18.2110481  63.3263631  61.1277453  17.5202048
  64.5792131  61.3306447  18.0399283  63.8609894  61.0191513  18.0830618
  57.3727271  63.3326943  14.1819536  57.4125643  63.8336150  14.8954243
  56.5476936  63.4237337  13.9125459  57.2566797  63.4208759  14.2470074
  59.5556884  72.8987683  22.2839830  58.7052515  73.0359397  22.4197475
  59.7185012  72.1651461  22.7287532  59.4540748  72.8101784  22.3695429
  56.6025418  63.3396346  22.1149845  57.2278121  62.7958479  22.3879278
  56.1475898  62.8591263  21.5457636  56.6273679  63.1885827  22.0711439
  64.1716039  64.3096325  16.6745050  64.5971110  63.8568851  16.0628577
  63.5573032  63.7556395  16.9509838  64.1444684  64.1610301  16.6250076
  63.3067331  75.0449296  22.2889328  63.2663186  74.3998973  21.7034484
  64.1190649  74.9885913  22.6014740  63.4210485  74.9408262  22.2486277
  58.9945040  68.6746232  18.8439086  58.4823943  68.0667415  19.2024117
  58.8224536  69.3902825  19.3113061  58.8934677  68.6909531  18.9655309
  53.8410755  67.1183807  21.4941447  53.6713345  67.7785182  20.9489654
  53.3976704  67.3290369  22.2153936  53.7510088  67.2469790  21.5203077
  62.8714110  66.5970477  21.2841341  63.4285540  66.3684286  20.6519807
  62.5475175  67.3576142  21.0076554  62.9060520  66.6754313  21.1497838
  50.7412819  70.0230673  16.7529937  50.1939538  69.3531319  16.8710806
  51.5305197  69.6560521  16.8173404  50.7765003  69.8695659  16.7798638
  60.5897227  69.6838130  22.2493348  61.3408554  69.9989807  22.5632902
  60.7819804  69.4817301  21.4227270  60.7288642  69.7005512  22.1736744
  49.4999789  69.2351481  13.9075960  49.3221550  68.7828090  14.6330876
  49.2118811  70.0377642  14.0914438  49.4312742  69.2874039  14.0419463
  60.7323283  61.7274621  19.1189732  60.8651189  60.9305614  19.4470707
  61.1168436  62.2541024  19.6988007  60.8079612  61.6874537  19.2533234
  63.8055638  58.6504947  15.7170825  63.0001602  58.5402676  16.0338663
  63.6762374  58.7517402  14.8600691  63.6675771  58.6488617  15.6378865
  58.3911730  61.7233796  17.3667625  58.9356143  61.3824922  17.9571967
  58.4448665  62.5819257  17.5088910  58.4800849  61.7989055  17.4749499
  43.7746186  21.1465393   9.7164980  44.4812953  20.6517423   9.8451915
  43.9634121  21.5874474   8.9867638  43.9074091  21.1383743   9.6274026
  36.2679105  29.3437566  -0.4580616  36.9116560  29.7850730  -0.0684457
  36.5935360  28.5390992  -0.5450357  36.4110933  29.2902761  -0.4135138
  40.9138480  24.5692929   7.6079056  41.0021826  24.3819069   8.4557266
  41.3428192  23.9230359   7.2083902  40.9900582  24.4455937   7.6750807
  38.4808940  23.8524089   6.5896718  37.9179774  23.4396699   7.1136379
  39.2429963  23.7776995   7.0089861  38.5103388  23.7801490   6.7289718
  35.0883838  16.0797697   8.3213763  35.2604341  15.9703592   9.1699044
  35.6253195  16.7252103   8.0844955  35.1928842  16.1589699   8.4118860
  41.0258539  24.0001948  10.2722839  41.8098956  24.1132796  10.6378581
  40.8255134  23.1743085  10.4681525  41.1124565  23.8948667  10.3557225
  41.1828933  25.9112050   3.9189295  40.3844178  25.6711550   4.1763163
  41.6314944  25.9626443   4.6656342  41.1303544  25.8834441   4.0674219
  40.2429669  19.6572495  11.8109483  39.4502650  19.9716007  11.9962103
  40.3578596  19.8723963  10.9730268  40.1425080  19.7356332  11.7147818
  41.1713462  19.5592699   6.7494780  41.7452324  18.9219943   6.9043344
  41.0928266  19.5596781   5.8804437  41.2446697  19.4657810   6.6441191
  46.4933610  20.9301676   6.7579633  46.2572247  20.0989741   6.6391694
  47.1376839  20.8787284   7.3434477  46.5528281  20.7999364   6.8265526
  36.9503384  10.2205903  11.5259843  36.6356825  10.9905465  11.2629406
  36.6293316   9.6576159  10.9412070  36.8562303  10.2516171  11.4001193
  47.5170031  20.7146125   2.8207927  47.2115848  21.4474182   3.1821243
  46.7976246  20.3084055   2.5400713  47.3657373  20.7627858   2.8321064
  53.2171823  17.3539126   2.1476272  53.1496323  17.3735085   1.2778858
  53.2027485  18.1969453   2.3731942  53.2050579  17.4812860   2.0528749
  37.6552831  19.9622109   4.9682759  37.1564525  20.6737877   5.0467648
  38.4653055  20.2822776   4.9300922  37.7008938  20.1148958   4.9739328
  36.5819889  12.8203154  10.2645058  35.7719665  13.1260933  10.1534900
  37.0594576  13.5408736  10.3797642  36.5323368  12.9717755  10.2652129
  44.8681200  21.5233524   1.1060588  44.7295560  22.2214569   1.6109330
  44.0881198  21.3682180   0.7496769  44.7324427  21.6033690   1.1286862
  43.2059286  17.8229899   7.3582969  43.2007324  16.9509716   7.3625396
  43.9120279  18.0218068   6.8852425  43.3104290  17.7233773   7.2890005
  36.9330179  17.5506883   6.7296789  37.0773555  18.1308091   6.0939900
  37.2805827  17.9283180   7.4346644  37.0057640  17.6927587   6.7395784
  36.0057934  25.7409655   3.5957816  36.1547498  25.1812571   2.9431221
  36.7857936  25.8201656   3.9790335  36.1432028  25.6695220   3.5554765
  38.5311235  25.9124298   4.8742307  38.4554906  25.2433108   5.4293095
  38.4601094  26.6142086   5.3882973  38.5091841  25.9169205   5.0319155
  39.7372082  15.1109965   6.7282648  39.6731223  15.9719921   6.6002784
  39.8769269  14.7941958   5.9278199  39.7487552  15.1910132   6.5910861
  37.9202869  29.3192617   3.3320308  38.4098799  28.6203407   3.1495973
  37.3487101  29.0216487   3.9196365  37.9087399  29.1718841   3.3921349
  44.1169872  21.8854687  12.2847099  44.9304738  21.6139836  12.4452231
  43.9564839  21.5862227  11.4807295  44.2139821  21.8009613  12.1892504
  43.5581122  14.1777409   6.1625794  42.7457804  13.8703299   6.2438967
  44.0171057  13.6976409   6.7268506  43.5061507  14.0613901   6.2580388
  40.6534630  15.5837481  10.9454496  41.1234261  16.2079597  11.3322370
  40.6996510  14.9154456  11.5047711  40.7302506  15.5772161  11.0854568
  44.1291116  22.9460977   7.5569939  44.7670837  22.4521173   7.2232395
  43.4865208  22.8738377   6.9722166  44.1285343  22.8619986   7.4212294
  44.1845373  23.6380785   4.1975296  44.9737751  23.2869850   4.3177378
  44.3588971  24.4517174   3.9351930  44.3265655  23.7066642   4.1763164
  35.7973699  22.1920631   5.2072780  35.6894054  22.2022693   6.0734838
  36.0069481  23.0175411   5.0177734  35.8123810  22.3161706   5.3076872
  49.9337913  19.2739043   3.6671996  49.9921037  19.7225692   4.4131972
  49.3004380  19.6837856   3.2302076  49.8489208  19.4012778   3.7124544
  43.5737008  24.8942585   0.1026742  43.3756696  25.3833399  -0.5917047
  42.9524719  25.0983826   0.6810876  43.4524572  24.9959123   0.0849965
  45.4910809  18.4606737   5.6371990  46.2145008  18.0079264   5.4583010
  45.2260772  18.7411403   4.8544318  45.5592083  18.4357706   5.4950706
  41.2729599  18.5590615   3.7867006  40.6586592  18.0148666   4.0815641
  41.7896884  18.0454852   3.3072822  41.2585261  18.4027025   3.7591234
  47.9246123  17.4233148   4.1402540  48.5163964  18.0630399   4.1720738
  48.3605118  16.7256185   4.4294607  48.0764555  17.4151498   4.1883373
  39.7539513  21.8450520   4.7660434  39.2464604  22.3986367   5.2101065
  39.4566159  21.9058810   3.9479209  39.6344398  21.9356832   4.7108891
  38.9981999  26.7775079   1.6717441  38.7747653  26.0193908   2.0401467
  38.5091842  26.8073100   0.9497881  38.8925448  26.6697303   1.6194182
  41.0552988  20.9456811   9.2229375  41.0148843  20.3006488   8.6374531
  41.8676306  20.8893428   9.5354787  41.1696141  20.8415778   9.1826324
  41.0125750  26.1565622  -0.1221858  40.6142033  26.2667892  -0.8901037
  40.3976969  26.3647688   0.4604702  40.8624639  26.2039190  -0.1490558
  40.6199767  12.4977992   8.2181388  41.1771197  12.2691802   7.5859853
  40.2960832  13.2583658   7.9416600  40.6546177  12.5761829   8.0837885
  38.3382884  15.5845645   9.1833395  39.0894211  15.8997322   9.4972949
  38.5305461  15.3824816   8.3567317  38.4774298  15.6013027   9.1076791
  44.9760845  19.1420401   2.7670526  45.4015917  18.6194823   2.2140951
  44.6117765  19.7401238   2.2459149  44.9847448  19.1530628   2.6079536
  34.6114925  27.4384618   1.5267872  34.9261484  28.2521007   1.5345653
  35.0208338  27.0534837   2.1950031  34.7183023  27.5013321   1.6271963
  43.6516429  24.4655979  11.2763756  43.7613395  23.6764539  11.6320503
  43.9807326  24.3761915  10.4738094  43.7168835  24.3361832  11.2106146
  42.2013391  22.6472599   5.8599376  41.6534337  22.0230483   5.5919442
  42.6626420  22.8366871   5.1443456  42.1880601  22.5831650   5.7149807
  41.7671717  23.6523672   2.3908717  42.5870091  23.5086638   2.6525013
  41.4865795  24.2769871   2.9325155  41.8468461  23.7234024   2.5096657
  51.4385053  30.3964175   0.1104524  50.5822948  30.5572673   0.1613641
  51.4852706  29.5256239   0.1309585  51.3184164  30.2914977   0.1210590
  45.8226192  39.9326893  -4.1258244  45.0709092  39.5542431  -4.3542199
  46.2712204  39.9645326  -4.8739434  45.7775859  39.8812500  -4.2700742
  54.7478769  36.6650700   9.7164980  55.4545536  36.1702731   9.8451915
  54.9366705  37.1059782   8.9867638  54.8806675  36.6569051   9.6274026
  54.2836874  32.4556219   2.7536176  54.8292834  33.1341305   2.8130146
  54.2253750  32.3143680   1.8937757  54.3552788  32.5348220   2.6348236
  47.4010948  39.9445285  -1.8595472  47.5021311  39.1345639  -1.5498344
  46.8052694  39.8502231  -2.4895793  47.3283487  39.8110313  -1.9069233
  47.2411688  44.8622874  -0.4580616  47.8849144  45.3036038  -0.0684457
  47.5667944  44.0576300  -0.5450357  47.3843517  44.8088069  -0.4135138
  40.5975993  35.9665571  -2.2343138  40.3626177  35.1333224  -2.3410869
  40.7361634  36.2470237  -3.0481937  40.5831655  35.8849075  -2.3700783
  42.8966080  28.1351302   0.6641170  42.2771112  27.5443949   0.4951184
  42.7949944  28.7262737   0.0305493  42.7903756  28.1355384   0.5446159
  49.9933976  29.8750844  -5.0026367  50.6914141  30.0538971  -4.5104904
  50.3086308  29.3521183  -5.6255978  50.1429313  29.8244616  -5.0224357
  42.6235213  31.6803584   2.9084739  42.4993910  32.2666029   3.5434557
  43.2753498  31.1863779   3.2097014  42.7008863  31.6942388   3.0470668
  50.1821911  36.2621289  -5.0146576  50.6215547  35.6538389  -4.5691803
  50.0326574  35.8828662  -5.7861111  50.2243377  36.1159760  -5.0627408
  47.6493554  34.8565301   2.1872250  48.2942557  34.3637744   1.8683198
  47.8895331  34.9990087   3.0138328  47.7804139  34.8042743   2.2621783
  50.1879646  37.7020206   1.8379142  50.4702888  36.9071612   1.6165898
  50.9165806  38.1800794   1.8584203  50.3369209  37.6554803   1.8082157
  48.1660839  25.2443240  -0.9205093  47.8364169  25.6954384  -1.5901394
  47.4905841  25.1659404  -0.3732086  48.0171276  25.2994376  -0.9381869
  60.1697734  36.8079569  -1.1885027  59.3395437  37.0190212  -1.0251610
  60.1206986  35.9816623  -1.4642743  60.0404469  36.7169175  -1.2047662
  42.1593317  40.8451242  -0.9586932  41.6760896  41.5701732  -0.9827348
  42.9716636  41.1427372  -0.8476774  42.2084065  40.9953596  -0.9459653
  48.2307471  39.6383423   1.6462883  47.7134413  39.2790838   1.0424191
  48.9281863  39.1145597   1.6568949  48.2573053  39.5081111   1.5593141
  51.8871063  40.0878237   7.6079056  51.9754409  39.9004377   8.4557266
  52.3160776  39.4415667   7.2083902  51.9633166  39.9641245   7.6750807
  49.4541523  39.3709397   6.5896718  48.8912358  38.9582007   7.1136379
  50.2162547  39.2962303   7.0089861  49.4835972  39.2986797   6.7289718
  45.0137515  41.3607418  -0.8066652  45.7158094  40.8459407  -0.7493895
  44.9334998  41.6881569  -0.0019777  45.1061275  41.3321644  -0.6793860
  59.6651692  29.4549969   2.6065394  58.8280113  29.5252156   2.8412989
  59.6339923  29.4574464   1.7339697  59.5369975  29.4660196   2.5124942
  46.0616421  31.5983005   8.3213763  46.2336925  31.4888900   9.1699044
  46.5985779  32.2437410   8.0844955  46.1661425  31.6775007   8.4118860
  44.3388290  37.5513770  -1.2981044  45.1777190  37.7836703  -1.2507282
  44.3700059  36.6818081  -1.3674009  44.4670008  37.4570717  -1.3016399
  44.9640993  37.9714645   3.0032262  45.5039218  37.8285776   3.6735634
  44.2810939  38.3711396   3.3716288  44.9433147  38.0094316   3.1566683
  54.3881878  33.6505646  -1.8022714  55.1439393  34.0837160  -1.7633805
  54.4944202  33.0010416  -1.2288078  54.5152049  33.6183130  -1.7124689
  57.4262049  37.4778923  -1.0520311  56.9897281  37.4815666  -0.2961340
  57.0924965  38.1584422  -1.4840734  57.3124669  37.5791379  -1.0039479
  51.9991123  39.5187256  10.2722839  52.7831539  39.6318104  10.6378581
  51.7987717  38.6928393  10.4681525  52.0857148  39.4133975  10.3557225
  40.3678138  34.1914936   3.1566683  40.1016553  33.3754053   3.3157673
  40.3816702  34.2368092   2.2862199  40.3302861  34.0771841   3.0520165
  57.3459532  24.5192751   1.1909117  57.9885440  24.5890856   1.7771032
  57.5982553  23.8521974   0.6888659  57.4781664  24.4319100   1.2036396
  45.1176745  27.7293314   5.8033691  44.4248541  27.2590294   6.0494422
  45.7337072  27.5031619   6.3775398  45.1061275  27.6260446   5.9242843
  52.1561516  41.4297358   3.9189295  51.3576762  41.1896858   4.1763163
  52.6047528  41.4811751   4.6656342  52.1036127  41.4019749   4.0674219
  60.5606395  34.1959843  -2.1600674  61.2222829  33.6350512  -2.2604765
  59.9197807  33.7011874  -1.8347983  60.5635263  34.0396252  -2.1268334
  40.7771552  34.9773715   0.4378427  40.5947125  34.9520601  -0.4149280
  41.5121221  35.4472653   0.4767336  40.8585616  35.0435078   0.3176346
  56.8471226  35.2125225  -2.4188685  57.0826815  35.3570424  -3.2461834
  56.9960790  35.9767633  -2.0257171  56.9037029  35.3464280  -2.4825081
  43.8417304  31.6958718   6.9460536  44.5657276  31.6811749   7.4325431
  43.9433440  32.4054074   6.4482504  43.9635513  31.7983422   6.9439323
  51.2162253  35.1757803  11.8109483  50.4235234  35.4901315  11.9962103
  51.3311180  35.3909271  10.9730268  51.1157663  35.2541640  11.7147818
  53.8893572  31.8991794  -3.8995501  53.9840426  32.6381088  -3.4455876
  53.2652415  31.4709270  -3.4660937  53.8102602  31.9453115  -3.7687354
  52.1446046  35.0778007   6.7494780  52.7184907  34.4405251   6.9043344
  52.0660849  35.0782089   5.8804437  52.2179281  34.9843118   6.6441191
  40.7442462  31.8567216   0.5877494  41.3215965  31.7203667   1.2269739
  40.0456524  31.4003000   0.8423078  40.7263484  31.7689482   0.7199784
  47.5009764  33.5101272  -1.1984023  47.2429009  32.6773007  -1.2252723
  47.5558247  33.7358885  -2.0391523  47.4709542  33.4199043  -1.3263886
  52.5810815  25.6129723  -1.0979930  51.8767141  25.1238908  -0.9396011
  52.6295789  25.6252197  -1.9691486  52.4840866  25.5419370  -1.2040590
  46.4744477  31.0639034  -0.7119128  45.8994068  31.2231203  -0.0755167
  46.0980153  30.4274443  -1.1750678  46.3347289  30.9936847  -0.6864570
  50.1417765  29.5362384   4.1473250  49.7532198  29.1116601   3.4925441
  49.4772464  29.7844533   4.6550277  49.9864693  29.5101105   4.1261118
  53.9644127  23.2337012   1.6597235  54.3454638  22.5515183   2.0465109
  53.1607411  22.9446614   1.4772899  53.9020588  23.0904061   1.6901290
  57.4666194  36.4486984   6.7579633  57.2304831  35.6175049   6.6391694
  58.1109423  36.3972591   7.3434477  57.5260864  36.3184672   6.8265526
  47.1164612  37.2382506  -2.5277631  47.7538559  36.9994253  -1.9825837
  47.5419683  37.4419665  -3.2624470  47.2740778  37.2333516  -2.5560473
  41.8077254  39.4770842   1.3556673  41.8481399  39.7485693   0.5276453
  42.3671778  40.0012750   1.7714461  41.8960600  39.5946597   1.2948561
  47.9235967  25.7391211  11.5259843  47.6089408  26.5090773  11.2629406
  47.6025900  25.1761467  10.9412070  47.8294886  25.7701479  11.4001193
  58.4902614  36.2331433   2.8207927  58.1848431  36.9659490   3.1821243
  57.7708830  35.8269363   2.5400713  58.3389957  36.2813166   2.8321064
  49.4986084  37.7154928  -0.8483844  49.5725092  37.5530100   0.0058006
  50.3155590  37.9045118  -1.0923363  49.6302442  37.7191671  -0.7585819
  64.1904406  32.8724434   2.1476272  64.1228907  32.8920393   1.2778858
  64.1760069  33.7154761   2.3731942  64.1783163  32.9998168   2.0528749
  43.2591840  38.0612791  -3.8189401  42.4329958  38.3074528  -3.9455122
  43.3203832  37.9824872  -2.9527343  43.1466007  38.0857740  -3.7100456
  54.6000753  24.2759591   5.4717361  55.3454345  24.0869402   5.0580786
  54.1838057  24.8017829   4.9131217  54.6485727  24.3261737   5.3281934
  61.9763024  31.6468820   0.4222866  62.5270945  31.0136889   0.6619958
  61.9607139  32.1784213   1.1138370  62.0548220  31.6317768   0.5601724
  48.6285415  35.4807417   4.9682759  48.1297108  36.1923185   5.0467648
  49.4385639  35.8008084   4.9300922  48.6741521  35.6334266   4.9739328
  45.9796585  42.6557054  -3.0510221  45.7596880  42.3654408  -2.2583554
  45.7591107  41.9972009  -3.5792309  45.9144179  42.5156762  -3.0121313
  44.8913532  34.7430370  -0.7854520  44.6026781  34.1167841  -0.2508792
  45.7596880  34.6850658  -0.7189839  44.9773784  34.6417914  -0.6963565
  55.6791430  29.8865154  -0.4672538  55.3356196  29.1655489  -0.1165288
  55.7784472  29.6779005  -1.3094179  55.6433473  29.7489357  -0.5400858
  45.0945805  36.3825621  -4.8612155  45.8491773  36.7638660  -4.6476692
  44.5016418  36.8336765  -4.4065458  45.1182519  36.5054449  -4.7629276
  47.5552473  28.3388462  10.2645058  46.7452248  28.6446241  10.1534900
  48.0327159  29.0594044  10.3797642  47.5055951  28.4903063  10.2652129
  46.4144032  37.5534183   0.5127961  45.8924786  37.6934474   1.1979826
  46.8018052  36.7944847   0.7030078  46.3947733  37.4619706   0.6429037
  47.8410358  34.5838202  -4.0890548  47.6453140  35.1912936  -4.6830245
  48.0644703  33.8906146  -4.5698874  47.8444999  34.5715727  -4.2474467
  46.2388888  31.4692940  -3.9709680  46.9611540  31.6334098  -4.4305874
  45.7596881  32.1902604  -4.0770340  46.2752618  31.5991169  -4.0544066
  54.1982395  27.8056738   1.4087005  53.3593496  27.8318017   1.1725268
  54.2686763  28.4527474   1.9892352  54.0850789  27.9052864   1.4596122
  43.8896504  33.8751012   5.1344460  44.4017601  34.1535265   4.4853220
  43.6032847  34.6140306   5.5007273  43.9231368  34.0253366   5.0934338
  58.0739919  33.0124725  -1.3051753  57.9873894  33.1680151  -0.4516974
  57.6190399  33.6562801  -1.6792348  57.9943176  33.1300480  -1.2344646
  47.4080230  25.9677401   5.1945502  47.2163427  25.9832535   6.0444925
  48.2578826  26.1641075   5.1712157  47.5055952  25.9991752   5.3168796
  41.7927143  28.4968382   3.1729318  41.6512635  27.6452323   3.2973826
  42.0767706  28.5397043   2.3491524  41.8134989  28.3768132   3.0696942
  51.9465735  30.3335472  -2.6826194  51.7000450  30.2531223  -1.8489405
  52.2750858  29.5488940  -2.8763666  51.9586979  30.2061738  -2.5878670
  55.8413784  37.0418832   1.1060588  55.7028143  37.7399877   1.6109330
  55.0613782  36.8867488   0.7496769  55.7057011  37.1218998   1.1286862
  54.1791869  33.3415207   7.3582969  54.1739908  32.4695023   7.3625396
  54.8852863  33.5403376   6.8852425  54.2836873  33.2419081   7.2890005
  47.9062763  33.0692191   6.7296789  48.0506138  33.6493399   6.0939900
  48.2538411  33.4468488   7.4346644  47.9790224  33.2112895   6.7395784
  50.0782680  32.2682359   4.5121921  49.3305994  32.4613374   4.1070199
  50.2324205  31.4427579   4.2746042  49.9905107  32.1747471   4.4167327
  46.9790517  41.2594963   3.5957816  47.1280081  40.6997879   2.9431221
  47.7590520  41.3386964   3.9790335  47.1164611  41.1880528   3.5554765
  49.5043818  41.4309606   4.8742307  49.4287489  40.7618416   5.4293095
  49.4333677  42.1327394   5.3882973  49.4824425  41.4354513   5.0319155
  50.3184457  26.1632910   5.4017325  50.7757071  26.8956884   5.5290117
  50.3940786  25.7399375   6.1604581  50.3975427  26.2090148   5.5318401
  42.5617448  26.4098730   6.4906769  42.0259638  25.7979088   6.8067536
  42.6235213  26.9846866   7.1440435  42.4913081  26.4045657   6.6342195
  48.1966835  28.1535014   2.2459149  47.4062910  27.9726474   2.5676485
  48.5927458  27.3761966   2.2289443  48.1383711  28.0122475   2.2911697
  53.5810521  35.7877444  -0.0281405  52.9055523  35.5562676   0.4731982
  53.5902897  35.1798627  -0.6539300  53.4829026  35.6636369  -0.0465253
  50.7104665  30.6295273   6.7282648  50.6463806  31.4905229   6.6002784
  50.8501853  30.3127266   5.9278199  50.7220135  30.7095440   6.5910861
  49.3923759  33.3227412   0.8698851  48.9686008  33.5231911   0.1337869
  49.2168614  32.4756260   0.9823150  49.3034640  33.2276194   0.7772541
  48.8935452  44.8377925   3.3320308  49.3831383  44.1388715   3.1495973
  48.3219685  44.5401795   3.9196365  48.8819982  44.6904149   3.3921349
  44.6806204  33.8179464  -3.6973177  44.8370823  33.7526267  -2.8417185
  45.0206797  34.5928016  -3.9094497  44.7539439  33.9228662  -3.6018583
  51.2185349  33.1937347  -4.8279814  51.7600894  32.6907728  -4.3641193
  51.5331908  33.1402542  -5.6390328  51.3449746  33.1116768  -4.8796002
  55.0902456  37.4039995  12.2847099  55.9037321  37.1325144  12.4452231
  54.9297422  37.1047535  11.4807295  55.1872404  37.3194921  12.1892504
  52.3674618  28.0873652   5.2242487  52.5816587  27.4484566   4.6705841
  51.7508517  28.5319476   4.7950349  52.3079947  28.0583796   5.0792918
  41.2540465  31.0014414  -3.3812410  41.6339430  31.4198959  -4.0452142
  40.6795830  31.5827870  -3.0743566  41.2251790  31.1492273  -3.4335669
  54.5313706  29.6962717   6.1625794  53.7190388  29.3888607   6.2438967
  54.9903641  29.2161717   6.7268506  54.4794091  29.5799209   6.2580388
  51.7589347  21.1973588   0.2129830  50.8882905  21.1712309   0.1663139
  52.0129688  21.0250780  -0.6044325  51.6682907  21.1683731   0.0849966
  51.6267213  31.1022788  10.9454496  52.0966845  31.7264905  11.3322370
  51.6729094  30.4339764  11.5047711  51.7035089  31.0957469  11.0854568
  48.7838487  23.2079816   1.6703300  48.2676976  22.5160007   1.7954879
  48.2232416  23.8750593   1.6165899  48.6245000  23.2043074   1.6809366
  50.8530721  23.7472776   3.4996153  50.4662474  23.7721807   4.2809683
  50.3663658  23.1814455   3.0470669  50.7243229  23.6668527   3.5484056
  55.1023700  38.4646285   7.5569939  55.7403420  37.9706481   7.2232395
  54.4597792  38.3923685   6.9722166  55.1017926  38.3805293   7.4212294
  56.8280700  30.3135431   2.1235855  56.4008308  30.2261780   1.3683954
  56.1906753  30.4213206   2.7090699  56.6710307  30.3168091   2.0981296
  50.5187862  20.6339761   5.7906413  51.1480980  21.1700062   5.5127483
  50.6873725  20.5417120   6.6419978  50.6365657  20.7001124   5.8754941
  50.3201777  25.4210956   8.0632824  51.1475206  25.1496105   8.1191439
  50.3409623  26.2171798   8.4196642  50.4454627  25.4990710   8.1248007
  55.1577957  39.1566093   4.1975296  55.9470335  38.8055158   4.3177378
  55.3321554  39.9702482   3.9351930  55.2998238  39.2251950   4.1763164
  44.8971267  32.5674819   1.2503085  44.0559274  32.4678693   1.4581979
  45.1061275  33.3370299   1.6017405  44.8035960  32.6666862   1.3330400
  42.3746834  30.1894356  -0.9212165  41.9803532  30.2637368  -1.6962055
  41.8186951  30.5752302  -0.3703803  42.2349646  30.2576131  -0.9544505
  54.0111781  23.1675650  -1.2408286  54.2161374  23.0997958  -0.3951289
  53.6838205  23.9734471  -1.3087108  53.9927029  23.2761590  -1.1248631
  48.7087932  30.4956218   0.5000682  48.4051069  29.9412206   1.1011090
  48.0067353  30.6748428   0.0128717  48.5604142  30.4401000   0.5170388
  46.7706283  37.7105939   5.2072780  46.6626638  37.7208001   6.0734838
  46.9802064  38.5360719   5.0177734  46.7856394  37.8347014   5.3076872
  44.7880075  34.9618581   2.6694718  44.1968008  35.6028079   2.6397733
  45.5501098  35.3856199   2.6426017  44.8128335  35.1194420   2.6609865
  45.1840698  26.1220579   3.3362735  45.6442179  26.1959508   4.0737859
  45.2296804  26.9201833   2.9862557  45.2591253  26.2514726   3.3935492
  46.8324047  26.7887274   7.9034762  46.4409613  26.1420621   8.3390540
  47.0009910  27.3798709   8.5229018  46.7994958  26.7801542   8.0597468
  60.9070496  34.7924351   3.6671996  60.9653620  35.2411000   4.4131972
  60.2736964  35.2023164   3.2302076  60.8221792  34.9198086   3.7124544
  54.5469591  40.4127893   0.1026742  54.3489280  40.9018707  -0.5917047
  53.9257302  40.6169134   0.6810876  54.4257156  40.5144431   0.0849965
  48.6077569  32.1812790  -5.5563014  49.3519614  32.5687066  -5.3180064
  48.7538266  31.3370215  -5.3922526  48.7388155  32.1143262  -5.4969044
  50.5257145  23.9763049  -0.5231152  49.6793190  24.1485856  -0.6489802
  50.5228277  23.1712392  -0.1865324  50.4004295  23.8824078  -0.4920025
  51.5955445  27.7538263   0.3430906  51.1215400  27.2280025   0.8536217
  51.9673581  27.2067736  -0.2254233  51.5805334  27.5954260   0.3346053
  41.9728475  29.7509770   5.7114452  42.8354088  29.6505479   5.6251781
  41.6420258  29.1704479   5.1500024  42.0513672  29.6501396   5.6159857
  57.8592176  32.8140639   1.7537686  57.6190399  31.9747054   1.7580113
  58.3384183  32.8940805   2.4778460  57.8944360  32.7022038   1.8612489
  59.8597363  29.5942096  -0.2933055  59.6207133  29.5537930  -1.1312270
  60.0231264  30.4413248  -0.1667334  59.8487666  29.7134181  -0.3979573
  56.4643393  33.9792045   5.6371990  57.1877592  33.5264572   5.4583010
  56.1993355  34.2596711   4.8544318  56.5324666  33.9543014   5.4950706
  45.3330261  28.5752219   2.3724870  44.7083332  28.5870611   1.7650822
  44.9975856  29.0512394   3.0216110  45.1915753  28.6470736   2.3781438
  42.0455937  36.6352679   3.8128634  41.5155861  35.9445118   3.8623609
  42.3181030  36.6262864   2.9841343  42.0080659  36.5319811   3.6976050
  52.2462183  34.0775923   3.7867006  51.6319176  33.5333974   4.0815641
  52.7629467  33.5640160   3.3072822  52.2317845  33.9212332   3.7591234
  51.4858480  35.1480193   1.5211304  51.0586088  34.5229912   1.0876740
  51.4783424  34.8655115   2.3470311  51.4217621  35.0132974   1.5791132
  44.6021007  30.1845366   4.5899738  44.7614494  29.4288691   4.9951460
  44.4213900  30.7336306   5.2440476  44.5986366  30.1539180   4.7462444
  52.5441310  22.3506602   5.1450528  52.0481871  22.5470276   4.4542094
  53.3010372  22.7499270   4.9739329  52.5828134  22.4384336   5.0170664
  49.8144189  26.0248948   1.7353838  49.8386677  25.4909060   1.0466618
  50.0655663  25.5166257   2.3979429  49.8554108  25.8709852   1.7318483
  37.3251779  33.3080443   1.1696982  37.2195228  33.2627287   0.3049066
  36.5751999  33.6534223   1.4511267  37.1987382  33.3521351   1.0834312
  46.0945512  24.7519766   1.1159583  46.1343883  25.2528973   1.8294290
  45.2695176  24.8430160   0.8465506  45.9785038  24.8401583   1.1810121
  48.2775125  34.3180506   9.2179877  47.4270755  34.4552220   9.3537522
  48.4403252  33.5844284   9.6627579  48.1758988  34.2294607   9.3035476
  47.5159875  31.2680276   3.4133482  46.6851805  31.4354094   3.2068730
  47.4611392  30.8916227   4.1982367  47.3849290  31.2370007   3.4982010
  45.3243658  24.7589169   9.0489892  45.9496362  24.2151302   9.3219325
  44.8694138  24.2784087   8.4797683  45.3491919  24.6078650   9.0051486
  58.8978707  32.9418456   4.1402540  59.4896547  33.5815707   4.1720738
  59.3337702  32.2441493   4.4294607  59.0497138  32.9336806   4.1883373
  50.7272097  37.3635828   4.7660434  50.2197188  37.9171675   5.2101065
  50.4298743  37.4244118   3.9479209  50.6076982  37.4542140   4.7108891
  52.8934279  25.7289148   3.6085097  53.3189351  25.2761674   2.9968624
  52.2791272  25.1749219   3.8849885  52.8662924  25.5803124   3.5590122
  55.9227848  30.1563675  -3.5594317  55.2519038  30.6993377  -3.6881252
  56.6167599  30.6258530  -3.8012622  55.9256716  30.3061946  -3.6138790
  49.9714582  42.2960387   1.6717441  49.7480237  41.5379216   2.0401467
  49.4824425  42.3258408   0.9497881  49.8658031  42.1882611   1.6194182
  56.0855976  26.6119558  -0.6503944  56.4383586  26.1849281   0.0241855
  55.2270777  26.5270402  -0.5202868  56.0105420  26.5364299  -0.5308934
  44.7839661  29.2427078  -2.5921098  44.0651650  29.6591211  -2.3248234
  45.1552023  29.8081317  -3.1429459  44.7331593  29.3876359  -2.6338291
  52.0285571  36.4642119   9.2229375  51.9881426  35.8191796   8.6374531
  52.8408890  36.4078736   9.5354787  52.1428725  36.3601086   9.1826324
  48.6193039  42.5160845  -0.8745474  48.2053438  41.8534975  -1.2641633
  49.3040413  42.6638703  -1.3949780  48.6591411  42.4401503  -1.0088977
  51.9858333  41.6750930  -0.1221858  51.5874616  41.7853200  -0.8901037
  51.3709553  41.8832996   0.4604702  51.8357222  41.7224498  -0.1490558
  53.4344052  28.2404582  -3.8245968  53.2057745  28.2637284  -4.6667610
  53.6942128  27.4162049  -3.7050957  53.4390240  28.1220662  -3.9320770
  47.7163280  30.0939055   5.7779132  47.2042183  29.4860238   6.1364164
  47.5442776  30.8095648   6.2453108  47.6152917  30.1102355   5.8995356
  42.5628995  28.5376631   8.4281494  42.3931585  29.1978006   7.8829701
  42.1194945  28.7483192   9.1493983  42.4728329  28.6662613   8.4543124
  46.4888814  26.7781129  -2.5291772  46.9646181  27.1398208  -3.1641591
  45.9877414  27.4337596  -2.2491629  46.4854173  26.9275317  -2.5815031
  51.5932351  28.0163300   8.2181388  52.1503781  27.7877110   7.5859853
  51.2693416  28.7768966   7.9416600  51.6278761  28.0947137   8.0837885
  39.4631059  31.4423496   3.6869984  38.9157779  30.7724142   3.8050852
  40.2523438  31.0753344   3.7513451  39.4983243  31.2888483   3.7138685
  49.3115468  31.1030953   9.1833395  50.0626795  31.4182630   9.4972949
  49.5038044  30.9010124   8.3567317  49.4506882  31.1198335   9.1076791
  56.1600758  27.2304520  -3.5742809  56.1594984  27.0753176  -2.7158533
  55.9556938  28.0767507  -3.6301424  56.1300536  27.3325140  -3.4554870
  38.2218029  30.6544304   0.8416007  38.0439790  30.2020913   1.5670923
  37.9337051  31.4570465   1.0254485  38.1530982  30.7066862   0.9759510
  53.8841610  31.9102021   0.0793397  54.3795275  31.1925016   0.0397418
  53.0741386  31.6072819  -0.0352116  53.8385503  31.7599668   0.0567123
  39.9590499  33.1872028  -2.0462234  39.0936018  33.1757718  -2.1579463
  40.0589315  33.0002251  -1.1991095  39.8464666  33.1578089  -1.9373289
  55.9493429  34.6605709   2.7670526  56.3748500  34.1380131   2.2140951
  55.5850349  35.2586546   2.2459149  55.9580031  34.6715936   2.6079536
  45.5847509  42.9569926   1.5267872  45.8994068  43.7706315   1.5345653
  45.9940922  42.5720145   2.1950031  45.6915607  43.0198629   1.6271963
  52.5372028  38.3739973  -0.9028316  53.0083207  39.0880236  -0.7338331
  52.8732207  37.7738723  -0.3668447  52.6567143  38.3911437  -0.7995940
  54.6249013  39.9841287  11.2763756  54.7345978  39.1949847  11.6320503
  54.9539910  39.8947223  10.4738094  54.6901419  39.8547139  11.2106146
  49.4541523  23.1467444   6.0529778  49.5869429  22.3498437   6.3810754
  49.8386676  23.6733847   6.6328054  49.5297852  23.1067360   6.1873281
  53.1745975  38.1657907   5.8599376  52.6266921  37.5415791   5.5919442
  53.6359003  38.3552179   5.1443456  53.1613184  38.1016958   5.7149807
  52.5273878  20.0697770   2.6510872  51.7219842  19.9595500   2.9678710
  52.3980614  20.1710226   1.7940737  52.3894011  20.0681440   2.5718912
  55.9839839  26.2343262   3.2450569  55.4002828  26.7352468   2.8328136
  56.3044133  25.7272818   2.6114892  55.9453014  26.2335097   3.0909076
  47.1129970  23.1426619   4.3007672  47.6574383  22.8017746   4.8912014
  47.1666906  24.0012080   4.4428957  47.2019089  23.2181878   4.4089546
  42.9260529  36.9043035   1.1746480  43.5305386  36.8638869   0.5460301
  42.7187841  37.7514187   1.2050536  42.9849426  37.0231037   1.0862597
  52.7404301  39.1708980   2.3908717  53.5602675  39.0271946   2.6525013
  52.4598379  39.7955179   2.9325155  52.8201044  39.2419332   2.5096657
  38.1611811  35.8877652   1.0445403  38.0636089  35.0773924   1.3535460
  38.9440681  35.8669446   0.6591671  38.2627948  35.7644743   1.0332266
  53.5967797  47.1988892   2.9084739  53.4726494  47.7851337   3.5434557
  54.2486081  46.7049087   3.2097014  53.6741446  47.2127696   3.0470668
  57.0349005  47.1168313   8.3213763  57.2069509  47.0074208   9.1699044
  57.5718362  47.7622718   8.0844955  57.1394009  47.1960315   8.4118860
  51.3410722  49.7100244   3.1566683  51.0749137  48.8939361   3.3157673
  51.3549286  49.7553400   2.2862199  51.3035444  49.5957149   3.0520165
  56.0909328  43.2478622   5.8033691  55.3981125  42.7775602   6.0494422
  56.7069655  43.0216927   6.3775398  56.0793858  43.1445754   5.9242843
  54.8149887  47.2144026   6.9460536  55.5389859  47.1997057   7.4325431
  54.9166024  47.9239382   6.4482504  54.9368096  47.3168729   6.9439323
  62.1894837  50.6943111  11.8109483  61.3967817  51.0086623  11.9962103
  62.3043764  50.9094579  10.9730268  62.0890247  50.7726948  11.7147818
  61.1150349  45.0547692   4.1473250  60.7264781  44.6301909   3.4925441
  60.4505047  45.3029841   4.6550277  60.9597277  45.0286413   4.1261118
  64.9376710  38.7522320   1.6597235  65.3187222  38.0700491   2.0465109
  64.1339995  38.4631922   1.4772899  64.8753172  38.6089369   1.6901290
  58.8968551  41.2576519  11.5259843  58.5821992  42.0276081  11.2629406
  58.5758483  40.6946775  10.9412070  58.8027470  41.2886787  11.4001193
  65.5733336  39.7944899   5.4717361  66.3186928  39.6054710   5.0580786
  65.1570641  40.3203137   4.9131217  65.6218311  39.8447045   5.3281934
  58.5285056  43.8573770  10.2645058  57.7184832  44.1631549  10.1534900
  59.0059743  44.5779352  10.3797642  58.4788535  44.0088371  10.2652129
  54.8629088  49.3936320   5.1344460  55.3750185  49.6720573   4.4853220
  54.5765431  50.1325614   5.5007273  54.8963951  49.5438674   5.0934338
  58.3812813  41.4862709   5.1945502  58.1896010  41.5017843   6.0444925
  59.2311409  41.6826383   5.1712157  58.4788535  41.5177060   5.3168796
  52.7659726  44.0153690   3.1729318  52.6245218  43.1637631   3.2973826
  53.0500290  44.0582351   2.3491524  52.7867573  43.8953440   3.0696942
  58.8795346  48.5877499   6.7296789  59.0238722  49.1678707   6.0939900
  59.2270995  48.9653795   7.4346644  58.9522807  48.7298203   6.7395784
  61.2917040  41.6818218   5.4017325  61.7489655  42.4142192   5.5290117
  61.3673369  41.2584683   6.1604581  61.3708010  41.7275456   5.5318401
  53.5350032  41.9284038   6.4906769  52.9992221  41.3164396   6.8067536
  53.5967796  42.5032174   7.1440435  53.4645664  41.9230965   6.6342195
  59.1699418  43.6720322   2.2459149  58.3795493  43.4911782   2.5676485
  59.5660041  42.8947274   2.2289443  59.1116295  43.5307783   2.2911697
  61.6837249  46.1480581   6.7282648  61.6196390  47.0090537   6.6002784
  61.8234436  45.8312574   5.9278199  61.6952719  46.2280748   6.5910861
  66.0635040  52.9225303  12.2847099  66.8769905  52.6510451  12.4452231
  65.9030006  52.6232843  11.4807295  66.1604988  52.8380229  12.1892504
  63.3407202  43.6058960   5.2242487  63.5549171  42.9669874   4.6705841
  62.7241101  44.0504784   4.7950349  63.2812531  43.5769103   5.0792918
  65.5046290  45.2148025   6.1625794  64.6922971  44.9073915   6.2438967
  65.9636224  44.7347025   6.7268506  65.4526674  45.0984517   6.2580388
  62.7321930  36.7158895   0.2129830  61.8615488  36.6897617   0.1663139
  62.9862271  36.5436088  -0.6044325  62.6415490  36.6869039   0.0849966
  62.5999797  46.6208096  10.9454496  63.0699428  47.2450213  11.3322370
  62.6461677  45.9525072  11.5047711  62.6767673  46.6142777  11.0854568
  59.7571071  38.7265124   1.6703300  59.2409559  38.0345315   1.7954879
  59.1965000  39.3935901   1.6165899  59.5977584  38.7228381   1.6809366
  61.8263304  39.2658084   3.4996153  61.4395057  39.2907115   4.2809683
  61.3396241  38.6999763   3.0470669  61.6975813  39.1853835   3.5484056
  61.4920446  36.1525069   5.7906413  62.1213564  36.6885369   5.5127483
  61.6606309  36.0602428   6.6419978  61.6098240  36.2186432   5.8754941
  61.2934361  40.9396264   8.0632824  62.1207790  40.6681413   8.1191439
  61.3142207  41.7357106   8.4196642  61.4187211  41.0176018   8.1248007
  56.1573281  41.6405887   3.3362735  56.6174763  41.7144816   4.0737859
  56.2029388  42.4387141   2.9862557  56.2323837  41.7700034   3.3935492
  57.8056631  42.3072582   7.9034762  57.4142196  41.6605929   8.3390540
  57.9742494  42.8984017   8.5229018  57.7727541  42.2986850   8.0597468
  52.9461059  45.2695078   5.7114452  53.8086672  45.1690787   5.6251781
  52.6152842  44.6889787   5.1500024  53.0246255  45.1686704   5.6159857
  56.3062845  44.0937527   2.3724870  55.6815915  44.1055919   1.7650822
  55.9708440  44.5697702   3.0216110  56.1648337  44.1656044   2.3781438
  55.5753590  45.7030674   4.5899738  55.7347077  44.9473999   4.9951460
  55.3946484  46.2521614   5.2440476  55.5718949  45.6724488   4.7462444
  63.5173893  37.8691910   5.1450528  63.0214455  38.0655584   4.4542094
  64.2742955  38.2684578   4.9739329  63.5560718  37.9569644   5.0170664
  60.7876773  41.5434256   1.7353838  60.8119260  41.0094368   1.0466618
  61.0388247  41.0351565   2.3979429  60.8286692  41.3895160   1.7318483
  48.2984363  48.8265751   1.1696982  48.1927812  48.7812595   0.3049066
  47.5484583  49.1719531   1.4511267  48.1719966  48.8706659   1.0834312
  57.0678095  40.2705074   1.1159583  57.1076467  40.7714281   1.8294290
  56.2427760  40.3615468   0.8465506  56.9517621  40.3586890   1.1810121
  59.2507708  49.8365814   9.2179877  58.4003339  49.9737528   9.3537522
  59.4135836  49.1029592   9.6627579  59.1491572  49.7479915   9.3035476
  58.4892459  46.7865584   3.4133482  57.6584388  46.9539402   3.2068730
  58.4343976  46.4101535   4.1982367  58.3581873  46.7555315   3.4982010
  56.2976242  40.2774477   9.0489892  56.9228945  39.7336610   9.3219325
  55.8426722  39.7969394   8.4797683  56.3224502  40.1263958   9.0051486
  63.8666863  41.2474456   3.6085097  64.2921934  40.7946982   2.9968624
  63.2523856  40.6934527   3.8849885  63.8395508  41.0988432   3.5590122
  63.0018155  51.9827427   9.2229375  62.9614010  51.3377104   8.6374531
  63.8141473  51.9264044   9.5354787  63.1161309  51.8786394   9.1826324
  58.6895864  45.6124363   5.7779132  58.1774767  45.0045546   6.1364164
  58.5175360  46.3280956   6.2453108  58.5885501  45.6287663   5.8995356
  53.5361579  44.0561939   8.4281494  53.3664169  44.7163313   7.8829701
  53.0927528  44.2668500   9.1493983  53.4460912  44.1847921   8.4543124
  62.5664934  43.5348608   8.2181388  63.1236364  43.3062417   7.5859853
  62.2425999  44.2954274   7.9416600  62.6011344  43.6132445   8.0837885
  50.4363643  46.9608804   3.6869984  49.8890362  46.2909450   3.8050852
  51.2256021  46.5938652   3.7513451  50.4715827  46.8073791   3.7138685
  60.2848051  46.6216261   9.1833395  61.0359378  46.9367938   9.4972949
  60.4770628  46.4195432   8.3567317  60.4239466  46.6383643   9.1076791
  49.1950612  46.1729612   0.8416007  49.0172374  45.7206221   1.5670923
  48.9069635  46.9755773   1.0254485  49.1263566  46.2252170   0.9759510
  60.4274107  38.6652752   6.0529778  60.5602012  37.8683745   6.3810754
  60.8119260  39.1919155   6.6328054  60.5030436  38.6252668   6.1873281
  63.5006462  35.5883078   2.6510872  62.6952426  35.4780807   2.9678710
  63.3713197  35.6895534   1.7940737  63.3626595  35.5866748   2.5718912
  58.0862554  38.6611927   4.3007672  58.6306967  38.3203054   4.8912014
  58.1399489  39.5197388   4.4428957  58.1751673  38.7367186   4.4089546
   1.8087391  59.1090409  36.2489738   1.4940832  59.7993888  36.6810160
   1.2914332  59.0535191  35.5475239   1.6851861  59.2025298  36.2086687
   6.1001836  67.3311615  41.5310614   5.2630257  67.4013802  41.7658209
   6.0690067  67.3336110  40.6584917   5.9720118  67.3421842  41.4370162
   3.7809676  62.3954397  40.1154337   4.4235584  62.4652501  40.7016252
   4.0332696  61.7283620  39.6133879   3.9131808  62.3080745  40.1281616
   6.2191178  67.1699034  35.8466300   5.9627743  66.3578976  35.6564183
   7.0620492  67.1776601  35.6196488   6.3057203  67.0511032  35.7851117
   1.0350896  62.1521237  44.3962581   1.7804488  61.9631048  43.9826007
   0.6188201  62.6779475  43.8376437   1.0835871  62.2023383  44.2527154
   8.4113167  69.5230466  39.3468086   8.9621089  68.8898535  39.5865178
   8.3957283  70.0545859  40.0383590   8.4898364  69.5079414  39.4846944
   2.1141574  67.7626799  38.4572682   1.7706339  67.0417135  38.8079932
   2.2134616  67.5540651  37.6151041   2.0783616  67.6251003  38.3844362
   1.2261926  57.2184431  38.1956388   1.3445495  57.6760894  37.4623690
   1.0524102  56.4129692  37.9092605   1.2181097  57.1678203  38.0457321
   3.2630844  68.1897077  41.0481075   2.8358452  68.1023425  40.2929174
   2.6256897  68.2974852  41.6335919   3.1060451  68.1929737  41.0226516
   3.6995612  61.5969060  37.1639700   3.0869926  62.0839462  37.5493432
   3.7959787  60.9212551  37.7077351   3.6233510  61.5687369  37.3018558
   6.2947506  67.4703742  38.6312165   6.0557276  67.4299576  37.7932950
   6.4581408  68.3174894  38.7577886   6.2837810  67.5895827  38.5265647
   2.5206119  64.4881204  38.2741276   2.8733730  64.0610927  38.9487075
   1.6620921  64.4032048  38.4042352   2.4455564  64.4125945  38.3936286
   3.9530180  59.6099616  39.2025588   3.4461044  58.9028755  39.1346766
   4.7497613  59.2792805  39.3326665   3.9957419  59.4572767  39.2124583
   2.5950902  65.1066165  35.3502411   2.5945128  64.9514822  36.2086687
   2.3907082  65.9529152  35.2943796   2.5650679  65.2086786  35.4690350
   2.4189983  64.1104908  42.1695789   1.8352971  64.6114114  41.7573356
   2.7394277  63.6034464  41.5360112   2.3803158  64.1096743  42.0154296
   4.3686335  46.1228301  21.2136861   4.3380340  46.9772937  21.3855130
   4.9667684  45.8223593  21.7723004   4.4523493  46.2044797  21.3211663
   0.8779737  51.4790477  35.5750247   1.5846504  50.9842508  35.7037182
   1.0667672  51.9199559  34.8452905   1.0107642  51.4708828  35.4859293
   2.1902910  48.6980603  19.4855170   2.0742436  49.4488289  19.9147309
   2.9858796  48.4404556  19.7351258   2.2907499  48.7715450  19.5859262
   1.5038215  36.0468540  23.1829785   1.1891656  36.7372019  23.6150207
   0.9865156  35.9913323  22.4815286   1.3802685  36.1403429  23.1426734
   6.2998701  51.6219346  24.6700240   5.4696405  51.8329989  24.8333656
   6.2507954  50.7956400  24.3942523   6.1705437  51.5308952  24.6537605
   5.7952660  44.2689746  28.4650661   4.9581081  44.3391933  28.6998256
   5.7640891  44.2714241  27.5924964   5.6670942  44.2799973  28.3710209
   0.5182846  48.4645423  24.0562553   1.2740361  48.8976937  24.0951461
   0.6245170  47.8150193  24.6297189   0.6453016  48.4322907  24.1460578
   3.5563017  52.2918700  24.8064956   3.1198249  52.2955443  25.5623927
   3.2225932  52.9724199  24.3744533   3.4425637  52.3931156  24.8545788
   3.4760500  39.3332528  27.0494384   4.1186408  39.4030633  27.6356299
   3.7283520  38.6661751  26.5473926   3.6082632  39.2458877  27.0621663
   6.6907363  49.0099620  23.6984593   7.3523797  48.4490289  23.5980501
   6.0498775  48.5151651  24.0237284   6.6936230  48.8536029  23.7316933
   2.9772194  50.0265002  23.4396582   3.2127783  50.1710201  22.6123432
   3.1261757  50.7907410  23.8328095   3.0337997  50.1604057  23.3760186
   4.8062650  48.8666668  21.2766185   5.1370867  49.3994309  20.6706280
   5.3795738  48.9205556  21.9328136   4.9396329  48.9536237  21.2843967
   5.9142002  44.1077165  22.7806347   5.6578567  43.2957107  22.5904230
   6.7571316  44.1154732  22.5536534   6.0008027  43.9889163  22.7191164
   3.5967161  51.2626761  32.6164900   3.3605799  50.4314826  32.4976960
   4.2410390  51.2112368  33.2019744   3.6561832  51.1324449  32.6850793
   4.6203582  51.0471210  28.6793194   4.3149399  51.7799267  29.0406510
   3.9009797  50.6409140  28.3985980   4.4690924  51.0952943  28.6906331
  10.3205374  47.6864211  28.0061538  10.2529874  47.7060170  27.1364125
  10.3061036  48.5294538  28.2317209  10.3084130  47.8137945  27.9114015
   8.1063991  46.4608597  26.2808133   8.6571913  45.8276666  26.5205225
   8.0908107  46.9923990  26.9723637   8.1849188  46.4457545  26.4186991
   1.8092397  44.7004931  25.3912729   1.4657163  43.9795266  25.7419979
   1.9085440  44.4918782  24.5491087   1.7734440  44.5629134  25.3184409
   2.2705427  51.1630635  20.9336717   2.8363459  51.8223845  20.8495260
   1.6233330  51.5080333  21.4053119   2.2584183  51.3112576  20.9909474
   4.2040887  47.8264502  24.5533514   4.1174861  47.9819928  25.4068293
   3.7491367  48.4702578  24.1792919   4.1244143  47.9440257  24.6240621
   1.9714752  51.8558609  26.9645855   1.8329111  52.5539654  27.4694597
   1.1914749  51.7007265  26.6082036   1.8357978  51.9358775  26.9872129
   3.4668124  51.2136862  17.7262354   3.0874933  50.4274000  17.7191643
   2.8034370  51.7623719  17.5833998   3.3126599  51.1781686  17.7043151
   0.9212750  34.1562562  25.1296435   1.0396318  34.6139025  24.3963737
   0.7474926  33.3507823  24.8432652   0.9131921  34.1056334  24.9797368
   1.7128223  53.4582353  18.0614040   1.7948061  54.2649340  17.7375490
   2.1977965  53.4778313  18.7854813   1.7965381  53.5803016  18.1200938
   1.2203423  52.2179772  38.1432365   2.0338289  51.9464921  38.3037498
   1.0598390  51.9187312  37.3392561   1.3173372  52.1334698  38.0477771
   1.2324667  53.2786062  33.4155206   1.8704388  52.7846258  33.0817662
   0.5898759  53.2063462  32.8307433   1.2318894  53.1945070  33.2797561
   2.9581668  45.1275208  27.9821122   2.5309276  45.0401556  27.2269221
   2.3207721  45.2352983  28.5675966   2.8011275  45.1307868  27.9566563
   1.2878924  53.9705870  30.0560563   2.0771302  53.6194935  30.1762644
   1.4622522  54.7842259  29.7937197   1.4299206  54.0391727  30.0348431
   3.3946436  38.5347191  24.0979747   2.7820750  39.0217593  24.4833478
   3.4910611  37.8590682  24.6417398   3.3184334  38.5065500  24.2358605
   7.0371464  49.6064128  29.5257263   7.0954588  50.0550777  30.2717239
   6.4037932  50.0162941  29.0887343   6.9522759  49.7337863  29.5709811
   3.9893143  47.6280416  27.6122953   3.7491366  46.7886831  27.6165380
   4.4685151  47.7080582  28.3363727   4.0245327  47.5161815  27.7197755
   5.9898330  44.4081873  25.5652212   5.7508100  44.3677707  24.7272997
   6.1532232  45.2553025  25.6917933   5.9788634  44.5273958  25.4605694
   2.5944361  48.7931822  31.4957257   3.3178559  48.3404349  31.3168277
   2.3294323  49.0736488  30.7129585   2.6625634  48.7682791  31.3535973
   5.0279675  47.7558233  29.9987807   5.6197515  48.3955484  30.0306005
   5.4638669  47.0581270  30.2879874   5.1798106  47.7476583  30.0468640
   2.0528816  44.9703452  22.2990950   1.3820006  45.5133154  22.1704015
   2.7468566  45.4398307  22.0572644   2.0557683  45.1201723  22.2446477
   2.2156943  41.4259335  25.2081323   2.5684553  40.9989058  25.8827122
   1.3571745  41.3410179  25.3382399   2.1406388  41.3504076  25.3276333
   3.6481003  36.5477747  26.1365635   3.1411868  35.8406887  26.0686813
   4.4448437  36.2170936  26.2666712   3.6908243  36.3950898  26.1464630
   5.8501143  51.0642674  19.1206500   6.2334749  51.8134030  19.3504597
   5.0545257  51.3108493  18.8618489   5.7894926  51.2112368  19.1164073
   2.2901725  42.0444297  22.2842457   2.2895952  41.8892953  23.1426734
   2.0857906  42.8907284  22.2283843   2.2601503  42.1464917  22.4030397
   2.0794396  49.4745486  28.6255793   2.5049468  48.9519908  28.0726218
   1.7151316  50.0726323  28.1044416   2.0880999  49.4855713  28.4664803
   0.7549980  54.7981064  37.1349023   0.8646946  54.0089624  37.4905770
   1.0840877  54.7087000  36.3323361   0.8202386  54.6686916  37.0691413
   2.1140807  41.0483039  29.1035835   1.5303795  41.5492245  28.6913403
   2.4345101  40.5412595  28.4700159   2.0753982  41.0474874  28.9494343
  15.3418919  61.6413609  21.2136861  15.3112923  62.4958245  21.3855130
  15.9400268  61.3408901  21.7723004  15.4256077  61.7230105  21.3211663
   8.5418604  60.7289260  25.9689791   7.6856499  60.8897758  26.0198908
   8.5886257  59.8581324  25.9894852   8.4217715  60.6240062  25.9795857
  11.8512320  66.9975785  35.5750247  12.5579088  66.5027816  35.7037182
  12.0400256  67.4384867  34.8452905  11.9840226  66.9894136  35.4859293
  11.3870425  62.7881304  28.6121443  11.9326385  63.4666390  28.6715412
  11.3287301  62.6468765  27.7523024  11.4586339  62.8673305  28.4933503
  13.1635493  64.2165911  19.4855170  13.0475019  64.9673597  19.9147309
  13.9591380  63.9589864  19.7351258  13.2640083  64.2900758  19.5859262
   7.0967527  60.2075929  20.8558900   7.7947692  60.3864056  21.3480363
   7.4119859  59.6846268  20.2329289   7.2462864  60.1569701  20.8360910
   7.2855462  66.5946374  20.8438691   7.7249098  65.9863474  21.2893464
   7.1360125  66.2153747  20.0724156   7.3276928  66.4484845  20.7957858
   4.7527105  65.1890386  28.0457517   5.3976108  64.6962829  27.7268465
   4.9928882  65.3315172  28.8723595   4.8837690  65.1367828  28.1207050
   7.2913197  68.0345291  27.6964409   7.5736440  67.2396697  27.4751165
   8.0199357  68.5125879  27.7169470   7.4402760  67.9879888  27.6667424
   5.2694391  55.5768325  24.9380174   4.9397721  56.0279469  24.2683873
   4.5939392  55.4984489  25.4853181   5.1204827  55.6319461  24.9203398
  10.8864799  64.9473555  17.7969460  10.8016094  65.8034522  17.9419029
  11.3749182  64.6717879  18.4651619  10.9453696  65.0330876  17.9171542
  12.4770798  51.5653848  23.1829785  12.1624239  52.2557327  23.6150207
  11.9597740  51.5098631  22.4815286  12.3535269  51.6588737  23.1426734
  11.8183232  61.5658349  19.2967195  11.2894704  61.7817983  19.9564502
  12.3408252  62.2594488  19.2168165  11.8171685  61.7001486  19.3822795
  17.2731285  67.1404654  24.6700240  16.4428988  67.3515297  24.8333656
  17.2240537  66.3141708  24.3942523  17.1438020  67.0494260  24.6537605
   8.9904615  70.4203322  33.4664322   9.0787960  70.2329462  34.3142533
   9.4194327  69.7740751  33.0669169   9.0666717  70.2966330  33.5336074
   8.1660054  61.7087218  16.5743584   8.4056058  61.9165202  15.7618927
   8.4875895  60.9044727  16.6832529   8.2497212  61.6201319  16.4704137
   3.4750345  53.6380614  20.4203122   4.2296313  54.0058931  20.1820172
   3.2977879  54.0120168  21.1882302   3.5604823  53.7478802  20.4988010
  16.7685243  59.7875054  28.4650661  15.9313664  59.8577241  28.6998256
  16.7373474  59.7899549  27.5924964  16.6403526  59.7985281  28.3710209
   3.1649972  61.9308090  34.1799030   3.3370476  61.8213985  35.0284311
   3.7019330  62.5762495  33.9430222   3.2694976  62.0100092  34.2704127
   1.8307409  56.0450933  17.1181235   1.6482982  56.2622814  16.2922228
   2.6933022  56.1589945  17.1739849   1.9311999  56.0940831  17.0035722
   7.5107128  53.0477343  20.1530259   8.2393289  52.8693298  19.7068415
   7.6002021  53.8895423  20.3637437   7.6313791  53.1461222  20.1183776
  11.4915429  63.9830731  24.0562553  12.2472944  64.4162245  24.0951461
  11.5977754  63.3335501  24.6297189  11.6185600  63.9508215  24.1460578
  14.5295600  67.8104008  24.8064956  14.0930832  67.8140750  25.5623927
  14.1958516  68.4909507  24.3744533  14.4158220  67.9116464  24.8545788
   9.1024674  69.8512341  36.1308106   9.8865090  69.9643189  36.4963848
   8.9021268  69.0253478  36.3266792   9.1890699  69.7459060  36.2142492
  14.4493083  54.8517836  27.0494384  15.0918992  54.9215941  27.6356299
  14.7016104  54.1847059  26.5473926  14.5815215  54.7644185  27.0621663
   2.2210296  58.0618399  31.6618958   1.5282092  57.5915379  31.9079689
   2.8370623  57.8356704  32.2360665   2.2094826  57.9585531  31.7828110
  17.6639946  64.5284928  23.6984593  18.3256381  63.9675596  23.5980501
  17.0231358  64.0336959  24.0237284  17.6668814  64.3721337  23.7316933
  13.9504777  65.5450310  23.4396582  14.1860366  65.6895509  22.6123432
  14.0994341  66.3092718  23.8328095  14.0070580  65.6789365  23.3760186
   0.9450855  62.0283803  32.8045803   1.6690827  62.0136834  33.2910698
   1.0466991  62.7379159  32.3067771   1.0669064  62.1308506  32.8024590
  15.7795234  64.3851976  21.2766185  16.1103451  64.9179616  20.6706280
  16.3528322  64.4390864  21.9328136  15.9128913  64.4721545  21.2843967
   8.3195804  65.5082888  37.6694750   7.5268785  65.8226400  37.8547369
   8.4344731  65.7234356  36.8315534   8.2191215  65.5866725  37.5733085
  10.9927123  62.2316879  21.9589766  11.0873977  62.9706173  22.4129391
  10.3685967  61.8034354  22.3924330  10.9136153  62.2778200  22.0897913
   9.2479597  65.4103092  32.6080046   9.8218459  64.7730336  32.7628610
   9.1694401  65.4107174  31.7389704   9.3212832  65.3168203  32.5026457
  11.2450144  64.0765619  15.1926718  11.1630307  64.1467806  16.0581705
  11.8829865  64.6395363  15.0010458  11.3269982  64.1704590  15.2916667
   4.6043315  63.8426357  24.6601244   4.3462560  63.0098092  24.6332543
   4.6591798  64.0683970  23.8193744   4.5743093  63.7524128  24.5321381
   9.6844366  55.9454807  24.7605337   8.9800692  55.4563993  24.9189256
   9.7329340  55.9577282  23.8893781   9.5874417  55.8744455  24.6544676
   3.5778028  61.3964119  25.1466139   3.0027619  61.5556288  25.7830100
   3.2013704  60.7599528  24.6834589   3.4380840  61.3261932  25.1720697
   7.2451316  59.8687469  30.0058517   6.8565749  59.4441686  29.3510708
   6.5806015  60.1169618  30.5135544   7.0898244  59.8426190  29.9846385
  16.8874585  59.6262473  22.7806347  16.6311150  58.8142415  22.5904230
  17.7303899  59.6340040  22.5536534  16.9740611  59.5074471  22.7191164
  11.0677678  53.5662097  27.5182501  11.4488190  52.8840268  27.9050376
  10.2640962  53.2771699  27.3358166  11.0054140  53.4229146  27.5486557
   8.3490255  64.0986073  18.2035324   9.1630893  64.3900966  18.0918095
   8.2849396  63.4445935  17.6293617   8.4592994  64.0451268  18.1024161
  14.5699745  66.7812069  32.6164900  14.3338382  65.9500134  32.4976960
  15.2142974  66.7297676  33.2019744  14.6294415  66.6509757  32.6850793
   4.2198163  67.5707591  23.3307636   4.8572110  67.3319338  23.8759430
   4.6453234  67.7744749  22.5960797   4.3774329  67.5658601  23.3024793
   5.0269518  56.0716296  37.3845110   4.7122959  56.8415858  37.1214672
   4.7059451  55.5086552  36.7997337   4.9328437  56.1026564  37.2586460
  15.5936165  66.5656518  28.6793194  15.2881982  67.2984575  29.0406510
  14.8742381  66.1594447  28.3985980  15.4423508  66.6138251  28.6906331
   6.6019635  68.0480013  25.0101422   6.6758643  67.8855185  25.8643272
   7.4189141  68.2370203  24.7661904   6.7335993  68.0516756  25.0999448
  21.2937957  63.2049519  28.0061538  21.2262458  63.2245478  27.1364125
  21.2793620  64.0479846  28.2317209  21.2816714  63.3323253  27.9114015
   2.5801415  54.4606817  22.9991306   1.7123841  54.5329416  23.0648915
   2.8676620  55.2628896  23.1879281   2.4941163  54.5900964  23.0366073
  11.7034304  54.6084676  31.3302628  12.4487896  54.4194487  30.9166053
  11.2871609  55.1342914  30.7716484  11.7519278  54.6586822  31.1867201
  19.0796575  61.9793905  26.2808133  19.6304496  61.3461974  26.5205225
  19.0640690  62.5109298  26.9723637  19.1581771  61.9642853  26.4186991
   5.7318966  65.8132502  30.8268026   5.2330659  66.5248270  30.9052915
   6.5419190  66.1333169  30.7886189   5.7775072  65.9659351  30.8324595
   1.9947083  65.0755455  25.0730747   1.7060332  64.4492926  25.6076475
   2.8630431  65.0175743  25.1395428   2.0807335  64.9742999  25.1621702
  12.7824981  60.2190239  25.3912729  12.4389747  59.4980574  25.7419979
  12.8818024  60.0104090  24.5491087  12.7467024  60.0814442  25.3184409
  13.2438010  66.6815943  20.9336717  13.8096043  67.3409152  20.8495260
  12.5965914  67.0265641  21.4053119  13.2316767  66.8297884  20.9909474
   4.6586024  58.6713547  36.1230325   3.8485799  58.9771326  36.0120167
   5.1360710  59.3919129  36.2382909   4.6089502  58.8228148  36.1237396
   3.5177583  67.8859268  26.3713228   2.9958337  68.0259559  27.0565092
   3.9051604  67.1269932  26.5615345   3.4981284  67.7944791  26.5014304
   9.7144588  69.6254727  20.3573796   9.4731264  68.8922587  19.9500861
   9.8945921  70.1741584  19.7040130   9.7052212  69.5977118  20.2004019
   4.9443909  64.9163287  21.7694719   4.7486691  65.5238021  21.1755022
   5.1678254  64.2231231  21.2886393   4.9478550  64.9040812  21.6110800
   3.3422439  61.8018025  21.8875587   4.0645091  61.9659183  21.4279393
   2.8630432  62.5227689  21.7814927   3.3786170  61.9316254  21.8041201
  11.3015946  58.1381823  27.2672272  10.4627047  58.1643102  27.0310535
  11.3720314  58.7852559  27.8477619  11.1884340  58.2377949  27.3181389
   0.9930056  64.2076097  30.9929727   1.5051152  64.4860350  30.3438487
   0.7066398  64.9465391  31.3592540   1.0264919  64.3578451  30.9519605
   9.7485225  55.0367200  21.9999888  10.4511578  54.8374949  21.5219846
   9.4829413  54.2643143  22.3068731   9.8131857  54.8930166  21.9745329
  15.1773470  63.3449810  24.5533514  15.0907445  63.5005236  25.4068293
  14.7223950  63.9887886  24.1792919  15.0976727  63.4625565  24.6240621
   4.5113781  56.3002486  31.0530769   4.3196978  56.3157620  31.9030192
   5.3612377  56.4966160  31.0297423   4.6089503  56.3316837  31.1754063
   9.0499286  60.6660557  23.1759073   8.8034001  60.5856308  24.0095862
   9.3784409  59.8814025  22.9821601   9.0620530  60.5386823  23.2706596
  12.9447335  67.3743917  26.9645855  12.8061694  68.0724962  27.4694597
  12.1647333  67.2192573  26.6082036  12.8090562  67.4544083  26.9872129
  11.2825420  63.6740292  33.2168236  11.2773459  62.8020108  33.2210663
  11.9886414  63.8728461  32.7437692  11.3870424  63.5744166  33.1475272
   5.0096314  63.4017276  32.5882056   5.1539689  63.9818484  31.9525166
   5.3571962  63.7793572  33.2931911   5.0823775  63.5437980  32.5981051
   7.1816231  62.6007444  30.3707188   6.4339545  62.7938459  29.9655466
   7.3357756  61.7752664  30.1331309   7.0938659  62.5072556  30.2752594
  14.4400708  66.7322170  17.7262354  14.0607517  65.9459308  17.7191643
  13.7766953  67.2809027  17.5833998  14.2859183  66.6966994  17.7043151
   7.4218008  56.4957995  31.2602592   7.8790622  57.2281969  31.3875384
   7.4974337  56.0724460  32.0189847   7.5008978  56.5415233  31.3903668
  11.8945334  49.6747870  25.1296435  12.0128902  50.1324333  24.3963737
  11.7207510  48.8693131  24.8432652  11.8864505  49.6241642  24.9797368
   5.3000386  58.4860099  28.1044416   4.5096461  58.3051559  28.4261751
   5.6961009  57.7087051  28.0874710   5.2417262  58.3447560  28.1496964
  10.6844072  66.1202529  25.8303862  10.0089074  65.8887761  26.3317249
  10.6936448  65.5123712  25.2045967  10.5862577  65.9961454  25.8120014
   7.8138216  60.9620358  32.5867915   7.7497357  61.8230314  32.4588051
   7.9535404  60.6452351  31.7863466   7.8253686  61.0420525  32.4496127
  12.6860807  68.9767661  18.0614040  12.7680644  69.7834648  17.7375490
  13.1710549  68.9963621  18.7854813  12.7697965  69.0988324  18.1200938
   6.4957310  63.6552497  26.7284117   6.0719559  63.8556996  25.9923136
   6.3202165  62.8081345  26.8408417   6.4068191  63.5601279  26.6357808
   1.7839755  64.1504549  22.1612090   1.9404374  64.0851351  23.0168082
   2.1240348  64.9253101  21.9490770   1.8572990  64.2553747  22.2566684
   8.3218900  63.5262432  21.0305453   8.8634445  63.0232813  21.4944074
   8.6365459  63.4727627  20.2194939   8.4483297  63.4441853  20.9789265
  12.1936007  67.7365080  38.1432365  13.0070872  67.4650228  38.3037498
  12.0330973  67.4372620  37.3392561  12.2905956  67.6520006  38.0477771
   9.4708169  58.4198737  31.0827754   9.6850139  57.7809651  30.5291108
   8.8542068  58.8644561  30.6535615   9.4113498  58.3908880  30.9378185
  11.6347257  60.0287802  32.0211061  10.8223939  59.7213692  32.1024234
  12.0937192  59.5486802  32.5853773  11.5827642  59.9124294  32.1165655
  11.0452512  67.9067474  22.4688005  10.6867166  68.0782117  23.2452038
  10.5591222  68.3680680  21.9116004  10.9211209  68.0006445  22.5013274
   8.8622898  51.5298672  26.0715097   7.9916456  51.5037394  26.0248406
   9.1163239  51.3575865  25.2540942   8.7716458  51.5008816  25.9435233
   8.7300765  61.4347873  36.8039763   9.2000396  62.0589990  37.1907637
   8.7762645  60.7664849  37.3632978   8.8068640  61.4282554  36.9439835
   5.8872038  53.5404901  27.5288567   5.3710527  52.8485092  27.6540146
   5.3265967  54.2075678  27.4751166   5.7278551  53.5368158  27.5394633
   7.9564272  54.0797861  29.3581419   7.5696025  54.1046892  30.1394949
   7.4697209  53.5139540  28.9055936   7.8276781  53.9993612  29.4069323
  12.2057251  68.7971370  33.4155206  12.8436972  68.3031566  33.0817662
  11.5631343  68.7248770  32.8307433  12.2051478  68.7130378  33.2797561
  13.9314251  60.6460516  27.9821122  13.5041859  60.5586864  27.2269221
  13.2940304  60.7538291  28.5675966  13.7743858  60.6493176  27.9566563
   7.6221413  50.9664846  31.6491679   8.2514531  51.5025146  31.3712750
   7.7907276  50.8742205  32.5005245   7.7399208  51.0326209  31.7340207
   7.4235328  55.7536041  33.9218091   8.2508758  55.4821190  33.9776705
   7.4443174  56.5496883  34.2781909   7.5488178  55.8315795  33.9833274
  12.2611508  69.4891178  30.0560563  13.0503886  69.1380243  30.1762644
  12.4355105  70.3027567  29.7937197  12.4031789  69.5577035  30.0348431
   2.0004818  62.8999904  27.1088352   1.1592825  62.8003778  27.3167245
   2.2094826  63.6695384  27.4602672   1.9069511  62.9991947  27.1915667
  11.1145332  53.5000735  24.6176981  11.3194925  53.4323043  25.4633978
  10.7871756  54.3059556  24.5498159  11.0960580  53.6086675  24.7336636
   5.8121483  60.8281303  26.3585949   5.5084620  60.2737291  26.9596357
   5.1100904  61.0073513  25.8713983   5.6637693  60.7726085  26.3755655
   4.8687580  58.1381823  20.9230651   5.1447314  57.4200735  20.5108219
   5.4686249  58.7366743  20.7151757   4.9980845  58.1202194  20.8311412
  14.3679020  54.0532499  24.0979747  13.7553333  54.5402901  24.4833478
  14.4643194  53.3775990  24.6417398  14.2916917  54.0250808  24.2358605
   8.3698101  55.8095340  19.1977246   8.8241847  55.9805901  19.9225091
   8.8438146  55.1963451  18.7975022   8.5066421  55.7446225  19.2451008
   1.8913626  65.2943666  28.5279985   1.3001559  65.9353164  28.4983000
   2.6534650  65.7181283  28.5011284   1.9161887  65.4519505  28.5195132
   2.2874249  56.4545664  29.1948002   2.7475730  56.5284593  29.9323126
   2.3330355  57.2526918  28.8447823   2.3624804  56.5839811  29.2520759
   3.9357598  57.1212359  33.7620029   3.5443164  56.4745706  34.1975807
   4.1043461  57.7123794  34.3814285   3.9028509  57.1126627  33.9182735
  18.0104048  65.1249436  29.5257263  18.0687171  65.5736085  30.2717239
  17.3770515  65.5348249  29.0887343  17.9255343  65.2523171  29.5709811
  11.6503142  70.7452978  25.9612009  11.4522831  71.2343792  25.2668220
  11.0290853  70.9494219  26.5396142  11.5290707  70.8469516  25.9435232
   5.7111121  62.5137875  20.3022253   6.4553165  62.9012151  20.5405203
   5.8571817  61.6695300  20.4662741   5.8421706  62.4468347  20.3616223
   7.6290696  54.3088134  25.3354115   6.7826741  54.4810941  25.2095464
   7.6261828  53.5037477  25.6719943   7.5037846  54.2149162  25.3665242
   8.6988996  58.0863348  26.2016173   8.2248951  57.5605110  26.7121484
   9.0707132  57.5392821  25.6331034   8.6838885  57.9279345  26.1931320
  14.9625727  63.1465724  27.6122953  14.7223950  62.3072139  27.6165380
  15.4417734  63.2265890  28.3363727  14.9977911  63.0347123  27.7197755
  10.6272496  58.9799903  19.2641926  10.0995515  59.0628646  18.5747635
  11.0868204  59.7217774  19.2606571  10.6174347  59.1020565  19.1616622
  16.9630914  59.9267181  25.5652212  16.7240684  59.8863015  24.7272997
  17.1264815  60.7738333  25.6917933  16.9521217  60.0459266  25.4605694
  13.5676944  64.3117130  31.4957257  14.2911143  63.8589657  31.3168277
  13.3026906  64.5921796  30.7129585  13.6358217  64.2868099  31.3535973
   2.4363813  58.9077304  28.2310137   1.8116883  58.9195696  27.6236089
   2.1009407  59.3837479  28.8801377   2.2949304  58.9795821  28.2366705
  10.1809579  67.5503466  18.3951583  10.9043777  68.0161579  18.2516157
   9.7410170  67.6177076  17.6449180  10.2225271  67.6287303  18.2636365
   9.3495734  64.4101008  29.6452272   8.7352727  63.8659059  29.9400908
   9.8663019  63.8965245  29.1658089   9.3351396  64.2537417  29.6176501
   8.5892031  65.4805278  27.3796571   8.1619639  64.8554997  26.9462006
   8.5816975  65.1980200  28.2055578   8.5251172  65.3458059  27.4376399
   1.7054558  60.5170451  30.4485005   1.8648045  59.7613776  30.8536727
   1.5247451  61.0661391  31.1025743   1.7019917  60.4864265  30.6047711
   9.6474861  52.6831687  31.0035795   9.1515422  52.8795361  30.3127361
  10.4043923  53.0824355  30.8324596   9.6861686  52.7709421  30.8755931
   6.9177740  56.3574033  27.5939105   6.9420228  55.8234145  26.9051885
   7.1689214  55.8491342  28.2564696   6.9587659  56.2034937  27.5903750
   5.3808676  64.6505591  35.0765144   4.5304306  64.7877305  35.2122789
   5.5436803  63.9169369  35.5212846   5.2792539  64.5619692  35.1620743
   4.6193426  61.6005361  29.2718748   3.7885356  61.7679179  29.0653996
   4.5644943  61.2241312  30.0567634   4.4882841  61.5695092  29.3567277
   2.4277209  55.0914254  34.9075159   3.0529913  54.5476387  35.1804591
   1.9727689  54.6109171  34.3382949   2.4525470  54.9403735  34.8636753
   2.9929470  59.8760953  19.8008866   3.1332431  60.3733417  20.5037507
   3.4912003  59.1747247  19.9423080   3.0870551  59.8462931  19.9260445
  16.0012258  63.2743541  29.9987807  16.5930098  63.9140792  30.0306005
  16.4371253  62.5766578  30.2879874  16.1530689  63.2661891  30.0468640
   4.6008675  56.6742039  17.1046885   4.9224516  56.1945121  16.4506147
   4.8635619  57.4841685  16.9137697   4.6874701  56.7231937  16.9802377
   7.8305648  67.6960913  30.6245701   7.3230739  68.2496760  31.0686331
   7.5332294  67.7569203  29.8064476   7.7110533  67.7867224  30.5694158
   9.9967830  56.0614233  29.4670364  10.4222902  55.6086759  28.8553890
   9.3824823  55.5074304  29.7435151   9.9696476  55.9128209  29.4175389
   8.4362053  52.5329333  22.8760941   7.7930371  52.3826979  23.4446079
   8.0961460  52.2871678  22.1110046   8.2907130  52.4741455  22.8463956
  13.0261399  60.4888760  22.2990950  12.3552589  61.0318462  22.1704015
  13.7201150  60.9583615  22.0572644  13.0290267  60.6387031  22.2446477
  13.1889527  56.9444643  25.2081323  13.5417137  56.5174366  25.8827122
  12.3304328  56.8595487  25.3382399  13.1138972  56.8689384  25.3276333
   1.8873212  59.5752163  23.2664169   1.1685201  59.9916295  23.5337033
   2.2585574  60.1406402  22.7155807   1.8365144  59.7201444  23.2246976
  11.1872793  60.2080012  29.1566165  11.1670720  60.0263307  30.0100944
  11.2351993  61.0792030  29.1325749  11.1907434  60.3096550  29.2789460
   9.1319123  66.7967204  35.0814642   9.0914977  66.1516881  34.4959797
   9.9442441  66.7403821  35.3940054   9.2462276  66.6926171  35.0411591
   7.6619786  58.6150163  18.6037549   7.0684626  58.9367159  18.0522116
   7.6995064  57.7691258  18.3958655   7.5794175  58.5374491  18.4920320
  14.6213587  52.0663055  26.1365635  14.1144452  51.3592195  26.0686813
  15.4181021  51.7356244  26.2666712  14.6640826  51.9136206  26.1464630
  10.5377603  58.5729667  22.0339299  10.3091296  58.5962369  21.1917657
  10.7975679  57.7487134  22.1534310  10.5423791  58.4545747  21.9264497
   4.8196831  60.4264140  31.6364399   4.3075734  59.8185323  31.9949431
   4.6476327  61.1420733  32.1038375   4.7186468  60.4427440  31.7580623
   3.5922365  57.1106214  23.3293495   4.0679732  57.4723293  22.6943676
   3.0910965  57.7662681  23.6093637   3.5887724  57.2600402  23.2770236
  16.8233727  66.5827982  19.1206500  17.2067333  67.3319338  19.3504597
  16.0277840  66.8293801  18.8618489  16.7627509  66.7297675  19.1164073
   8.6965902  58.3488385  34.0766655   9.2537332  58.1202194  33.4445120
   8.3726967  59.1094051  33.8001867   8.7312312  58.4272222  33.9423152
   6.4149019  61.4356038  35.0418662   7.1660346  61.7507715  35.3558216
   6.6071595  61.2335209  34.2152584   6.5540433  61.4523420  34.9662058
   5.6349019  59.2547413  16.6966879   6.0147983  59.2727043  15.9117993
   4.8941615  59.7001402  16.5757726   5.5817856  59.3229188  16.5630447
  13.2634309  57.5629605  22.2842457  13.2628535  57.4078261  23.1426734
  13.0590489  58.4092592  22.2283843  13.2334087  57.6650225  22.4030397
  10.9875161  62.2427106  25.9378664  11.4828826  61.5250101  25.8982684
  10.1774937  61.9397904  25.8233151  10.9419054  62.0924753  25.9152390
  13.0526980  64.9930794  28.6255793  13.4782052  64.4705216  28.0726218
  12.6883900  65.5911631  28.1044416  13.0613583  65.0041021  28.4664803
   9.6405579  68.7065058  24.9556950  10.1116758  69.4205321  25.1246936
   9.9765758  68.1063808  25.4916820   9.7600694  68.7236522  25.0589326
  11.7282564  70.3166371  37.1349023  11.8379529  69.5274932  37.4905770
  12.0573461  70.2272308  36.3323361  11.7934970  70.1872224  37.0691413
   6.5575074  53.4792529  31.9115045   6.6902980  52.6823522  32.2396021
   6.9420227  54.0058932  32.4913321   6.6331403  53.4392445  32.0458548
  10.2779526  68.4982992  31.7184643   9.7300472  67.8740876  31.4504708
  10.7392554  68.6877264  31.0028722  10.2646735  68.4342042  31.5735074
   9.6307430  50.4022855  28.5096138   8.8253393  50.2920584  28.8263977
   9.5014165  50.5035311  27.6526004   9.4927562  50.4006525  28.4304179
  13.0873390  56.5668347  29.1035835  12.5036379  57.0677553  28.6913403
  13.4077684  56.0597903  28.4700159  13.0486565  56.5660182  28.9494343
   5.6268189  55.4808942  19.3794510   6.4483884  55.6507254  19.1376205
   5.1637840  55.6356203  18.6560808   5.6799351  55.5290675  19.2366154
   4.2163521  53.4751704  30.1592939   4.7607934  53.1342831  30.7497281
   4.2700457  54.3337165  30.3014224   4.3052641  53.5506963  30.2674812
   9.8437852  69.5034065  28.2493984  10.6636226  69.3597031  28.5110279
   9.5631930  70.1280264  28.7910422   9.9234595  69.5744417  28.3681924
  16.2426974  71.0953633  24.9380174  15.9130304  71.5464777  24.2683873
  15.5671976  71.0169797  25.4853181  16.0937410  71.1504769  24.9203398
  23.4503382  67.0839156  23.1829785  23.1356823  67.7742635  23.6150207
  22.9330324  67.0283938  22.4815286  23.3267852  67.1774045  23.1426734
  14.4482928  69.1565922  20.4203122  15.2028896  69.5244239  20.1820172
  14.2710463  69.5305476  21.1882302  14.5337407  69.2664110  20.4988010
  27.7417827  75.3060362  28.4650661  26.9046248  75.3762549  28.6998256
  27.7106058  75.3084857  27.5924964  27.6136109  75.3170589  28.3710209
  12.8039993  71.5636241  17.1181235  12.6215566  71.7808122  16.2922228
  13.6665606  71.6775253  17.1739849  12.9044582  71.6126139  17.0035722
  18.4839712  68.5662651  20.1530259  19.2125872  68.3878606  19.7068415
  18.5734605  69.4080731  20.3637437  18.6046374  68.6646530  20.1183776
  25.4225667  70.3703144  27.0494384  26.0651575  70.4401248  27.6356299
  25.6748687  69.7032367  26.5473926  25.5547799  70.2829492  27.0621663
  20.6576949  71.4640115  24.7605337  19.9533276  70.9749301  24.9189256
  20.7061924  71.4762590  23.8893781  20.5607001  71.3929763  24.6544676
  27.8607169  75.1447781  22.7806347  27.6043734  74.3327723  22.5904230
  28.7036483  75.1525348  22.5536534  27.9473194  75.0259779  22.7191164
  22.0410261  69.0847405  27.5182501  22.4220773  68.4025576  27.9050376
  21.2373546  68.7957007  27.3358166  21.9786723  68.9414454  27.5486557
  16.0002102  71.5901603  37.3845110  15.6855543  72.3601166  37.1214672
  15.6792034  71.0271859  36.7997337  15.9061021  71.6211872  37.2586460
  13.5533999  69.9792125  22.9991306  12.6856424  70.0514724  23.0648915
  13.8409203  70.7814204  23.1879281  13.4673747  70.1086272  23.0366073
  22.6766888  70.1269984  31.3302628  23.4220480  69.9379795  30.9166053
  22.2604192  70.6528222  30.7716484  22.7251862  70.1772130  31.1867201
  23.7557565  75.7375546  25.3912729  23.4122330  75.0165882  25.7419979
  23.8550607  75.5289398  24.5491087  23.7199607  75.5999750  25.3184409
  22.2748530  73.6567131  27.2672272  21.4359631  73.6828410  27.0310535
  22.3452897  74.3037867  27.8477619  22.1616923  73.7563257  27.3181389
  20.7217808  70.5552508  21.9999888  21.4244161  70.3560257  21.5219846
  20.4561997  69.7828451  22.3068731  20.7864441  70.4115474  21.9745329
  15.4846365  71.8187793  31.0530769  15.2929562  71.8342928  31.9030192
  16.3344960  72.0151468  31.0297423  15.5822086  71.8502145  31.1754063
  18.3950592  72.0143303  31.2602592  18.8523206  72.7467277  31.3875384
  18.4706920  71.5909768  32.0189847  18.4741561  72.0600541  31.3903668
  22.8677917  65.1933178  25.1296435  22.9861486  65.6509641  24.3963737
  22.6940093  64.3878439  24.8432652  22.8597088  65.1426950  24.9797368
  20.4440753  73.9384045  31.0827754  20.6582722  73.2994959  30.5291108
  19.8274652  74.3829869  30.6535615  20.3846082  73.9094188  30.9378185
  19.8355481  67.0483980  26.0715097  18.9649039  67.0222701  26.0248406
  20.0895823  66.8761173  25.2540942  19.7449041  67.0194124  25.9435233
  16.8604622  69.0590209  27.5288567  16.3443110  68.3670400  27.6540146
  16.2998551  69.7260986  27.4751166  16.7011135  69.0553466  27.5394633
  18.9296855  69.5983169  29.3581419  18.5428608  69.6232200  30.1394949
  18.4429792  69.0324847  28.9055936  18.8009364  69.5178920  29.4069323
  18.5953997  66.4850154  31.6491679  19.2247115  67.0210454  31.3712750
  18.7639860  66.3927513  32.5005245  18.7131791  66.5511517  31.7340207
  18.3967912  71.2721349  33.9218091  19.2241341  71.0006498  33.9776705
  18.4175758  72.0682191  34.2781909  18.5220762  71.3501103  33.9833274
  22.0877915  69.0186043  24.6176981  22.2927509  68.9508351  25.4633978
  21.7604339  69.8244864  24.5498159  22.0693163  69.1271983  24.7336636
  25.3411603  69.5717807  24.0979747  24.7285917  70.0588209  24.4833478
  25.4375778  68.8961298  24.6417398  25.2649501  69.5436116  24.2358605
  19.3430684  71.3280648  19.1977246  19.7974431  71.4991209  19.9225091
  19.8170730  70.7148759  18.7975022  19.4799004  71.2631533  19.2451008
  18.6023280  69.8273441  25.3354115  17.7559325  69.9996249  25.2095464
  18.5994412  69.0222785  25.6719943  18.4770429  69.7334470  25.3665242
  19.6721580  73.6048656  26.2016173  19.1981534  73.0790418  26.7121484
  20.0439716  73.0578129  25.6331034  19.6571469  73.4464652  26.1931320
  27.9363498  75.4452489  25.5652212  27.6973268  75.4048323  24.7272997
  28.0997399  76.2923641  25.6917933  27.9253801  75.5644574  25.4605694
  20.6207444  68.2016995  31.0035795  20.1248006  68.3980669  30.3127361
  21.3776506  68.6009663  30.8324596  20.6594269  68.2894729  30.8755931
  17.8910324  71.8759341  27.5939105  17.9152811  71.3419453  26.9051885
  18.1421798  71.3676650  28.2564696  17.9320243  71.7220245  27.5903750
  14.1711646  70.6030159  26.9744849  14.2110018  71.1039366  27.6879557
  13.3461311  70.6940553  26.7050772  14.0551172  70.6911975  27.0395388
  13.4009793  70.6099562  34.9075159  14.0262496  70.0661695  35.1804591
  12.9460273  70.1294479  34.3382949  13.4258054  70.4589043  34.8636753
  20.9700414  71.5799541  29.4670364  21.3955485  71.1272067  28.8553890
  20.3557407  71.0259612  29.7435151  20.9429059  71.4313517  29.4175389
  19.4094637  68.0514641  22.8760941  18.7662955  67.9012287  23.4446079
  19.0694044  67.8056986  22.1110046  19.2639714  67.9926763  22.8463956
  24.1622111  72.4629951  25.2081323  24.5149721  72.0359674  25.8827122
  23.3036912  72.3780795  25.3382399  24.0871555  72.3874692  25.3276333
  25.5946171  67.5848363  26.1365635  25.0877035  66.8777503  26.0686813
  26.3913604  67.2541552  26.2666712  25.6373410  67.4321514  26.1464630
  21.5110186  74.0914975  22.0339299  21.2823879  74.1147677  21.1917657
  21.7708263  73.2672442  22.1534310  21.5156374  73.9731055  21.9264497
  24.2366893  73.0814912  22.2842457  24.2361119  72.9263569  23.1426734
  24.0323073  73.9277900  22.2283843  24.2066670  73.1835533  22.4030397
  17.5307658  68.9977837  31.9115045  17.6635564  68.2008830  32.2396021
  17.9152811  69.5244240  32.4913321  17.6063987  68.9577753  32.0458548
  20.6040013  65.9208163  28.5096138  19.7985977  65.8105892  28.8263977
  20.4746749  66.0220618  27.6526004  20.4660146  65.9191833  28.4304179
  24.0605974  72.0853655  29.1035835  23.4768962  72.5862861  28.6913403
  24.3810268  71.5783211  28.4700159  24.0219149  72.0845490  28.9494343
  16.6000773  70.9994249  19.3794510  17.4216467  71.1692562  19.1376205
  16.1370424  71.1541510  18.6560808  16.6531935  71.0475982  19.2366154
  15.1896105  68.9937012  30.1592939  15.7340518  68.6528138  30.7497281
  15.2433040  69.8522473  30.3014224  15.2785224  69.0692271  30.2674812
   0.5730561  28.4168609  22.5090294   1.2797328  27.9220639  22.6377228
   0.7618496  28.8577690  21.7792952   0.7058466  28.4086959  22.4199339
   3.2917985  28.2004892  19.5504947   3.0556622  27.3692957  19.4317007
   3.9361214  28.1490500  20.1359791   3.3512656  28.0702580  19.6190840
   4.3154406  27.9849341  15.6133241   4.0100223  28.7177398  15.9746557
   3.5960621  27.5787271  15.3326027   4.1641748  28.0331074  15.6246378
  10.0156198  24.6242342  14.9401585   9.9480698  24.6438301  14.0704172
  10.0011860  25.4672669  15.1657256  10.0034954  24.7516077  14.8454062
   0.9154247  29.1557903  25.0772412   1.7289113  28.8843052  25.2377545
   0.7549214  28.8565443  24.2732608   1.0124196  29.0712829  24.9817818
   0.9829748  30.9084001  16.9900610   1.7722126  30.5573066  17.1102691
   1.1573346  31.7220390  16.7277243   1.1250030  30.9769859  16.9688478
   6.7322288  26.5442259  16.4597310   6.7905412  26.9928908  17.2057286
   6.0988755  26.9541072  16.0227390   6.6473583  26.6715994  16.5049858
   2.2895184  25.7309953  18.4297304   3.0129383  25.2782480  18.2508324
   2.0245147  26.0114619  17.6469632   2.3576458  25.7060922  18.2876019
   4.7230498  24.6936364  16.9327854   5.3148339  25.3333615  16.9646052
   5.1589493  23.9959401  17.2219921   4.8748930  24.6854714  16.9808686
   1.7745220  26.4123617  15.5595840   2.2000292  25.8898039  15.0066265
   1.4102140  27.0104455  15.0384463   1.7831823  26.4233844  15.4004850
   0.4500804  31.7359195  24.0689069   0.5597770  30.9467755  24.4245817
   0.7791701  31.6465131  23.2663407   0.5153210  31.6065048  24.0031460
  15.0369743  38.5791740   8.1476907  15.0063747  39.4336377   8.3195177
  15.6351092  38.2787032   8.7063051  15.1206901  38.6608236   8.2551710
   8.2369428  37.6667391  12.9029838   7.3807323  37.8275889  12.9538955
   8.2837081  36.7959455  12.9234899   8.1168539  37.5618193  12.9135904
  11.5463144  43.9353917  22.5090294  12.2529911  43.4405947  22.6377228
  11.7351080  44.3762998  21.7792952  11.6791050  43.9272267  22.4199339
   7.6139819  49.5769747  10.0363728   7.9979198  50.1456646   9.4968503
   7.5498960  48.8519257   9.5569544   7.6613246  49.5545210   9.8857591
  11.0821249  39.7259435  15.5461489  11.6277209  40.4044521  15.6055459
  11.0238125  39.5846896  14.6863071  11.1537163  39.8051437  15.4273550
   4.1995324  47.2148501  10.9329842   4.3005686  46.4048855  11.2426970
   3.6037069  47.1205447  10.3029520   4.1267862  47.0813529  10.8856080
  12.8586317  41.1544042   6.4195217  12.7425843  41.9051728   6.8487355
  13.6542204  40.8967995   6.6691304  12.9590907  41.2278889   6.5199309
   4.0396063  52.1326090  12.3344698   4.6833519  52.5739254  12.7240856
   4.3652319  51.3279516  12.2474957   4.1827892  52.0791285  12.3790175
   6.7918351  37.1454060   7.7898946   7.4898516  37.3242187   8.2820410
   7.1070683  36.6224399   7.1669336   6.9413688  37.0947832   7.7700957
   6.9806286  43.5324505   7.7778738   7.4199922  42.9241605   8.2233511
   6.8310949  43.1531878   7.0064203   7.0227752  43.3862976   7.7297905
   4.4477929  42.1268517  14.9797563   5.0926932  41.6340960  14.6608512
   4.6879706  42.2693303  15.8063642   4.5788514  42.0745959  15.0547097
   6.9864021  44.9723423  14.6304456   7.2687263  44.1774828  14.4091212
   7.7150181  45.4504010  14.6509517   7.1353584  44.9258020  14.6007471
   4.9645214  32.5146457  11.8720221   4.6348545  32.9657600  11.2023920
   4.2890216  32.4362620  12.4193227   4.8155651  32.5697592  11.8543444
  10.5815623  41.8851686   4.7309507  10.4966918  42.7412653   4.8759076
  11.0700006  41.6096010   5.3991666  10.6404520  41.9709008   4.8511589
  11.5134056  38.5036480   6.2307242  10.9845528  38.7196114   6.8904548
  12.0359076  39.1972619   6.1508212  11.5122509  38.6379617   6.3162841
  16.9682109  44.0782785  11.6040287  16.1379812  44.2893428  11.7673703
  16.9191361  43.2519839  11.3282570  16.8388844  43.9872391  11.5877652
   5.0291847  46.9086639  14.4388196   4.5118788  46.5494054  13.8349504
   5.7266238  46.3848813  14.4494262   5.0557428  46.7784327  14.3518455
   8.6855439  47.3581453  20.4004369   8.7738784  47.1707593  21.2482580
   9.1145151  46.7118883  20.0009216   8.7617541  47.2344461  20.4676121
   6.2525898  46.6412613  19.3822031   5.6896733  46.2285223  19.9061693
   7.0146922  46.5665519  19.8015175   6.2820347  46.5690014  19.5215032
   1.8121890  48.6310634  11.9858662   2.5142469  48.1162623  12.0431418
   1.7319373  48.9584786  12.7905537   1.9045650  48.6024860  12.1131454
  16.4636067  36.7253185  15.3990708  15.6264488  36.7955373  15.6338303
  16.4324298  36.7277680  14.5265010  16.3354350  36.7363413  15.3050256
   2.8600796  38.8686221  21.1139077   3.0321300  38.7592116  21.9624358
   3.3970154  39.5140627  20.8770269   2.9645800  38.9478223  21.2044173
   1.1372665  44.8216986  11.4944270   1.9761565  45.0539919  11.5418031
   1.1684434  43.9521298  11.4251305   1.2654383  44.7273933  11.4908914
   1.7625368  45.2417861  15.7957575   2.3023593  45.0988992  16.4660948
   1.0795314  45.6414612  16.1641601   1.7417522  45.2797532  15.9491997
  11.1866253  40.9208862  10.9902599  11.9423768  41.3540376  11.0291508
  11.2928578  40.2713632  11.5637236  11.3136424  40.8886346  11.0800625
  14.2246424  44.7482139  11.7405002  13.7881656  44.7518882  12.4963974
  13.8909340  45.4287638  11.3084580  14.1109044  44.8494595  11.7885835
   8.7975498  46.7890472  23.0648153   9.5815914  46.9021320  23.4303895
   8.5972092  45.9631609  23.2606839   8.8841523  46.6837191  23.1482539
  14.1443907  31.7895967  13.9834430  14.7869816  31.8594072  14.5696346
  14.3966928  31.1225190  13.4813972  14.2766039  31.7022316  13.9961710
   1.9161120  34.9996530  18.5959004   1.2232916  34.5293510  18.8419736
   2.5321447  34.7734835  19.1700712   1.9045650  34.8963662  18.7168157
   8.9545891  48.7000574  16.7114608   8.1561137  48.4600074  16.9688477
   9.4031903  48.7514967  17.4581656   8.9020502  48.6722965  16.8599533
  17.3590770  41.4663059  10.6324640  18.0207204  40.9053728  10.5320548
  16.7182182  40.9715090  10.9577331  17.3619638  41.3099468  10.6656980
  13.6455601  42.4828442  10.3736628  13.8811190  42.6273640   9.5463479
  13.7945165  43.2470850  10.7668142  13.7021404  42.6167496  10.3100232
   0.6401679  38.9661934  19.7385850   1.3641651  38.9514965  20.2250744
   0.7417815  39.6757290  19.2407818   0.7619888  39.0686638  19.7364636
  15.4746058  41.3230107   8.2106232  15.8054275  41.8557748   7.6046327
  16.0479146  41.3768995   8.8668183  15.6079737  41.4099676   8.2184014
   8.0146628  42.4461019  24.6034797   7.2219609  42.7604531  24.7887416
   8.1295555  42.6612487  23.7655581   7.9142039  42.5244856  24.5073131
  10.6877947  39.1695010   8.8929812  10.7824801  39.9084304   9.3469438
  10.0636790  38.7412486   9.3264377  10.6086977  39.2156331   9.0237960
   8.9430421  42.3481223  19.5420093   9.5169282  41.7108467  19.6968657
   8.8645225  42.3485305  18.6729751   9.0163656  42.2546334  19.4366504
   4.2994139  40.7804488  11.5941291   4.0413384  39.9476223  11.5672590
   4.3542622  41.0062101  10.7533791   4.2693917  40.6902259  11.4661427
   9.3795190  32.8832939  11.6945383   8.6751516  32.3942124  11.8529303
   9.4280164  32.8955413  10.8233828   9.2825241  32.8122587  11.5884723
   3.2728852  38.3342250  12.0806185   2.6978443  38.4934419  12.7170146
   2.8964528  37.6977660  11.6174636   3.1331664  38.2640063  12.1060744
   6.9402140  36.8065600  16.9398564   6.5516573  36.3819817  16.2850755
   6.2756839  37.0547749  17.4475591   6.7849068  36.7804321  16.9186432
  16.5825409  36.5640604   9.7146394  16.3261974  35.7520546   9.5244277
  17.4254723  36.5718172   9.4876581  16.6691435  36.4452602   9.6531211
  10.7628502  30.5040228  14.4522548  11.1439014  29.8218400  14.8390422
   9.9591786  30.2149831  14.2698213  10.7004963  30.3607277  14.4826604
   8.0441078  41.0364204   5.1375371   8.8581717  41.3279097   5.0258142
   7.9800220  40.3824067   4.5633664   8.1543817  40.9829399   5.0364208
  14.2650569  43.7190200  19.5504947  14.0289206  42.8878265  19.4317007
  14.9093798  43.6675808  20.1359791  14.3245239  43.5887888  19.6190840
   3.9148987  44.5085722  10.2647683   4.5522934  44.2697469  10.8099476
   4.3404058  44.7122881   9.5300844   4.0725153  44.5036732  10.2364840
   4.7220342  33.0094427  24.3185157   4.4073783  33.7793989  24.0554719
   4.4010275  32.4464683  23.7337384   4.6279261  33.0404695  24.1926507
  15.2886989  43.5034649  15.6133241  14.9832806  44.2362706  15.9746557
  14.5693205  43.0972579  15.3326027  15.1374332  43.5516382  15.6246378
   6.2970459  44.9858144  11.9441469   6.3709467  44.8233316  12.7983319
   7.1139965  45.1748334  11.7001951   6.4286817  44.9894887  12.0339495
  20.9888781  40.1427650  14.9401585  20.9213282  40.1623609  14.0704172
  20.9744444  40.9857977  15.1657256  20.9767538  40.2701385  14.8454062
  11.3985128  31.5462808  18.2642675  12.1438720  31.3572618  17.8506100
  10.9822432  32.0721045  17.7056531  11.4470102  31.5964953  18.1207248
  18.7747399  38.9172036  13.2148180  19.3255320  38.2840105  13.4545272
  18.7591514  39.4487429  13.9063684  18.8532595  38.9020984  13.3527038
   5.4269790  42.7510633  17.7608073   4.9281483  43.4626401  17.8392962
   6.2370014  43.0711300  17.7226236   5.4725896  42.9037482  17.7664642
   1.6897907  42.0133586  12.0070794   1.4011156  41.3871058  12.5416521
   2.5581255  41.9553874  12.0735474   1.7758159  41.9121131  12.0961749
  12.4775805  37.1568370  12.3252776  12.1340571  36.4358705  12.6760026
  12.5768848  36.9482221  11.4831134  12.4417848  37.0192573  12.2524456
  12.9388834  43.6194074   7.8676764  13.5046867  44.2787284   7.7835307
  12.2916737  43.9643772   8.3393166  12.9267590  43.7676015   7.9249521
   4.3536848  35.6091678  23.0570371   3.5436623  35.9149457  22.9460214
   4.8311534  36.3297260  23.1722955   4.3040326  35.7606279  23.0577442
   3.2128407  44.8237399  13.3053274   2.6909161  44.9637690  13.9905139
   3.6002427  44.0648063  13.4955392   3.1932108  44.7322923  13.4354351
   9.4095412  46.5632858   7.2913843   9.1682088  45.8300719   6.8840908
   9.5896745  47.1119715   6.6380177   9.4003036  46.5355249   7.1344066
   4.6394733  41.8541418   8.7034766   4.4437515  42.4616152   8.1095068
   4.8629078  41.1609362   8.2226439   4.6429374  41.8418943   8.5450846
   3.0373263  38.7396156   8.8215634   3.7595915  38.9037314   8.3619440
   2.5581256  39.4605820   8.7154974   3.0736993  38.8694385   8.7381248
  10.9966770  35.0759954  14.2012319  10.1577871  35.1021233  13.9650582
  11.0671138  35.7230690  14.7817665  10.8835164  35.1756080  14.2521436
   9.4436049  31.9745331   8.9339935  10.1462401  31.7753080   8.4559893
   9.1780237  31.2021274   9.2408778   9.5082681  31.8308298   8.9085376
  14.8724294  40.2827941  11.4873561  14.7858269  40.4383367  12.3408339
  14.4174774  40.9266017  11.1132966  14.7927551  40.4003696  11.5580667
   4.2064605  33.2380617  17.9870815   4.0147802  33.2535751  18.8370239
   5.0563201  33.4344291  17.9637470   4.3040327  33.2694968  18.1094110
   8.7450110  37.6038688  10.1099120   8.4984825  37.5234439  10.9435909
   9.0735233  36.8192156   9.9161648   8.7571354  37.4764954  10.2046643
  12.6398159  44.3122048  13.8985901  12.5012518  45.0103093  14.4034644
  11.8598157  44.1570704  13.5422083  12.5041386  44.3922214  13.9212175
  10.9776244  40.6118423  20.1508283  10.9724283  39.7398240  20.1550709
  11.6837238  40.8106592  19.6777739  11.0821248  40.5122297  20.0815318
   4.7047138  40.3395407  19.5222103   4.8490513  40.9196615  18.8865213
   5.0522786  40.7171704  20.2271958   4.7774599  40.4816111  19.5321098
   6.8767055  39.5385575  17.3047235   6.1290369  39.7316590  16.8995513
   7.0308580  38.7130795  17.0671356   6.7889482  39.4450687  17.2092641
   3.7774893  48.5298179  16.3883130   3.9264456  47.9701095  15.7356534
   4.5574895  48.6090180  16.7715649   3.9148986  48.4583744  16.3480079
  14.1351532  43.6700301   4.6602401  13.7558341  42.8837439   4.6531690
  13.4717777  44.2187158   4.5174045  13.9810007  43.6345125   4.6383197
   6.3028193  48.7012822  17.6667621   6.2271864  48.0321632  18.2218409
   6.2318052  49.4030610  18.1808287   6.2808800  48.7057729  17.8244469
   7.1168832  33.4336126  18.1942638   7.5741446  34.1660100  18.3215431
   7.1925161  33.0102591  18.9529894   7.1959802  33.4793364  18.3243715
  11.5896158  26.6126001  12.0636481  11.7079726  27.0702465  11.3303784
  11.4158334  25.8071262  11.7772699  11.5815329  26.5619773  11.9137415
   6.9598440  47.2213820   8.4991227   7.7248331  46.9523464   8.1773891
   6.8576530  46.7363831   9.2161290   7.0579936  47.1103385   8.5571054
   4.9951210  35.4238230  15.0384463   4.2047285  35.2429690  15.3601798
   5.3911833  34.6465183  15.0214757   4.9368086  35.2825691  15.0837011
  10.3794896  43.0580660  12.7643908   9.7039898  42.8265892  13.2657295
  10.3887272  42.4501843  12.1386013  10.2813401  42.9339585  12.7460061
   7.5089040  37.8998489  19.5207961   7.4448181  38.7608446  19.3928098
   7.6486228  37.5830482  18.7203513   7.5204510  37.9798656  19.3836174
  12.3811631  45.9145792   4.9954086  12.4631468  46.7212779   4.6715537
  12.8661373  45.9341752   5.7194860  12.4648789  46.0366455   5.0540985
   6.1908134  40.5930628  13.6624164   5.7670383  40.7935127  12.9263183
   6.0152989  39.7459476  13.7748464   6.1019015  40.4979410  13.5697854
   5.6919827  52.1081141  16.1245622   6.1815758  51.4091931  15.9421286
   5.1204060  51.8105011  16.7121679   5.6804357  51.9607365  16.1846662
   1.4790579  41.0882680   9.0952137   1.6355198  41.0229483   9.9508129
   1.8191172  41.8631232   8.8830816   1.5523814  41.1931878   9.1906731
   8.0169724  40.4640563   7.9645500   8.5585269  39.9610945   8.4284121
   8.3316283  40.4105758   7.1534985   8.1434121  40.3819984   7.9129312
  11.8886831  44.6743211  25.0772412  12.7021696  44.4028360  25.2377545
  11.7281797  44.3750751  24.2732608  11.9856779  44.5898137  24.9817818
   9.1658993  35.3576868  18.0167801   9.3800963  34.7187782  17.4631154
   8.5492892  35.8022692  17.5875662   9.1064322  35.3287012  17.8718232
  10.5763661  48.2795616   9.4622021  10.1843453  47.9762331   8.7444888
  10.7316733  49.1164706   9.2726975  10.5417251  48.3579453   9.3278519
  11.3298081  36.9665933  18.9551108  10.5174763  36.6591823  19.0364280
  11.7888016  36.4864933  19.5193820  11.2778466  36.8502425  19.0505702
  10.7403336  44.8445605   9.4028052  10.3817990  45.0160248  10.1792084
  10.2542046  45.3058811   8.8456050  10.6162033  44.9384576   9.4353321
   8.5573722  28.4676804  13.0055143   7.6867280  28.4415525  12.9588453
   8.8114063  28.2953996  12.1880989   8.4667282  28.4386947  12.8775280
   8.4251588  38.3726005  23.7379810   8.8951220  38.9968121  24.1247684
   8.4713469  37.7042980  24.2973025   8.5019464  38.3660685  23.8779881
   5.5822862  30.4783032  14.4628614   5.0661351  29.7863223  14.5880193
   5.0216791  31.1453809  14.4091212   5.4229375  30.4746290  14.4734680
   7.6515096  31.0175992  16.2921466   7.2646849  31.0425024  17.0734996
   7.1648033  30.4517671  15.8395983   7.5227604  30.9371743  16.3409370
  11.9008075  45.7349501  20.3495253  12.5387796  45.2409697  20.0157709
  11.2582167  45.6626902  19.7647480  11.9002302  45.6508510  20.2137608
  13.6265075  37.5838647  14.9161168  13.1992683  37.4964996  14.1609268
  12.9891128  37.6916423  15.5016013  13.4694682  37.5871307  14.8906610
   7.3172237  27.9042978  18.5831726   7.9465355  28.4403278  18.3052797
   7.4858100  27.8120336  19.4345292   7.4350032  27.9704340  18.6680254
   7.1186152  32.6914172  20.8558138   7.9459582  32.4199321  20.9116752
   7.1393998  33.4875014  21.2121956   7.2439002  32.7693927  20.9173321
  11.9562332  46.4269309  16.9900610  12.7454710  46.0758374  17.1102691
  12.1305929  47.2405698  16.7277243  12.0982613  46.4955166  16.9688478
   1.6955642  39.8378035  14.0428398   0.8543649  39.7381909  14.2507292
   1.9045650  40.6073515  14.3942719   1.6020335  39.9370078  14.1255713
  10.8096156  30.4378866  11.5517028  11.0145749  30.3701174  12.3974025
  10.4822580  31.2437687  11.4838205  10.7911404  30.5464806  11.6676683
   5.5072307  37.7659434  13.2925996   5.2035444  37.2115423  13.8936404
   4.8051728  37.9451644  12.8054030   5.3588517  37.7104217  13.3095702
   3.5690658  44.9809155  17.9998094   3.4611013  44.9911217  18.8660152
   3.7786439  45.8063935  17.8103048   3.5840769  45.1050230  18.1002185
  14.0629843  30.9910630  11.0319793  13.4504157  31.4781032  11.4173525
  14.1594018  30.3154121  11.5757445  13.9867741  30.9628939  11.1698652
   1.5864450  42.2321797  15.4620031   0.9952383  42.8731296  15.4323046
   2.3485473  42.6559415  15.4351331   1.6112711  42.3897636  15.4535179
   1.9825073  33.3923795  16.1288049   2.4426554  33.4662725  16.8663173
   2.0281179  34.1905049  15.7787870   2.0575628  33.5217942  16.1860805
   3.6308422  34.0590490  20.6960076   3.2393988  33.4123837  21.1315854
   3.7994285  34.6501925  21.3154331   3.5979333  34.0504758  20.8522782
  17.7054871  42.0627567  16.4597310  17.7637995  42.5114216  17.2057286
  17.0721339  42.4726380  16.0227390  17.6206167  42.1901302  16.5049858
  11.3453966  47.6831109  12.8952056  11.1473655  48.1721923  12.2008267
  10.7241677  47.8872350  13.4736189  11.2241531  47.7847647  12.8775279
   5.4061944  39.4516006   7.2362300   6.1503989  39.8390282   7.4745250
   5.5522641  38.6073431   7.4002788   5.5372530  39.3846479   7.2956270
   7.3241520  31.2466265  12.2694161   6.4777565  31.4189072  12.1435511
   7.3212652  30.4415608  12.6059990   7.1988670  31.1527294  12.3005288
   8.3939820  35.0241479  13.1356219   7.9199775  34.4983241  13.6461530
   8.7657956  34.4770952  12.5671081   8.3789709  34.8657476  13.1271367
  14.6576551  40.0843855  14.5463000  14.4174774  39.2450270  14.5505426
  15.1368558  40.1644021  15.2703773  14.6928735  39.9725254  14.6537802
  16.6581738  36.8645312  12.4992259  16.4191508  36.8241146  11.6613044
  16.8215639  37.7116464  12.6257980  16.6472041  36.9837397  12.3945741
  13.2627768  41.2495261  18.4297304  13.9861967  40.7967788  18.2508324
  12.9977730  41.5299927  17.6469632  13.3309041  41.2246230  18.2876019
   2.1314636  35.8455435  15.1650183   1.5067707  35.8573827  14.5576136
   1.7960231  36.3215610  15.8141424   1.9900128  35.9173952  15.1706752
   9.8760402  44.4881597   5.3291630  10.5994601  44.9539710   5.1856204
   9.4360994  44.5555207   4.5789227   9.9176095  44.5665434   5.1976412
   9.0446558  41.3479139  16.5792319   8.4303551  40.8037190  16.8740955
   9.5613843  40.8343376  16.0998135   9.0302220  41.1915549  16.5516548
   8.2842855  42.4183410  14.3136618   7.8570463  41.7933128  13.8802053
   8.2767799  42.1358331  15.1395625   8.2201996  42.2836190  14.3716445
   1.4005382  37.4548583  17.3825052   1.5598869  36.6991907  17.7876774
   1.2198275  38.0039522  18.0365789   1.3970741  37.4242396  17.5387758
   9.3425685  29.6209818  17.9375841   8.8466246  29.8173492  17.2467408
  10.0994747  30.0202486  17.7664643   9.3812510  29.7087552  17.8095978
   6.6128564  33.2952164  14.5279152   6.6371052  32.7612276  13.8391932
   6.8640038  32.7869473  15.1904742   6.6538483  33.1413068  14.5243797
   2.8929887  32.0222982  13.9084896   2.9328258  32.5232189  14.6219604
   2.0679551  32.1133376  13.6390819   2.7769413  32.1104799  13.9735434
   5.0759500  41.5883722  22.0105191   4.2255130  41.7255437  22.1462836
   5.2387627  40.8547501  22.4552892   4.9743363  41.4997823  22.0960790
   4.3144250  38.5383492  16.2058795   3.4836180  38.7057310  15.9994043
   4.2595767  38.1619443  16.9907680   4.1833665  38.5073223  16.2907323
   2.1228033  32.0292385  21.8415206   2.7480737  31.4854518  22.1144638
   1.6678513  31.5487303  21.2722996   2.1476294  31.8781866  21.7976800
  15.6963082  40.2121672  16.9327854  16.2880922  40.8518923  16.9646052
  16.1322077  39.5144709  17.2219921  15.8481513  40.2040022  16.9808686
   7.5256472  44.6339044  17.5585748   7.0181563  45.1874891  18.0026378
   7.2283118  44.6947334  16.7404522   7.4061357  44.7245356  17.5034205
   9.6918654  32.9992364  16.4010411  10.1173726  32.5464890  15.7893937
   9.0775647  32.4452435  16.6775198   9.6647299  32.8506340  16.3515436
  12.7212223  37.4266891   9.2330996  12.0503413  37.9696593   9.1044062
  13.4151974  37.8961746   8.9912691  12.7241091  37.5765162   9.1786524
   6.7698957  49.5663603  14.4642755   6.5464612  48.8082432  14.8326781
   6.2808800  49.5961624  13.7423194   6.6642406  49.4585827  14.4119496
  12.8840351  33.8822774  12.1421370  13.2367961  33.4552497  12.8167168
  12.0255152  33.7973618  12.2722446  12.8089796  33.8067515  12.2616380
   1.5824036  36.5130294  10.2004216   0.8636025  36.9294427  10.4677080
   1.9536398  37.0784533   9.6495854   1.5315968  36.6579575  10.1587023
  10.8823617  37.1458143  16.0906212  10.8621544  36.9641438  16.9440991
  10.9302817  38.0170161  16.0665795  10.8858258  37.2474681  16.2129507
   8.8269947  43.7345335  22.0154688   8.7865801  43.0895012  21.4299844
   9.6393265  43.6781952  22.3280100   8.9413100  43.6304302  21.9751638
   5.4177414  49.7864061  11.9179839   5.0037813  49.1238191  11.5283681
   6.1024788  49.9341920  11.3975533   5.4575786  49.7104719  11.7836336
   8.7842708  48.9454146  12.6703456   8.3858991  49.0556416  11.9024276
   8.1693928  49.1536212  13.2530016   8.6341598  48.9927714  12.6434755
  14.3164411  29.0041186  13.0705682  13.8095276  28.2970326  13.0026860
  15.1131845  28.6734375  13.2006759  14.3591650  28.8514338  13.0804677
  10.2328427  35.5107798   8.9679346  10.0042120  35.5340500   8.1257704
  10.4926503  34.6865265   9.0874356  10.2374615  35.3923878   8.8604544
   4.5147655  37.3642271  18.5704446   4.0026558  36.7563454  18.9289477
   4.3427151  38.0798864  19.0378422   4.4137292  37.3805571  18.6920670
   3.2873189  34.0484345  10.2633541   3.7630556  34.4101425   9.6283723
   2.7861789  34.7040812  10.5433684   3.2838548  34.1978533  10.2110282
  16.5184551  43.5206113   6.0546547  16.9018157  44.2697469   6.2844644
  15.7228664  43.7671932   5.7958536  16.4578333  43.6675807   6.0504120
   8.3916726  35.2866516  21.0106702   8.9488156  35.0580326  20.3785167
   8.0677791  36.0472182  20.7341914   8.4263136  35.3650353  20.8763199
   6.1099843  38.3734169  21.9758709   6.8611170  38.6885846  22.2898263
   6.3022419  38.1713340  21.1492630   6.2491257  38.3901551  21.9002104
  12.9585133  34.5007736   9.2182504  12.9579359  34.3456392  10.0766780
  12.7541313  35.3470723   9.1623890  12.9284911  34.6028356   9.3370444
  10.6825985  39.1805237  12.8718711  11.1779650  38.4628233  12.8322731
   9.8725761  38.8776035  12.7573198  10.6369878  39.0302884  12.8492437
  12.7477804  41.9308925  15.5595840  13.1732875  41.4083347  15.0066265
  12.3834724  42.5289762  15.0384463  12.7564406  41.9419152  15.4004850
   2.3831884  50.2273143  14.3193185   2.6978443  51.0409531  14.3270967
   2.7925297  49.8423361  14.9875344   2.4899982  50.2901845  14.4197277
   9.3356403  45.6443189  11.8896997   9.8067582  46.3583452  12.0586982
   9.6716582  45.0441939  12.4256867   9.4551518  45.6614654  11.9929373
  11.4233388  47.2544503  24.0689069  11.5330353  46.4653063  24.4245817
  11.7524285  47.1650439  23.2663407  11.4885794  47.1250356  24.0031460
   6.2525898  30.4170660  18.8455092   6.3853804  29.6201653  19.1736068
   6.6371051  30.9437063  19.4253368   6.3282227  30.3770577  18.9798595
   9.9730350  45.4361123  18.6524690   9.4251296  44.8119007  18.3844755
  10.4343378  45.6255395  17.9368769   9.9597559  45.3720174  18.5075121
   9.3258253  27.3400986  15.4436185   8.5204217  27.2298716  15.7604024
   9.1964989  27.4413442  14.5866051   9.1878386  27.3384656  15.3644226
  12.7824214  33.5046478  16.0375882  12.1987203  34.0055684  15.6253450
  13.1028508  32.9976034  15.4040205  12.7437389  33.5038313  15.8834389
   3.9114345  30.4129835  17.0932986   4.4558758  30.0720962  17.6837327
   3.9651281  31.2715296  17.2354270   4.0003464  30.4885094  17.2014859
   9.5388676  46.4412196  15.1834031  10.3587050  46.2975162  15.4450326
   9.2582754  47.0658395  15.7250469   9.6185419  46.5122548  15.3021970
  26.0102326  54.0977048   8.1476907  25.9796331  54.9521685   8.3195177
  26.6083675  53.7972340   8.7063051  26.0939484  54.1793544   8.2551710
  19.2102011  53.1852699  12.9029838  18.3539907  53.3461197  12.9538955
  19.2569665  52.3144763  12.9234899  19.0901123  53.0803501  12.9135904
  22.5195728  59.4539224  22.5090294  23.2262495  58.9591255  22.6377228
  22.7083663  59.8948306  21.7792952  22.6523633  59.4457575  22.4199339
  18.5872402  65.0955055  10.0363728  18.9711781  65.6641954   9.4968503
  18.5231543  64.3704565   9.5569544  18.6345829  65.0730518   9.8857591
  22.0553832  55.2444743  15.5461489  22.6009792  55.9229829  15.6055459
  21.9970709  55.1032204  14.6863071  22.1269747  55.3236744  15.4273550
  15.1727907  62.7333809  10.9329842  15.2738270  61.9234163  11.2426970
  14.5769652  62.6390755  10.3029520  15.1000446  62.5998837  10.8856080
  23.8318901  56.6729350   6.4195217  23.7158427  57.4237036   6.8487355
  24.6274788  56.4153303   6.6691304  23.9323490  56.7464197   6.5199309
  15.0128647  67.6511398  12.3344698  15.6566102  68.0924562  12.7240856
  15.3384902  66.8464824  12.2474957  15.1560475  67.5976593  12.3790175
  10.6683039  50.9239826  13.4566483  10.0488070  50.3332473  13.2876498
  10.5666902  51.5151261  12.8230806  10.5620714  50.9243909  13.3371473
  17.7650934  52.6639368   7.7898946  18.4631099  52.8427495   8.2820410
  18.0803267  52.1409707   7.1669336  17.9146272  52.6133140   7.7700957
  10.3952172  54.4692108  15.7010052  10.2710869  55.0554553  16.3359871
  11.0470456  53.9752303  16.0022327  10.4725821  54.4830912  15.8395982
  17.9538870  59.0509813   7.7778738  18.3932505  58.4426913   8.2233511
  17.8043533  58.6717186   7.0064203  17.9960336  58.9048284   7.7297905
  15.4210513  57.6453825  14.9797563  16.0659515  57.1526268  14.6608512
  15.6612290  57.7878611  15.8063642  15.5521098  57.5931267  15.0547097
  17.9596604  60.4908731  14.6304456  18.2419847  59.6960136  14.4091212
  18.6882765  60.9689318  14.6509517  18.1086168  60.4443327  14.6007471
  15.9377798  48.0331764  11.8720221  15.6081128  48.4842908  11.2023920
  15.2622800  47.9547928  12.4193227  15.7888234  48.0882900  11.8543444
  21.5548206  57.4036994   4.7309507  21.4699502  58.2597961   4.8759076
  22.0432590  57.1281318   5.3991666  21.6137104  57.4894316   4.8511589
  23.1454206  44.0217287  10.1169832  22.8307647  44.7120766  10.5490254
  22.6281147  43.9662070   9.4155332  23.0218676  44.1152176  10.0766781
  22.4866640  54.0221788   6.2307242  21.9578111  54.2381422   6.8904548
  23.0091660  54.7157927   6.1508212  22.4855093  54.1564925   6.3162841
  27.9414693  59.5968093  11.6040287  27.1112396  59.8078736  11.7673703
  27.8923945  58.7705147  11.3282570  27.8121428  59.5057699  11.5877652
  16.0024430  62.4271947  14.4388196  15.4851372  62.0679362  13.8349504
  16.6998821  61.9034121  14.4494262  16.0290011  62.2969635  14.3518455
  17.2258482  62.1597921  19.3822031  16.6629317  61.7470531  19.9061693
  17.9879505  62.0850827  19.8015175  17.2552930  62.0875321  19.5215032
  18.8343462  54.1650657   3.5083631  19.0739466  54.3728641   2.6958974
  19.1559303  53.3608166   3.6172575  18.9180620  54.0764758   3.4044184
  14.1433752  46.0944053   7.3543169  14.8979720  46.4622370   7.1160219
  13.9661287  46.4683607   8.1222348  14.2288231  46.2042241   7.4328057
  12.7854473  64.1495942  11.9858662  13.4875053  63.6347931  12.0431418
  12.7051956  64.4770093  12.7905537  12.8778234  64.1210168  12.1131454
  27.4368651  52.2438493  15.3990708  26.5997072  52.3140680  15.6338303
  27.4056882  52.2462988  14.5265010  27.3086933  52.2548720  15.3050256
  13.8333380  54.3871529  21.1139077  14.0053884  54.2777424  21.9624358
  14.3702737  55.0325934  20.8770269  13.9378384  54.4663531  21.2044173
  12.4990817  48.5014372   4.0521282  12.3166390  48.7186253   3.2262275
  13.3616430  48.6153385   4.1079896  12.5995406  48.5504270   3.9375769
  12.1105249  60.3402294  11.4944270  12.9494148  60.5725227  11.5418031
  12.1417018  59.4706606  11.4251305  12.2386966  60.2459241  11.4908914
  12.7357952  60.7603169  15.7957575  13.2756177  60.6174300  16.4660948
  12.0527898  61.1599920  16.1641601  12.7150106  60.7982840  15.9491997
  18.1790536  45.5040783   7.0870306  18.9076696  45.3256738   6.6408462
  18.2685429  46.3458862   7.2977484  18.2997198  45.6024661   7.0523823
  22.1598837  56.4394170  10.9902599  22.9156352  56.8725684  11.0291508
  22.2661161  55.7898940  11.5637236  22.2869007  56.4071654  11.0800625
  25.1979008  60.2667447  11.7405002  24.7614240  60.2704190  12.4963974
  24.8641923  60.9472946  11.3084580  25.0841628  60.3679903  11.7885835
  19.7708081  62.3075780  23.0648153  20.5548498  62.4206628  23.4303895
  19.5704676  61.4816917  23.2606839  19.8574107  62.2022499  23.1482539
   8.1395097  56.9803460  15.9491997   7.8733512  56.1642577  16.1082987
   8.1533661  57.0256616  15.0787512   8.1019819  56.8660365  15.8445479
  25.1176491  47.3081275  13.9834430  25.7602399  47.3779380  14.5696346
  25.3699511  46.6410498  13.4813972  25.2498623  47.2207624  13.9961710
  12.8893703  50.5181838  18.5959004  12.1965500  50.0478818  18.8419736
  13.5054031  50.2920143  19.1700712  12.8778233  50.4148970  18.7168157
  19.9278475  64.2185882  16.7114608  19.1293720  63.9785382  16.9688477
  20.3764486  64.2700275  17.4581656  19.8753086  64.1908273  16.8599533
  28.3323354  56.9848367  10.6324640  28.9939788  56.4239036  10.5320548
  27.6914766  56.4900398  10.9577331  28.3352221  56.8284776  10.6656980
   8.5488510  57.7662240  13.2303741   8.3664084  57.7409126  12.3776033
   9.2838179  58.2361177  13.2692650   8.6302574  57.8323602  13.1101659
  11.6134262  54.4847242  19.7385850  12.3374234  54.4700273  20.2250744
  11.7150399  55.1942598  19.2407818  11.7352471  54.5871946  19.7364636
  26.4478641  56.8415415   8.2106232  26.7786859  57.3743056   7.6046327
  27.0211730  56.8954303   8.8668183  26.5812321  56.9284984   8.2184014
  18.9879212  57.9646327  24.6034797  18.1952192  58.2789839  24.7887416
  19.1028139  58.1797795  23.7655581  18.8874622  58.0430164  24.5073131
  21.6610531  54.6880318   8.8929812  21.7557385  55.4269612   9.3469438
  21.0369374  54.2597794   9.3264377  21.5819561  54.7341639   9.0237960
  19.9163004  57.8666531  19.5420093  20.4901866  57.2293775  19.6968657
  19.8377808  57.8670613  18.6729751  19.9896239  57.7731642  19.4366504
   8.5159421  54.6455740  13.3802808   9.0932923  54.5092191  14.0195053
   7.8173483  54.1891524  13.6348392   8.4980442  54.5578006  13.5125097
  21.9133552  56.5329058   2.1266764  21.8313714  56.6031245   2.9921751
  22.5513272  57.0958802   1.9350505  21.9953389  56.6268029   2.2256714
  15.2726723  56.2989796  11.5941291  15.0145967  55.4661531  11.5672590
  15.3275206  56.5247409  10.7533791  15.2426501  56.2087567  11.4661427
  20.3527773  48.4018247  11.6945383  19.6484100  47.9127432  11.8529303
  20.4012747  48.4140721  10.8233828  20.2557825  48.3307895  11.5884723
  14.2461435  53.8527558  12.0806185  13.6711026  54.0119727  12.7170146
  13.8697111  53.2162967  11.6174636  14.1064247  53.7825371  12.1060744
  17.9134724  52.3250908  16.9398564  17.5249157  51.9005125  16.2850755
  17.2489422  52.5733057  17.4475591  17.7581652  52.2989629  16.9186432
  27.5557993  52.0825912   9.7146394  27.2994558  51.2705854   9.5244277
  28.3987307  52.0903479   9.4876581  27.6424018  51.9637910   9.6531211
  21.7361085  46.0225536  14.4522548  22.1171597  45.3403707  14.8390422
  20.9324370  45.7335138  14.2698213  21.6737547  45.8792585  14.4826604
  19.0173662  56.5549512   5.1375371  19.8314301  56.8464405   5.0258142
  18.9532803  55.9009375   4.5633664  19.1276401  56.5014707   5.0364208
  25.2383152  59.2375508  19.5504947  25.0021790  58.4063573  19.4317007
  25.8826381  59.1861116  20.1359791  25.2977823  59.1073196  19.6190840
  14.8881570  60.0271030  10.2647683  15.5255517  59.7882777  10.8099476
  15.3136642  60.2308189   9.5300844  15.0457737  60.0222040  10.2364840
   9.5794213  62.2659366  14.1481987   9.6198358  62.5374217  13.3201766
  10.1388737  62.7901274  14.5639775   9.6677559  62.3835121  14.0873875
  15.6952926  48.5279735  24.3185157  15.3806367  49.2979297  24.0554719
  15.3742858  47.9649991  23.7337384  15.6011845  48.5590003  24.1926507
  26.2619573  59.0219957  15.6133241  25.9565390  59.7548014  15.9746557
  25.5425789  58.6157887  15.3326027  26.1106915  59.0701690  15.6246378
  17.2703042  60.5043452  11.9441469  17.3442051  60.3418624  12.7983319
  18.0872549  60.6933642  11.7001951  17.4019401  60.5080195  12.0339495
  31.9621365  55.6612958  14.9401585  31.8945865  55.6808917  14.0704172
  31.9477027  56.5043285  15.1657256  31.9500121  55.7886692  14.8454062
  13.2484823  46.9170256   9.9331353  12.3807248  46.9892856   9.9988962
  13.5360027  47.7192335  10.1219328  13.1624571  47.0464403   9.9706119
  22.3717711  47.0648115  18.2642675  23.1171303  46.8757926  17.8506100
  21.9555016  47.5906353  17.7056531  22.4202686  47.1150261  18.1207248
  29.7479982  54.4357344  13.2148180  30.2987904  53.8025413  13.4545272
  29.7324098  54.9672737  13.9063684  29.8265179  54.4206292  13.3527038
  16.4002373  58.2695941  17.7608073  15.9014067  58.9811709  17.8392962
  17.2102597  58.5896608  17.7226236  16.4458480  58.4222790  17.7664642
  12.6630491  57.5318894  12.0070794  12.3743739  56.9056366  12.5416521
  13.5313839  57.4739182  12.0735474  12.7490743  57.4306438  12.0961749
  23.4508389  52.6753678  12.3252776  23.1073154  51.9544013  12.6760026
  23.5501431  52.4667529  11.4831134  23.4150431  52.5377881  12.2524456
  23.9121418  59.1379382   7.8676764  24.4779450  59.7972592   7.7835307
  23.2649321  59.4829080   8.3393166  23.9000174  59.2861323   7.9249521
  15.3269431  51.1276986  23.0570371  14.5169207  51.4334765  22.9460214
  15.8044118  51.8482568  23.1722955  15.2772910  51.2791587  23.0577442
  14.1860991  60.3422707  13.3053274  13.6641744  60.4822998  13.9905139
  14.5735011  59.5833371  13.4955392  14.1664692  60.2508230  13.4354351
  11.1752175  50.3928515   7.3748229  10.8876971  50.0229786   6.6380176
  11.8622643  50.8623371   7.1131934  11.2341072  50.4075485   7.2263305
  20.3827996  62.0818166   7.2913843  20.1414672  61.3486027   6.8840908
  20.5629329  62.6305023   6.6380177  20.3735620  62.0540557   7.1344066
  15.6127316  57.3726726   8.7034766  15.4170099  57.9801460   8.1095068
  15.8361662  56.6794670   8.2226439  15.6161957  57.3604251   8.5450846
  14.0105846  54.2581464   8.8215634  14.7328498  54.4222622   8.3619440
  13.5313839  54.9791128   8.7154974  14.0469577  54.3879693   8.7381248
  21.9699354  50.5945262  14.2012319  21.1310455  50.6206541  13.9650582
  22.0403721  51.2415998  14.7817665  21.8567747  50.6941388  14.2521436
  11.6613463  56.6639536  17.9269774  12.1734560  56.9423789  17.2778534
  11.3749806  57.4028830  18.2932587  11.6948326  56.8141890  17.8859652
  20.4168632  47.4930639   8.9339935  21.1194985  47.2938388   8.4559893
  20.1512821  46.7206582   9.2408778  20.4815265  47.3493605   8.9085376
  25.8456878  55.8013249  11.4873561  25.7590852  55.9568675  12.3408339
  25.3907358  56.4451325  11.1132966  25.7660134  55.9189004  11.5580667
   8.7480369  51.1709728   8.2233510   8.8496506  51.9735889   8.5514486
   9.5436256  50.9697064   7.9256591   8.8808275  51.2595627   8.2268866
  15.1797188  48.7565925  17.9870815  14.9880385  48.7721059  18.8370239
  16.0295784  48.9529599  17.9637470  15.2772910  48.7880276  18.1094110
   9.5644101  51.2856906  15.9654632   9.4229593  50.4340847  16.0899140
   9.8484665  51.3285567  15.1416838   9.5851948  51.1656656  15.8622256
  19.7182694  53.1223996  10.1099120  19.4717408  53.0419747  10.9435909
  20.0467817  52.3377464   9.9161648  19.7303937  52.9950262  10.2046643
  23.6130743  59.8307356  13.8985901  23.4745102  60.5288401  14.4034644
  22.8330741  59.6756012  13.5422083  23.4773970  59.9107522  13.9212175
  21.9508828  56.1303731  20.1508283  21.9456866  55.2583547  20.1550709
  22.6569822  56.3291900  19.6777739  22.0553832  56.0307605  20.0815318
  15.6779721  55.8580715  19.5222103  15.8223097  56.4381923  18.8865213
  16.0255370  56.2357012  20.2271958  15.7507182  56.0001419  19.5321098
  17.8499638  55.0570883  17.3047235  17.1022953  55.2501898  16.8995513
  18.0041164  54.2316103  17.0671356  17.7622066  54.9635995  17.2092641
  14.7507476  64.0483487  16.3883130  14.8997040  63.4886403  15.7356534
  15.5307478  64.1275488  16.7715649  14.8881570  63.9769052  16.3480079
  25.1084115  59.1885609   4.6602401  24.7290924  58.4022747   4.6531690
  24.4450361  59.7372466   4.5174045  24.9542590  59.1530433   4.6383197
  17.2760777  64.2198130  17.6667621  17.2004448  63.5506940  18.2218409
  17.2050636  64.9215918  18.1808287  17.2541384  64.2243037  17.8244469
  18.0901415  48.9521434  18.1942638  18.5474030  49.6845408  18.3215431
  18.1657744  48.5287899  18.9529894  18.1692385  48.9978672  18.3243715
  10.3334407  49.1987254  19.2832082   9.7976596  48.5867612  19.5992849
  10.3952171  49.7735390  19.9365749  10.2630039  49.1934181  19.4267509
  22.5628741  42.1311309  12.0636481  22.6812310  42.5887772  11.3303784
  22.3890917  41.3256570  11.7772699  22.5547912  42.0805081  11.9137415
  17.9331024  62.7399128   8.4991227  18.6980915  62.4708772   8.1773891
  17.8309114  62.2549139   9.2161290  18.0312519  62.6288693   8.5571054
  15.9683793  50.9423538  15.0384463  15.1779868  50.7614998  15.3601798
  16.3644416  50.1650490  15.0214757  15.9100670  50.8010999  15.0837011
  21.3527480  58.5765968  12.7643908  20.6772482  58.3451200  13.2657295
  21.3619856  57.9687151  12.1386013  21.2545984  58.4524893  12.7460061
  18.4821624  53.4183797  19.5207961  18.4180765  54.2793753  19.3928098
  18.6218811  53.1015790  18.7203513  18.4937094  53.4983964  19.3836174
  23.3544214  61.4331100   4.9954086  23.4364052  62.2398087   4.6715537
  23.8393956  61.4527060   5.7194860  23.4381372  61.5551763   5.0540985
  17.1640718  56.1115936  13.6624164  16.7402967  56.3120435  12.9263183
  16.9885573  55.2644784  13.7748464  17.0751598  56.0164718  13.5697854
  16.6652411  67.6266449  16.1245622  17.1548341  66.9277239  15.9421286
  16.0936643  67.3290319  16.7121679  16.6536941  67.4792673  16.1846662
  12.4523163  56.6067988   9.0952137  12.6087782  56.5414791   9.9508129
  12.7923756  57.3816540   8.8830816  12.5256397  56.7117186   9.1906731
  18.9902307  55.9825871   7.9645500  19.5317853  55.4796252   8.4284121
  19.3048866  55.9291066   7.1534985  19.1166704  55.9005292   7.9129312
  22.8619415  60.1928519  25.0772412  23.6754280  59.9213668  25.2377545
  22.7014381  59.8936059  24.2732608  22.9589363  60.1083445  24.9817818
  20.1391577  50.8762176  18.0167801  20.3533546  50.2373090  17.4631154
  19.5225476  51.3208000  17.5875662  20.0796906  50.8472320  17.8718232
  21.5496244  63.7980924   9.4622021  21.1576036  63.4947639   8.7444888
  21.7049317  64.6350014   9.2726975  21.5149834  63.8764761   9.3278519
   9.0257424  53.7902938   9.4112904   9.4056389  54.2087483   8.7473171
   8.4512789  54.3716394   9.7181747   8.9968749  53.9380797   9.3589645
  22.3030665  52.4851241  18.9551108  21.4907346  52.1777131  19.0364280
  22.7620599  52.0050241  19.5193820  22.2511049  52.3687733  19.0505702
  21.7135919  60.3630913   9.4028052  21.3550574  60.5345556  10.1792084
  21.2274630  60.8244119   8.8456050  21.5894616  60.4569884   9.4353321
  19.5306305  43.9862112  13.0055143  18.6599863  43.9600833  12.9588453
  19.7846646  43.8139304  12.1880989  19.4399865  43.9572255  12.8775280
  19.3984172  53.8911312  23.7379810  19.8683803  54.5153429  24.1247684
  19.4446052  53.2228288  24.2973025  19.4752048  53.8845993  23.8779881
  16.5555446  45.9968340  14.4628614  16.0393934  45.3048531  14.5880193
  15.9949375  46.6639117  14.4091212  16.3961959  45.9931598  14.4734680
  18.6247679  46.5361300  16.2921466  18.2379432  46.5610331  17.0734996
  18.1380616  45.9702979  15.8395983  18.4960188  46.4557051  16.3409370
  22.8740659  61.2534809  20.3495253  23.5120379  60.7595005  20.0157709
  22.2314750  61.1812209  19.7647480  22.8734885  61.1693817  20.2137608
  24.5997659  53.1023955  14.9161168  24.1725267  53.0150304  14.1609268
  23.9623712  53.2101730  15.5016013  24.4427266  53.1056615  14.8906610
  18.2904821  43.4228286  18.5831726  18.9197939  43.9588586  18.3052797
  18.4590684  43.3305644  19.4345292  18.4082615  43.4889648  18.6680254
  18.0918736  48.2099480  20.8558138  18.9192165  47.9384629  20.9116752
  18.1126582  49.0060322  21.2121956  18.2171586  48.2879234  20.9173321
  22.9294915  61.9454617  16.9900610  23.7187293  61.5943682  17.1102691
  23.1038513  62.7591006  16.7277243  23.0715197  62.0140474  16.9688478
  12.6688226  55.3563343  14.0428398  11.8276232  55.2567217  14.2507292
  12.8778234  56.1258823  14.3942719  12.5752918  55.4555386  14.1255713
  10.1463793  52.9782880  11.8713149   9.7520490  53.0525892  11.0963259
   9.5903909  53.3640826  12.4221511  10.0066605  53.0464655  11.8380809
  21.7828739  45.9564174  11.5517028  21.9878333  45.8886482  12.3974025
  21.4555163  46.7622995  11.4838205  21.7643987  46.0650114  11.6676683
  16.4804890  53.2844742  13.2925996  16.1768028  52.7300730  13.8936404
  15.7784311  53.4636952  12.8054030  16.3321100  53.2289525  13.3095702
  15.5370988  50.5945262   7.8570698  15.8130722  49.8764175   7.4448265
  16.1369657  51.1930182   7.6491804  15.6664252  50.5765633   7.7651459
  14.5423241  60.4994463  17.9998094  14.4343596  60.5096525  18.8660152
  14.7519023  61.3249243  17.8103048  14.5573353  60.6235538  18.1002185
  25.0362427  46.5095938  11.0319793  24.4236741  46.9966340  11.4173525
  25.1326602  45.8339429  11.5757445  24.9600325  46.4814247  11.1698652
  19.0381508  48.2658779   6.1317293  19.4925255  48.4369340   6.8565137
  19.5121554  47.6526890   5.7315069  19.1749828  48.2009665   6.1791054
  12.5597033  57.7507105  15.4620031  11.9684967  58.3916603  15.4323046
  13.3218057  58.1744723  15.4351331  12.5845294  57.9082944  15.4535179
  12.9557656  48.9109103  16.1288049  13.4159138  48.9848032  16.8663173
  13.0013763  49.7090357  15.7787870  13.0308212  49.0403250  16.1860805
  14.6041006  49.5775798  20.6960076  14.2126571  48.9309145  21.1315854
  14.7726869  50.1687233  21.3154331  14.5711916  49.5690066  20.8522782
  28.6787455  57.5812875  16.4597310  28.7370579  58.0299524  17.2057286
  28.0453923  57.9911688  16.0227390  28.5938750  57.7086610  16.5049858
  22.3186550  63.2016417  12.8952056  22.1206238  63.6907231  12.2008267
  21.6974261  63.4057658  13.4736189  22.1974114  63.3032955  12.8775279
  16.3794528  54.9701314   7.2362300  17.1236573  55.3575590   7.4745250
  16.5255224  54.1258739   7.4002788  16.5105113  54.9031787   7.2956270
  18.2974104  46.7651573  12.2694161  17.4510149  46.9374380  12.1435511
  18.2945236  45.9600916  12.6059990  18.1721253  46.6712602  12.3005288
  19.3672404  50.5426787  13.1356219  18.8932358  50.0168549  13.6461530
  19.7390540  49.9956260  12.5671081  19.3522293  50.3842784  13.1271367
   9.7445434  52.5398294  18.5039765  10.6071047  52.4394003  18.4177095
   9.4137217  51.9593003  17.9425337   9.8230630  52.4389920  18.4085171
  25.6309134  55.6029163  14.5463000  25.3907357  54.7635578  14.5505426
  26.1101142  55.6829329  15.2703773  25.6661318  55.4910562  14.6537802
  21.2955904  51.4363342   6.1981973  20.7678922  51.5192086   5.5087682
  21.7551612  52.1781213   6.1946618  21.2857754  51.5584004   6.0956668
  27.6314322  52.3830620  12.4992259  27.3924091  52.3426454  11.6613044
  27.7948223  53.2301772  12.6257980  27.6204625  52.5022705  12.3945741
  24.2360352  56.7680569  18.4297304  24.9594551  56.3153096  18.2508324
  23.9710314  57.0485235  17.6469632  24.3041625  56.7431538  18.2876019
  13.1047220  51.3640743  15.1650183  12.4800290  51.3759135  14.5576136
  12.7692815  51.8400918  15.8141424  12.9632712  51.4359260  15.1706752
   9.8172896  59.4241203  16.6053948   9.2872820  58.7333642  16.6548922
  10.0897989  59.4151388  15.7766656   9.7797618  59.3208335  16.4901364
  20.8492986  60.0066905   5.3291630  21.5727185  60.4725018   5.1856204
  20.4093577  60.0740515   4.5789227  20.8908678  60.0850742   5.1976412
  20.0179141  56.8664447  16.5792319  19.4036134  56.3222498  16.8740955
  20.5346426  56.3528684  16.0998135  20.0034804  56.7100856  16.5516548
  19.2575438  57.9368717  14.3136618  18.8303046  57.3118436  13.8802053
  19.2500383  57.6543639  15.1395625  19.1934579  57.8021498  14.3716445
  12.3737965  52.9733890  17.3825052  12.5331452  52.2177215  17.7876774
  12.1930859  53.5224830  18.0365789  12.3703324  52.9427704  17.5387758
  20.3158268  45.1395126  17.9375841  19.8198830  45.3358800  17.2467408
  21.0727330  45.5387794  17.7664643  20.3545093  45.2272860  17.8095978
  17.5861148  48.8137472  14.5279152  17.6103635  48.2797584  13.8391932
  17.8372622  48.3054781  15.1904742  17.6271067  48.6598376  14.5243797
  13.8662470  47.5408290  13.9084896  13.9060842  48.0417497  14.6219604
  13.0412135  47.6318684  13.6390819  13.7501996  47.6290107  13.9735434
  16.0492083  57.1069030  22.0105191  15.1987714  57.2440744  22.1462836
  16.2120211  56.3732808  22.4552892  15.9475947  57.0183131  22.0960790
  15.2876834  54.0568800  16.2058795  14.4568763  54.2242618  15.9994043
  15.2328351  53.6804751  16.9907680  15.1566248  54.0258531  16.2907323
  13.0960617  47.5477693  21.8415206  13.7213320  47.0039826  22.1144638
  12.6411097  47.0672611  21.2722996  13.1208877  47.3967174  21.7976800
  13.6612877  52.3324392   6.7348913  13.8015839  52.8296856   7.4377554
  14.1595410  51.6310686   6.8763127  13.7553958  52.3026370   6.8600492
  26.6695666  55.7306980  16.9327854  27.2613506  56.3704231  16.9646052
  27.1054660  55.0330017  17.2219921  26.8214097  55.7225330  16.9808686
  15.2692083  49.1305478   4.0386932  15.5907924  48.6508561   3.3846194
  15.5319026  49.9405124   3.8477743  15.3558108  49.1795376   3.9142424
  18.4989055  60.1524352  17.5585748  17.9914147  60.7060199  18.0026378
  18.2015702  60.2132642  16.7404522  18.3793940  60.2430664  17.5034205
  20.6651238  48.5177672  16.4010411  21.0906309  48.0650198  15.7893937
  20.0508231  47.9637743  16.6775198  20.6379883  48.3691648  16.3515436
  19.1045461  44.9892772   9.8100988  18.4613778  44.8390418  10.3786126
  18.7644868  44.7435117   9.0450092  18.9590538  44.9304894   9.7804003
  23.6944807  52.9452199   9.2330996  23.0235997  53.4881901   9.1044062
  24.3884557  53.4147054   8.9912691  23.6973674  53.0950470   9.1786524
  17.7431541  65.0848911  14.4642755  17.5197195  64.3267740  14.8326781
  17.2541384  65.1146932  13.7423194  17.6374990  64.9771135  14.4119496
  23.8572934  49.4008082  12.1421370  24.2100545  48.9737805  12.8167168
  22.9987736  49.3158926  12.2722446  23.7822379  49.3252823  12.2616380
  12.5556619  52.0315602  10.2004216  11.8368609  52.4479735  10.4677080
  12.9268982  52.5969841   9.6495854  12.5048551  52.1764883  10.1587023
  21.8556200  52.6643451  16.0906212  21.8354128  52.4826746  16.9440991
  21.9035401  53.5355469  16.0665795  21.8590841  52.7659989  16.2129507
  19.8002530  59.2530643  22.0154688  19.7598385  58.6080320  21.4299844
  20.6125848  59.1967260  22.3280100  19.9145684  59.1489610  21.9751638
  16.3909998  65.3049369  11.9179839  15.9770396  64.6423499  11.5283681
  17.0757372  65.4527228  11.3975533  16.4308369  65.2290027  11.7836336
  19.7575292  64.4639454  12.6703456  19.3591575  64.5741724  11.9024276
  19.1426511  64.6721520  13.2530016  19.6074181  64.5113022  12.6434755
  18.3303194  51.0713602   5.5377596  17.7368033  51.3930598   4.9862163
  18.3678472  50.2254697   5.3298702  18.2477583  50.9937930   5.4260367
  25.2896995  44.5226494  13.0705682  24.7827859  43.8155634  13.0026860
  26.0864428  44.1919683  13.2006759  25.3324234  44.3699645  13.0804677
  21.2061010  51.0293106   8.9679346  20.9774703  51.0525808   8.1257704
  21.4659087  50.2050573   9.0874356  21.2107198  50.9109186   8.8604544
  15.4880239  52.8827579  18.5704446  14.9759142  52.2748762  18.9289477
  15.3159735  53.5984172  19.0378422  15.3869876  52.8990879  18.6920670
  10.3345954  51.3265155  21.2206808  10.1648544  51.9866530  20.6755014
   9.8911903  51.5371716  21.9419297  10.2445287  51.4551137  21.2468437
  14.2605773  49.5669653  10.2633541  14.7363139  49.9286732   9.6283723
  13.7594373  50.2226120  10.5433684  14.2571132  49.7163841  10.2110282
  27.4917134  59.0391421   6.0546547  27.8750740  59.7882777   6.2844644
  26.6961248  59.2857240   5.7958536  27.4310917  59.1861115   6.0504120
  19.3649309  50.8051824  21.0106702  19.9220739  50.5765634  20.3785167
  19.0410374  51.5657490  20.7341914  19.3995719  50.8835661  20.8763199
   7.2348018  54.2312020  16.4795298   6.6874737  53.5612666  16.5976166
   8.0240396  53.8641868  16.5438765   7.2700202  54.0777007  16.5063998
  17.0832426  53.8919477  21.9758709  17.8343753  54.2071154  22.2898263
  17.2755003  53.6898648  21.1492630  17.2223841  53.9086859  21.9002104
  16.3032426  51.7110852   3.6306925  16.6831391  51.7290482   2.8458040
  15.5625022  52.1564841   3.5097773  16.2501264  51.7792627   3.4970494
  23.9317717  50.0193044   9.2182504  23.9311943  49.8641700  10.0766780
  23.7273897  50.8656031   9.1623890  23.9017494  50.1213664   9.3370444
   5.9934988  53.4432828  13.6341321   5.8156749  52.9909437  14.3596236
   5.7054010  54.2458989  13.8179798   5.9247941  53.4955386  13.7684824
  21.6558569  54.6990545  12.8718711  22.1512234  53.9813540  12.8322731
  20.8458344  54.3961343  12.7573198  21.6102462  54.5488192  12.8492437
  23.7210387  57.4494233  15.5595840  24.1465459  56.9268655  15.0066265
  23.3567307  58.0475070  15.0384463  23.7296990  57.4604460  15.4004850
  13.3564467  65.7458450  14.3193185  13.6711026  66.5594839  14.3270967
  13.7657881  65.3608669  14.9875344  13.4632565  65.8087153  14.4197277
  20.3088987  61.1628497  11.8896997  20.7800165  61.8768760  12.0586982
  20.6449165  60.5627247  12.4256867  20.4284102  61.1799961  11.9929373
  22.3965972  62.7729811  24.0689069  22.5062937  61.9838371  24.4245817
  22.7256868  62.6835747  23.2663407  22.4618377  62.6435663  24.0031460
  17.2258482  45.9355968  18.8455092  17.3586387  45.1386961  19.1736068
  17.6103635  46.4622371  19.4253368  17.3014811  45.8955884  18.9798595
  20.9462933  60.9546431  18.6524690  20.3983879  60.3304315  18.3844755
  21.4075962  61.1440703  17.9368769  20.9330143  60.8905482  18.5075121
  20.2990837  42.8586294  15.4436185  19.4936801  42.7484024  15.7604024
  20.1697573  42.9598750  14.5866051  20.1610970  42.8569964  15.3644226
  23.7556798  49.0231786  16.0375882  23.1719786  49.5240992  15.6253450
  24.0761092  48.5161342  15.4040205  23.7169973  49.0223621  15.8834389
  16.2951597  47.9372381   6.3134557  17.1167291  48.1070694   6.0716252
  15.8321248  48.0919642   5.5900855  16.3482759  47.9854114   6.1706201
  14.8846929  45.9315143  17.0932986  15.4291342  45.5906270  17.6837327
  14.9383864  46.7900604  17.2354270  14.9736048  46.0070402  17.2014859
  10.6977487  59.6931559  13.9671794  11.3022345  59.6527393  13.3385614
  10.4904800  60.5402711  13.9975850  10.7566385  59.8119561  13.8787910
  20.5121260  61.9597504  15.1834031  21.3319633  61.8160470  15.4450326
  20.2315337  62.5843703  15.7250469  20.5918003  62.0307856  15.3021970
  36.9834910  69.6162356   8.1476907  36.9528914  70.4706992   8.3195177
  37.5816259  69.3157648   8.7063051  37.0672068  69.6978852   8.2551710
  30.1834595  68.7038007  12.9029838  29.3272490  68.8646505  12.9538955
  30.2302249  67.8330071  12.9234899  30.0633706  68.5988809  12.9135904
  33.4928311  74.9724532  22.5090294  34.1995079  74.4776563  22.6377228
  33.6816247  75.4133614  21.7792952  33.6256217  74.9642883  22.4199339
  33.0286416  70.7630051  15.5461489  33.5742376  71.4415137  15.6055459
  32.9703292  70.6217512  14.6863071  33.1002330  70.8422052  15.4273550
  21.6415622  66.4425134  13.4566483  21.0220654  65.8517781  13.2876498
  21.5399486  67.0336569  12.8230806  21.5353298  66.4429216  13.3371473
  28.7383518  68.1824676   7.7898946  29.4363683  68.3612803   8.2820410
  29.0535851  67.6595015   7.1669336  28.8878855  68.1318448   7.7700957
  21.3684755  69.9877416  15.7010052  21.2443452  70.5739861  16.3359871
  22.0203040  69.4937611  16.0022327  21.4458405  70.0016220  15.8395982
  26.3943096  73.1639133  14.9797563  27.0392099  72.6711576  14.6608512
  26.6344873  73.3063919  15.8063642  26.5253682  73.1116575  15.0547097
  28.9329188  76.0094038  14.6304456  29.2152431  75.2145444  14.4091212
  29.6615348  76.4874626  14.6509517  29.0818751  75.9628635  14.6007471
  26.9110382  63.5517072  11.8720221  26.5813712  64.0028216  11.2023920
  26.2355383  63.4733236  12.4193227  26.7620818  63.6068208  11.8543444
  34.1186789  59.5402595  10.1169832  33.8040230  60.2306074  10.5490254
  33.6013731  59.4847378   9.4155332  33.9951260  59.6337484  10.0766781
  25.1166336  61.6129361   7.3543169  25.8712304  61.9807678   7.1160219
  24.9393870  61.9868915   8.1222348  25.2020814  61.7227549   7.4328057
  38.4101234  67.7623801  15.3990708  37.5729655  67.8325988  15.6338303
  38.3789465  67.7648296  14.5265010  38.2819517  67.7734028  15.3050256
  24.8065963  69.9056837  21.1139077  24.9786467  69.7962732  21.9624358
  25.3435321  70.5511242  20.8770269  24.9110967  69.9848839  21.2044173
  23.4723400  64.0199680   4.0521282  23.2898974  64.2371561   3.2262275
  24.3349013  64.1338693   4.1079896  23.5727990  64.0689578   3.9375769
  29.1523120  61.0226091   7.0870306  29.8809280  60.8442045   6.6408462
  29.2418012  61.8644170   7.2977484  29.2729782  61.1209969   7.0523823
  33.1331420  71.9579478  10.9902599  33.8888935  72.3910992  11.0291508
  33.2393745  71.3084248  11.5637236  33.2601591  71.9256962  11.0800625
  36.1711591  75.7852755  11.7405002  35.7346823  75.7889498  12.4963974
  35.8374507  76.4658254  11.3084580  36.0574211  75.8865211  11.7885835
  30.7440665  77.8261088  23.0648153  31.5281082  77.9391936  23.4303895
  30.5437259  77.0002225  23.2606839  30.8306690  77.7207807  23.1482539
  19.1127680  72.4988768  15.9491997  18.8466096  71.6827885  16.1082987
  19.1266245  72.5441924  15.0787512  19.0752403  72.3845673  15.8445479
  36.0909074  62.8266583  13.9834430  36.7334983  62.8964688  14.5696346
  36.3432095  62.1595806  13.4813972  36.2231206  62.7392932  13.9961710
  23.8626287  66.0367146  18.5959004  23.1698084  65.5664126  18.8419736
  24.4786614  65.8105451  19.1700712  23.8510817  65.9334278  18.7168157
  39.3055938  72.5033675  10.6324640  39.9672372  71.9424343  10.5320548
  38.6647350  72.0085706  10.9577331  39.3084805  72.3470084  10.6656980
  19.5221094  73.2847547  13.2303741  19.3396667  73.2594433  12.3776033
  20.2570763  73.7546485  13.2692650  19.6035158  73.3508910  13.1101659
  22.5866846  70.0032550  19.7385850  23.3106818  69.9885581  20.2250744
  22.6882982  70.7127906  19.2407818  22.7085055  70.1057253  19.7364636
  29.9611795  73.4831635  24.6034797  29.1684776  73.7975147  24.7887416
  30.0760722  73.6983103  23.7655581  29.8607206  73.5615472  24.5073131
  32.6343114  70.2065626   8.8929812  32.7289968  70.9454920   9.3469438
  32.0101958  69.7783102   9.3264377  32.5552144  70.2526947   9.0237960
  30.8895588  73.3851839  19.5420093  31.4634450  72.7479083  19.6968657
  30.8110392  73.3855921  18.6729751  30.9628823  73.2916950  19.4366504
  19.4892004  70.1641048  13.3802808  20.0665507  70.0277499  14.0195053
  18.7906066  69.7076832  13.6348392  19.4713026  70.0763314  13.5125097
  26.2459307  71.8175104  11.5941291  25.9878551  70.9846839  11.5672590
  26.3007789  72.0432717  10.7533791  26.2159084  71.7272875  11.4661427
  31.3260357  63.9203554  11.6945383  30.6216683  63.4312740  11.8529303
  31.3745331  63.9326029  10.8233828  31.2290408  63.8493202  11.5884723
  25.2194019  69.3712866  12.0806185  24.6443610  69.5305035  12.7170146
  24.8429695  68.7348275  11.6174636  25.0796831  69.3010679  12.1060744
  28.8867307  67.8436216  16.9398564  28.4981740  67.4190433  16.2850755
  28.2222006  68.0918365  17.4475591  28.7314235  67.8174937  16.9186432
  38.5290577  67.6011220   9.7146394  38.2727141  66.7891162   9.5244277
  39.3719890  67.6088787   9.4876581  38.6156602  67.4823218   9.6531211
  32.7093669  61.5410844  14.4522548  33.0904181  60.8589015  14.8390422
  31.9056953  61.2520446  14.2698213  32.6470131  61.3977893  14.4826604
  36.2115736  74.7560816  19.5504947  35.9754373  73.9248881  19.4317007
  36.8558965  74.7046423  20.1359791  36.2710407  74.6258504  19.6190840
  25.8614154  75.5456338  10.2647683  26.4988101  75.3068085  10.8099476
  26.2869225  75.7493496   9.5300844  26.0190320  75.5407348  10.2364840
  26.6685509  64.0465043  24.3185157  26.3538950  64.8164605  24.0554719
  26.3475442  63.4835299  23.7337384  26.5744428  64.0775311  24.1926507
  37.2352156  74.5405265  15.6133241  36.9297973  75.2733322  15.9746557
  36.5158372  74.1343195  15.3326027  37.0839499  74.5886998  15.6246378
  28.2435626  76.0228760  11.9441469  28.3174634  75.8603932  12.7983319
  29.0605132  76.2118950  11.7001951  28.3751984  76.0265503  12.0339495
  42.9353949  71.1798266  14.9401585  42.8678449  71.1994225  14.0704172
  42.9209611  72.0228593  15.1657256  42.9232705  71.3072000  14.8454062
  24.2217406  62.4355564   9.9331353  23.3539832  62.5078164   9.9988962
  24.5092611  63.2377643  10.1219328  24.1357154  62.5649711   9.9706119
  33.3450295  62.5833423  18.2642675  34.0903887  62.3943234  17.8506100
  32.9287600  63.1091661  17.7056531  33.3935269  62.6335569  18.1207248
  40.7212566  69.9542652  13.2148180  41.2720487  69.3210721  13.4545272
  40.7056681  70.4858045  13.9063684  40.7997762  69.9391600  13.3527038
  27.3734957  73.7881249  17.7608073  26.8746650  74.4997017  17.8392962
  28.1835181  74.1081916  17.7226236  27.4191063  73.9408098  17.7664642
  23.6363074  73.0504202  12.0070794  23.3476323  72.4241673  12.5416521
  24.5046422  72.9924490  12.0735474  23.7223326  72.9491746  12.0961749
  34.4240972  68.1938986  12.3252776  34.0805738  67.4729321  12.6760026
  34.5234015  67.9852837  11.4831134  34.3883015  68.0563189  12.2524456
  26.3002015  66.6462294  23.0570371  25.4901790  66.9520073  22.9460214
  26.7776701  67.3667876  23.1722955  26.2505493  66.7976895  23.0577442
  25.1593574  75.8608015  13.3053274  24.6374328  76.0008306  13.9905139
  25.5467595  75.1018679  13.4955392  25.1397275  75.7693538  13.4354351
  22.1484758  65.9113823   7.3748229  21.8609554  65.5415094   6.6380176
  22.8355227  66.3808679   7.1131934  22.2073656  65.9260793   7.2263305
  26.5859900  72.8912034   8.7034766  26.3902683  73.4986768   8.1095068
  26.8094246  72.1979978   8.2226439  26.5894541  72.8789559   8.5450846
  24.9838430  69.7766772   8.8215634  25.7061082  69.9407930   8.3619440
  24.5046423  70.4976436   8.7154974  25.0202161  69.9065001   8.7381248
  32.9431938  66.1130570  14.2012319  32.1043038  66.1391849  13.9650582
  33.0136305  66.7601306  14.7817665  32.8300331  66.2126696  14.2521436
  22.6346047  72.1824844  17.9269774  23.1467144  72.4609097  17.2778534
  22.3482389  72.9214138  18.2932587  22.6680910  72.3327198  17.8859652
  31.3901216  63.0115947   8.9339935  32.0927569  62.8123696   8.4559893
  31.1245405  62.2391890   9.2408778  31.4547848  62.8678913   8.9085376
  36.8189461  71.3198557  11.4873561  36.7323436  71.4753983  12.3408339
  36.3639941  71.9636633  11.1132966  36.7392718  71.4374312  11.5580667
  19.7212953  66.6895036   8.2233510  19.8229089  67.4921197   8.5514486
  20.5168840  66.4882372   7.9256591  19.8540859  66.7780935   8.2268866
  26.1529772  64.2751233  17.9870815  25.9612969  64.2906367  18.8370239
  27.0028368  64.4714907  17.9637470  26.2505494  64.3065584  18.1094110
  20.5376685  66.8042214  15.9654632  20.3962177  65.9526155  16.0899140
  20.8217248  66.8470875  15.1416838  20.5584531  66.6841964  15.8622256
  30.6915277  68.6409304  10.1099120  30.4449992  68.5605055  10.9435909
  31.0200400  67.8562772   9.9161648  30.7036521  68.5135570  10.2046643
  34.5863326  75.3492664  13.8985901  34.4477686  76.0473709  14.4034644
  33.8063324  75.1941320  13.5422083  34.4506553  75.4292830  13.9212175
  32.9241411  71.6489039  20.1508283  32.9189450  70.7768855  20.1550709
  33.6302405  71.8477208  19.6777739  33.0286415  71.5492913  20.0815318
  26.6512305  71.3766023  19.5222103  26.7955680  71.9567231  18.8865213
  26.9987953  71.7542320  20.2271958  26.7239766  71.5186727  19.5321098
  28.8232222  70.5756191  17.3047235  28.0755536  70.7687206  16.8995513
  28.9773747  69.7501411  17.0671356  28.7354650  70.4821303  17.2092641
  29.0633999  64.4706742  18.1942638  29.5206613  65.2030716  18.3215431
  29.1390328  64.0473207  18.9529894  29.1424969  64.5163980  18.3243715
  21.3066990  64.7172562  19.2832082  20.7709180  64.1052920  19.5992849
  21.3684755  65.2920698  19.9365749  21.2362623  64.7119489  19.4267509
  33.5361325  57.6496617  12.0636481  33.6544893  58.1073080  11.3303784
  33.3623501  56.8441878  11.7772699  33.5280496  57.5990389  11.9137415
  26.9416377  66.4608846  15.0384463  26.1512452  66.2800306  15.3601798
  27.3377000  65.6835798  15.0214757  26.8833253  66.3196307  15.0837011
  32.3260063  74.0951276  12.7643908  31.6505065  73.8636508  13.2657295
  32.3352439  73.4872459  12.1386013  32.2278568  73.9710201  12.7460061
  29.4554207  68.9369105  19.5207961  29.3913348  69.7979061  19.3928098
  29.5951395  68.6201098  18.7203513  29.4669677  69.0169272  19.3836174
  28.1373301  71.6301244  13.6624164  27.7135550  71.8305743  12.9263183
  27.9618156  70.7830092  13.7748464  28.0484182  71.5350026  13.5697854
  23.4255746  72.1253296   9.0952137  23.5820365  72.0600099   9.9508129
  23.7656339  72.9001848   8.8830816  23.4988981  72.2302494   9.1906731
  29.9634891  71.5011179   7.9645500  30.5050436  70.9981560   8.4284121
  30.2781450  71.4476374   7.1534985  30.0899288  71.4190600   7.9129312
  33.8351998  75.7113827  25.0772412  34.6486863  75.4398975  25.2377545
  33.6746964  75.4121367  24.2732608  33.9321947  75.6268753  24.9817818
  31.1124160  66.3947484  18.0167801  31.3266130  65.7558398  17.4631154
  30.4958059  66.8393308  17.5875662  31.0529489  66.3657627  17.8718232
  19.9990008  69.3088246   9.4112904  20.3788972  69.7272791   8.7473171
  19.4245372  69.8901702   9.7181747  19.9701333  69.4566105   9.3589645
  33.2763248  68.0036549  18.9551108  32.4639930  67.6962439  19.0364280
  33.7353183  67.5235549  19.5193820  33.2243633  67.8873041  19.0505702
  30.5038889  59.5047419  13.0055143  29.6332447  59.4786141  12.9588453
  30.7579230  59.3324612  12.1880989  30.4132449  59.4757563  12.8775280
  30.3716756  69.4096620  23.7379810  30.8416387  70.0338737  24.1247684
  30.4178636  68.7413596  24.2973025  30.4484631  69.4031301  23.8779881
  27.5288029  61.5153648  14.4628614  27.0126518  60.8233839  14.5880193
  26.9681958  62.1824425  14.4091212  27.3694543  61.5116906  14.4734680
  29.5980263  62.0546608  16.2921466  29.2112016  62.0795639  17.0734996
  29.1113200  61.4888287  15.8395983  29.4692772  61.9742359  16.3409370
  33.8473242  76.7720117  20.3495253  34.4852963  76.2780313  20.0157709
  33.2047334  76.6997517  19.7647480  33.8467469  76.6879125  20.2137608
  35.5730242  68.6209263  14.9161168  35.1457850  68.5335611  14.1609268
  34.9356295  68.7287038  15.5016013  35.4159849  68.6241923  14.8906610
  29.2637404  58.9413593  18.5831726  29.8930522  59.4773893  18.3052797
  29.4323267  58.8490952  19.4345292  29.3815199  59.0074956  18.6680254
  29.0651319  63.7284788  20.8558138  29.8924749  63.4569937  20.9116752
  29.0859165  64.5245630  21.2121956  29.1904169  63.8064542  20.9173321
  33.9027499  77.4639925  16.9900610  34.6919877  77.1128990  17.1102691
  34.0771097  78.2776314  16.7277243  34.0447780  77.5325782  16.9688478
  23.6420809  70.8748651  14.0428398  22.8008816  70.7752525  14.2507292
  23.8510817  71.6444131  14.3942719  23.5485502  70.9740694  14.1255713
  21.1196376  68.4968188  11.8713149  20.7253074  68.5711200  11.0963259
  20.5636493  68.8826134  12.4221511  20.9799188  68.5649962  11.8380809
  32.7561323  61.4749482  11.5517028  32.9610916  61.4071790  12.3974025
  32.4287747  62.2808303  11.4838205  32.7376571  61.5835422  11.6676683
  27.4537474  68.8030050  13.2925996  27.1500612  68.2486038  13.8936404
  26.7516895  68.9822260  12.8054030  27.3053684  68.7474832  13.3095702
  26.5103571  66.1130570   7.8570698  26.7863305  65.3949482   7.4448265
  27.1102240  66.7115490   7.6491804  26.6396836  66.0950941   7.7651459
  36.0095011  62.0281246  11.0319793  35.3969324  62.5151648  11.4173525
  36.1059186  61.3524737  11.5757445  35.9332908  61.9999555  11.1698652
  30.0114092  63.7844087   6.1317293  30.4657838  63.9554648   6.8565137
  30.4854137  63.1712198   5.7315069  30.1482412  63.7194973   6.1791054
  23.5329617  73.2692413  15.4620031  22.9417550  73.9101911  15.4323046
  24.2950641  73.6930030  15.4351331  23.5577878  73.4268252  15.4535179
  23.9290240  64.4294411  16.1288049  24.3891721  64.5033340  16.8663173
  23.9746347  65.2275665  15.7787870  24.0040795  64.5588558  16.1860805
  25.5773590  65.0961106  20.6960076  25.1859155  64.4494453  21.1315854
  25.7459452  65.6872541  21.3154331  25.5444500  65.0875374  20.8522782
  27.3527112  70.4886622   7.2362300  28.0969157  70.8760898   7.4745250
  27.4987808  69.6444047   7.4002788  27.4837697  70.4217094   7.2956270
  29.2706687  62.2836881  12.2694161  28.4242732  62.4559688  12.1435511
  29.2677820  61.4786224  12.6059990  29.1453837  62.1897909  12.3005288
  30.3404988  66.0612095  13.1356219  29.8664942  65.5353857  13.6461530
  30.7123123  65.5141568  12.5671081  30.3254876  65.9028092  13.1271367
  20.7178018  68.0583602  18.5039765  21.5803631  67.9579311  18.4177095
  20.3869801  67.4778311  17.9425337  20.7963214  67.9575228  18.4085171
  36.6041718  71.1214471  14.5463000  36.3639941  70.2820886  14.5505426
  37.0833725  71.2014637  15.2703773  36.6393902  71.0095870  14.6537802
  32.2688487  66.9548650   6.1981973  31.7411506  67.0377394   5.5087682
  32.7284195  67.6966521   6.1946618  32.2590338  67.0769312   6.0956668
  38.6046905  67.9015928  12.4992259  38.3656675  67.8611762  11.6613044
  38.7680806  68.7487080  12.6257980  38.5937209  68.0208013  12.3945741
  35.2092935  72.2865877  18.4297304  35.9327134  71.8338404  18.2508324
  34.9442898  72.5670543  17.6469632  35.2774209  72.2616846  18.2876019
  24.0779804  66.8826051  15.1650183  23.4532874  66.8944443  14.5576136
  23.7425398  67.3586226  15.8141424  23.9365295  66.9544568  15.1706752
  30.9911725  72.3849755  16.5792319  30.3768718  71.8407806  16.8740955
  31.5079010  71.8713992  16.0998135  30.9767387  72.2286164  16.5516548
  30.2308022  73.4554025  14.3136618  29.8035630  72.8303744  13.8802053
  30.2232966  73.1728947  15.1395625  30.1667163  73.3206806  14.3716445
  23.3470549  68.4919198  17.3825052  23.5064036  67.7362523  17.7876774
  23.1663443  69.0410138  18.0365789  23.3435908  68.4613012  17.5387758
  31.2890852  60.6580434  17.9375841  30.7931413  60.8544108  17.2467408
  32.0459914  61.0573102  17.7664643  31.3277677  60.7458168  17.8095978
  28.5593732  64.3322780  14.5279152  28.5836219  63.7982892  13.8391932
  28.8105205  63.8240089  15.1904742  28.6003650  64.1783684  14.5243797
  24.8395054  63.0593598  13.9084896  24.8793425  63.5602805  14.6219604
  24.0144718  63.1503992  13.6390819  24.7234580  63.1475414  13.9735434
  27.0224667  72.6254338  22.0105191  26.1720297  72.7626052  22.1462836
  27.1852794  71.8918116  22.4552892  26.9208530  72.5368439  22.0960790
  26.2609417  69.5754108  16.2058795  25.4301347  69.7427926  15.9994043
  26.2060934  69.1990059  16.9907680  26.1298832  69.5443839  16.2907323
  24.0693200  63.0663001  21.8415206  24.6945904  62.5225134  22.1144638
  23.6143680  62.5857918  21.2722996  24.0941461  62.9152482  21.7976800
  24.6345461  67.8509700   6.7348913  24.7748422  68.3482164   7.4377554
  25.1327994  67.1495994   6.8763127  24.7286542  67.8211678   6.8600492
  37.6428249  71.2492288  16.9327854  38.2346089  71.8889539  16.9646052
  38.0787244  70.5515325  17.2219921  37.7946680  71.2410638  16.9808686
  26.2424666  64.6490786   4.0386932  26.5640507  64.1693868   3.3846194
  26.5051610  65.4590432   3.8477743  26.3290692  64.6980684   3.9142424
  29.4721639  75.6709660  17.5585748  28.9646730  76.2245507  18.0026378
  29.1748285  75.7317950  16.7404522  29.3526524  75.7615972  17.5034205
  31.6383821  64.0362980  16.4010411  32.0638893  63.5835506  15.7893937
  31.0240814  63.4823051  16.6775198  31.6112467  63.8876956  16.3515436
  30.0778044  60.5078080   9.8100988  29.4346362  60.3575726  10.3786126
  29.7377451  60.2620425   9.0450092  29.9323121  60.4490202   9.7804003
  34.6677391  68.4637507   9.2330996  33.9968580  69.0067209   9.1044062
  35.3617141  68.9332362   8.9912691  34.6706258  68.6135778   9.1786524
  34.8305518  64.9193390  12.1421370  35.1833128  64.4923113  12.8167168
  33.9720320  64.8344234  12.2722446  34.7554963  64.8438131  12.2616380
  23.5289203  67.5500910  10.2004216  22.8101192  67.9665042  10.4677080
  23.9001565  68.1155149   9.6495854  23.4781135  67.6950191  10.1587023
  32.8288784  68.1828759  16.0906212  32.8086711  68.0012054  16.9440991
  32.8767985  69.0540777  16.0665795  32.8323425  68.2845297  16.2129507
  30.7735114  74.7715951  22.0154688  30.7330969  74.1265628  21.4299844
  31.5858432  74.7152568  22.3280100  30.8878267  74.6674918  21.9751638
  29.3035777  66.5898910   5.5377596  28.7100617  66.9115906   4.9862163
  29.3411055  65.7440005   5.3298702  29.2210167  66.5123238   5.4260367
  36.2629578  60.0411802  13.0705682  35.7560443  59.3340942  13.0026860
  37.0597012  59.7104991  13.2006759  36.3056817  59.8884953  13.0804677
  32.1793594  66.5478414   8.9679346  31.9507287  66.5711116   8.1257704
  32.4391670  65.7235881   9.0874356  32.1839782  66.4294494   8.8604544
  26.4612822  68.4012887  18.5704446  25.9491725  67.7934070  18.9289477
  26.2892319  69.1169480  19.0378422  26.3602459  68.4176187  18.6920670
  21.3078537  66.8450463  21.2206808  21.1381127  67.5051837  20.6755014
  20.8644487  67.0557024  21.9419297  21.2177871  66.9736445  21.2468437
  25.2338356  65.0854961  10.2633541  25.7095723  65.4472040   9.6283723
  24.7326956  65.7411428  10.5433684  25.2303715  65.2349149  10.2110282
  30.3381893  66.3237132  21.0106702  30.8953323  66.0950941  20.3785167
  30.0142958  67.0842798  20.7341914  30.3728303  66.4020969  20.8763199
  18.2080602  69.7497328  16.4795298  17.6607321  69.0797974  16.5976166
  18.9972980  69.3827176  16.5438765  18.2432785  69.5962315  16.5063998
  28.0565010  69.4104785  21.9758709  28.8076337  69.7256462  22.2898263
  28.2487586  69.2083956  21.1492630  28.1956424  69.4272167  21.9002104
  27.2765010  67.2296160   3.6306925  27.6563974  67.2475790   2.8458040
  26.5357606  67.6750149   3.5097773  27.2233847  67.2977935   3.4970494
  34.9050300  65.5378352   9.2182504  34.9044527  65.3827008  10.0766780
  34.7006480  66.3841339   9.1623890  34.8750078  65.6398972   9.3370444
  16.9667571  68.9618136  13.6341321  16.7889332  68.5094745  14.3596236
  16.6786593  69.7644297  13.8179798  16.8980524  69.0140694  13.7684824
  32.6291152  70.2175853  12.8718711  33.1244818  69.4998848  12.8322731
  31.8190928  69.9146651  12.7573198  32.5835045  70.0673500  12.8492437
  34.6942971  72.9679541  15.5595840  35.1198043  72.4453963  15.0066265
  34.3299891  73.5660378  15.0384463  34.7029574  72.9789768  15.4004850
  31.2821571  76.6813805  11.8896997  31.7532749  77.3954068  12.0586982
  31.6181749  76.0812555  12.4256867  31.4016686  76.6985269  11.9929373
  33.3698555  78.2915119  24.0689069  33.4795521  77.5023679  24.4245817
  33.6989452  78.2021055  23.2663407  33.4350961  78.1620971  24.0031460
  28.1991065  61.4541276  18.8455092  28.3318971  60.6572269  19.1736068
  28.5836218  61.9807679  19.4253368  28.2747394  61.4141192  18.9798595
  31.9195517  76.4731739  18.6524690  31.3716463  75.8489623  18.3844755
  32.3808546  76.6626011  17.9368769  31.9062726  76.4090789  18.5075121
  31.2723421  58.3771602  15.4436185  30.4669384  58.2669331  15.7604024
  31.1430156  58.4784058  14.5866051  31.1343553  58.3755272  15.3644226
  34.7289381  64.5417094  16.0375882  34.1452370  65.0426300  15.6253450
  35.0493675  64.0346650  15.4040205  34.6902557  64.5408929  15.8834389
  27.2684180  63.4557689   6.3134557  28.0899875  63.6256001   6.0716252
  26.8053831  63.6104950   5.5900855  27.3215343  63.5039422   6.1706201
  25.8579512  61.4500451  17.0932986  26.4023925  61.1091578  17.6837327
  25.9116448  62.3085912  17.2354270  25.9468632  61.5255710  17.2014859
  31.4853843  77.4782812  15.1834031  32.3052217  77.3345778  15.4450326
  31.2047921  78.1029011  15.7250469  31.5650587  77.5493164  15.3021970
  37.6418093  79.5650350  24.3185157  37.3271534  80.3349913  24.0554719
  37.3208025  79.0020606  23.7337384  37.5477012  79.5960619  24.1926507
  44.3182879  78.1018731  18.2642675  45.0636471  77.9128542  17.8506100
  43.9020183  78.6276969  17.7056531  44.3667853  78.1520877  18.1207248
  37.1262356  79.7936540  17.9870815  36.9345553  79.8091675  18.8370239
  37.9760952  79.9900215  17.9637470  37.2238078  79.8250892  18.1094110
  40.0366583  79.9892050  18.1942638  40.4939197  80.7216024  18.3215431
  40.1122911  79.5658515  18.9529894  40.1157553  80.0349288  18.3243715
  38.5020613  77.0338956  14.4628614  37.9859101  76.3419147  14.5880193
  37.9414542  77.7009733  14.4091212  38.3427126  77.0302213  14.4734680
  40.5712846  77.5731916  16.2921466  40.1844599  77.5980947  17.0734996
  40.0845784  77.0073594  15.8395983  40.4425355  77.4927667  16.3409370
  40.2369988  74.4598901  18.5831726  40.8663106  74.9959201  18.3052797
  40.4055851  74.3676260  19.4345292  40.3547783  74.5260264  18.6680254
  40.0383903  79.2470096  20.8558138  40.8657332  78.9755245  20.9116752
  40.0591749  80.0430938  21.2121956  40.1636753  79.3249850  20.9173321
  42.2623436  76.1765742  17.9375841  41.7663997  76.3729416  17.2467408
  43.0192498  76.5758410  17.7664643  42.3010260  76.2643476  17.8095978
  35.8127637  78.5778906  13.9084896  35.8526009  79.0788113  14.6219604
  34.9877302  78.6689300  13.6390819  35.6967163  78.6660722  13.9735434
  35.0425784  78.5848309  21.8415206  35.6678487  78.0410442  22.1144638
  34.5876264  78.1043226  21.2722996  35.0674045  78.4337790  21.7976800
  42.6116405  79.5548288  16.4010411  43.0371476  79.1020814  15.7893937
  41.9973398  79.0008359  16.6775198  42.5845050  79.4062264  16.3515436
  39.1723649  76.9726584  18.8455092  39.3051555  76.1757577  19.1736068
  39.5568802  77.4992987  19.4253368  39.2479978  76.9326500  18.9798595
  42.2456004  73.8956910  15.4436185  41.4401968  73.7854639  15.7604024
  42.1162740  73.9969365  14.5866051  42.1076137  73.8940580  15.3644226
  36.8312096  76.9685759  17.0932986  37.3756509  76.6276886  17.6837327
  36.8849032  77.8271220  17.2354270  36.9201215  77.0441018  17.2014859
  22.2146552  36.3917356   9.4430341  22.9213319  35.8969386   9.5717275
  22.4034487  36.8326437   8.7132999  22.3474457  36.3835706   9.3539386
  19.3538846  39.8144892   7.3344416  19.4422192  39.6271033   8.1822626
  19.7828559  39.1682322   6.9349263  19.4300948  39.6907900   7.4016168
  16.9209306  39.0976052   6.3162078  16.3580141  38.6848662   6.8401739
  17.6830329  39.0228958   6.7355222  16.9503754  39.0253453   6.4555079
  13.5284204  31.3249660   8.0479124  13.7004708  31.2155555   8.8964405
  14.0653561  31.9704066   7.8110316  13.6329208  31.4041662   8.1384220
  19.4658905  39.2453911   9.9988200  20.2499322  39.3584759  10.3643942
  19.2655500  38.4195048  10.1946885  19.5524931  39.1400631  10.0822586
  19.6229299  41.1564013   3.6454655  18.8244544  40.9163513   3.9028524
  20.0715310  41.2078406   4.3921703  19.5703910  41.1286404   3.7939579
  18.6830036  34.9024458  11.5374843  17.8903016  35.2167970  11.7227463
  18.7978963  35.1175927  10.6995628  18.5825446  34.9808295  11.4413178
  19.6113828  34.8044662   6.4760140  20.1852690  34.1671906   6.6308704
  19.5328632  34.8048744   5.6069798  19.6847063  34.7109773   6.3706551
  24.9333976  36.1753640   6.4844993  24.6972614  35.3441704   6.3657054
  25.5777205  36.1239247   7.0699838  24.9928647  36.0451327   6.5530887
  15.3903750  25.4657866  11.2525203  15.0757191  26.2357429  10.9894766
  15.0693682  24.9028122  10.6677430  15.2962669  25.4968134  11.1266553
  25.9570397  35.9598088   2.5473288  25.6516214  36.6926145   2.9086603
  25.2376612  35.5536018   2.2666074  25.8057739  36.0079821   2.5586425
  31.6572189  32.5991089   1.8741632  31.5896689  32.6187048   1.0044219
  31.6427851  33.4421416   2.0997303  31.6450945  32.7264824   1.7794109
  16.0953197  35.2074072   4.6948120  15.5964891  35.9189840   4.7733008
  16.9053421  35.5274739   4.6566282  16.1409304  35.3600921   4.7004688
  15.0220255  28.0655117   9.9910418  14.2120031  28.3712897   9.8800260
  15.4994942  28.7860699  10.1063002  14.9723734  28.2169718   9.9917489
  23.3081567  36.7685487   0.8325948  23.1695926  37.4666533   1.3374690
  22.5281564  36.6134143   0.4762130  23.1724793  36.8485653   0.8552222
  21.6459652  33.0681862   7.0848330  21.6407690  32.1961679   7.0890756
  22.3520646  33.2670031   6.6117786  21.7504656  32.9685736   7.0155365
  15.3730545  32.7958846   6.4562150  15.5173921  33.3760054   5.8205260
  15.7206194  33.1735143   7.1612005  15.4458006  32.9379550   6.4661145
  14.4458300  40.9861618   3.3223177  14.5947864  40.4264534   2.6696581
  15.2258302  41.0653620   3.7055696  14.5832394  40.9147183   3.2820126
  16.9711601  41.1576261   4.6007668  16.8955272  40.4885071   5.1558456
  16.9001460  41.8594049   5.1148334  16.9492208  41.1621168   4.7584516
  16.3603235  44.5644580   3.0585668  16.8499165  43.8655370   2.8761333
  15.7887467  44.2668450   3.6461726  16.3487765  44.4170804   3.1186709
  22.5570239  37.1306650  12.0112459  23.3705104  36.8591799  12.1717592
  22.3965205  36.8314190  11.2072655  22.6540187  37.0461576  11.9157865
  21.9981489  29.4229372   5.8891154  21.1858170  29.1155263   5.9704327
  22.4571423  28.9428372   6.4533867  21.9461873  29.3065865   5.9845749
  19.0934996  30.8289444  10.6719857  19.5634627  31.4531560  11.0587731
  19.1396876  30.1606419  11.2313071  19.1702872  30.8224124  10.8119928
  22.5691483  38.1912940   7.2835300  23.2071203  37.6973136   6.9497756
  21.9265574  38.1190341   6.6987526  22.5685709  38.1071949   7.1477655
  22.6245739  38.8832748   3.9240656  23.4138117  38.5321813   4.0442738
  22.7989337  39.6969137   3.6617290  22.7666021  38.9518606   3.9028524
  14.2374065  37.4372594   4.9338141  14.1294420  37.4474656   5.8000199
  14.4469847  38.2627374   4.7443094  14.2524176  37.5613669   5.0342232
  28.3738279  34.5191006   3.3937356  28.4321403  34.9677655   4.1397333
  27.7404747  34.9289819   2.9567436  28.2889574  34.6464741   3.4389905
  22.0137374  40.1394548  -0.1707897  21.8157062  40.6285363  -0.8651686
  21.3925085  40.3435790   0.4076236  21.8924938  40.2411086  -0.1884674
  23.9311176  33.7058700   5.3637351  24.6545374  33.2531227   5.1848371
  23.6661138  33.9863366   4.5809679  23.9992449  33.6809669   5.2216066
  15.7442907  34.0447161   8.9445238  14.8938538  34.1818876   9.0802882
  15.9071035  33.3110940   9.3892939  15.6426771  33.9561263   9.0300837
  26.3646490  32.6685111   3.8667901  26.9564330  33.3082362   3.8986099
  26.8005484  31.9708148   4.1559967  26.5164921  32.6603462   3.9148733
  18.1939879  37.0902484   4.4925795  17.6864970  37.6438330   4.9366425
  17.8966526  37.1510773   3.6744569  18.0744764  37.1808795   4.4374251
  17.4382365  42.0227042   1.3982801  17.2148019  41.2645871   1.7666828
  16.9492208  42.0525063   0.6763241  17.3325814  41.9149266   1.3459542
  19.4953354  36.1908774   8.9494735  19.4549209  35.5458451   8.3639891
  20.3076672  36.1345391   9.2620147  19.6096508  36.0867741   8.9091684
  19.0600133  27.7429955   7.9446748  19.6171563  27.5143765   7.3125214
  18.7361198  28.5035621   7.6681961  19.0946543  27.8213792   7.8103245
  16.7783250  30.8297609   8.9098756  17.5294577  31.1449285   9.2238310
  16.9705827  30.6276779   8.0832677  16.9174665  30.8464990   8.8342151
  23.4161211  34.3872364   2.4935887  23.8416283  33.8646786   1.9406312
  23.0518131  34.9853202   1.9724510  23.4247814  34.3982591   2.3344896
  13.0515291  42.6836582   1.2533232  13.3661850  43.4972970   1.2611014
  13.4608705  42.2986800   1.9215391  13.1583389  42.7465284   1.3537324
  22.0916795  39.7107942  11.0029116  22.2013761  38.9216502  11.3585863
  22.4207692  39.6213878  10.2003454  22.1569201  39.5813795  10.9371507
  20.6413757  37.8924563   5.5864737  20.0934703  37.2682446   5.3184802
  21.1026786  38.0818835   4.8708816  20.6280967  37.8283613   5.4415168
  20.2072084  38.8975635   2.1174078  21.0270457  38.7538601   2.3790373
  19.9266161  39.5221834   2.6590516  20.2868827  38.9685987   2.2362017
  36.6785734  46.5540487  -4.9183046  36.6479738  47.4085124  -4.7464776
  37.2767083  46.2535780  -4.3596902  36.7622892  46.6356983  -4.8108243
  29.8785419  45.6416138  -0.1630115  29.0223314  45.8024636  -0.1120999
  29.9253072  44.7708202  -0.1425054  29.7584530  45.5366940  -0.1524049
  33.1879135  51.9102664   9.4430341  33.8945903  51.4154694   9.5717275
  33.3767071  52.3511745   8.7132999  33.3207041  51.9021014   9.3539386
  32.7237240  47.7008182   2.4801536  33.2693200  48.3793268   2.5395506
  32.6654116  47.5595643   1.6203118  32.7953154  47.7800184   2.3613597
  25.8411315  55.1897248  -2.1330111  25.9421678  54.3797602  -1.8232983
  25.2453060  55.0954194  -2.7630433  25.7683853  55.0562276  -2.1803873
  25.6812054  60.1074837  -0.7315255  26.3249510  60.5488001  -0.3419097
  26.0068310  59.3028263  -0.8184996  25.8243883  60.0540032  -0.6869778
  21.3366446  43.3803265   0.3906530  20.7171478  42.7895912   0.2216545
  21.2350310  43.9714700  -0.2429147  21.2304122  43.3807348   0.2711520
  28.4334342  45.1202807  -5.2761007  29.1314507  45.2990934  -4.7839544
  28.7486675  44.5973146  -5.8990617  28.5829679  45.0696579  -5.2958997
  21.0635579  46.9255547   2.6350099  20.9394276  47.5117992   3.2699918
  21.7153864  46.4315743   2.9362374  21.1409229  46.9394351   2.7736028
  28.6222277  51.5073252  -5.2881215  29.0615913  50.8990352  -4.8426443
  28.4726940  51.1280625  -6.0595750  28.6643743  51.3611723  -5.3362048
  26.0893920  50.1017264   1.9137610  26.7342923  49.6089707   1.5948559
  26.3295697  50.2442050   2.7403688  26.2204505  50.0494706   1.9887143
  28.6280012  52.9472170   1.5644503  28.9103255  52.1523575   1.3431259
  29.3566172  53.4252757   1.5849564  28.7769575  52.9006767   1.5347518
  26.6061206  40.4895204  -1.1939732  26.2764536  40.9406347  -1.8636033
  25.9306207  40.4111367  -0.6466726  26.4571642  40.5446339  -1.2116509
  33.8137613  36.4780726  -2.9490122  33.4991054  37.1684205  -2.5169699
  33.2964555  36.4225509  -3.6504621  33.6902084  36.5715615  -2.9893172
  38.6098100  52.0531532  -1.4619666  37.7795803  52.2642176  -1.2986250
  38.5607352  51.2268586  -1.7377383  38.4804835  51.9621138  -1.4782301
  26.6707838  54.8835386   1.3728243  26.1534779  54.5242801   0.7689551
  27.3682229  54.3597560   1.3834309  26.6973419  54.7533074   1.2858502
  30.3271430  55.3330200   7.3344416  30.4154775  55.1456341   8.1822626
  30.7561142  54.6867630   6.9349263  30.4033532  55.2093208   7.4016168
  27.8941889  54.6161360   6.3162078  27.3312724  54.2033970   6.8401739
  28.6562913  54.5414266   6.7355222  27.9236338  54.5438761   6.4555079
  23.4537881  56.6059381  -1.0801292  24.1558460  56.0911370  -1.0228535
  23.3735364  56.9333533  -0.2754416  23.5461641  56.5773607  -0.9528499
  38.1052058  44.7001933   2.3330755  37.2680479  44.7704120   2.5678349
  38.0740289  44.7026427   1.4605057  37.9770341  44.7112160   2.2390303
  24.5016787  46.8434968   8.0479124  24.6737291  46.7340863   8.8964405
  25.0386145  47.4889374   7.8110316  24.6061791  46.9226970   8.1384220
  22.7788656  52.7965733  -1.5715684  23.6177556  53.0288666  -1.5241922
  22.8100425  51.9270045  -1.6408648  22.9070374  52.7022680  -1.5751039
  23.4041359  53.2166608   2.7297622  23.9439584  53.0737739   3.4000994
  22.7211306  53.6163359   3.0981648  23.3833513  53.2546279   2.8832044
  32.8282244  48.8957609  -2.0757354  33.5839759  49.3289123  -2.0368445
  32.9344569  48.2462379  -1.5022718  32.9552415  48.8635093  -1.9859328
  35.8662415  52.7230886  -1.3254951  35.4297647  52.7267629  -0.5695979
  35.5325331  53.4036385  -1.7575373  35.7525035  52.8243342  -1.2774118
  30.4391489  54.7639219   9.9988200  31.2231906  54.8770067  10.3643942
  30.2388083  53.9380356  10.1946885  30.5257514  54.6585939  10.0822586
  18.8078504  49.4366899   2.8832044  18.5416920  48.6206016   3.0423034
  18.8217068  49.4820055   2.0127559  18.7703227  49.3223804   2.7785525
  35.7859898  39.7644714   0.9174477  36.4285807  39.8342819   1.5036393
  36.0382919  39.0973937   0.4154019  35.9182030  39.6771063   0.9301756
  23.5577111  42.9745277   5.5299051  22.8648907  42.5042257   5.7759783
  24.1737438  42.7483582   6.1040758  23.5461641  42.8712409   5.6508204
  30.5961882  56.6749321   3.6454655  29.7977128  56.4348821   3.9028524
  31.0447894  56.7263714   4.3921703  30.5436493  56.6471712   3.7939579
  39.0006761  49.4411806  -2.4335313  39.6623196  48.8802475  -2.5339405
  38.3598173  48.9463837  -2.1082622  39.0035629  49.2848215  -2.4002973
  19.2171918  50.2225679   0.1643788  19.0347491  50.1972565  -0.6883920
  19.9521587  50.6924616   0.2032697  19.2985982  50.2887041   0.0441706
  35.2871592  50.4577189  -2.6923325  35.5227181  50.6022387  -3.5196474
  35.4361156  51.2219597  -2.2991811  35.3437395  50.5916243  -2.7559721
  22.2817670  46.9410681   6.6725896  23.0057642  46.9263712   7.1590791
  22.3833806  47.6506037   6.1747865  22.4035879  47.0435385   6.6704683
  29.6562619  50.4209766  11.5374843  28.8635600  50.7353278  11.7227463
  29.7711546  50.6361235  10.6995628  29.5558030  50.4993603  11.4413178
  32.3293938  47.1443757  -4.1730141  32.4240792  47.8833051  -3.7190515
  31.7052782  46.7161233  -3.7395576  32.2502968  47.1905078  -4.0421993
  30.5846412  50.3229970   6.4760140  31.1585274  49.6857214   6.6308704
  30.5061216  50.3234052   5.6069798  30.6579647  50.2295081   6.3706551
  19.1842828  47.1019179   0.3142854  19.7616331  46.9655630   0.9535100
  18.4856890  46.6454963   0.5688439  19.1663850  47.0141445   0.4465144
  25.9410130  48.7553235  -1.4718662  25.6829375  47.9224970  -1.4987363
  25.9958613  48.9810848  -2.3126162  25.9109908  48.6651006  -1.5998526
  31.0211181  40.8581686  -1.3714570  30.3167507  40.3690871  -1.2130651
  31.0696155  40.8704160  -2.2426125  30.9241232  40.7871334  -1.4775230
  24.9144843  46.3090997  -0.9853768  24.3394434  46.4683166  -0.3489807
  24.5380519  45.6726407  -1.4485317  24.7747655  46.2388810  -0.9599209
  28.5818131  44.7814347   3.8738611  28.1932564  44.3568564   3.2190802
  27.9172830  45.0296496   4.3815637  28.4265059  44.7553068   3.8526479
  38.2241400  44.5389351  -3.3513559  37.9677965  43.7269293  -3.5415676
  39.0670714  44.5466919  -3.5783372  38.3107426  44.4201349  -3.4128742
  32.4044493  38.4788975   1.3862595  32.7855005  37.7967147   1.7730469
  31.6007777  38.1898578   1.2038259  32.3420955  38.3356024   1.4166651
  35.9066560  51.6938947   6.4844993  35.6705197  50.8627012   6.3657054
  36.5509789  51.6424555   7.0699838  35.9661230  51.5636635   6.5530887
  25.5564978  52.4834469  -2.8012270  26.1938925  52.2446216  -2.2560477
  25.9820049  52.6871628  -3.5359110  25.7141144  52.4785479  -2.8295113
  20.2477620  54.7222805   1.0822034  20.2881765  54.9937656   0.2541813
  20.8072144  55.2464713   1.4979821  20.3360966  54.8398560   1.0213922
  26.3636333  40.9843174  11.2525203  26.0489774  41.7542736  10.9894766
  26.0426266  40.4213430  10.6677430  26.2695252  41.0153442  11.1266553
  36.9302980  51.4783396   2.5473288  36.6248797  52.2111453   2.9086603
  36.2109196  51.0721326   2.2666074  36.7790323  51.5265129   2.5586425
  27.9386450  52.9606891  -1.1218484  28.0125458  52.7982063  -0.2676634
  28.7555956  53.1497081  -1.3658002  28.0702808  52.9643634  -1.0320458
  42.6304772  48.1176397   1.8741632  42.5629273  48.1372356   1.0044219
  42.6160435  48.9606724   2.0997303  42.6183529  48.2450132   1.7794109
  33.0401119  39.5211555   5.1982722  33.7854711  39.3321365   4.7846147
  32.6238424  40.0469793   4.6396578  33.0886093  39.5713700   5.0547295
  40.4163390  46.8920783   0.1488227  40.9671311  46.2588852   0.3885319
  40.4007505  47.4236176   0.8403731  40.4948586  46.8769731   0.2867085
  27.0685781  50.7259380   4.6948120  26.5697474  51.4375148   4.7733008
  27.8786005  51.0460047   4.6566282  27.1141887  50.8786229   4.7004688
  23.3313898  49.9882333  -1.0589159  23.0427147  49.3619805  -0.5243432
  24.1997246  49.9302621  -0.9924479  23.4174150  49.8869878  -0.9698205
  34.1191796  45.1317117  -0.7407177  33.7756562  44.4107452  -0.3899928
  34.2184839  44.9230968  -1.5828819  34.0833839  44.9941320  -0.8135497
  25.9952839  43.5840425   9.9910418  25.1852614  43.8898204   9.8800260
  26.4727525  44.3046007  10.1063002  25.9456317  43.7355026   9.9917489
  24.8544398  52.7986146   0.2393321  24.3325152  52.9386437   0.9245186
  25.2418419  52.0396810   0.4295439  24.8348099  52.7071670   0.3694398
  26.2810724  49.8290165  -4.3625188  26.0853507  50.4364899  -4.9564885
  26.5045069  49.1358109  -4.8433514  26.2845365  49.8167690  -4.5209107
  24.6789254  46.7144903  -4.2444319  25.4011906  46.8786061  -4.7040513
  24.1997247  47.4354568  -4.3504980  24.7152985  46.8443132  -4.3278705
  32.6382761  43.0508701   1.1352366  31.7993862  43.0769980   0.8990629
  32.7087129  43.6979437   1.7157712  32.5251155  43.1504827   1.1861482
  22.3296871  49.1202975   4.8609821  22.8417968  49.3987228   4.2118580
  22.0433213  49.8592269   5.2272634  22.3631734  49.2705329   4.8199699
  31.0852040  39.9494079  -4.1320018  31.7878393  39.7501827  -4.6100060
  30.8196228  39.1770021  -3.8251175  31.1498672  39.8057045  -4.1574577
  36.5140285  48.2576688  -1.5786393  36.4274260  48.4132114  -0.7251614
  36.0590765  48.9014764  -1.9526988  36.4343542  48.3752443  -1.5079286
  25.8480596  41.2129364   4.9210862  25.6563793  41.2284498   5.7710286
  26.6979192  41.4093038   4.8977517  25.9456318  41.2443715   5.0434157
  20.2327509  43.7420345   2.8994679  20.0913001  42.8904286   3.0239187
  20.5168072  43.7849006   2.0756885  20.2535355  43.6220095   2.7962303
  30.3866101  45.5787435  -2.9560833  30.1400816  45.4983186  -2.1224044
  30.7151224  44.7940903  -3.1498306  30.3987345  45.4513701  -2.8613310
  34.2814150  52.2870795   0.8325948  34.1428509  52.9851841   1.3374690
  33.5014148  52.1319451   0.4762130  34.1457377  52.3670961   0.8552222
  32.6192235  48.5867170   7.0848330  32.6140274  47.7146987   7.0890756
  33.3253229  48.7855339   6.6117786  32.7237239  48.4871044   7.0155365
  26.3463129  48.3144154   6.4562150  26.4906504  48.8945362   5.8205260
  26.6938777  48.6920451   7.1612005  26.4190590  48.4564858   6.4661145
  28.5183046  47.5134322   4.2387282  27.7706360  47.7065337   3.8335560
  28.6724571  46.6879542   4.0011403  28.4305474  47.4199434   4.1432687
  25.4190884  56.5046926   3.3223177  25.5680447  55.9449842   2.6696581
  26.1990886  56.5838927   3.7055696  25.5564977  56.4332491   3.2820126
  27.9444184  56.6761569   4.6007668  27.8687855  56.0070379   5.1558456
  27.8734043  57.3779357   5.1148334  27.9224791  56.6806476   4.7584516
  28.7584823  41.4084873   5.1282685  29.2157437  42.1408847   5.2555477
  28.8341152  40.9851338   5.8869941  28.8375793  41.4542111   5.2583762
  21.0017814  41.6550693   6.2172129  20.4660004  41.0431051   6.5332896
  21.0635579  42.2298829   6.8705796  20.9313447  41.6497621   6.3607556
  33.2312149  34.5874748  -1.0023472  33.3495717  35.0451212  -1.7356169
  33.0574325  33.7820009  -1.2887254  33.2231320  34.5368520  -1.1522538
  26.6367201  43.3986977   1.9724509  25.8463276  43.2178437   2.2941845
  27.0327824  42.6213930   1.9554804  26.5784077  43.2574438   2.0177058
  32.0210887  51.0329407  -0.3016045  31.3455889  50.8014639   0.1997342
  32.0303263  50.4250590  -0.9273940  31.9229392  50.9088332  -0.3199893
  29.1505031  45.8747236   6.4548008  29.0864172  46.7357193   6.3268145
  29.2902219  45.5579229   5.6543560  29.1620501  45.9547403   6.3176221
  27.8324125  48.5679375   0.5964211  27.4086374  48.7683874  -0.1396771
  27.6568980  47.7208223   0.7088511  27.7435006  48.4728157   0.5037901
  27.3335819  60.0829888   3.0585668  27.8231749  59.3840678   2.8761333
  26.7620051  59.7853758   3.6461726  27.3220349  59.9356112   3.1186709
  23.1206570  49.0631427  -3.9707816  23.2771189  48.9978230  -3.1151824
  23.4607163  49.8379979  -4.1829137  23.1939805  49.1680625  -3.8753222
  29.6585715  48.4389310  -5.1014453  30.2001260  47.9359692  -4.6375833
  29.9732274  48.3854505  -5.9124968  29.7850112  48.3568731  -5.1530641
  33.5302822  52.6491958  12.0112459  34.3437687  52.3777107  12.1717592
  33.3697788  52.3499498  11.2072655  33.6272771  52.5646884  11.9157865
  30.8074984  43.3325615   4.9507847  31.0216954  42.6936529   4.3971201
  30.1908883  43.7771439   4.5215709  30.7480313  43.3035759   4.8058278
  19.6940832  46.2466377  -3.6547049  20.0739796  46.6650922  -4.3186782
  19.1196196  46.8279833  -3.3478206  19.6652156  46.3944236  -3.7070308
  32.9714072  44.9414680   5.8891154  32.1590754  44.6340571   5.9704327
  33.4304007  44.4613680   6.4533867  32.9194457  44.8251173   5.9845749
  30.1989713  36.4425551  -0.0604810  29.3283271  36.4164272  -0.1071500
  30.4530054  36.2702743  -0.8778964  30.1083273  36.4135694  -0.1884673
  30.0667580  46.3474752  10.6719857  30.5367211  46.9716868  11.0587731
  30.1129460  45.6791727  11.2313071  30.1435455  46.3409432  10.8119928
  27.2238853  38.4531779   1.3968661  26.7077342  37.7611971   1.5220240
  26.6632782  39.1202556   1.3431259  27.0645366  38.4495037   1.4074727
  29.2931087  38.9924739   3.2261513  28.9062840  39.0173771   4.0075043
  28.8064024  38.4266418   2.7736030  29.1643596  38.9120490   3.2749417
  33.5424066  53.7098248   7.2835300  34.1803787  53.2158444   6.9497756
  32.8998158  53.6375649   6.6987526  33.5418293  53.6257257   7.1477655
  35.2681066  45.5587394   1.8501215  34.8408674  45.4713743   1.0949315
  34.6307119  45.6665170   2.4356059  35.1110673  45.5620054   1.8246657
  28.9588228  35.8791725   5.5171773  29.5881346  36.4152025   5.2392843
  29.1274091  35.7869084   6.3685339  29.0766023  35.9453087   5.6020301
  28.7602143  40.6662919   7.7898185  29.5875573  40.3948068   7.8456799
  28.7809989  41.4623761   8.1462003  28.8854993  40.7442674   7.8513367
  33.5978323  54.4018056   3.9240656  34.3870701  54.0507121   4.0442738
  33.7721921  55.2154445   3.6617290  33.7398604  54.4703913   3.9028524
  23.3371633  47.8126782   0.9768445  22.4959640  47.7130656   1.1847339
  23.5461641  48.5822262   1.3282766  23.2436326  47.9118825   1.0595760
  20.8147200  45.4346319  -1.1946804  20.4203898  45.5089331  -1.9696694
  20.2587317  45.8204265  -0.6438442  20.6750012  45.5028094  -1.2279144
  32.4512147  38.4127613  -1.5142925  32.6561740  38.3449921  -0.6685928
  32.1238571  39.2186434  -1.5821748  32.4327395  38.5213554  -1.3983270
  27.1488298  45.7408181   0.2266043  26.8451435  45.1864170   0.8276450
  26.4467719  45.9200391  -0.2605923  27.0004508  45.6852964   0.2435748
  25.2106649  52.9557902   4.9338141  25.1027004  52.9659964   5.8000199
  25.4202430  53.7812682   4.7443094  25.2256760  53.0798977   5.0342232
  35.7045835  38.9659377  -2.0340160  35.0920148  39.4529779  -1.6486428
  35.8010009  38.2902868  -1.4902509  35.6283732  38.9377686  -1.8961302
  23.2280441  50.2070544   2.3960078  22.6368374  50.8480043   2.3663093
  23.9901465  50.6308162   2.3691378  23.2528702  50.3646383   2.3875225
  23.6241064  41.3672542   3.0628096  24.0842545  41.4411472   3.8003219
  23.6697171  42.1653796   2.7127917  23.6991619  41.4966689   3.1200852
  25.2724414  42.0339237   7.6300123  24.8809979  41.3872584   8.0655901
  25.4410276  42.6250672   8.2494378  25.2395324  42.0253505   7.7862829
  39.3470863  50.0376314   3.3937356  39.4053986  50.4862963   4.1397333
  38.7137330  50.4475127   2.9567436  39.2622158  50.1650049   3.4389905
  32.9869957  55.6579856  -0.1707897  32.7889646  56.1470670  -0.8651686
  32.3657668  55.8621097   0.4076236  32.8657522  55.7596394  -0.1884674
  27.0477936  47.4264753  -5.8297653  27.7919981  47.8139029  -5.5914703
  27.1938632  46.5822178  -5.6657165  27.1788521  47.3595226  -5.7703683
  28.9657511  39.2215012  -0.7965792  28.1193556  39.3937820  -0.9224442
  28.9628643  38.4164355  -0.4599963  28.8404661  39.1276041  -0.7654665
  30.0355811  42.9990226   0.0696266  29.5615766  42.4731988   0.5801577
  30.4073947  42.4519699  -0.4988872  30.0205700  42.8406223   0.0611413
  20.4128842  44.9961733   5.4379812  21.2754455  44.8957442   5.3517142
  20.0820625  44.4156442   4.8765384  20.4914038  44.8953360   5.3425218
  36.2992542  48.0592602   1.4803047  36.0590765  47.2199017   1.4845473
  36.7784549  48.1392768   2.2043820  36.3344726  47.9474001   1.5877849
  38.2997729  44.8394059  -0.5667694  38.0607499  44.7989893  -1.4046910
  38.4631630  45.6865211  -0.4401973  38.2888032  44.9586144  -0.6714212
  34.9043759  49.2244008   5.3637351  35.6277958  48.7716535   5.1848371
  34.6393721  49.5048674   4.5809679  34.9725032  49.1994977   5.2216066
  23.7730628  43.8204182   2.0990230  23.1483698  43.8322574   1.4916183
  23.4376222  44.2964357   2.7481470  23.6316119  43.8922699   2.1046799
  20.4856303  51.8804642   3.5393994  19.9556228  51.1897081   3.5888969
  20.7581396  51.8714827   2.7106703  20.4481025  51.7771774   3.4241410
  30.6862549  49.3227887   3.5132366  30.0719542  48.7785937   3.8081001
  31.2029834  48.8092123   3.0338182  30.6718211  49.1664296   3.4856594
  29.9258846  50.3932157   1.2476665  29.4986454  49.7681875   0.8142100
  29.9183790  50.1107078   2.0735672  29.8617987  50.2584937   1.3056492
  23.0421373  45.4297330   4.3165099  23.2014860  44.6740654   4.7216821
  22.8614267  45.9788269   4.9705836  23.0386732  45.3991143   4.4727805
  30.9841676  37.5958565   4.8715888  30.4882237  37.7922239   4.1807455
  31.7410738  37.9951233   4.7004690  31.0228501  37.6836299   4.7436025
  28.2544556  41.2700911   1.4619199  28.2787043  40.7361023   0.7731979
  28.5056029  40.7618220   2.1244789  28.2954474  41.1161815   1.4583843
  24.5345878  39.9971729   0.8424943  24.5744249  40.4980936   1.5559650
  23.7095542  40.0882123   0.5730866  24.4185404  40.0853546   0.9075481
  26.7175491  49.5632469   8.9445238  25.8671121  49.7004184   9.0802882
  26.8803618  48.8296248   9.3892939  26.6159354  49.4746571   9.0300837
  25.9560241  46.5132239   3.1398842  25.1252171  46.6806057   2.9334090
  25.9011758  46.1368190   3.9247727  25.8249656  46.4821970   3.2247370
  23.7644024  40.0041132   8.7755253  24.3896728  39.4603265   9.0484685
  23.3094504  39.5236050   8.2063043  23.7892285  39.8530613   8.7316846
  37.3379073  48.1870419   3.8667901  37.9296913  48.8267670   3.8986099
  37.7738068  47.4893456   4.1559967  37.4897504  48.1788769   3.9148733
  29.1672463  52.6087791   4.4925795  28.6597554  53.1623638   4.9366425
  28.8699109  52.6696081   3.6744569  29.0477348  52.6994103   4.4374251
  31.3334645  40.9741111   3.3350458  31.7589717  40.5213638   2.7233984
  30.7191638  40.4201182   3.6115245  31.3063291  40.8255087   3.2855483
  34.3628214  45.4015638  -3.8328957  33.6919404  45.9445340  -3.9615891
  35.0567965  45.8710493  -4.0747262  34.3657082  45.5513909  -3.8873429
  28.4114948  57.5412350   1.3982801  28.1880603  56.7831179   1.7666828
  27.9224792  57.5710371   0.6763241  28.3058397  57.4334574   1.3459542
  34.5256342  41.8571521  -0.9238584  34.8783952  41.4301244  -0.2492785
  33.6671143  41.7722365  -0.7937507  34.4505787  41.7816262  -0.8043573
  23.2240027  44.4879041  -2.8655737  22.5052016  44.9043174  -2.5982874
  23.5952389  45.0533280  -3.4164099  23.1731959  44.6328322  -2.9072930
  32.5239608  45.1206890   3.0246259  32.5037535  44.9390185   3.8781038
  32.5718808  45.9918908   3.0005842  32.5274249  45.2223428   3.1469553
  30.4685938  51.7094082   8.9494735  30.4281792  51.0643759   8.3639891
  31.2809256  51.6530699   9.2620147  30.5829091  51.6053049   8.9091684
  27.0593405  57.7612808  -1.1480114  26.6453804  57.0986938  -1.5376272
  27.7440779  57.9090667  -1.6684420  27.0991777  57.6853466  -1.2823617
  30.4258699  56.9202893  -0.3956497  30.0274983  57.0305163  -1.1635677
  29.8109919  57.1284959   0.1870062  30.2757589  56.9676461  -0.4225198
  35.9580402  36.9789933   0.0045729  35.4511267  36.2719073  -0.0633094
  36.7547836  36.6483122   0.1346805  36.0007641  36.8263085   0.0144724
  31.8744418  43.4856545  -4.0980607  31.6458111  43.5089247  -4.9402249
  32.1342494  42.6614012  -3.9785597  31.8790606  43.3672625  -4.2055410
  26.1563646  45.3391018   5.5044493  25.6442549  44.7312201   5.8629524
  25.9843142  46.0547611   5.9718469  26.0553283  45.3554318   5.6260717
  21.0029361  43.7828594   8.1546855  20.8331951  44.4429969   7.6095061
  20.5595311  43.9935155   8.8759344  20.9128695  43.9114576   8.1808484
  24.9289180  42.0233092  -2.8026412  25.4046547  42.3850172  -3.4376231
  24.4277780  42.6789559  -2.5226269  24.9254539  42.1727281  -2.8549671
  30.0332717  43.2615263   7.9446748  30.5904147  43.0329073   7.3125214
  29.7093782  44.0220929   7.6681961  30.0679127  43.3399100   7.8103245
  17.9031426  46.6875459   3.4135344  17.3558145  46.0176105   3.5316213
  18.6923804  46.3205307   3.4778812  17.9383609  46.5340446   3.4404045
  27.7515834  46.3482916   8.9098756  28.5027161  46.6634593   9.2238310
  27.9438410  46.1462087   8.0832677  27.8907248  46.3650298   8.8342151
  34.6001124  42.4756483  -3.8477449  34.5995351  42.3205139  -2.9893173
  34.3957304  43.3219470  -3.9036063  34.5700902  42.5777103  -3.7289510
  16.6618395  45.8996267   0.5681368  16.4840156  45.4472876   1.2936283
  16.3737417  46.7022429   0.7519845  16.5931348  45.9518825   0.7024870
  32.3241976  47.1553985  -0.1941242  32.8195641  46.4376980  -0.2337222
  31.5141752  46.8524782  -0.3086755  32.2785869  47.0051631  -0.2167516
  34.3893795  49.9057672   2.4935887  34.8148867  49.3832094   1.9406312
  34.0250715  50.5038509   1.9724510  34.3980398  49.9167899   2.3344896
  24.0247875  58.2021890   1.2533232  24.3394434  59.0158278   1.2611014
  24.4341288  57.8172108   1.9215391  24.1315973  58.2650592   1.3537324
  30.9772394  53.6191936  -1.1762956  31.4483573  54.3332199  -1.0072971
  31.3132573  53.0190686  -0.6403086  31.0967509  53.6363401  -1.0730580
  33.0649379  55.2293250  11.0029116  33.1746345  54.4401810  11.3585863
  33.3940276  55.1399186  10.2003454  33.1301785  55.0999103  10.9371507
  27.8941889  38.3919407   5.7795139  28.0269795  37.5950400   6.1076114
  28.2787042  38.9185810   6.3593414  27.9698218  38.3519324   5.9138642
  31.6146341  53.4109870   5.5864737  31.0667287  52.7867754   5.3184802
  32.0759370  53.6004142   4.8708816  31.6013550  53.3468921   5.4415168
  30.9674245  35.3149733   2.3776232  30.1620208  35.2047463   2.6944070
  30.8380980  35.4162189   1.5206098  30.8294377  35.3133403   2.2984273
  34.4240205  41.4795225   2.9715929  33.8403194  41.9804431   2.5593496
  34.7444499  40.9724781   2.3380252  34.3853380  41.4787060   2.8174436
  25.5530336  38.3878582   4.0273033  26.0974749  38.0469709   4.6177374
  25.6067272  39.2464044   4.1694317  25.6419456  38.4633841   4.1354906
  21.3660895  52.1494998   0.9011840  21.9705752  52.1090832   0.2725661
  21.1588207  52.9966150   0.9315896  21.4249792  52.2683000   0.8127957
  31.1804667  54.4160943   2.1174078  32.0003041  54.2723909   2.3790373
  30.8998745  55.0407142   2.6590516  31.2601410  54.4871295   2.2362017
  32.0368163  62.4440855   2.6350099  31.9126860  63.0303300   3.2699918
  32.6886447  61.9501050   2.9362374  32.1141812  62.4579659   2.7736028
  35.4749371  62.3620276   8.0479124  35.6469875  62.2526171   8.8964405
  36.0118728  63.0074682   7.8110316  35.5794375  62.4412278   8.1384220
  41.4124072  70.2824527   9.9988200  42.1964489  70.3955375  10.3643942
  41.2120667  69.4565664  10.1946885  41.4990098  70.1771246  10.0822586
  34.5309694  58.4930585   5.5299051  33.8381491  58.0227565   5.7759783
  35.1470022  58.2668890   6.1040758  34.5194224  58.3897717   5.6508204
  33.2550253  62.4595989   6.6725896  33.9790226  62.4449020   7.1590791
  33.3566390  63.1691345   6.1747865  33.3768462  62.5620693   6.6704683
  40.6295203  65.9395074  11.5374843  39.8368183  66.2538586  11.7227463
  40.7444130  66.1546542  10.6995628  40.5290613  66.0178911  11.4413178
  39.5550715  60.2999655   3.8738611  39.1665148  59.8753872   3.2190802
  38.8905413  60.5481804   4.3815637  39.3997643  60.2738376   3.8526479
  43.3777076  53.9974283   1.3862595  43.7587588  53.3152454   1.7730469
  42.5740361  53.7083885   1.2038259  43.3153538  53.8541332   1.4166651
  37.3368917  56.5028482  11.2525203  37.0222358  57.2728044  10.9894766
  37.0158849  55.9398738  10.6677430  37.2427836  56.5338750  11.1266553
  44.0133703  55.0396863   5.1982722  44.7587295  54.8506673   4.7846147
  43.5971007  55.5655100   4.6396578  44.0618677  55.0899008   5.0547295
  36.9685422  59.1025733   9.9910418  36.1585198  59.4083512   9.8800260
  37.4460109  59.8231315  10.1063002  36.9188901  59.2540334   9.9917489
  33.3029454  64.6388283   4.8609821  33.8150551  64.9172536   4.2118580
  33.0165797  65.3777577   5.2272634  33.3364317  64.7890637   4.8199699
  36.8213180  56.7314672   4.9210862  36.6296377  56.7469806   5.7710286
  37.6711775  56.9278346   4.8977517  36.9188901  56.7629023   5.0434157
  31.2060093  59.2605653   2.8994679  31.0645584  58.4089594   3.0239187
  31.4900656  59.3034314   2.0756885  31.2267939  59.1405403   2.7962303
  37.3195712  63.8329462   6.4562150  37.4639088  64.4130670   5.8205260
  37.6671361  64.2105759   7.1612005  37.3923174  63.9750166   6.4661145
  39.7317407  56.9270181   5.1282685  40.1890021  57.6594155   5.2555477
  39.8073735  56.5036646   5.8869941  39.8108376  56.9727419   5.2583762
  31.9750398  57.1736001   6.2172129  31.4392587  56.5616359   6.5332896
  32.0368163  57.7484137   6.8705796  31.9046030  57.1682928   6.3607556
  37.6099784  58.9172285   1.9724509  36.8195859  58.7363745   2.2941845
  38.0060407  58.1399237   1.9554804  37.5516661  58.7759746   2.0177058
  40.1237615  61.3932544   6.4548008  40.0596756  62.2542500   6.3268145
  40.2634803  61.0764537   5.6543560  40.1353085  61.4732711   6.3176221
  44.5035406  68.1677266  12.0112459  45.3170271  67.8962415  12.1717592
  44.3430372  67.8684806  11.2072655  44.6005354  68.0832192  11.9157865
  41.7807568  58.8510923   4.9507847  41.9949537  58.2121837   4.3971201
  41.1641467  59.2956747   4.5215709  41.7212897  58.8221067   4.8058278
  43.9446656  60.4599988   5.8891154  43.1323337  60.1525878   5.9704327
  44.4036590  59.9798988   6.4533867  43.8927040  60.3436480   5.9845749
  41.0400163  61.8660060  10.6719857  41.5099794  62.4902176  11.0587731
  41.0862043  61.1977035  11.2313071  41.1168039  61.8594740  10.8119928
  38.1971437  53.9717087   1.3968661  37.6809925  53.2797278   1.5220240
  37.6365366  54.6387864   1.3431259  38.0377950  53.9680345   1.4074727
  40.2663670  54.5110047   3.2261513  39.8795423  54.5359079   4.0075043
  39.7796608  53.9451726   2.7736030  40.1376179  54.4305798   3.2749417
  39.9320812  51.3977033   5.5171773  40.5613930  51.9337333   5.2392843
  40.1006675  51.3054391   6.3685339  40.0498607  51.4638395   5.6020301
  39.7334727  56.1848227   7.7898185  40.5608156  55.9133376   7.8456799
  39.7542573  56.9809069   8.1462003  39.8587577  56.2627981   7.8513367
  34.5973647  56.8857850   3.0628096  35.0575129  56.9596780   3.8003219
  34.6429754  57.6839104   2.7127917  34.6724203  57.0151997   3.1200852
  36.2456997  57.5524545   7.6300123  35.8542562  56.9057892   8.0655901
  36.4142860  58.1435980   8.2494378  36.2127907  57.5438813   7.7862829
  31.3861425  60.5147041   5.4379812  32.2487038  60.4142750   5.3517142
  31.0553208  59.9341750   4.8765384  31.4646622  60.4138667   5.3425218
  34.7463211  59.3389490   2.0990230  34.1216281  59.3507882   1.4916183
  34.4108806  59.8149665   2.7481470  34.6048703  59.4108007   2.1046799
  34.0153957  60.9482638   4.3165099  34.1747443  60.1925962   4.7216821
  33.8346850  61.4973577   4.9705836  34.0119315  60.9176451   4.4727805
  41.9574259  53.1143873   4.8715888  41.4614821  53.3107547   4.1807455
  42.7143322  53.5136541   4.7004690  41.9961084  53.2021607   4.7436025
  35.5078461  55.5157037   0.8424943  35.5476833  56.0166244   1.5559650
  34.6828126  55.6067431   0.5730866  35.3917987  55.6038854   0.9075481
  37.6908074  65.0817777   8.9445238  36.8403705  65.2189492   9.0802882
  37.8536202  64.3481555   9.3892939  37.5891938  64.9931878   9.0300837
  34.7376608  55.5226440   8.7755253  35.3629311  54.9788573   9.0484685
  34.2827088  55.0421358   8.2063043  34.7624869  55.3715921   8.7316846
  42.3067229  56.4926419   3.3350458  42.7322300  56.0398945   2.7233984
  41.6924222  55.9386490   3.6115245  42.2795874  56.3440395   3.2855483
  41.4418521  67.2279390   8.9494735  41.4014376  66.5829067   8.3639891
  42.2541839  67.1716007   9.2620147  41.5561675  67.1238357   8.9091684
  37.1296230  60.8576326   5.5044493  36.6175133  60.2497509   5.8629524
  36.9575726  61.5732919   5.9718469  37.0285867  60.8739626   5.6260717
  31.9761945  59.3013902   8.1546855  31.8064535  59.9615277   7.6095061
  31.5327895  59.5120463   8.8759344  31.8861278  59.4299884   8.1808484
  41.0065300  58.7800571   7.9446748  41.5636730  58.5514381   7.3125214
  40.6826365  59.5406237   7.6681961  41.0411710  58.8584408   7.8103245
  28.8764009  62.2060767   3.4135344  28.3290729  61.5361413   3.5316213
  29.6656387  61.8390615   3.4778812  28.9116193  62.0525754   3.4404045
  38.7248418  61.8668224   8.9098756  39.4759745  62.1819901   9.2238310
  38.9170994  61.6647395   8.0832677  38.8639832  61.8835606   8.8342151
  27.6350979  61.4181575   0.5681368  27.4572740  60.9658184   1.2936283
  27.3470001  62.2207736   0.7519845  27.5663932  61.4704133   0.7024870
  38.8674473  53.9104715   5.7795139  39.0002379  53.1135708   6.1076114
  39.2519626  54.4371118   6.3593414  38.9430802  53.8704632   5.9138642
  41.9406828  50.8335041   2.3776232  41.1352792  50.7232771   2.6944070
  41.8113564  50.9347497   1.5206098  41.8026961  50.8318711   2.2984273
  36.5262920  53.9063890   4.0273033  37.0707333  53.5655017   4.6177374
  36.5799855  54.7649351   4.1694317  36.6152039  53.9819149   4.1354906
  35.1700195  39.2998407  -5.0180830  35.3420699  39.1904302  -4.1695548
  35.7069552  39.9452813  -5.2549637  35.2745199  39.3790409  -4.9275733
  41.1074896  47.2202658  -3.0671754  41.8915313  47.3333506  -2.7016011
  40.9071491  46.3943795  -2.8713068  41.1940922  47.1149378  -2.9837368
  40.3246027  42.8773205  -1.5285110  39.5319007  43.1916717  -1.3432490
  40.4394954  43.0924674  -2.3664325  40.2241437  42.9557042  -1.6246775
  37.0319741  33.4406613  -1.8134750  36.7173182  34.2106176  -2.0765187
  36.7109673  32.8776869  -2.3982523  36.9378660  33.4716882  -1.9393400
  36.6636246  36.0403864  -3.0749535  35.8536022  36.3461644  -3.1859693
  37.1410933  36.7609446  -2.9596951  36.6139725  36.1918465  -3.0742464
  37.0146536  40.7707593  -6.6097803  37.1589912  41.3508801  -7.2454693
  37.3622185  41.1483890  -5.9047949  37.0873997  40.9128297  -6.5998808
  39.8188439  38.3310675  -6.6111945  39.7547580  39.1920632  -6.7391808
  39.9585626  38.0142668  -7.4116394  39.8303909  38.4110842  -6.7483732
  44.1986230  45.1055397  -1.0547494  45.0121095  44.8340546  -0.8942362
  44.0381196  44.8062937  -1.8587298  44.2956178  45.0210323  -1.1502088
  43.6397480  37.3978119  -7.1768799  42.8274161  37.0904010  -7.0955626
  44.0987414  36.9177119  -6.6126087  43.5877864  37.2814612  -7.0814205
  40.7350987  38.8038191  -2.3940096  41.2050618  39.4280307  -2.0072222
  40.7812867  38.1355166  -1.8346882  40.8118863  38.7972871  -2.2540025
  37.3858898  42.0195908  -4.1214716  36.5354529  42.1567623  -3.9857071
  37.5487026  41.2859687  -3.6767014  37.2842762  41.9310010  -4.0359116
  41.1369345  44.1657521  -4.1165218  41.0965200  43.5207198  -4.7020062
  41.9492663  44.1094138  -3.8039806  41.2512499  44.0616488  -4.1568269
  40.7016124  35.7178702  -5.1213205  41.2587554  35.4892512  -5.7534739
  40.3777189  36.4784368  -5.3977992  40.7362534  35.7962539  -5.2556708
  38.4199241  38.8046356  -4.1561198  39.1710568  39.1198032  -3.8421644
  38.6121818  38.6025526  -4.9827276  38.5590656  38.8213737  -4.2317802
  79.2133021  79.2133021  79.2133021 109.4712190 109.4712190 109.4712190
