default_name
 43986
  38.4367098  30.1844807  23.9421188  38.9259809  30.6278296  24.7064201
  38.1532196  30.8948989  23.2825435  38.9763282  29.3904880  23.6282923
  37.1447054  29.6021410  24.4840876  36.3029631  30.0637147  23.9678330
  37.0691989  28.0864774  24.2847294  36.9855499  27.9099116  23.2123831
  38.0083980  27.6700173  24.6488257  35.8883944  27.4060074  25.0119036
  36.1535247  27.3852727  26.0689640  35.0261749  28.0568745  24.8668118
  35.4538934  25.6786203  24.4543358  34.5361590  26.0286870  22.9466048
  35.1773106  26.5642064  22.2464316  34.2078563  25.0926127  22.4948494
  33.6666095  26.6415942  23.1839436  37.0115846  29.8934612  26.0025010
  35.9071551  30.1063425  26.5066251  37.8169200  32.3654148  27.5327067
  38.6009661  31.9723601  28.0335850  37.4981194  33.7858209  27.7406026
  37.6507927  34.0561619  28.7854499  38.4282866  34.6692347  26.8568119
  38.4636943  34.2633459  25.8458224  38.0416017  35.6878580  26.8254845
  39.6977111  34.6763814  27.3933594  40.2719134  35.2205431  26.8495030
  36.0817495  34.1383137  27.3401302  35.6619285  35.2965339  27.4352059
  35.3579780  33.1571289  26.7868922  35.6964867  32.2058789  26.8120827
  34.0573423  33.4146588  26.1667914  33.8937365  34.4890236  26.0826932
  34.0023383  32.7929350  24.7485957  34.7496285  33.3346637  24.1687797
  34.3219364  31.7586917  24.8762584  32.6404462  32.8254846  23.9977985
  32.7398306  32.1947917  23.1143677  31.8918831  32.3991336  24.6656138
  32.2102259  34.2142800  23.5796861  32.9946410  35.1634544  23.7649178
  31.0794408  34.3230900  23.0662491  32.9747898  32.7417284  27.0413924
  32.8846320  31.4794491  27.1062270  32.2040650  33.5414201  27.7588256
  32.4019829  34.5285252  27.8397663  31.0339159  32.9888679  28.5092697
  31.3801617  32.2763888  29.2579930  30.2617802  34.1202910  29.2241963
  29.9616273  34.8165492  28.4411049  29.3735998  33.6957816  29.6921998
  31.0941885  34.8686932  30.2858783  31.9564220  35.3327125  29.8069835
  30.2176098  35.9737482  30.9653877  29.3553673  35.5104122  31.4449256
  30.8104314  36.4990593  31.7141944  29.8758917  36.6822014  30.2107864
  31.6277781  33.9076430  31.3394156  32.2616984  33.1602011  30.8623675
  32.2107475  34.4615253  32.0752569  30.7934209  33.4122212  31.8359076
  30.0602141  32.2255330  27.6062356  29.7705456  32.6636344  26.4898001
  29.5656685  31.0897443  28.1216748  29.9952573  30.6859506  28.9417379
  28.4299261  30.3712127  27.4976470  28.5543745  30.3430347  26.4151417
  28.2923037  28.9118951  28.0205602  27.5043535  28.4105523  27.4585192
  29.6303932  28.1309860  27.8482423  30.4187702  28.6315065  28.4104170
  29.5087131  27.1139330  28.2209301  29.9006685  28.1007039  26.7927164
  27.9120587  28.9083321  29.4019754  27.8313805  28.0024440  29.7093159
  27.1277645  31.1174946  27.7475159  27.0664670  31.9871164  28.6401276
  26.0885016  30.8440194  26.9323975  26.0142468  30.0851313  25.6635748
  25.8498506  29.0279372  25.8719371  26.9421307  30.2046793  25.1042550
  24.8224045  30.7376805  24.9620269  24.3659010  30.0514434  24.2487372
  25.1249859  31.6489327  24.4461149  23.8741438  31.0541780  26.1166285
  23.3055808  30.1800742  26.4340838  23.1869647  31.8606799  25.8608179
  24.8163127  31.5057234  27.2491185  24.9730011  32.5807622  27.1605826
  24.2940028  31.1768742  28.6663597  23.7901218  32.0874307  29.3254802
  24.5067097  29.9558248  29.1744177  24.9172731  29.2291182  28.6057046
  24.1092612  29.6227336  30.5540206  23.0669826  29.9075929  30.6975813
  24.2547932  28.1362212  30.8607555  25.2156990  27.8074311  30.4649572
  24.2491259  28.0180606  31.9443172  23.1306925  27.2866193  30.2472645
  22.1965439  27.5209129  30.7577287  23.0620382  27.5967345  29.2045688
  23.3840381  25.7812572  30.3149535  24.2259734  25.3332652  31.1281012
  22.6958529  25.0303655  29.5607361  24.9222173  30.4053782  31.5896629
  24.3896481  30.8636256  32.6151815  26.2223381  30.5392068  31.3386734
  26.6727497  30.1128843  30.5415047  27.0425956  31.2965190  32.2706481
  26.8683102  30.9376626  33.2850178  28.5364822  31.1384048  31.9434667
  28.6483003  31.3107266  30.8729989  29.0672146  31.9155466  32.4934428
  29.1211192  29.7678418  32.3038811  29.2397741  29.7044882  33.3855502
  28.4170736  29.0052787  31.9708400  30.4806849  29.5402552  31.6257332
  30.8593805  30.3172730  30.7108791  31.1841215  28.6051117  32.0011976
  26.6201568  32.7744453  32.1962684  26.5110647  33.4218255  33.2284988
  26.3578608  33.3209377  31.0032617  26.3630682  32.7849869  30.1472074
  26.0256791  34.7453138  30.9286365  26.8424641  35.2982852  31.3925158
  25.8107320  35.2891854  29.4989609  25.0117762  34.7005895  29.0480466
  25.4879215  36.3258721  29.5947428  27.0084599  35.2254090  28.6454028
  27.7941614  35.8423979  29.0814057  27.3509743  34.1925170  28.5827929
  26.6748434  35.7418106  27.2331909  25.7864022  35.2536188  26.8326413
  26.5275073  36.8218045  27.2310010  27.8123843  35.4227094  26.3730977
  27.7916996  34.5349477  25.8919005  28.8620703  36.2217711  26.1879586
  28.9245648  37.4439141  26.7852191  28.1668244  37.7525239  27.3774095
  29.7283762  38.0362994  26.6333429  29.8552430  35.7914768  25.3978651
  29.7922884  34.8822846  24.9625418  30.6622140  36.3783208  25.2413065
  24.7469663  35.0328424  31.6500947  24.6292885  36.0702315  32.2954488
  23.7747506  34.1175750  31.5462467  23.8750425  33.3161446  30.9398226
  22.5088739  34.3031058  32.2413858  22.0972961  35.2851348  32.0083152
  21.5037463  33.2352588  31.8039898  21.2714179  33.3489821  30.7451273
  21.9116496  32.2400956  31.9810920  20.3243049  33.4032930  32.5657007
  19.6789208  32.7416109  32.3063631  22.6620419  34.3007884  33.7634923
  22.1001151  35.1542690  34.4649216  23.4001730  33.3251543  34.2558790
  23.7183892  32.6017832  33.6269338  23.7338921  33.2122690  35.6472910
  22.8274808  33.1485161  36.2493320  24.5431856  31.9726855  35.8684940
  23.8924064  31.1273806  35.6447860  25.3630150  31.9993297  35.1506709
  25.0967159  31.8237990  37.2532012  25.9600347  31.1613717  37.1901812
  25.4217324  32.8140015  37.5725168  24.1077424  31.2694195  38.2570720
  22.9335919  30.9498561  37.8921394  24.5403680  31.1542362  39.4287178
  24.5058138  34.4213392  36.1988669  24.3070295  34.7451352  37.3641407
  25.3815639  35.0280462  35.3850626  25.4967372  34.6678082  34.4485462
  26.2549708  36.1273324  35.8213379  26.3206631  36.1274958  36.9093562
  27.6860514  35.9764680  35.2378542  27.4670677  35.9117851  34.1720393
  28.3341336  36.8329290  35.4237681  28.3992557  34.6800343  35.6978644
  27.6929451  33.8531178  35.6241399  29.6266967  34.3792131  34.8386619
  30.3337182  35.2055329  34.9122477  30.1013564  33.4631725  35.1903273
  29.3217537  34.2540635  33.7996971  28.6998251  34.6785758  37.1996220
  27.7673229  34.7646807  37.7574079  29.1996083  33.7483362  37.4697557
  29.3467634  35.5216716  37.4420255  25.7585219  37.5455154  35.5242179
  26.4312736  38.5143612  35.9261459  24.5916533  37.6611825  34.8845392
  24.0481264  36.8308295  34.6969445  24.0516754  38.9529360  34.4632428
  24.6437519  39.3754632  33.6514452  22.6212260  38.7358984  33.9637206
  22.5769550  37.7597742  33.4806875  21.9571919  38.7434335  34.8280712
  22.1888643  39.7946410  32.9919092  22.0163353  40.7403109  33.5057604
  22.9421017  39.9351209  32.2166668  20.8888435  39.3179694  32.3560325
  21.0970728  38.9557755  31.3492777  20.4761942  38.5064735  32.9554443
  19.8753654  40.4683059  32.2860533  18.9783353  40.1011488  31.7874219
  19.6280074  40.7658513  33.3050626  20.4125905  41.6460676  31.5402367
  20.6414579  41.3706710  30.5958448  19.7159218  42.3770073  31.5183283
  21.2435609  41.9867009  32.0023583  24.0095386  39.9362451  35.6345910
  24.4831699  41.0727716  35.5421636  23.4479799  39.4614522  36.7658847
  22.9422755  38.5872136  36.7742090  23.3488799  40.3346256  37.9431759
  23.0491736  41.3294538  37.6136426  22.3218439  39.8282104  38.9841368
  22.5497943  38.7944089  39.2437371  22.4004248  40.4517151  39.8747361
  20.8932937  39.8959046  38.4681769  20.5875469  40.6245649  37.5201843
  19.9868085  39.1077254  39.0938000  19.0231420  39.1135252  38.7914542
  20.2785740  38.5177132  39.8598673  24.6736547  40.7105679  38.5598995
  24.8436875  41.8683896  38.9472736  25.6111167  39.7620383  38.6633678
  25.3880869  38.7990496  38.4559797  26.9506996  40.0727041  39.1419839
  26.8841394  40.5456922  40.1217549  27.8069390  38.8054256  39.2664290
  27.9246971  38.3416008  38.2870931  28.7879002  39.0603743  39.6674481
  27.1581284  37.8975992  40.1448828  27.6868396  37.1007570  40.2291849
  27.6815437  41.0782620  38.2698599  28.4373160  41.8869137  38.7557608
  27.4646669  40.9960941  36.9597874  26.9086789  40.2482911  36.5702142
  28.1164682  41.9174148  36.0459224  29.1760381  42.0286785  36.2762074
  27.9549435  41.4119947  34.5897687  26.9392227  41.0371371  34.4636997
  28.2239562  42.5723926  33.5416351  29.2397101  42.9474668  33.6667912
  28.1024597  42.1845279  32.5302498  27.5147695  43.3834882  33.7067935
  28.9184497  40.2259204  34.3641729  29.9302064  40.6313822  34.3571105
  28.8032129  39.5529215  35.2138154  28.6678559  39.4513273  33.0594211
  28.7833784  40.1236085  32.2092492  29.3859414  38.6354482  32.9769970
  27.6563833  39.0451496  33.0659532  27.5761337  43.3488646  36.2482691
  28.3591034  44.3234805  36.2873890  26.2631183  43.4525203  36.4375017
  25.6764340  42.6370751  36.3328593  25.6145620  44.7524259  36.6946404
  25.9359402  45.4709144  35.9405916  24.0690773  44.5947490  36.6045070
  23.7310845  43.8850906  37.3596532  23.5941657  45.5607377  36.7760442
  23.7978912  44.2278146  35.6145997  26.0818254  45.3109287  38.0426272
  26.3602932  46.5161848  38.1892134  26.2589474  44.4214760  39.0239582
  26.1910164  43.4266601  38.8632532  26.5430443  44.8823498  40.3678724
  25.8952275  45.7193724  40.6283059  26.2846239  43.7242925  41.3699265
  25.2370553  43.4370435  41.2794429  26.9171985  42.8865238  41.0765104
  26.5871936  44.1088711  42.8317041  27.6306343  44.4184322  42.8909017
  25.9436397  44.9536237  43.0773267  26.3335931  42.9606775  43.8330667
  26.1625885  41.7777106  43.4041743  26.3207112  43.2512453  45.0609358
  28.0101656  45.3510140  40.4894697  28.2638268  46.4113081  41.0751432
  28.9580246  44.5264756  39.9885340  28.6720920  43.7385339  39.4250716
  30.4067772  44.7025696  40.2701947  30.5528072  45.4692784  41.0310706
  30.9915955  43.3890187  40.7827886  30.6633858  42.5483467  40.1715209
  32.0803166  43.4410118  40.7736759  30.5912711  43.0789529  42.1844496
  31.0839837  43.8496248  43.2524460  31.7672444  44.6744009  43.0499640
  30.7048918  43.5653341  44.5609253  31.0888885  44.1719675  45.3810735
  29.8402375  42.5125217  44.8226274  29.5478936  42.2936854  45.8496355
  29.3454216  41.7352734  43.7763181  28.6765022  40.8979434  43.9751285
  29.7176441  42.0406639  42.4519450  29.3161222  41.4558835  41.6243509
  31.2352093  45.1601802  39.0952501  32.3215460  45.7192495  39.2752511
  30.7144404  44.9759007  37.8981145  29.7626114  44.6597758  37.7790097
  31.5619098  45.1376927  36.6840042  32.5303003  45.5662886  36.9421214
  31.7894805  43.7474310  36.0590082  30.8605713  43.2835952  35.7272200
  32.4655197  43.8530774  35.2105332  32.4410663  42.7754888  37.0117277
  33.7543553  42.8957838  37.4014303  34.0539701  41.9168702  38.2583697
  35.0335810  41.8821612  38.7350843  33.0047625  41.1123410  38.3659532
  32.9571155  40.2556890  38.8988481  31.9661005  41.6417302  37.6188594
  30.9961793  41.1445779  37.6049451  31.0044270  46.0998133  35.6758757
  31.4379622  46.0882178  34.4800740  30.1382768  47.0015925  36.1300938
  29.8344319  46.9963669  37.0932918  29.5861220  48.0604727  35.2131970
  30.0471150  47.9138973  34.2364164  28.0438986  47.9115756  35.0627786
  27.5771585  48.1415854  36.0205622  27.4822122  48.8833337  33.9589034
  27.9481794  48.6536093  33.0006754  26.4027570  48.7560468  33.8772111
  27.7062479  49.9141305  34.2334330  27.7793379  46.5817065  34.6238857
  26.8324381  46.4607308  34.5221706  29.9176467  49.3959554  35.8287288
  29.8988448  49.5205057  37.0319169  30.1801672  50.4118095  35.0062032
  29.9777079  50.3575306  34.0181934  30.7595437  51.6564521  35.5314933
  30.6842270  51.6748166  36.6187326  32.2501870  51.7497740  35.1384074
  32.4027490  51.7398318  34.0591830  32.5788802  52.7072599  35.5424886
  33.0510309  50.6353553  35.7701495  33.5066966  50.7579391  37.0723860
  33.3099372  51.6895883  37.6028717  34.1949827  49.7369046  37.7006413
  34.5871643  49.8596955  38.7102045  34.4318234  48.5416534  36.9934750
  35.1011307  47.5340106  37.6457608  35.3423942  47.7652376  38.5457195
  33.9628378  48.3720800  35.7119403  34.1341866  47.4388188  35.1755043
  33.2549197  49.4196076  35.0933653  32.8617009  49.2906968  34.0849700
  30.0777354  52.8706167  34.9787087  29.7310778  52.9023940  33.7892324
  29.9247239  53.8642740  35.8429532  30.0132316  53.7203333  36.8387176
  29.6246818  55.2133537  35.3607762  28.9377203  55.1589381  34.5162515
  28.9789707  56.0407173  36.4593101  28.1607608  55.4499753  36.8712030
  29.7334720  56.2019788  37.2292598  28.4423338  57.3906307  35.9812752
  28.0409175  57.2952215  34.9723833  27.6470617  57.6973237  36.6606748
  29.5115841  58.4579930  35.9765026  30.3481024  58.5262626  36.8881316
  29.5112438  59.2881424  34.9360504  30.2030687  60.0217838  34.8790405
  28.8191639  59.1806076  34.2083397  30.9639583  55.7861489  34.9644551
  31.9005066  55.8295798  35.7967303  31.0906248  56.1745912  33.6988584
  30.3273175  56.0715476  33.0455259  32.3643833  56.7033956  33.2017345
  33.1020648  56.6661956  34.0033213  32.8935317  55.8997961  32.0129209
  32.0907544  56.0148631  31.2846301  33.7949668  56.3852868  31.6390043
  33.1725977  54.4022068  32.2362892  32.3286739  53.9722535  32.7757646
  33.3611136  53.6686758  30.9307843  34.2052104  54.0977942  30.3909169
  33.5559136  52.6149513  31.1303294  32.4585551  53.7627768  30.3269353
  34.3731285  54.2017209  33.1502335  34.1774133  54.6683806  34.1156473
  34.5486682  53.1352867  33.2916726  35.2542508  54.6577201  32.6988054
  32.2266181  58.1644221  32.8126336  31.3385499  58.5535580  32.0603935
  33.1298365  58.9503691  33.3632194  33.5764157  58.6635492  34.2225219
  33.4054685  60.2647130  32.8594366  32.4851279  60.7632297  32.5552105
  34.0634078  61.0882362  33.9790358  34.9668909  60.5710170  34.3019940
  34.3304705  62.0599029  33.5635345  33.1247165  61.2864418  35.1876417
  31.8758779  61.2600089  35.0170030  33.6349957  61.4624759  36.3227452
  34.2313707  60.2614033  31.5419858  34.8678183  59.2420023  31.1668617
  34.1943419  61.4018162  30.7987280  33.2546611  62.5361300  30.9639981
  33.5719320  63.1436292  31.8115736  32.2534467  62.1477285  31.1505805
  33.3486563  63.2711456  29.6622274  33.1944398  64.3378711  29.8247479
  32.5957844  62.8972915  28.9683121  34.7444320  62.9861071  29.1501852
  35.5089715  63.6171319  29.6033806  34.7920730  63.0807916  28.0653512
  34.9668015  61.5186218  29.5596430  34.5036061  60.8377221  28.8455534
  36.4716066  61.1970546  29.6741559  37.0593766  60.7524586  28.7147546
  37.1214203  61.3973304  30.8044141  36.7335717  61.7685262  31.6599178
  38.5565448  61.0326607  30.7844213  38.9223435  61.3218715  29.7992068
  39.0309662  61.6536720  31.5442691  38.9226574  59.5558943  31.0424203
  40.0953841  59.2511863  31.2172633  37.9485491  58.6488202  31.0625129
  36.9808845  58.8959132  30.9119485  38.2581472  57.2804360  31.5253763
  39.3082645  57.0602864  31.3333163  37.9952802  57.1338805  33.0186333
  38.2131382  56.1085577  33.3175482  38.6485212  57.8167430  33.5618413
  36.6578498  57.4324410  33.3145852  36.5095307  57.3353153  34.2580723
  37.6145012  56.1784215  30.6964389  36.8145180  56.4382767  29.7986772
  38.0233685  54.9290312  30.9498386  38.6619862  54.7329877  31.7073567
  37.5690918  53.8221582  30.1293103  36.5574009  54.0300681  29.7809509
  38.4790727  53.5992825  28.8994184  38.0750426  52.7925546  28.2878228
  38.5250555  54.5142351  28.3087854  40.2240990  53.1387288  29.2640463
  40.6131651  53.0524868  27.9951538  37.5712858  52.5678676  31.0155486
  38.1961666  52.5683055  32.0846337  36.8586790  51.5524130  30.5675861
  36.3312155  51.6357155  29.7102983  36.7377498  50.3016652  31.3460789
  37.6459625  50.1540355  31.9304197  35.5314199  50.3431520  32.3105477
  35.5476754  49.4387260  32.9186994  35.6378658  51.2157115  32.9550703
  34.2836857  50.4209913  31.6016172  33.5590801  50.4448904  32.2308829
  36.6492943  49.1070908  30.4332237  36.3046118  49.2253136  29.2237658
  36.9494720  47.9328613  30.9968401  37.2145928  47.8930438  31.9706085
  36.8090220  46.6578089  30.2540580  36.0618141  46.7729715  29.4688720
  38.1387077  46.2498496  29.6089687  38.9215889  46.4668311  30.3356840
  38.0898182  45.1743619  29.4385690  38.4344520  46.9145967  28.3770666
  39.2785764  46.6047091  28.0408771  36.4845984  45.5906600  31.2829494
  36.8778234  45.7277692  32.4525806  35.7852498  44.5582149  30.8166418
  35.4333904  44.6189252  29.8718622  35.4638738  43.3837486  31.5926465
  35.8903909  43.4661926  32.5923391  33.9304221  43.2436564  31.7201067
  33.7308933  43.9907826  32.4882799  33.4488709  43.5429046  30.7891615
  33.3746358  41.8886305  32.1695335  33.7250548  41.1122596  31.4894192
  33.8660031  41.5657183  33.6335867  33.5155541  42.3414625  34.3143989
  33.4671143  40.6008790  33.9467537  34.9552985  41.5314048  33.6525246
  31.8379520  41.8035244  32.0189846  31.5661940  41.9487420  30.9734422
  31.4935559  40.8240043  32.3506969  31.3694033  42.5777533  32.6265459
  36.0808759  42.1345528  30.9219937  35.9361251  41.9520831  29.6976906
  36.7317659  41.2776731  31.7222365  36.8985405  41.5063575  32.6917668
  37.2528056  39.9894356  31.2039974  36.9311428  39.8435399  30.1728104
  38.7869777  39.9910414  31.2435851  39.0760978  40.2036528  32.2728106
  39.2596090  39.0643710  30.9180062  39.3648708  41.0851267  30.4018239
  39.4192193  40.9942694  29.0318238  39.8749672  42.1402190  28.5412942
  39.9652768  42.2852835  27.4647723  40.1517952  42.9457264  29.5500847
  40.5408780  43.8753318  29.4826437  39.8225288  42.3115531  30.7255730
  39.9575593  42.8243921  31.6778671  36.7450808  38.7832110  31.9938435
  36.5744018  38.9033914  33.1809300  36.4599413  37.6712786  31.2822510
  36.5567481  37.6814412  30.2769528  36.0155824  36.4236419  31.9288287
  35.8359641  36.5508866  32.9963704  34.7253783  35.9168538  31.2716300
  34.8920990  35.7758709  30.2037217  34.4362217  34.9673729  31.7221573
  33.9297841  36.6467180  31.4213875  37.0941803  35.3962120  31.7618577
  37.8348298  35.3740416  30.7554523  37.1801274  34.4868994  32.7282312
  36.6385683  34.5292345  33.5797127  38.0997470  33.4016359  32.5616875
  38.2687541  33.2024299  31.5034565  39.4620256  33.7844412  33.2210182
  39.8940023  34.5913215  32.6290388  39.2459256  34.1472535  34.2258904
  40.4847523  32.5881796  33.3034210  41.2756544  32.8602639  34.0023808
  39.9634281  31.7045301  33.6715061  41.1075441  32.2602511  31.9789126
  41.6342376  33.1503040  31.2669297  41.0624672  30.9632373  31.5992596
  41.4663063  30.6842902  30.7165343  40.6251642  30.2792565  32.2001236
  37.5148433  32.1541545  33.2185663  37.2972769  32.1570107  34.4212291
  37.3235835  31.0834792  32.4294984  37.5068446  31.1666299  31.4397506
  36.8368748  29.7809425  32.9478831  36.0799939  29.9450438  33.7148910
  36.2054084  28.9480646  31.7969362  35.5850667  29.6176898  31.2012202
  37.0167120  28.5607599  31.1805909  35.3197388  27.7380150  32.3287879
  35.9899442  26.9889178  32.7504262  34.6629884  28.1186484  33.1110279
  34.4698035  27.0966142  31.2106122  35.1262066  26.6954233  30.4384207
  33.8661655  26.2908322  31.6282676  33.5809899  28.0795496  30.6035980
  32.7185579  28.2814536  31.0889280  33.8082866  28.6779227  29.4388110
  34.9105894  28.3870133  28.7410400  35.5693202  27.7116722  29.1017172
  35.0797533  28.8438657  27.8562976  32.9601868  29.5984149  29.0173910
  32.1556206  29.8349755  29.5802520  33.1200811  30.0615514  28.1341939
  38.0249846  29.0466513  33.5492595  39.1378473  29.0444810  32.9699505
  37.8138955  28.4367310  34.7230450  36.9059459  28.4941364  35.1617150
  38.8598947  27.6890694  35.3998654  39.6783044  27.5011174  34.7048987
  39.4019281  28.4619048  36.6458471  38.5939761  28.5857083  37.3669481
  40.5479965  27.6880623  37.2938627  41.3565734  27.5642571  36.5734626
  40.9149182  28.2387413  38.1600161  40.1916597  26.7080785  37.6112820
  39.8826426  29.8627732  36.1694260  40.5694620  29.7240771  35.3344750
  39.0131265  30.4279985  35.8339241  40.6158519  30.6599364  37.3306616
  41.4858019  30.0955107  37.6663855  40.9362970  31.6328390  36.9580025
  39.9294664  30.7994301  38.1658360  38.2650742  26.3568627  35.8448640
  37.2109588  26.3130265  36.5056969  38.9675234  25.2758277  35.4844720
  39.8161668  25.3929208  34.9495019  38.4855833  23.9028038  35.7421234
  37.4007944  23.9016832  35.8485702  38.8667208  22.9791484  34.5654892
  39.9232372  23.1931823  34.4040527  38.7275265  21.9040286  34.6788131
  38.1501568  23.3750494  33.3046603  36.7989051  23.1803499  33.1552320
  36.3929158  23.7105417  32.0094221  35.3502957  23.6478160  31.6978007
  37.4411672  24.2606591  31.4230665  37.4412741  24.7351667  30.5314711
  38.5458624  24.0854763  32.2237089  39.5086318  24.4978766  31.9218774
  39.0466733  23.4756349  37.0958349  39.9206545  22.6256714  37.1837494
  38.5505896  24.1451144  38.1276658  37.8714457  24.8672317  37.9342507
  38.9701162  23.9398711  39.5170537  39.1022767  22.8769517  39.7191304
  40.2711828  24.6534994  39.8120134  40.1519607  25.7203565  39.6230635
  40.5428249  24.4980896  40.8561200  41.0574405  24.2569131  39.1696604
  37.8500791  24.4260030  40.4232705  36.9929053  25.1862433  39.9795803
  37.8148439  23.9492853  41.6989553  38.7697222  23.0084260  42.3369867
  39.6016013  23.5551200  42.7810623  39.1521822  22.2998213  41.6023421
  37.8979769  22.3513328  43.3653002  38.4945835  21.9232433  44.1708429
  37.2811965  21.5723157  42.9171755  37.0183606  23.5333362  43.8746459
  37.6464824  24.0990594  44.5627733  36.0756297  23.2868427  44.3631119
  36.7516491  24.3630485  42.6082906  35.7838219  24.2047770  42.1325188
  36.9162210  25.8413478  42.9446717  38.0619778  26.3097699  43.0686875
  35.7888849  26.5438845  43.1325697  34.3944016  26.1400725  42.8530107
  34.2008747  25.1676860  43.3059036  34.2451200  26.0745201  41.7752738
  33.5993134  27.2172208  43.4652854  33.4146686  26.9927863  44.5158255
  32.6478167  27.3202112  42.9436070  34.4484019  28.4772637  43.3048465
  34.2483460  29.1407541  44.1461889  34.2603682  29.0080042  42.3715419
  35.9008884  28.0025237  43.3513750  36.4900380  28.4277980  42.5388833
  36.5698338  28.3239265  44.6869556  37.2249994  29.3619870  44.7966439
  36.4428954  27.4343777  45.6950680  35.7987144  26.6570409  45.6654405
  37.1489981  27.6980967  46.9397094  36.9446545  28.7199342  47.2593826
  36.6992781  26.7192368  48.0755348  37.2617367  26.9740862  48.9737505
  35.6367655  26.8849816  48.2535675  36.9383887  25.2222736  47.7212336
  37.8357964  25.1983387  47.1030206  37.1271942  24.6934596  48.6554751
  35.7724912  24.5353121  46.9656611  34.9664146  25.2160748  46.2852762
  35.6617424  23.2741336  47.0776634  38.6526115  27.7045346  46.7108184
  39.3800738  28.5047982  47.3352948  39.1566172  26.8270625  45.8462218
  38.5923614  26.0990137  45.4319036  40.5856432  26.8561199  45.5386601
  41.1641909  26.8922397  46.4617403  40.9836432  25.6009243  44.7613487
  40.6995773  24.7967927  45.4401552  40.3225017  25.5947539  43.8947728
  42.4147806  25.3954506  44.3060517  42.5784900  26.0238696  43.4306149
  43.4490023  25.7515346  45.3952820  43.2862081  25.1231613  46.2709211
  44.4549827  25.5840699  45.0104968  43.3371407  26.7991698  45.6746525
  42.5653979  23.9289772  43.9115594  41.8720346  23.6965655  43.1032702
  43.5865844  23.7450293  43.5777292  42.3453069  23.2964058  44.7715085
  41.0052636  28.1272263  44.7550561  42.0161423  28.7822731  45.0767766
  40.2451563  28.4671512  43.7241939  39.4883813  27.8840804  43.3964450
  40.5411539  29.7216757  42.9819475  41.5336843  29.7018885  42.5318464
  39.4974634  29.9638114  41.8666294  38.4978142  29.8889161  42.2946382
  39.6865158  31.3653122  41.2419019  40.6858444  31.4408098  40.8132489
  38.9434900  31.5179999  40.4591505  39.5636913  32.1266333  42.0122304
  39.5838769  28.8680090  40.7658915  39.3963888  27.8904611  41.2101329
  38.8378906  29.0658451  39.9961741  40.5779903  28.8788004  40.3189877
  40.5731512  30.9167562  43.9524673  41.4989497  31.7596650  43.9110443
  39.5537248  31.0015913  44.7989489  38.7691969  30.3763862  44.6817575
  39.4388760  32.0963278  45.7961768  39.5022051  33.0584931  45.2879184
  38.0816481  32.0240915  46.5581146  37.2242581  32.1431228  45.8956848
  38.0163510  31.0622822  47.0667984  37.9547869  33.0853661  47.6233867
  37.8943951  32.8822458  48.9734193  37.9081132  31.8428859  49.3015086
  37.8272160  34.0736042  49.6463837  37.7856809  34.1845039  50.6494170
  37.8324239  35.0982536  48.7291752  37.7734922  36.4693971  48.9452159
  37.7159293  36.8329816  49.9711747  37.7921584  37.3029227  47.8178537
  37.7518109  38.3847497  47.9448271  37.8636239  36.7607320  46.4922968
  37.8700038  37.4061600  45.6139566  37.9281452  35.3638603  46.2895155
  37.9574962  34.9821877  45.2689444  37.9194769  34.5179618  47.4330008
  40.6695328  32.1857955  46.7508933  41.1896701  33.2572829  47.0469979
  41.1139965  31.0202514  47.2481386  40.6107055  30.1669588  47.0514425
  42.2937316  30.9476157  48.1198943  42.1159181  31.4785639  49.0550817
  42.5782535  29.4624511  48.4413945  43.0924844  29.3929107  49.3999507
  41.6355476  28.9179086  48.4950514  43.4010968  28.8924634  47.4157704
  43.5746630  27.9706770  47.6201827  43.5300195  31.6015112  47.4857223
  44.4056138  32.0935686  48.1853443  43.6083927  31.6387135  46.1474328
  42.8896141  31.2119994  45.5805362  44.7258875  32.2701209  45.4779973
  45.6428961  32.2535349  46.0669959  44.9880282  31.6015319  44.0848799
  44.0599266  31.6154884  43.5134493  46.0877082  32.3507849  43.2990398
  47.0163020  32.3368500  43.8696710  46.2452374  31.8617743  42.3377106
  45.7783222  33.3829499  43.1346772  45.3102205  30.1093597  44.2811970
  46.3663695  30.0476582  44.5435765  44.7069627  29.7653704  45.1213463
  45.0310776  29.2124391  43.0412523  45.6343688  29.5555541  42.2007693
  45.2880270  28.1791307  43.2743829  43.9749618  29.2732682  42.7785377
  44.4743717  33.7712514  45.2585593  45.3447431  34.6259950  45.5535240
  43.3137077  34.0613716  44.6718769  42.7083042  33.3008865  44.3975625
  42.8828982  35.4603692  44.3575988  43.5646565  36.0073589  43.7063638
  41.4958629  35.4392497  43.7072379  40.9230546  34.6407718  44.1788552
  40.7218431  36.7959171  43.8561270  41.2938550  37.5948496  43.3843111
  39.7476372  36.7137987  43.3741726  40.5855598  37.0229249  44.9134803
  41.6554712  35.0232489  42.2595009  42.1046989  34.0311950  42.2133956
  40.6781985  35.0017660  41.7772394  42.2985361  35.7370092  41.7446080
  42.8587257  36.3450258  45.6237044  43.1344663  37.5566349  45.5569852
  42.5339259  35.7558649  46.7695629  42.2620942  34.7833542  46.7902913
  42.3924157  36.5549552  48.0175227  41.9471637  37.5232110  47.7887639
  41.4894623  35.8247089  49.0198423  41.1693041  36.5274158  49.7891283
  40.6156211  35.4372112  48.4960607  42.2557205  34.6553138  49.6776693
  42.5442101  33.9408919  48.9066466  43.1499535  35.0451114  50.1639894
  41.3601835  33.9457873  50.7322258  40.4560905  33.5642040  50.2577693
  41.9055496  33.1205953  51.1901923  40.9759772  34.8928344  51.7800446
  40.0919143  35.3637301  51.6504711  41.6920210  35.1769227  52.8595580
  42.8755893  34.5773020  53.0595004  43.2197950  33.9086943  52.3852704
  43.4169050  34.7972837  53.8833239  41.2191097  36.0528225  53.7391435
  40.3237836  36.4918313  53.5786367  41.7570376  36.2757683  54.5643874
  43.7018835  37.0096500  48.6718594  43.7013441  37.8939145  49.5388380
  44.8052703  36.3840592  48.2677790  44.7063695  35.6476804  47.5836268
  46.1298057  36.6415964  48.8193399  46.0747462  36.7617541  49.9012964
  47.0440676  35.4580814  48.5053616  47.0033390  35.2689743  47.4326646
  48.0618405  35.7271134  48.7879572  46.6261329  34.2103331  49.2535600
  45.5610673  34.0322257  49.1051899  47.1918379  33.3543457  48.8856396
  46.9047403  34.4023560  50.7301054  46.4467841  35.3260106  51.0839941
  46.5124125  33.5608863  51.3011632  48.3509612  34.4827550  50.9465354
  48.9452236  34.2583386  50.1613036  48.9214710  34.8334189  52.0928959
  48.1596016  35.1559856  53.1379375  47.1535421  35.1319117  53.0521200
  48.5918478  35.4230069  54.0108421  50.2514412  34.8551136  52.1960053
  50.8207361  34.6042903  51.4003351  50.6828995  35.1222593  53.0692611
  46.7043079  37.9751168  48.2919373  47.6002591  38.0079719  47.4421479
  46.2108600  39.0561999  48.8733800  45.4636239  38.9582421  49.5457949
  46.6457025  40.4092674  48.5089224  46.4899684  40.5870500  47.4448550
  45.8247711  41.4258166  49.2986820  44.7637028  41.3168053  49.0742945
  45.9875900  41.2727832  50.3655329  46.1814935  42.8619771  49.0095293
  45.7176115  43.4768795  47.8413245  45.0990187  42.9148363  47.1416459
  46.0500422  44.8264836  47.5668660  45.6825435  45.2958514  46.6543204
  46.8393666  45.5516484  48.4522930  47.1016115  46.5870502  48.2348751
  47.2954120  44.9486849  49.6219287  47.9098372  45.5062527  50.3288234
  46.9527635  43.5916492  49.8912522  47.3009666  43.1129590  50.8065173
  48.1539398  40.6162875  48.7164605  48.7929242  41.3119850  47.9425523
  48.7473212  39.9410632  49.7113674  48.1963180  39.3967453  50.3596057
  50.1883446  40.0404354  49.9395023  50.5112050  41.0705215  49.7885625
  50.5530568  39.6137946  51.3838861  51.6420625  39.6194950  51.4300754
  50.1555962  40.3282667  52.1047569  50.0414222  38.2270679  51.7134435
  48.9044050  37.8479744  51.2889181  50.7519173  37.5230842  52.4491722
  51.0686724  39.2622769  48.9829467  52.2840082  39.4599547  49.0026061
  50.4911327  38.3915315  48.1623542  49.4856569  38.2961806  48.1572467
  51.2715856  37.5661790  47.2377788  52.2948954  37.9352061  47.1688207
  51.3049400  36.1210692  47.7566835  50.2732204  35.8002328  47.9006209
  51.7718976  35.5067151  46.9868655  52.0613845  35.9681625  49.0464662
  51.9231768  36.8571346  49.6618750  51.6970686  35.0935686  49.5854111
  53.5531955  35.7905038  48.7326154  53.8420565  36.5023018  47.9593095
  54.1327124  35.9810840  49.6359086  53.8297302  34.3491627  48.2365939
  54.1260222  33.7629359  49.1064501  52.8910785  33.9616540  47.8405267
  54.8984310  34.2531267  47.1789712  55.7683952  34.6117536  47.5459165
  55.0194081  33.2873279  46.9093470  54.6238786  34.7959230  46.3726882
  50.6977695  37.5129833  45.8269892  50.4268184  36.4359574  45.3246650
  50.4922738  38.6784929  45.1886649  50.9921735  40.0002802  45.5980407
  52.0077077  39.9047693  45.9823169  50.3474017  40.4110705  46.3749703
  50.9293194  40.7990851  44.3139114  51.9147540  40.7892349  43.8481640
  50.6518478  41.8254161  44.5542353  49.9363242  40.1816888  43.4622064
  50.2091785  40.3204935  42.4160788  48.9350944  40.5778267  43.6316561
  49.9764384  38.6769415  43.8210621  48.9915235  38.2107111  43.8469487
  50.8694060  37.9291704  42.8220584  50.3692299  37.3976299  41.8389946
  52.1650483  37.8667521  43.0797595  52.5462665  38.3751991  43.8647777
  53.0976603  37.2416916  42.1378123  52.8957370  37.5976505  41.1275552
  54.5603979  37.5973044  42.5049624  55.1909275  37.2946341  41.6689467
  54.6139309  38.6791611  42.6267016  55.0493509  36.9149917  43.7858806
  54.5272402  35.9616843  43.8677731  56.1205586  36.7353057  43.6946165
  54.7975837  37.7169218  45.0520430  53.7781351  38.3914725  45.2124077
  55.7559112  37.6518722  45.9652604  55.6577325  38.1594404  46.8329222
  56.5799692  37.0950313  45.7893119  52.8320475  35.7223575  41.9594341
  53.3013190  35.1105316  40.9832014  52.0219908  35.1216704  42.8340015
  51.6306240  35.5989639  43.6334527  51.6840462  33.6959838  42.6340309
  52.6074874  33.1172401  42.6137540  50.7732496  33.1115739  43.6792603
  50.5164390  32.0941545  43.3842918  51.4317623  33.0902396  45.0352249
  51.6884609  34.1074257  45.3310930  50.7458581  32.6619528  45.7661183
  52.3377670  32.4858942  44.9902510  49.5712028  33.8977807  43.7256960
  48.9784013  33.5371360  44.3891131  50.9833890  33.5103985  41.2851470
  51.0829483  32.4338796  40.6972262  50.3245524  34.5493563  40.7678714
  50.0781663  35.3451206  41.3389689  49.7869951  34.4810688  39.3887605
  50.3266126  33.7216532  38.8228983  48.3118511  34.1207555  39.4003161
  48.0364844  33.7448329  38.4149458  48.2224603  33.3184492  40.1327189
  47.4025530  35.2400081  39.7765816  46.7555603  35.9736228  38.7954726
  46.9414205  35.7359291  37.7480677  45.8988649  36.9780047  39.1232854
  45.3743543  37.5327526  38.3453103  45.6832573  37.2904436  40.4749807
  44.8531890  38.3251140  40.8000359  44.4782196  38.7609432  40.0312379
  46.3025548  36.5798148  41.4781264  46.1373858  36.8245052  42.5273863
  47.1380263  35.5502269  41.1388594  47.6121783  34.9536925  41.9182352
  50.0060661  35.6823546  38.4297056  49.7726239  35.5843622  37.2021750
  50.4444618  36.7992591  38.9586568  50.5147018  36.9290395  39.9578178
  50.7708396  37.9149269  38.0975245  50.2546758  37.8278166  37.1414461
  50.3187800  39.2130042  38.7828591  51.0010839  39.3884395  39.6145941
  50.4255854  40.0135885  38.0509046  48.8849783  39.1853223  39.2994862
  48.1865730  39.0243521  38.4782557  48.7616808  38.3956783  40.0406759
  48.6023835  40.5513573  39.9531600  49.1201760  40.5461401  40.9123069
  49.0511262  41.3020934  39.3026795  47.1740094  40.8738229  40.1658787
  46.5882224  40.5664849  39.2995660  46.8034902  40.3624721  41.0543240
  47.0414656  42.4327258  40.3633807  47.3843453  42.9067310  39.5400628
  46.0713129  42.6721776  40.5102362  47.5838525  42.7176571  41.1663313
  52.2608089  37.9441550  37.7630946  53.1202282  38.3913041  38.6132511
  52.5792508  37.6265132  36.5015494  51.8677327  37.5532904  35.7884716
  53.9811731  37.2997258  36.1338964  54.4831281  36.8528214  36.9920438
  54.0421284  36.2985389  34.9457184  53.2295015  36.3997763  34.2263522
  54.9896784  36.5251907  34.4569668  54.0947036  34.8472281  35.3336990
  54.8971143  34.3648948  36.3489963  54.7722159  33.0506675  36.4270780
  55.3122555  32.4852286  37.1865088  53.9398753  32.6547047  35.4791479
  53.6463415  31.7045661  35.3025851  53.5287439  33.7567631  34.7583863
  52.8667435  33.6316165  33.9015344  54.8714433  38.5138328  35.7729931
  56.1006305  38.3284857  35.4798936  54.2605620  39.7099766  35.7974517
  53.2657696  39.7516841  35.9670037  54.9854977  40.9649599  35.6177654
  55.8031747  40.8313619  34.9094893  54.0334059  42.0303252  35.0701414
  53.0975169  42.1273376  35.6204136  54.5724902  42.9771680  35.1013986
  53.6588072  41.7892989  33.6109255  54.6677881  41.8179313  32.6138118
  55.6965584  42.0370025  32.8997126  54.3499220  41.5664026  31.2643050
  55.1170344  41.6290596  30.4924803  53.0453871  41.2361663  30.9214852
  52.8058048  41.0285097  29.8786146  52.0248698  41.1670801  31.9148037
  51.0025424  40.9061816  31.6411635  52.3464954  41.4391827  33.2586024
  51.5755196  41.3779512  34.0266824  55.5252289  41.4621910  36.9569672
  56.1170071  42.5144078  37.0046262  55.2425033  40.7433873  38.0493794
  54.6574250  39.9215328  38.0010264  55.7275483  41.1799655  39.3729080
  56.0494061  42.2212757  39.3863188  54.6357946  40.9622093  40.4547791
  54.2883899  39.9309341  40.3924734  55.2046733  41.2473796  41.9311001
  55.5518650  42.2786710  41.9943202  54.4137427  41.0852908  42.6633956
  56.0346719  40.5718043  42.1379806  53.4263932  41.8286800  40.0980416
  53.7634323  42.8649455  40.1237162  53.1402703  41.5653411  39.0797657
  52.2078495  41.6598262  41.0356288  52.4930965  41.9234473  42.0540776
  51.4005829  42.3130257  40.7043431  51.8699358  40.6238416  41.0101287
  57.0079911  40.4626707  39.7727807  57.0559860  39.2129739  39.8679715
  58.0274604  41.2411197  40.0910251  57.9542037  42.2440942  39.9973503
  59.2773746  40.6866217  40.5510909  59.4812333  39.7389843  40.0525689
  60.3978235  41.6552043  40.2273289  60.3628677  41.8710461  39.1594855
  60.2264184  42.5735463  40.7889055  61.7979828  41.0755236  40.5945010
  61.8442804  41.0355891  41.6827853  61.8324054  40.0629487  40.1924946
  62.9922059  41.8780949  40.0611856  63.8928087  41.3557013  40.3838597
  62.9284800  41.8533123  38.9733326  63.0475587  43.3050688  40.5267560
  62.2442808  43.8461756  40.0267075  62.8719752  43.3076967  41.6025174
  64.3731301  43.9802112  40.2294460  64.5358176  43.9782648  39.2326367
  64.3485089  44.9326252  40.5647093  65.1175511  43.4792135  40.6930596
  59.2334631  40.4177620  42.0674597  59.6511179  39.3545290  42.5342468
  58.7295826  41.3765184  42.8241034  58.4636232  42.2650291  42.4242112
  58.5901642  41.1947069  44.2931432  58.3528204  40.1559016  44.5226005
  59.9230921  41.5656964  44.9958436  59.8738699  41.2595090  46.0407961
  60.7441553  41.0446838  44.5033995  60.1432336  42.9822424  44.9225216
  60.9695049  43.2007094  45.3597261  57.4406307  42.0500407  44.8037769
  56.9658951  42.9852974  44.1382215  56.9540319  41.7316208  45.9997198
  57.3203832  40.9686550  46.5508724  55.8615703  42.5062860  46.5427478
  55.8704611  43.5153408  46.1306451  54.5336600  41.8388253  46.1740184
  54.3745962  41.8546588  45.0958035  54.5017220  40.8092240  46.5303904
  53.0996830  42.6679565  46.9053087  52.1875127  41.8490289  46.3893618
  56.0399990  42.5362098  48.0543948  56.3384724  41.5035652  48.6517429
  55.9467446  43.6984137  48.6488985  55.9414737  44.5867409  48.1683297
  56.0262274  43.7005780  50.1074409  55.9036468  42.6868007  50.4886609
  57.3703338  44.2248593  50.5539799  57.5545389  43.9168168  51.5831920
  58.1491834  43.8184982  49.9087171  57.3826012  45.6258693  50.4760739
  58.2384445  45.9546900  50.7606947  54.8514008  44.4225150  50.7588282
  54.2673507  45.3763960  50.2043784  54.4947500  43.9263400  51.9446885
  54.9696643  43.1037276  52.2880025  53.4577263  44.5051189  52.7582643
  53.1150088  45.4368696  52.3082814  52.2693948  43.5343859  52.8428082
  52.6180164  42.5582288  53.1799722  51.2983614  44.0494374  53.7814684
  50.9489088  45.0254387  53.4447114  50.4536188  43.3634601  53.8442833
  51.7592581  44.1483688  54.7642646  51.5811114  43.3824854  51.4735229
  52.2964442  42.9958870  50.7476147  50.7438505  42.6901892  51.5619521
  51.2152020  44.3537190  51.1404814  54.0407270  44.7654348  54.1635866
  55.1305620  44.3144362  54.4823672  53.2913322  45.4714741  54.9881331
  52.5162840  45.9855337  54.5942519  53.5709142  45.6211621  56.4402692
  54.4592503  46.2296953  56.6095194  52.3710748  46.3221601  57.0741661
  51.4693156  45.8480414  56.6866858  52.4288801  46.1659692  58.1513675
  52.3251876  47.8254989  56.7779098  52.9661321  48.0464069  55.9243932
  51.2933075  48.0752082  56.5309930  52.7718605  48.6469825  57.9706961
  52.0719809  49.6401658  58.3164089  53.8144267  48.2743179  58.5741510
  53.8946349  44.3249242  57.2136490  53.1962843  43.3092614  57.0544593
  50.7396920  42.2032061  59.8817700  51.0375134  41.4384138  60.4704077
  49.3151591  42.5612849  59.8728946  48.9203123  42.4675184  60.8845284
  49.0796748  44.0092393  59.3826498  49.5569690  44.1366818  58.4110285
  48.0126315  44.2125404  59.2921653  49.6513347  45.0838405  60.2920640
  49.9166562  44.8273964  61.6477878  49.7084437  43.8389815  62.0574016
  50.4503637  45.8409582  62.4805547  50.6596066  45.6276707  63.5288040
  50.7112353  47.1244682  61.9561225  51.1213865  47.9042217  62.5978860
  50.4417747  47.3965824  60.6056252  50.6397223  48.3832475  60.1868068
  49.9067847  46.3724020  59.7845459  49.6843165  46.5743057  58.7367661
  48.5248456  41.5938924  58.9917984  49.0367071  41.1373693  57.9607827
  47.2889454  41.2778777  59.3954115  46.9738539  41.5085443  60.3268671
  46.3846702  40.5203645  58.5228250  46.9321329  39.7321703  58.0059753
  45.2314658  39.8789895  59.3174663  45.6379105  39.1800037  60.0484388
  44.6683404  40.6567505  59.8332935  44.3168907  39.1404435  58.3697308
  43.9096703  39.8389107  57.6386932  44.8792388  38.3621630  57.8538402
  43.1736841  38.5046320  59.1574809  42.1319467  39.1947464  59.3191182
  43.3530460  37.3348946  59.5900822  45.8755974  41.4876181  57.4350905
  45.5932375  42.6571265  57.7107984  45.7807104  41.0184623  56.1971623
  46.0945248  40.0927337  55.9429056  45.4074757  41.9382847  55.1309519
  45.8877350  42.9017774  55.3016331  45.8448227  41.4061127  53.7436752
  45.5061311  40.3721005  53.6788220  45.3260382  42.0054268  52.9954873
  47.4157468  41.4681118  53.4778485  47.8643018  40.8501677  54.2556945
  47.5628418  40.9935964  52.5076422  48.2285430  43.1194538  53.4731718
  49.0564787  43.2320975  55.0983050  49.7817764  42.4240764  55.1939302
  49.5685412  44.1908477  55.1801022  48.3136747  43.1486546  55.8916402
  43.9191406  42.3086224  55.2643930  43.0343095  41.4388874  55.3186232
  43.6707765  43.6106503  55.4012164  44.4488705  44.2525023  55.3493031
  42.3362442  44.1579198  55.6163695  41.5368588  43.4345707  55.4555955
  42.2332656  44.6927325  57.0552290  42.3434673  43.8675902  57.7588589
  43.0217808  45.4250714  57.2285025  40.8734721  45.3532789  57.2558887
  40.7627202  46.1788680  56.5528684  40.0844060  44.6213875  57.0832277
  40.7713962  45.8834049  58.6821327  40.8815996  45.0582637  59.3857634
  41.5599105  46.6157447  58.8554044  39.4618481  46.5327486  58.9141620
  38.7975799  46.5631782  58.1539507  39.1197933  47.0780410  60.0780156
  39.9401333  47.0772556  61.1248882  40.8533235  46.6529125  61.0466796
  39.6461379  47.5010040  61.9932796  37.9163864  47.6357110  60.1765892
  37.2958512  47.6346028  59.3796984  37.6285863  48.0577517  61.0478821
  42.1333552  45.3083822  54.5993173  43.1087073  45.8813325  54.1255555
  40.8819234  45.6298346  54.2723357  40.1356209  44.9732796  54.4514093
  40.5745440  46.8421706  53.4862108  40.9730727  46.7718212  52.4741214
  39.0298031  47.1278215  53.3995394  38.6310949  47.1134928  54.4138991
  38.7103330  48.4737215  52.7452420  39.1083529  48.4886312  51.7306195
  37.6300601  48.6154687  52.7133227  39.1647025  49.2771287  53.3250581
  38.3180337  46.0051939  52.6448469  38.4739775  45.0606041  53.1659357
  37.2505970  46.2201075  52.5949405  38.7212491  45.9331900  51.6347313
  41.3846548  48.0384864  53.9759731  41.4107937  48.3710207  55.1980814
  42.0651515  48.6735817  53.0188571  42.0593760  48.2701087  52.0929654
  42.8141117  49.9119491  53.2309843  42.6854460  50.5719580  52.3731191
  42.4534335  50.4112907  54.1302443  44.2917003  49.6000317  53.3975658
  45.1014311  50.5196458  53.3419089  44.6765358  48.3301463  53.6162750
  44.0089355  47.5822788  53.7391711  46.1227088  47.9923648  53.6302226
  46.6226144  48.6078129  54.3781646  46.3658304  46.5416620  53.9594950
  45.7396469  45.8913643  53.3486707  47.4133282  46.2775366  53.8142846
  45.9747964  46.1314482  55.7053217  46.2955199  44.8434761  55.6206906
  46.7129259  48.2214036  52.2373020  45.9850428  48.1487062  51.2286741
  48.0135161  48.4574687  52.1883384  48.5651561  48.5613017  53.0279880
  48.6728697  48.6937806  50.8792584  47.9931264  48.4821973  50.0538611
  49.1918602  50.1678486  50.7362121  49.7544678  50.2426119  49.8056298
  48.0240503  51.1975727  50.7204211  47.4612270  51.1237186  51.6509452
  48.4284125  52.2047938  50.6199422  47.3638238  50.9860859  49.8793059
  50.0988116  50.4483020  51.8132655  50.4215205  51.3489153  51.7335484
  49.8065492  47.6914357  50.6152629  50.3884160  47.0837514  51.5692213
  50.1426486  47.4806647  49.3323670  49.6107083  47.8817606  48.5732485
  51.2933862  46.6313661  49.0030042  51.8279320  46.3655716  49.9149873
  50.8351623  45.3497232  48.3157047  51.7237883  44.7335404  48.1787309
  50.1517440  44.8528644  49.0043053  50.1403388  45.5520802  46.9633879
  49.3165731  46.2561947  47.0805788  50.8564204  45.9480462  46.2432906
  49.5857312  44.1816527  46.4477756  50.4107127  43.5295340  46.1609903
  48.9970384  43.6999970  47.2285111  48.7269880  44.3968899  45.2762083
  48.8281527  45.2724528  44.7829997  47.8153551  43.5196368  44.8396462
  47.6389034  42.3484087  45.4731291  48.1979048  42.1275648  46.2848220
  46.9480272  41.6938991  45.1348881  47.0742562  43.8039277  43.7348276
  47.2147731  44.6771941  43.2472204  46.3868522  43.1404523  43.4071464
  52.2456935  47.3925239  48.0871464  51.7735861  48.2541846  47.3127483
  53.5487811  47.1353099  48.1994885  53.9035720  46.5460066  48.9390453
  54.4995133  47.7607030  47.3042808  53.9842991  48.5231827  46.7200906
  55.6648076  48.4228495  48.0574342  56.0874851  47.6166905  48.6570596
  56.4163483  48.7860594  47.3564597  55.2306087  49.5631788  48.9729135
  54.3391721  50.3698106  48.6484664  55.8702006  49.6929014  50.0320468
  55.0174604  46.7463583  46.3169467  55.7756355  45.8652116  46.6597761
  54.6615109  46.9389575  45.0471962  54.1447853  47.7649449  44.7810407
  55.0237479  45.9744064  43.9971491  55.3093524  44.9924047  44.3742457
  53.8222539  45.8020305  43.0175376  53.4422629  46.7939384  42.7729462
  54.2223782  45.0674988  41.7150076  54.6020595  44.0752685  41.9587741
  53.3503905  44.9733926  41.0677968  54.9968349  45.6358814  41.1999738
  52.6125573  45.0746810  43.6945863  52.2717593  45.6559112  44.5514003
  51.7987798  44.9762249  42.9761351  52.9236696  44.0847597  44.0283013
  56.2251266  46.5488306  43.2485277  56.2698038  47.7846261  42.9892526
  57.1952721  45.6937761  42.9376685  57.1831687  44.7636189  43.3310645
  58.3023341  46.0587187  42.0547719  58.2197269  47.0966142  41.7322069
  59.6956786  45.8236894  42.6817881  59.7413637  44.8068797  43.0718027
  60.8283109  46.0241420  41.6047673  60.7835524  47.0409351  41.2146017
  61.8018663  45.8545402  42.0646867  60.6841055  45.3158089  40.7889437
  59.9102571  46.7337655  43.9182151  60.0720583  47.7429936  43.5395600
  58.9838836  46.7056837  44.4919250  61.1099836  46.3237171  44.8424021
  62.0368317  46.3520162  44.2694696  61.1791358  47.0191488  45.6788781
  60.9486579  45.3147047  45.2218330  58.1255888  45.1869140  40.7949792
  57.9565907  43.9790704  40.8886402  58.0987690  45.8148319  39.6223898
  58.1314380  46.8174998  39.5053893  57.8313110  44.9860280  38.4434745
  57.3685388  44.0415113  38.7295324  56.9406991  45.6711346  37.3861706
  56.8355888  45.0263656  36.5136318  55.5173751  45.9328902  38.0219706
  55.6216287  46.5780091  38.8943545  54.8741968  46.4173104  37.2872875
  55.0734229  44.9841044  38.3233236  57.5726844  46.9160290  36.8962128
  58.5368997  46.6814904  36.4452333  56.9278295  47.3828050  36.1516445
  57.7195634  47.6021906  37.7303049  59.1176929  44.4368876  37.8138989
  60.2131850  44.9014994  38.1102397  58.9493132  43.4693534  36.9346123
  58.0282800  43.0947399  36.7572374  60.0719760  42.9052991  36.2107200
  60.8984395  42.6846426  36.8862701  59.6822859  41.6055132  35.4183732
  60.5517211  41.2373570  34.8737230  59.1972421  40.5183509  36.4131674
  58.3274850  40.8856286  36.9578971  58.9269395  39.6167495  35.8634838
  59.9960253  40.2877516  37.1180564  58.6098280  41.8826548  34.3314457
  57.7136427  42.2647711  34.8202604  58.9989654  42.6362337  33.6467629
  58.2385555  40.5274430  33.4958119  57.8488903  39.7735115  34.1798062
  57.4846740  40.7589990  32.7433866  59.1342142  40.1449727  33.0063103
  60.6137819  43.9178496  35.2226447  59.9193502  44.8930890  34.8904148
  61.8260485  43.6762313  34.7507905  62.3645306  42.8849367  35.0732640
  62.4412707  44.5862703  33.7579780  62.4213934  45.6110879  34.1287244
  63.8976037  44.1843939  33.5083509  64.3377943  44.8923507  32.8061198
  64.4371820  44.2286827  34.4543921  63.9864660  42.8642343  32.9714383
  64.9083126  42.6395773  32.8253976  61.7243110  44.6161867  32.4149475
  61.0243598  43.6587296  32.0422852  61.9545132  45.6983857  31.6627560
  62.4422863  46.5040107  32.0276466  61.4964919  45.7354155  30.2752026
  62.2519539  46.2649728  29.6947327  61.4264280  44.7053784  29.9256113
  60.1589635  46.4142206  30.0781150  59.7089018  46.5897395  28.9239505
  59.5130476  46.8091700  31.1822203  59.9281824  46.6771452  32.0934458
  58.1868821  47.4215848  31.1065090  57.7139644  47.1903271  30.1520626
  57.3026426  46.8589831  32.2459092  57.8854882  46.9763370  33.1594836
  56.4513670  47.5393573  32.2687317  56.7994492  45.4149260  32.1433057
  57.6332980  44.7493451  31.9201489  56.1557191  45.0036418  33.5050979
  55.3214443  45.6685300  33.7287229  55.7946427  43.9771476  33.4415829
  56.9010538  45.0777294  34.2969865  55.7656454  45.2748052  31.1064176
  56.1779509  45.5648638  30.1399965  55.4327072  44.2378328  31.0623534
  54.9190912  45.9177357  31.3474265  58.2736357  48.9488164  31.2311096
  59.3042589  49.4670889  31.7091468  57.1943129  49.6623934  30.8539503
  56.0352944  49.1668416  30.0855712  55.5519497  48.3567863  30.6317292
  56.3680165  48.8014720  29.1140259  55.1189926  50.4496913  29.9656019
  54.4110280  50.4949007  30.7931533  54.5739348  50.4451377  29.0216779
  56.0962125  51.5920325  30.0157709  55.5553462  52.4617631  30.3887738
  56.5815776  51.8435900  29.0727761  57.1365090  51.1548557  31.0339426
  58.1223359  51.5790136  30.8433285  56.7024080  51.4931847  32.4713429
  55.8261287  52.3466102  32.7060609  57.3917523  50.8491333  33.4214236
  58.1480019  50.2325818  33.1605595  57.0576017  50.9758356  34.8419699
  56.9912973  52.0243855  35.1322215  55.7405543  50.3054637  35.1510521
  55.7944150  49.2525668  34.8742719  55.5306269  50.3900373  36.2172969
  54.9444366  50.7891275  34.5850440  58.1745956  50.3617846  35.6447188
  58.8923728  49.4900700  35.1592668  58.3247298  50.8556915  36.8745768
  57.8430560  51.7059633  37.1297776  59.2364666  50.2631537  37.8405913
  59.7025482  49.3828171  37.3980140  60.3578364  51.2589961  38.2679338
  59.8536429  52.1254325  38.6959246  61.0008775  50.8044768  39.0215985
  61.2305660  51.7284458  37.0977402  61.6558775  50.9141467  36.2632505
  61.5346373  52.9965033  37.0604312  62.1073185  53.3534532  36.3089507
  61.1959484  53.6153691  37.7832007  58.5354268  49.7287900  39.0733214
  58.9160364  48.6847659  39.5718051  57.5483029  50.4678441  39.5692877
  57.1738321  51.2386295  39.0347216  56.9338735  50.1578951  40.8743203
  57.1227584  49.1127412  41.1194227  57.5122581  51.0410440  42.0006880
  56.9899354  50.7963840  42.9255776  59.0255364  50.8222365  42.1924644
  59.5486114  51.0671543  41.2680687  59.3872322  51.4648079  42.9951955
  59.2126832  49.7797552  42.4499705  57.2961590  52.4225300  41.6736123
  57.6542003  52.9763260  42.3712632  55.4611332  50.4633050  40.7976728
  55.0196728  51.2870803  39.9698009  54.6946733  49.8927973  41.7081223
  55.0757086  49.1692325  42.3008831  53.3095868  50.2385634  41.8607721
  53.1560622  51.2711650  41.5473023  52.4046739  49.3187527  40.9984369
  52.6460546  49.4717660  39.9465712  52.5980436  48.2803938  41.2677304
  50.9950098  49.6251339  41.2234937  50.4516655  49.0472967  40.6826787
  52.9178152  50.1322407  43.3417844  53.3427468  49.1893704  44.0259303
  52.1484564  51.1094579  43.8301568  51.8794600  51.8891650  43.2472356
  51.6093295  51.0431118  45.2028072  52.0961713  50.2259958  45.7351658
  51.8522591  52.3599830  45.9867003  51.2816281  53.1655851  45.5246552
  51.3958864  52.1838776  47.4725172  51.9664422  51.3786998  47.9353934
  51.5685821  53.1113081  48.0185466  50.3341766  51.9387360  47.5004171
  53.2479235  52.6540432  45.9395987  53.4199946  53.4671954  46.4199896
  50.1375244  50.8813076  45.0886887  49.4704193  51.6812239  44.4142483
  49.6104447  49.8551809  45.7514398  50.1823577  49.3301222  46.3974492
  48.2320010  49.4481639  45.5668990  47.6826467  50.1962188  44.9953021
  48.2103352  48.1338951  44.7962175  48.7320351  47.3597696  45.3589415
  47.1818875  47.8208360  44.6162471  48.9309966  48.3591892  43.4319200
  48.3125703  49.0721870  42.8866825  49.8893844  48.8195009  43.6721392
  49.1640180  47.1185133  42.5649914  48.9321260  45.9526365  43.0011479
  49.5997471  47.3764467  41.4127251  47.5058190  49.2610824  46.9084958
  48.0933045  48.7576378  47.8830816  46.2556328  49.6796236  46.9208934
  45.8763280  50.0676952  46.0690556  45.3791528  49.6259229  48.1239296
  45.9692665  49.4073726  49.0139301  44.6922869  50.9837567  48.3127039
  45.4866439  51.6921920  48.5476838  44.2550886  51.2361788  47.3466600
  43.5973255  51.0527757  49.4092941  42.8947203  50.2365208  49.2414405
  44.0776317  50.9243619  50.3793033  42.8281987  52.4163756  49.3845715
  43.5349579  53.2453359  49.3469532  42.1704947  52.4606660  48.5164913
  42.0073300  52.5484481  50.6084819  42.4389223  53.0571008  51.3668352
  40.7726004  52.0779167  50.7800340  40.1486331  51.3867304  49.8297418
  40.6139695  51.2082365  48.9512760  39.2124876  51.0436976  49.9911719
  40.1409339  52.2908077  51.9549041  40.6075288  52.8024606  52.6901595
  39.2048958  51.9373708  52.0927946  44.3208765  48.5340505  47.9698003
  43.6219540  48.4427809  46.9588566  44.2255089  47.6622705  48.9655210
  44.9263364  47.6325823  49.6921974  43.1521481  46.6800120  49.0015580
  43.0496633  46.1749057  48.0411083  43.5115673  45.6215912  50.0841588
  44.4342784  45.1403571  49.7599410  43.6884460  46.1522138  51.0197087
  42.4244896  44.5539790  50.2980823  41.5029082  45.0588628  50.5877043
  42.1775669  43.7281433  49.0356475  43.0986463  43.2225593  48.7456537
  41.4029430  42.9867463  49.2315787  41.8547918  44.3854206  48.2282423
  42.9438049  43.6442033  51.4571287  43.0891384  44.2456039  52.3545110
  42.2135975  42.8607245  51.6597603  43.8915159  43.1906366  51.1669218
  41.7700977  47.3308552  49.2768483  41.6053402  47.9658003  50.3120361
  40.8327953  47.2676237  48.3275075  41.0095568  46.6824683  47.5234877
  39.5465357  47.9929997  48.3972206  39.6635560  48.8822557  49.0165987
  39.0767764  48.4285302  46.9924230  39.1726063  47.5338985  46.3771590
  38.0355150  48.7505922  47.0047053  39.9429058  49.5364673  46.4137397
  40.5108913  50.3456400  47.2135352  40.0114667  49.6713734  45.1541565
  38.4347994  47.1300412  48.9825197  37.5338583  47.6185011  49.7064686
  38.5069520  45.8390483  48.7061624  39.2229410  45.4691684  48.0973538
  37.4690445  44.8834838  49.2573523  37.2079918  45.1271988  50.2871842
  36.1692241  44.8697782  48.3777392  35.6929625  45.8465043  48.4630695
  36.4639399  44.5780036  46.9220781  36.9398232  43.6011677  46.8358954
  35.5330658  44.5793897  46.3550047  37.1314719  45.3430330  46.5255554
  35.1427537  43.8801567  48.9046327  35.5644632  42.8846685  48.7658333
  35.0293372  44.0808312  49.9699805  33.8398616  43.9500551  48.2561881
  33.9524156  43.7490167  47.1908173  33.1737931  43.2083362  48.6969885
  33.4172905  44.9451808  48.3949626  38.0665730  43.5128621  49.3394309
  38.8334623  43.1482969  48.4374870  37.7654407  42.7613072  50.4379711
  37.2619237  43.1620060  51.2164379  38.2003587  41.3782865  50.5373146
  38.3668115  40.9854391  49.5342874  39.5223982  41.2367148  51.3540129
  40.1994100  41.9776472  50.9288382  39.2814266  41.5123049  52.3806983
  40.1982668  39.8588735  51.3397344  39.4791915  39.1225765  51.6987584
  40.6790258  39.4616234  49.9163816  41.3985265  40.1972556  49.5568500
  41.1512388  38.4798894  49.9526311  39.8250064  39.4286896  49.2398711
  41.4224699  39.8523947  52.2923039  41.0950299  40.0781812  53.3071452
  41.8931754  38.8694542  52.2731799  42.1406742  40.6049899  51.9669086
  37.0529559  40.6092103  51.1936420  37.0431142  40.3975316  52.4369767
  36.0649266  40.2386941  50.3897552  36.1632453  40.3446821  49.3901557
  34.8245501  39.6870245  50.9047629  34.6893896  40.0034112  51.9390406
  33.6225316  40.1635170  50.0866368  33.7306322  41.2474262  50.0472118
  33.6669405  39.7574772  49.0760629  32.2759365  39.8083928  50.7197865
  32.1651683  38.7054905  51.3106402  31.2973354  40.6083618  50.5647884
  34.9428944  38.1741246  50.8292080  34.6512392  37.5848385  49.7961992
  35.3275443  37.5514086  51.9410637  35.6673125  38.0624932  52.7432167
  35.4266373  36.0858892  51.9559824  35.9536154  35.7535679  51.0615799
  36.1948085  35.5744589  53.2026452  35.7925068  36.0997917  54.0688312
  36.0115962  34.5052864  53.3094320  37.6747142  35.8221073  53.1096161
  38.2740752  35.6018441  52.0324803  38.2769982  36.2298716  54.1219955
  34.1061763  35.3355554  51.7918760  34.1174380  34.1235404  51.4294909
  32.9724376  35.9910966  52.0153470  32.9523498  36.9608825  52.2967915
  31.7158490  35.2857849  51.8959878  31.8564177  34.2432456  52.1813846
  30.6490361  35.9000064  52.8006978  31.0216303  35.8041182  53.8205401
  30.5922741  36.9550616  52.5328611  29.2573228  35.2751416  52.7062306
  28.5926343  35.8171733  53.3789056  28.9272430  35.4177596  51.6772473
  29.2247735  33.7621048  53.0549717  30.1231628  33.2678865  53.8061348
  28.2851659  33.1133286  52.5862577  31.2259161  35.2917476  50.4733704
  30.7648193  34.2595306  49.9486241  31.3449095  36.4249718  49.8199314
  31.7214607  37.2499814  50.2645298  30.8482373  36.5414342  48.4398980
  30.0854134  35.7875100  48.2454830  30.2380042  37.9053719  48.2447711
  31.0353320  38.6403495  48.3551142  29.8446370  37.9465318  47.2290604
  29.0960648  38.2222820  49.2569985  28.4387285  37.3550272  49.3192791
  29.5420858  38.4103534  50.2336236  28.2953795  39.4315966  48.8274240
  27.6685810  39.7464623  49.6617394  28.9884055  40.2330755  48.5715999
  27.4319979  39.1639538  47.6626633  26.9837629  38.2604626  47.6089194
  27.2001589  40.0513347  46.6868786  27.8062554  41.2306598  46.7168328
  28.4374509  41.4515383  47.4737377  27.6338203  41.9024270  45.9826022
  26.3749492  39.7742652  45.6609705  25.9135365  38.8769404  45.6161756
  26.2206427  40.4648563  44.9402958  31.9479265  36.2704677  47.3720278
  31.6160029  36.1014291  46.1930343  33.1981555  36.1863203  47.8159961
  33.3384081  36.3632361  48.8004397  34.3854826  35.9157652  46.9758679
  35.2720521  35.9108704  47.6099575  34.2925386  34.5558501  46.2459890
  33.3563828  34.5291226  45.6883178  35.1301839  34.4807399  45.5525851
  34.3350457  33.3950447  47.2152537  35.2840638  33.4073732  47.7512699
  33.5150316  33.4894358  47.9271310  34.1997246  32.0930006  46.4616024
  33.2538127  32.0848455  45.9200461  35.0235404  31.9968136  45.7543719
  34.2281558  30.9462824  47.3746139  34.9020755  30.9479090  48.1268964
  33.4342914  29.8846185  47.2340793  32.5080167  29.8394834  46.2654276
  32.4068596  30.6187828  45.6309518  31.9157579  29.0263969  46.1747661
  33.5357153  28.8808041  48.0883150  34.2112054  28.9258484  48.8378377
  32.9372463  28.0734838  47.9874805  34.5177189  37.0553907  45.9984078
  34.4609951  36.8633893  44.7556822  34.6808465  38.2433083  46.5818624
  34.7179797  38.3028153  47.5894235  34.8766567  39.4849070  45.7971141
  35.0344362  39.3059025  44.7335530  33.6996138  40.4462929  45.9612999
  33.5759870  40.6890851  47.0166992  33.9713224  41.7576590  45.1533794
  34.0946068  41.5157084  44.0977460  33.1297473  42.4399038  45.2733529
  34.8792422  42.2325702  45.5251894  32.3821280  39.7721136  45.5708405
  32.2150886  38.9035477  46.2078594  31.5609829  40.4777640  45.6968482
  32.4307470  39.4542338  44.5293563  36.1079920  40.1648152  46.3730978
  36.2445904  40.3488346  47.6104060  37.0353886  40.5637792  45.4824006
  37.0136772  40.2198930  44.5329954  38.1622536  41.3547595  45.8950015
  37.8764496  41.8929881  46.7987300  39.4728655  40.5186410  46.1970747
  39.2069039  39.6728958  46.8311724  40.1214064  40.0003712  44.8923198
  40.3880810  40.8456247  44.2578668  41.0186794  39.4304120  45.1334564
  39.4152168  39.3592675  44.3646999  40.4387212  41.3214181  46.8748073
  41.2244532  40.7980151  47.0488041  38.4046292  42.4787714  44.8724907
  37.7466751  42.5333477  43.8355553  39.2716960  43.4098962  45.2144128
  39.8087823  43.3584315  46.0682214  39.4761723  44.5800140  44.3236627
  39.8007684  44.2546694  43.3352866  38.5546997  45.1549638  44.2318999
  40.5410956  45.4550463  44.9250160  40.7746546  45.4273420  46.1550646
  41.2484658  46.2047409  44.0848907  41.0925279  46.1342677  43.0894932
  42.2777466  47.1143663  44.5581271  42.0351874  47.4478765  45.5671044
  43.6690432  46.4132715  44.5864274  44.4042197  47.0199564  45.1151505
  43.5633776  45.4517021  45.0887412  44.2473240  46.1262141  43.2208421
  45.1825383  47.0068654  42.6568027  45.4742259  47.8916268  43.2226785
  45.7439858  46.7662911  41.3828522  46.4729231  47.4479486  40.9445667
  45.3395766  45.6080639  40.6719824  45.7437067  45.4169539  39.6778719
  44.4094764  44.6957406  41.2508448  44.1035779  43.7940912  40.7202275
  43.8822887  44.9748046  42.5331500  43.1791387  44.2822866  42.9958581
  42.3584273  48.3415990  43.6799292  41.8299768  48.3473720  42.5371446
  43.0255692  49.3632467  44.2290628  43.4040990  49.2874126  45.1623708
  43.2420442  50.6069431  43.4924660  42.8168017  50.5429020  42.4908839
  42.5449589  51.7482705  44.2499525  42.7272991  51.6236994  45.3173481
  42.9655076  52.6976489  43.9184114  41.1372501  51.7390837  44.0031968
  40.7232055  52.4587256  44.4851537  44.7335861  50.8708156  43.4256356
  45.4451868  50.6978509  44.4247265  45.2147706  51.3755363  42.2781460
  44.6265289  51.4931577  41.4655967  46.5950040  51.7269981  42.1714714
  47.1244399  51.0484883  42.8403670  47.0954162  51.5099890  40.7069733
  46.4811701  52.0987723  40.0256977  48.5267854  51.9405070  40.5876399
  49.1417610  51.3518082  41.2683303  48.8689652  51.7864481  39.5642731
  48.6116094  52.9966634  40.8434477  47.0727727  50.0015847  40.3997134
  47.7847687  49.4995584  41.0547951  46.0703605  49.6194309  40.5926583
  47.4791187  49.7129937  38.8174207  48.4816596  50.0944827  38.6238289
  47.4558134  48.6402555  38.6256165  46.7672522  50.2143575  38.1616919
  46.7102216  53.1794527  42.5992538  46.1385567  54.0659057  41.9169678
  47.3671568  53.4156510  43.7217757  47.8038236  52.6576736  44.2266437
  47.3852728  54.7695893  44.3307205  46.6391449  55.4032377  43.8512604
  47.1078403  54.7044327  45.8379802  47.0681410  55.7119914  46.2519245
  45.7370967  53.9962880  46.0626176  45.7761786  52.9884400  45.6493190
  45.5260466  53.9425199  47.1306380  44.9493998  54.5621267  45.5651647
  48.1927469  53.9677466  46.6041637  48.1651670  52.9205603  46.3029310
  49.1537754  54.4001782  46.3257274  47.9976318  54.0732957  48.2148854
  47.0369566  53.6406143  48.4941521  48.7993850  53.5299015  48.7148991
  48.0255628  55.1202330  48.5169483  48.6587284  55.5597709  44.0775350
  48.7245719  56.7363741  44.4259624  49.6780110  54.8838904  43.5513709
  49.5888969  53.8893745  43.3993969  50.9128849  55.5203084  43.1873646
  50.6950537  56.3214539  42.4810965  51.3639534  55.9414198  44.0858644
  51.8931611  54.5525298  42.5495809  51.5420135  53.4224490  42.1646267
  53.1185058  55.0321447  42.4045884  53.3238100  55.9815742  42.6812348
  54.2094347  54.2166330  41.8452443  55.0099395  54.1395987  42.5810139
  53.8290753  53.2209017  41.6173291  54.7617769  54.8340408  40.5798385
  54.1961437  55.7970345  40.0509186  55.8584024  54.2530265  40.0847789
  56.2921545  53.4796313  40.5683266  56.4970420  54.7544989  38.8532219
  56.2749408  55.8137459  38.7237389  58.0033312  54.5811605  38.9362384
  58.2068903  53.5231491  39.1013898  58.4256715  54.8867790  37.9789893
  58.6475368  55.4157303  40.0757463  58.5117664  56.4707982  39.8380511
  58.0822684  55.1707413  40.9749411  60.1315421  55.1342226  40.3144671
  60.8337856  54.5518289  39.4614691  60.6211197  55.5393048  41.3923833
  55.9325850  54.0230764  37.6497625  56.4235369  52.9646401  37.3045758
  54.8768266  54.5785005  37.0565515  54.5393442  55.4566996  37.4239359
  54.1937877  54.0031003  35.8984947  54.9368241  53.7597069  35.1390503
  53.4076678  52.7199510  36.2492545  52.8723152  52.2871237  35.4041762
  54.1303947  51.9978698  36.6292079  52.4100966  52.9248418  37.3221162
  51.1612700  53.4781296  37.0982439  50.5289802  53.5805406  38.2648198
  49.5078208  53.9592744  38.3083310  51.3421344  53.1639369  39.2224265
  51.1449715  53.1704254  40.2129741  52.5071846  52.7169164  38.6557169
  53.2904287  52.2917294  39.2832884  53.2106354  55.0611812  35.4064690
  53.0283063  56.1138412  36.0518433  52.5455297  54.7895293  34.2925077
  52.7245154  53.9381878  33.7793985  51.6787565  55.7995114  33.6811698
  51.9126685  56.7843884  34.0853995  51.8958452  55.8306565  32.1286018
  51.5130910  54.9003707  31.7088796  51.3350698  56.6710570  31.7195078
  53.3245595  55.9763838  31.7809522  53.7387193  56.8241433  32.3267327
  53.8544536  55.0675081  32.0660125  53.4880314  56.2132139  30.2578441
  54.5530323  56.3313834  30.0580744  53.1197139  55.3232822  29.7474880
  52.7800018  57.3816180  29.7329059  52.9918628  58.2619691  30.1803388
  51.8961560  57.3706961  28.7454064  51.5185172  56.2331700  28.1635746
  51.9094306  55.3557882  28.4758051  50.8430613  56.2534454  27.4129429
  51.3688882  58.5341735  28.3053031  51.6507610  59.4057318  28.7307839
  50.6952366  58.5271190  27.5528122  50.1795044  55.7863977  34.0043233
  49.4310925  56.6727572  33.5435808  49.7069210  54.8244784  34.8030029
  50.3485388  54.1509303  35.1963970  48.2755681  54.6587813  35.0701028
  47.7184602  54.9855786  34.1920746  47.8883965  53.2020530  35.3843714
  48.4439237  53.0243316  36.3051884  46.8197210  53.1257640  35.5849025
  48.2911562  52.1461510  34.3274757  49.3517012  52.2575388  34.1017817
  48.0210240  50.6989980  34.8652954  46.9605337  50.5866952  35.0907884
  48.3102665  49.9697237  34.1085930  48.6041392  50.5327105  35.7710689
  47.6169508  52.3989777  32.9884515  47.9052414  53.3818757  32.6157595
  47.9267998  51.6352671  32.2751206  46.5347581  52.3613105  33.1131080
  47.7735201  55.5357562  36.1885771  48.3445817  55.5734703  37.2710776
  46.6920260  56.2313352  35.9329223  46.3052744  56.2924799  35.0019100
  46.1003618  57.0502657  36.9812983  46.6071679  56.8158946  37.9174163
  46.2217613  58.6421244  36.7116946  45.7716723  59.1689413  37.5531126
  47.6654043  59.0744880  36.5596206  48.1160599  58.5484005  35.7180499
  47.7064768  60.1487939  36.3799571  48.2140544  58.8378549  37.4712611
  45.5350051  58.9503784  35.5277456  45.5995582  59.8927697  35.3564800
  44.6663548  56.6401091  37.2251928  43.8868608  56.3494697  36.2882281
  44.3260900  56.5832974  38.5046072  45.0435589  56.7234498  39.2015254
  42.9941632  56.1750711  38.9525138  42.9982307  55.9812528  40.0251354
  41.9762215  57.3155202  38.6568505  42.0475488  57.5340431  37.5913650
  40.9510756  57.0383740  38.9025451  42.3407706  58.5710301  39.4363297
  42.7391388  59.6196217  38.8505375  42.2863724  58.4715244  40.7471693
  42.5167595  59.2699948  41.3211612  42.0144787  57.5971325  41.1733305
  42.5312278  54.8352350  38.4160598  41.3281144  54.6280565  38.1638293
  43.4913898  53.9164958  38.3058361  44.4586840  54.1680167  38.4513646
  43.1740522  52.5122518  37.9985828  42.5008255  52.4521330  37.1434508
  44.4842874  51.7581730  37.6518221  44.9925231  52.3069840  36.8589778
  45.1120955  51.7432625  38.5427400  44.2232676  50.3392646  37.1953098
  44.1089896  50.0278030  35.8199389  44.2234199  50.8251237  35.0855786
  43.8477356  48.6920815  35.3885836  43.7817477  48.4535074  34.3270612
  43.7254778  47.6742275  36.3446396  43.4641061  46.3475993  35.9395007
  43.3886233  46.2542378  34.9870378  43.8133366  47.9765147  37.7231505
  43.6663230  47.1859891  38.4590559  44.0880977  49.2857435  38.1455227
  44.1998823  49.5035961  39.2076642  42.5325887  51.8162709  39.2183304
  43.0498279  51.8808053  40.3371740  41.4123262  51.1410313  38.9726981
  41.0020929  51.1564639  38.0498927  40.7287337  50.3717491  40.0289065
  41.4418298  50.0951239  40.8054834  39.5982734  51.2212156  40.6726860
  40.0562761  52.1425172  41.0325972  38.8849046  51.4552952  39.8824887
  38.8840123  50.5410999  41.8065395  38.5235668  49.5759829  41.4505494
  39.5994807  50.3857930  42.6140585  37.6711339  51.3899678  42.3372884
  37.9879360  52.4244950  42.4695340  36.8595291  51.3490990  41.6108404
  37.1670563  50.8092869  43.7269184  38.0657698  50.6535757  44.3237172
  36.5662465  51.6004562  44.1754469  36.3569510  49.5195443  43.6833494
  36.9136469  48.7861912  43.2681594  36.0963201  49.2538226  44.6222656
  35.5239238  49.6637377  43.1307438  40.1662897  49.1332669  39.3870088
  39.5238425  49.2243721  38.3356799  40.3714774  47.9664069  40.0111528
  40.9794606  47.8841612  40.8134567  39.7947533  46.7453518  39.4503438
  39.0571462  47.0261063  38.6985381  40.8563858  45.8130895  38.7842803
  40.3440146  44.9837341  38.2966897  41.4125617  46.3836239  38.0404666
  41.7483971  45.3095874  39.7533864  42.3935920  44.7394067  39.3288663
  38.9930863  45.9896460  40.5062722  39.2313552  46.1447465  41.7317149
  38.0670639  45.1647524  40.0264617  37.8733785  45.1230063  39.0360867
  37.3026945  44.3043856  40.9152465  37.7431343  44.2318648  41.9096572
  35.8557380  44.8508175  41.0521047  35.5073136  45.0961358  40.0488507
  34.8614792  43.8503729  41.7171259  35.2090166  43.6049245  42.7206566
  33.8728061  44.3054250  41.7767374  34.8066479  42.9404686  41.1194895
  35.8677565  46.1407861  41.8413179  36.4835313  46.8773686  41.3252078
  34.8500530  46.5198869  41.9343868  36.2783637  45.9561859  42.8340038
  37.3152179  42.9079888  40.2699767  37.0972077  42.7659921  39.0762023
  37.5411072  41.8873002  41.1017487  37.6025022  42.0733273  42.0925686
  37.6309489  40.5110541  40.6537931  37.4737694  40.4371508  39.5777205
  39.0177172  39.9606457  40.9836313  39.2058178  40.0871799  42.0497962
  39.1060846  38.4080666  40.6074355  38.9185396  38.2807790  39.5412628
  40.1000770  38.0312798  40.8484958  38.3599229  37.8529074  41.1758909
  39.9705409  40.7066635  40.2444470  40.8521497  40.3783046  40.4356189
  36.5824697  39.6746793  41.4706539  36.5842161  39.7206118  42.7253105
  35.7219065  38.9462603  40.7827071  35.7337408  39.0000341  39.7742094
  34.6876313  38.1438045  41.4188119  34.8558722  38.1527575  42.4957120
  33.2854757  38.6630506  41.1417101  32.5666686  38.0161346  41.6446180
  33.1221563  40.0996952  41.6498242  33.8403696  40.7473306  41.1469944
  32.1107335  40.4472995  41.4393621  33.2990471  40.1276783  42.7250112
  33.0099804  38.6591576  39.7282795  32.1219097  38.9897183  39.5744598
  34.8161471  36.6984419  41.0108712  35.1407300  36.4128756  39.8577716
  34.5804995  35.7882554  41.9675989  34.3339522  36.0806840  42.9023712
  34.7542077  34.3241522  41.7042523  35.0897682  34.1403670  40.6836048
  35.7946274  33.7305875  42.6805457  35.4391427  33.8955436  43.6976589
  36.0074990  32.2461977  42.4543164  36.3634530  32.0804815  41.4374900
  36.7466467  31.8724715  43.1628993  35.0656117  31.7172311  42.5997271
  37.1323925  34.4664681  42.5218942  36.9937310  35.5249748  42.7419821
  37.8634810  34.0451585  43.2118996  37.4912443  34.3525556  41.4989816
  33.4032513  33.6032864  41.8072482  32.6736993  33.7945079  42.8092314
  33.0450776  32.8288947  40.7852022  33.7003115  32.6797354  40.0312000
  31.7262797  32.2132730  40.6872839  31.1424940  32.4009902  41.5884253
  30.9906938  32.8327997  39.4873048  31.5570397  32.5652679  38.5952407
  29.9544045  32.5168161  39.3674761  30.9775577  34.3204915  39.5533847
  30.0114325  35.0108965  40.2711534  30.2803417  36.3102050  40.2089244
  29.6346724  37.0314469  40.7099435  31.3832250  36.4818830  39.4816149
  31.8138870  37.3682209  39.2601758  31.8498381  35.2557237  39.0747223
  32.7625265  35.1890182  38.4825639  31.7619945  30.7153416  40.5283905
  32.5060554  30.1804447  39.6870269  30.9480892  30.0301331  41.3491033
  30.4746941  30.5360499  42.0839806  30.7098254  28.5578719  41.2345466
  31.6375157  28.0374526  40.9965264  30.1829780  28.0319929  42.5761528
  30.8739925  28.3641323  43.3509312  29.2057151  28.4849463  42.7431572
  30.0563762  26.5367966  42.6264431  29.2863537  26.2050241  41.9299569
  31.0074499  26.0738688  42.3632726  29.6740085  26.1358398  44.0238173
  30.3408537  26.6224048  44.7356255  28.6468439  26.4429411  44.2205943
  29.7723591  24.6935453  44.2028977  30.6405955  24.3387572  44.5775845
  28.8085174  23.8311960  43.9158351  27.6511178  24.2532903  43.4122802
  27.5052235  25.2389678  43.2471901  26.9239960  23.5859954  43.1975454
  29.0091099  22.5331874  44.1295880  29.8908408  22.2170775  44.5073778
  28.2787091  21.8700687  43.9130538  29.7035258  28.1645120  40.1668771
  28.6208372  28.7968167  40.0112070  30.0639417  27.1284895  39.3977882
  31.0173495  26.7970248  39.4330598  29.1387502  26.4800626  38.4704872
  28.1265276  26.8383199  38.6579873  29.5035022  26.7866653  37.0231031
  30.5703510  26.6817239  36.8258215  28.9467758  26.1057908  36.3792354
  29.1237980  28.1808256  36.6055688  27.8941516  28.4175113  36.0282235
  27.2143284  27.5826079  35.8582919  27.5160111  29.7125981  35.6617678
  26.5552364  29.9047303  35.1841718  28.4034780  30.7825216  35.9203548
  28.1015176  31.8007131  35.6749860  29.6547356  30.5438369  36.4838812
  30.3640697  31.3576990  36.6341269  29.9917618  29.2579075  36.8534607
  30.9445732  29.0644795  37.3462446  29.1476373  24.9673022  38.7056107
  30.1835903  24.4027325  39.0143748  27.9868206  24.3472584  38.5698456
  27.1495004  24.8774057  38.3750686  27.8710364  22.8912542  38.7122878
  28.8205392  22.4269779  38.4458463  27.5173990  22.4929606  40.1483463
  28.3518608  22.8108048  40.7734445  26.6260303  23.0596492  40.4174670
  27.2495353  20.9550492  40.3719181  26.2858617  20.7060532  39.9275814
  28.0387734  20.4068621  39.8574346  27.2429019  20.5659307  41.8658558
  27.0259091  21.4602905  42.7245854  27.4448703  19.3584725  42.1863266
  26.7992441  22.4147420  37.7735618  25.7257902  23.0272398  37.6918607
  27.1001237  21.3415139  37.0566282  28.0034192  20.9115481  37.1955024
  26.2030088  20.7638577  36.0532205  25.1766842  20.7707292  36.4202488
  26.2668798  21.5890665  34.7564199  26.0350835  22.6135677  35.0475676
  27.3027806  21.5324557  34.4220474  25.3455399  21.1634921  33.6247419
  25.5968397  20.1500911  33.3117442  24.3110268  21.1915032  33.9669408
  25.5172466  22.1187771  32.4433218  25.1827878  23.1059688  32.7622088
  26.5785411  22.1570575  32.1977854  24.7285543  21.6886053  31.2161846
  25.1467012  20.7600377  30.8275768  23.6873604  21.5284724  31.4961345
  24.8041712  22.7497180  30.1616079  25.7688478  22.8979495  29.9017499
  24.2782831  22.4565132  29.3506994  24.4163661  23.6101182  30.5213546
  26.6946663  19.3295097  35.8621502  27.8549792  19.1142047  35.5033023
  25.8116666  18.3550634  36.1347705  24.8430308  18.6276278  36.2216766
  26.1580980  16.9297707  36.3202429  25.2357018  16.3499780  36.2867023
  27.1215558  16.3810435  35.2576651  28.0279569  16.9833470  35.3190373
  27.3482687  15.3540847  35.5441210  26.5912312  16.4044782  33.8258692
  25.5729140  16.0159962  33.8404546  26.5797435  17.4397785  33.4851048
  27.4479740  15.5597363  32.8686916  28.7057803  15.5169940  33.0464284
  26.8517503  14.9445938  31.9383400  26.8061439  16.8028353  37.6732336
  26.3673253  17.4204147  38.6473403  27.8561300  16.0025231  37.7482251
  28.0883413  15.3378746  37.0240570  28.6533305  16.0099668  38.9513319
  28.1073527  16.5288365  39.7392289  28.9552906  14.5742637  39.4245802
  28.0192647  14.0518454  39.6221499  29.5097501  14.0448004  38.6497620
  29.7869249  14.5810347  40.6992663  30.1286919  15.6427330  41.2154379
  30.1124911  13.3900202  41.2069226  30.6634519  13.3381278  42.0518186
  29.8063473  12.5462969  40.7437728  29.9354545  16.8210633  38.6997039
  30.9545969  16.5982418  39.3712716  29.8762406  17.7792136  37.7601856
  29.0787507  17.8414703  37.1435551  31.0838620  18.5621525  37.4249183
  31.9084001  18.2335205  38.0575612  31.4923492  18.3860059  35.9560570
  32.5760357  18.5031475  35.9551889  31.2389871  17.3521603  35.7213850
  30.8822630  19.3071255  34.9103813  29.8951161  18.9464284  34.6213493
  30.7974219  20.3197683  35.3046636  31.8199407  19.3118718  33.6626538
  31.8701127  18.3186532  33.2164491  31.4659984  20.0261359  32.9192487
  33.1718460  19.7060116  34.0888367  33.6504922  19.0728586  34.7134281
  33.7961092  20.8277551  33.7161318  33.1977835  21.6535079  32.8512817
  32.2835485  21.4239373  32.4885536  33.6627977  22.5030499  32.5646812
  35.0179097  21.1134029  34.2070930  35.4591084  20.4779079  34.8563925
  35.4870335  21.9617249  33.9235946  31.0399246  20.0284843  37.9261316
  30.0835974  20.7415145  37.7057995  32.0744759  20.4232443  38.6553326
  32.8747441  19.8161530  38.7607374  32.1064078  21.7312360  39.3067866
  31.1740059  22.2893362  39.2216396  32.4595790  21.5499065  40.7873671
  33.3607603  20.9414959  40.8635848  32.7021429  22.9066394  41.4547101
  31.8011845  23.5154805  41.3792966  32.9514259  22.7560857  42.5050873
  33.5267219  23.4154625  40.9554430  31.3538141  20.7173716  41.4939664
  30.4649719  21.3438915  41.5683517  31.1374154  19.8538265  40.8650300
  31.7739906  20.2260903  42.9365316  31.9901120  21.0891551  43.5662225
  30.9594411  19.6507908  43.3765757  32.6625574  19.5990916  42.8629009
  33.1883905  22.5645722  38.6107118  34.2968699  22.0931961  38.4650302
  32.8818341  23.7845240  38.1645977  31.9366644  24.1345196  38.0993543
  33.9788091  24.6251184  37.6375305  34.9294276  24.2762855  38.0409400
  34.0422074  24.5580612  36.1017424  34.9579334  25.0138177  35.7251377
  34.0259563  23.5016216  35.8338408  32.8960905  25.2110068  35.3586851
  32.8938706  26.4680562  34.7777488  33.7981139  27.0628203  34.9069760
  31.6970793  26.7038550  34.1347548  31.4483887  27.5510744  33.6443755
  30.8931796  25.6114953  34.2876227  29.5845397  25.3906774  33.8312302
  29.0904092  26.1753817  33.2583664  29.0015716  24.1777170  34.1421920
  27.9867616  23.9656211  33.8056272  29.6902460  23.2040102  34.8871561
  29.2149017  22.2532676  35.1284769  30.9936617  23.4185635  35.3392517
  31.4910010  22.6147159  35.8820071  31.6115540  24.6466711  35.0568357
  33.7989587  26.0583481  38.1653692  32.8376211  26.3557118  38.9139057
  34.7511109  26.9156705  37.8132635  35.4958274  26.6118871  37.2023525
  34.7436096  28.3041311  38.2559405  33.8561000  28.5106057  38.8540994
  35.9898515  28.5771857  39.1151218  36.8729092  28.3480599  38.5186231
  36.0520038  29.9913798  39.5687153  35.1694416  30.2211282  40.1657071
  36.9472658  30.1408982  40.1722460  36.0849423  30.6505991  38.7012791
  35.9952553  27.7320143  40.2918704  36.7790202  27.9163993  40.8146659
  34.7911966  29.2489030  37.0268785  35.4335800  28.9486287  36.0136199
  34.1086757  30.3868431  37.1606901  33.4107659  30.4716775  37.8858276
  34.3065368  31.5244699  36.2448287  35.0769955  31.2625758  35.5196363
  33.0238054  31.8991101  35.4850511  32.2184526  32.0425917  36.2054115
  33.2281462  33.2224598  34.6561553  34.0330890  33.0795905  33.9352140
  32.3067148  33.4666195  34.1275243  33.4862707  34.0384180  35.3312002
  32.6433757  30.7534346  34.5100592  32.4751025  29.8362184  35.0744177
  31.7337646  31.0204756  33.9721035  33.4536553  30.5976987  33.7978133
  34.8006803  32.6721763  37.1086268  34.2363060  32.9849641  38.1861348
  35.9040923  33.2631585  36.6783909  36.4384907  32.8852152  35.9091858
  36.3608703  34.4799724  37.2927718  35.8768759  34.6252555  38.2585572
  37.8722276  34.4450042  37.5048814  38.3524752  34.2252623  36.5513747
  38.4051864  35.8287671  38.0569286  37.9257004  36.0489831  39.0107100
  39.4845931  35.7728640  38.1978418  38.1729315  36.6190606  37.3430690
  38.2468868  33.3221412  38.5076766  37.9197570  32.3594528  38.1148417
  39.3273914  33.3074994  38.6504877  37.7571183  33.5094246  39.4632667
  36.0142848  35.6552814  36.3443852  36.2433962  35.5560402  35.1069280
  35.5103516  36.7441033  36.9226389  35.2955750  36.7340677  37.9094872
  35.2912646  38.0081486  36.1648617  35.5109029  37.8405280  35.1104607
  33.8584484  38.4853903  36.2911476  33.7450525  38.6213606  37.3666720
  33.7462161  39.4468586  35.7900660  32.7924520  37.5231760  35.7865526
  32.9366572  36.5533323  36.2626922  31.3702406  38.0591810  36.1221693
  31.2251155  39.0288526  35.6459608  30.6210128  37.3583601  35.7539189
  31.2672042  38.1662290  37.2019955  32.9859529  37.2708696  34.2621252
  33.9715162  36.8395061  34.0869399  32.2198673  36.5814345  33.9073104
  32.9021110  38.2148131  33.7235713  36.1885356  39.0549331  36.7778291
  36.2375061  39.1683664  37.9983752  36.9162846  39.8101626  35.9374394
  36.9467352  39.5952310  34.9510437  37.7250060  40.9167760  36.4279467
  37.4074905  41.1673287  37.4401257  39.2299290  40.5687141  36.4545732
  39.3782789  39.7288211  37.1333008  39.5357401  40.2807711  35.4487559
  40.0601683  41.7403369  36.9160672  40.0883521  42.4940719  36.1291810
  39.5600769  42.1503761  37.7934928  41.4905878  41.3355836  37.2865153
  41.6443029  40.2768985  37.8758061  42.4478583  42.0476793  36.9665345
  37.4499004  42.1081978  35.5395183  37.4963705  41.9825611  34.3054385
  37.0897878  43.2451271  36.1448337  36.8592839  43.2886876  37.1272133
  36.9562951  44.4739906  35.3401007  37.3062452  44.2992014  34.3227104
  35.4784366  44.8948913  35.2858515  35.3906119  45.7664868  34.6372320
  34.8994299  44.0715480  34.8675730  34.9855983  45.2118541  36.5672570
  34.0633782  45.4700402  36.5005497  37.8344863  45.5747350  35.9259888
  38.2362048  45.4953135  37.0828412  38.1133660  46.6171607  35.1467682
  37.8228303  46.6363331  34.1796484  38.8251145  47.7730670  35.6774930
  38.7149765  47.7753923  36.7619115  40.3546216  47.7769175  35.3289658
  40.7619036  48.6946438  35.7532285  40.8317720  46.9169596  35.7989658
  40.6238248  47.7486306  33.8183015  40.6390268  48.9400629  33.0591074
  40.4931130  49.8909967  33.5714877  40.8325044  48.9152522  31.7036319
  40.8022387  49.8449096  31.1353687  41.0182050  47.7202978  31.0549515
  41.2328797  47.7470584  29.6934697  41.2292091  48.6358085  29.3305518
  41.0359397  46.5183487  31.7649972  41.2129512  45.5709681  31.2558436
  40.8244023  46.5401524  33.1368068  40.8124129  45.6077806  33.7012881
  38.2237837  49.0338005  35.0671871  37.5354918  48.9643337  34.0234009
  38.5268494  50.1476244  35.7325835  38.8491451  50.0769759  36.6871691
  38.3444788  51.4827228  35.1582113  38.1779993  51.4410716  34.0818058
  37.1436348  52.2419651  35.8219844  36.2244652  51.6845324  35.6417200
  37.3737881  52.3755455  37.3404783  38.2926018  52.9333059  37.5215467
  36.5336640  52.9043154  37.7906941  37.4580601  51.3835942  37.7843618
  36.9431058  53.6458849  35.1525971  36.7356439  53.5162299  34.0904054
  36.1056062  54.1583761  35.6259328  37.8484923  54.2402461  35.2755237
  39.6558686  52.2038678  35.3358725  40.3753844  51.9770113  36.3198960
  40.0235206  53.0602522  34.3727278  39.4530496  53.2226717  33.5552426
  41.2926492  53.7859791  34.4903641  41.5030538  54.1736244  35.4871390
  42.4958938  52.8698924  34.0414004  42.5274389  51.9947696  34.6904492
  42.3371212  52.4154333  32.5706726  42.3059612  53.2900556  31.9209298
  43.1818151  51.7857565  32.2912091  41.4115926  51.8499302  32.4624846
  43.8282064  53.5247300  34.2809854  43.9431786  53.7374903  35.3438196
  44.6257406  52.8563802  33.9564127  43.8828049  54.4556598  33.7166367
  41.1981536  55.0201601  33.5878765  40.4311879  55.0181923  32.6360542
  41.9662932  56.0429303  33.9155328  42.5009540  56.0146000  34.7719408
  42.1055572  57.2126177  33.0500053  41.1226622  57.5800632  32.7550468
  42.8392666  58.3259870  33.7966406  43.8314248  57.9472383  34.0421417
  42.9321875  59.1727256  33.1165674  42.1376786  58.7739953  35.0714397
  40.9212966  58.5362405  35.2176048  42.8565485  59.3819917  35.9217423
  42.9444638  56.9020884  31.7953084  43.8692082  56.0895964  31.8185393
  42.6780281  57.5803925  30.6748864  41.8786273  58.1916220  30.5885361
  43.5819695  57.4581462  29.5353287  43.8917744  56.4187234  29.4270681
  42.8874457  57.9108298  28.2156529  42.3994393  58.8620207  28.4282203
  43.6784225  58.0649029  27.4816793  41.8566739  56.9212717  27.6561986
  41.7848051  57.1405239  26.5908986  42.2921625  55.9316449  27.7943671
  40.1985850  56.9485481  28.3826132  39.5398565  58.4966759  27.6437187
  39.5428260  58.4111792  26.5570814  38.5201123  58.6608534  27.9919545
  40.1653318  59.3376237  27.9431992  44.7584639  58.3720457  29.8259100
  44.5281009  59.5770203  30.1051504  46.0073289  57.8454878  29.7689630
  46.4385429  56.4406263  29.6249153  46.0073407  56.0182241  28.7173133
  46.1023479  55.8658457  30.4878749  47.9419372  56.5489298  29.5561410
  48.2386218  56.4114205  28.5163484  48.3623595  55.7466612  30.1625332
  48.3594036  57.8660392  30.0646473  49.1308025  58.2341795  29.3882484
  48.7483238  57.8474267  31.0827310  47.1321305  58.7698219  29.9926789
  46.9397541  59.3385599  30.9024188  47.3012388  59.7390593  28.8085056
  46.7450668  59.5064325  27.7321142  48.0729588  60.7914543  29.0413751
  48.5619265  60.8405040  29.9237605  48.2346120  61.9196539  28.0799492
  47.2684183  62.3676722  27.8478965  49.1347157  62.9943723  28.7206597
  48.7022516  63.1995643  29.6999299  50.1118867  62.5279964  28.8460799
  49.2950750  64.3381393  27.9285030  49.1967303  64.1370256  26.8617404
  48.4900151  64.9995156  28.2487515  50.6597952  65.0169124  28.2017753
  51.0522174  65.1950671  29.3858504  51.3562548  65.3552662  27.2215153
  48.8412580  61.3750359  26.8145083  49.8138133  60.6278505  26.8747682
  48.2489719  61.7030728  25.6558190  47.4295063  62.2931039  25.6348719
  48.7769591  61.2132326  24.3949795  48.5645264  61.9686902  23.6385039
  49.8557512  61.1107946  24.5125099  48.2032865  59.8891109  23.9427889
  48.4742300  59.4595595  22.8348899  47.3932680  59.2344159  24.7789877
  47.1789176  59.6111479  25.6912521  46.8485656  57.9326221  24.4249561
  47.1946461  57.6387401  23.4340167  47.3115020  56.8820583  25.4358737
  47.0946525  57.2669113  26.4323494  46.7792394  55.9427386  25.2859568
  48.7604674  56.6240932  25.3351804  49.5077513  57.0387559  26.2042648
  49.1947041  55.9625866  24.2419460  50.1791668  55.7649916  24.1329079
  48.5332537  55.6681097  23.5377675  45.3353226  57.9198222  24.3383082
  44.6253591  58.5774690  25.1277502  44.8409094  57.1385132  23.3930798
  45.4769055  56.6484256  22.7803626  43.4347033  56.9752045  23.1825481
  42.9106095  57.9187902  23.3344395  43.2058751  56.5175366  21.7518693
  42.1336950  56.4936117  21.5570448  43.6819111  57.2268602  21.0748538
  43.7611766  55.2059767  21.5403894  43.6064291  54.9355848  20.6323469
  42.8037226  55.9586786  24.1431085  43.5450665  55.2214777  24.8629953
  41.4625863  55.9068544  24.1484682  40.9112249  56.6244812  23.7000133
  40.7509973  54.7998332  24.8383741  41.0083777  54.8516991  25.8962798
  39.2277324  54.8317616  24.7038207  38.9770530  54.8786716  23.6440761
  38.8254325  53.9134260  25.1315057  38.6339325  56.0140542  25.4105236
  39.0087074  56.0019475  26.4339971  39.0118798  56.8976306  24.8961814
  37.1183473  56.0495460  25.4280699  36.4658051  54.9662404  25.4432936
  36.5911187  57.1965446  25.4401595  41.2133878  53.4594408  24.3055016
  41.5005385  52.5540425  25.0901973  41.3028039  53.3348749  22.9811085
  40.9873092  54.0604663  22.3533509  41.7754938  52.0780888  22.4052838
  41.1468684  51.2530520  22.7403114  41.7154650  52.1498156  20.8651653
  42.0879181  53.1374869  20.5933503  42.3691134  51.3866642  20.4427394
  40.2739750  51.9665317  20.3044893  39.3526608  51.4412493  21.0091335
  40.0744322  52.3296247  19.0991656  43.1834757  51.6892636  22.8812585
  43.4351344  50.4881638  23.2237394  44.1017707  52.6560426  22.9029534
  43.8578140  53.6138118  22.6949568  45.4834422  52.3639214  23.3413769
  45.9339786  51.6528210  22.6489519  46.3388306  53.6084612  23.3797343
  45.7445515  54.3546880  23.9070646  47.2447539  53.3982195  23.9482423
  46.7219453  54.1491177  21.9802527  46.6304465  53.4070655  20.9601250
  47.1551189  55.3358905  21.9885005  45.4392117  51.8756733  24.7904951
  46.1624236  50.9167840  25.1718816  44.6059170  52.5550170  25.5865434
  44.0001834  53.2694518  25.2086954  44.5980701  52.3270390  27.0697455
  45.6313349  52.3461370  27.4162976  43.8273068  53.4729555  27.7551246
  42.7769942  53.4314423  27.4666451  43.9470140  53.3201124  29.2960302
  44.9970846  53.3619956  29.5853348  43.4034009  54.1284024  29.7851632
  43.5246913  52.3625150  29.6005812  44.4763573  54.7212610  27.3734956
  44.0193048  55.4583919  27.7850068  44.0048014  50.9952079  27.3964121
  44.6159647  50.1929922  28.1889974  42.8506965  50.7189904  26.7872884
  42.2922146  51.4317747  26.3399230  42.2855049  49.3715242  26.9159670
  42.2303450  49.1122870  27.9732525  40.8780138  49.2672779  26.3111309
  40.9293381  49.6101125  25.2777241  40.5796295  48.2191074  26.3312626
  39.8365664  50.1157721  27.0857184  39.7560567  49.6936381  28.0874279
  40.2295107  51.1304403  27.1501033  38.4405133  50.1456752  26.4263927
  37.8240491  50.9050859  26.9073982  38.5406690  50.3777951  25.3661150
  37.7841572  48.8623825  26.5602485  38.2179740  48.1939808  27.1808462
  36.6681462  48.5104183  25.9286682  36.0757505  49.3490112  25.0786156
  36.4768783  50.2607354  24.9114169  35.2284700  49.0688590  24.6056143
  36.1396240  47.3121132  26.1513698  36.5877975  46.6780022  26.7972367
  35.2920662  47.0407052  25.6737903  43.2128590  48.2824276  26.3841843
  43.3072748  47.2125461  26.9832338  43.9070272  48.5099483  25.2748283
  43.8288383  49.3651831  24.7432653  44.8018954  47.4607361  24.7760592
  44.2295583  46.5447856  24.6292125  45.4591770  47.8516999  23.4357946
  45.8307476  48.8714301  23.5367150  46.2974043  47.1747938  23.2706486
  44.5026799  47.7745091  22.2504057  43.9254769  46.8499793  22.2639068
  43.8229214  48.6263619  22.2309831  45.5422953  47.8069725  20.7636270
  47.2100041  48.1170382  21.4369326  47.4816398  47.3128217  22.1207082
  47.9304706  48.1575405  20.6199943  47.2153584  49.0662050  21.9728009
  45.9139429  47.1252281  25.7561223  46.2684394  45.9585161  25.9248337
  46.5313224  48.1691802  26.3141559  46.2799530  49.0998802  26.0129744
  47.5920316  48.0253642  27.3236220  48.4225457  47.4574144  26.9043626
  48.1224690  49.4272012  27.7760501  48.5574280  49.9068203  26.8991946
  47.3473458  50.0695869  28.1939313  49.2255227  49.3431053  28.8175544
  50.5439968  49.2090634  28.4281397  50.7748513  49.2046069  27.3628763
  51.5863612  49.0790748  29.3797071  52.6212259  48.9853714  29.0505029
  51.2884305  49.0714201  30.7226307  52.0898015  48.9927052  31.4572792
  49.9537129  49.1648697  31.1472223  49.7173994  49.1183830  32.2102816
  48.9198476  49.3185869  30.2014614  47.8868318  49.4184185  30.5346460
  47.0549759  47.2390732  28.5541454  47.5849377  46.1633031  28.8859104
  45.9928288  47.7449782  29.2001050  45.5773921  48.6216985  28.9192615
  45.4649539  47.0729498  30.4136943  46.3000508  46.9540127  31.1040321
  44.3677806  47.9442308  31.1031913  43.5209649  48.0646440  30.4275407
  44.0351758  47.4535963  32.0179329  44.7802396  48.9235068  31.3460812
  44.9310373  45.6569886  30.0970985  45.1607281  44.6912577  30.9048663
  44.2499689  45.5054020  28.9575932  44.0500052  46.2992232  28.3660175
  43.7284244  44.1647345  28.5459722  43.0621146  43.7791553  29.3176321
  42.9410787  44.2621771  27.2156697  43.5588120  44.8074063  26.5020663
  42.7959975  43.2407674  26.8638550  41.5866506  44.9518363  27.3463283
  41.1170932  45.3141511  28.4593022  41.0008301  45.1338963  26.2473795
  44.8390477  43.1180237  28.3749233  44.7022618  41.9352225  28.8204284
  45.9759245  43.5255666  27.7883732  46.0653600  44.4593225  27.4139395
  47.0952607  42.6136149  27.6378694  46.8119549  41.7568104  27.0265405
  48.2794228  43.3371836  26.9559527  48.5276452  44.2195826  27.5457474
  49.5201595  42.4264677  26.8464172  49.2728237  41.5440183  26.2563259
  50.3300655  42.9716944  26.3617738  49.8353152  42.1194262  27.8436649
  47.8370476  43.7255873  25.6540588  48.5482544  44.1803119  25.1968818
  47.5172896  42.0678836  28.9948907  47.7161376  40.8259346  29.1660376
  47.6368563  42.9659422  29.9789601  47.4994330  43.9530853  29.8153672
  48.0762814  42.5289620  31.3338505  48.9364217  41.8651772  31.2464002
  48.4707453  43.7461729  32.2556753  47.6476689  44.4607664  32.2564015
  48.7623238  43.2786117  33.7345988  49.5856477  42.5643018  33.7347321
  49.0311391  44.1422058  34.3429112  47.8718462  42.8059478  34.1490143
  49.7021101  44.4213798  31.6843888  49.4869608  44.7786648  30.6773336
  49.9811428  45.2643584  32.3165497  50.5247823  43.7072477  31.6479665
  46.9996770  41.6680633  32.0112067  47.3057267  40.5652873  32.5489209
  45.7695320  42.1846343  32.0576265  45.5729460  43.0920236  31.6600114
  44.6832762  41.4864601  32.7878183  45.0320983  41.2955190  33.8026896
  43.3687642  42.3417142  32.8617140  43.0616815  42.6196290  31.8534666
  42.2421464  41.5155636  33.5357189  42.5483323  41.2376564  34.5442420
  41.3320477  42.1134162  33.5846382  42.0532549  40.6142502  32.9525758
  43.6093783  43.6070416  33.7156562  44.4013170  44.2050951  33.2648046
  42.6924945  44.1946626  33.7617556  43.9042819  43.3151142  34.7235804
  44.4098326  40.1138535  32.1690599  44.2586925  39.0972879  32.8814089
  44.4210151  40.0318569  30.8458379  44.5754406  40.8172261  30.2298449
  44.1030397  38.7305982  30.2474856  43.2010765  38.3339238  30.7135447
  43.8628397  38.8418463  28.7152030  44.7139020  39.3805964  28.2986210
  43.8487040  37.8255882  28.3213506  42.5590969  39.5615278  28.3243536
  41.7338520  38.9920344  28.7518450  42.5882022  40.5530039  28.7762719
  42.3495042  39.7007712  26.7568651  42.0560296  38.7266745  26.3655759
  41.5471468  40.4179825  26.5838621  43.6077419  40.1703640  26.0516881
  43.7260339  41.2361242  26.2472964  44.4534576  39.6278704  26.4742575
  43.5534804  39.9348365  24.5566425  42.7701426  40.4377851  24.1648207
  44.4098127  40.2623667  24.1329456  43.4442999  38.9472921  24.3751628
  45.1892622  37.6827284  30.5276310  44.8685372  36.5081720  30.7355894
  46.4640243  38.0905530  30.4912205  46.7097446  39.0391038  30.2463281
  47.5266627  37.1661731  30.7936150  47.4571680  36.2846903  30.1562315
  48.8790970  37.8500144  30.5400967  48.7667351  38.2356922  29.5268214
  49.0262680  38.6807458  31.2302605  50.1062839  36.9056755  30.5998506
  50.1380636  36.4479953  31.5885971  50.0348809  35.8128986  29.5355375
  50.0035367  36.2698294  28.5464315  50.9137966  35.1727469  29.6117847
  49.1362700  35.2150153  29.6876373  51.3972965  37.7198867  30.5009029
  51.4470020  38.4253737  31.3303104  52.2550030  37.0486106  30.5436725
  51.4112201  38.2667410  29.5581116  47.4164839  36.7339658  32.2700690
  47.6408754  35.5496334  32.6168343  47.1228293  37.6885321  33.1437704
  46.9508437  38.6416265  32.8571847  47.0542356  37.3622000  34.6068409
  47.9992164  36.9306868  34.9368514  46.7881104  38.6255996  35.4138631
  45.9881407  39.1676340  34.9095355  46.4691585  38.3640160  36.4227951
  48.0318760  39.5526683  35.5108309  49.1226401  39.1530412  35.2180838
  47.8189755  40.7792148  35.9649963  48.5913963  41.4245309  36.0488592
  46.8852672  41.0630927  36.2251939  45.9274143  36.3475128  34.8359100
  46.0924493  35.4029356  35.6379195  44.7741006  36.5609871  34.1833081
  44.5945718  37.3960450  33.6442840  43.6648967  35.5895126  34.3677533
  43.5498973  35.4146225  35.4374672  42.3101474  36.0509275  33.7957003
  42.5027438  36.2826971  32.7481848  41.5811960  35.2431316  33.8604743
  41.7520837  37.3076938  34.5079337  42.5065483  38.0932473  34.5502383
  40.5609297  37.7918065  33.6920194  39.8057924  37.0069043  33.6496529
  40.1357169  38.6794604  34.1603841  40.8874566  38.0360680  32.6811698
  41.3735547  36.9896268  35.9734221  42.2572796  36.6461121  36.5111279
  40.9842353  37.8882845  36.4519050  40.6120014  36.2100061  35.9915080
  44.0449207  34.2205994  33.8069463  43.6778440  33.1546538  34.3951221
  44.7779964  34.2089492  32.6866596  45.0036880  35.0601700  32.1921034
  45.2189906  32.9215133  32.1049219  44.3576861  32.2629236  31.9930579
  45.8656492  33.1185711  30.7316627  46.4136618  34.0607634  30.7390910
  46.5594105  32.2967195  30.5545885  44.8407257  33.1475386  29.6450525
  44.6686382  32.1040569  29.3811723  43.9033723  33.5988661  29.9702818
  45.3372462  33.8924857  28.3998127  46.5369481  34.2153042  28.2834964
  44.4050318  34.2422999  27.5179349  44.6693593  34.7354907  26.6771047
  43.4371053  34.0131341  27.6931562  46.1809310  32.2312010  33.0630787
  46.0961042  30.9903324  33.2608048  47.0638723  33.0018436  33.7008919
  47.1678047  33.9821642  33.4811897  48.0147214  32.3916712  34.6648450
  48.3994491  31.4630572  34.2432292  49.2124347  33.3277281  34.9783132
  49.7837997  33.4801980  34.0626745  48.8241682  34.2845868  35.3272696
  50.1381988  32.7129449  36.0718791  49.4973028  32.4034857  36.8974627
  50.6137034  31.8357121  35.6331765  51.2271328  33.6810196  36.5986896
  51.9256306  33.8585056  35.7809497  50.7304794  34.6152130  36.8608298
  52.0123574  33.1350417  37.8503172  51.3060240  33.0768922  38.6784551
  52.3645911  32.1336380  37.6028883  53.2125741  34.0160213  38.2589599
  52.8863490  34.9438692  38.4886882  53.6690899  33.6108028  39.0636284
  53.8674040  34.0696848  37.4918765  47.2845752  31.9450782  35.9416105
  47.5730816  30.8706912  36.4930103  46.2853090  32.6986781  36.3810969
  46.0980132  33.6107220  35.9896949  45.4420308  32.2302120  37.5045075
  46.0577348  32.1104077  38.3959415  44.3247517  33.2329777  37.8121819
  44.8789104  34.1146436  38.1341640  43.7610790  33.4684006  36.9094366
  43.3507153  32.8020628  38.9285798  42.8297464  31.8996170  38.6087614
  44.1231190  32.5141691  40.2754398  44.6439947  33.4163498  40.5961536
  43.4125989  32.2124675  41.0450098  44.8466913  31.7146825  40.1161771
  42.2498459  33.8444858  39.1035628  41.6965262  33.9494925  38.1703370
  41.5703682  33.5268465  39.8944588  42.6952746  34.8026852  39.3710440
  44.8424787  30.8528235  37.1649308  44.8327729  29.9528175  38.0224837
  44.3023799  30.7141431  35.9657765  44.2350155  31.4854753  35.3172335
  43.7043238  29.4320706  35.5847919  42.9179880  29.2131866  36.3071942
  43.0837793  29.5106547  34.2009011  43.8603383  29.7202945  33.4653011
  42.6049677  28.5609445  33.9623843  42.3400181  30.3072074  34.1803496
  44.7307123  28.2732053  35.6505781  44.4179475  27.1821320  36.1923661
  45.9336374  28.5191389  35.1150777  46.0898976  29.3940881  34.6353423
  47.0188523  27.5044582  35.1009061  46.6836300  26.5903191  34.6109317
  48.2378435  28.0674434  34.3205522  48.4912207  29.0386160  34.7456687
  49.4864528  27.1206559  34.3992556  49.2339653  26.1493691  33.9738714
  50.3115383  27.5591577  33.8379632  49.7825328  26.9947428  35.4406887
  47.8222677  28.2094297  32.9515593  48.5499941  28.5567722  32.4306295
  47.3795986  27.0584582  36.5075873  47.4141588  25.8379908  36.8031732
  47.6105683  28.0429946  37.3816388  47.5453961  29.0016531  37.0704702
  48.0218940  27.7918743  38.7405957  48.8637414  27.1078446  38.8478118
  48.3618744  29.1162402  39.4763228  47.5649967  29.8308852  39.2704890
  48.4997730  28.9188580  41.0293258  49.2968263  28.2046429  41.2359749
  48.7378830  29.8738331  41.4977559  47.5603881  28.5410006  41.4329114
  49.5870366  29.7688616  38.8505531  49.3875314  29.9861647  37.8012299
  49.8137810  30.6963210  39.3763911  50.4380762  29.0919391  38.9254419
  46.9372811  27.0176741  39.4809537  47.2427762  25.9593770  40.1127495
  45.6828999  27.4856903  39.4077031  45.4882067  28.3536426  38.9293176
  44.5817006  26.8198158  40.1199110  44.9138318  26.7336486  41.1544946
  43.2936714  27.6499456  40.0865294  42.9437198  27.7374018  39.0579452
  42.5292039  27.1598427  40.6894297  43.4908037  28.6437800  40.4884390
  44.3242349  25.3800243  39.5985276  44.0806224  24.4489073  40.3920514
  44.3975937  25.2137913  38.2822593  44.5104418  26.0184008  37.6822859
  44.1798315  23.8980304  37.6534932  43.2662156  23.4531631  38.0478261
  44.0441051  24.0286686  36.1339495  44.8159743  24.6994085  35.7565570
  44.1590681  23.0475419  35.6732174  42.6620772  24.5956290  35.7898089
  41.9218858  23.8296160  36.0209829  42.5235325  25.4469127  36.4563077
  42.4961001  25.0313970  34.4002525  43.4679465  24.8784840  33.6277881
  41.3922414  25.5072281  34.0385804  45.2929057  22.9083690  38.0863237
  45.0164196  21.7532631  38.4462610  46.5286008  23.3707992  38.1183384
  46.7644403  24.2774196  37.7408221  47.6072151  22.5291159  38.6184297
  47.5701812  21.5857737  38.0736059  48.9337606  23.1748592  38.3669862
  48.9894941  24.1164021  38.9133292  49.7307777  22.5120860  38.7040258
  49.0485047  23.3670529  37.3002179  47.4221660  22.1945568  40.1126683
  47.6296862  21.0417111  40.5292258  47.0478418  23.1853222  40.9274119
  47.0282744  24.1417972  40.6035723  46.7483255  22.9236677  42.3339797
  47.6056795  22.4306189  42.7921786  46.4513466  24.1998344  43.1066064
  45.7304233  24.7848484  42.5355306  46.0154777  23.9240784  44.0668548
  47.6835752  25.0135802  43.3346422  48.3632419  24.4553314  43.9784685
  48.1658874  25.2033103  42.3757472  47.2832110  26.5870953  44.1182907
  46.8057923  26.1137903  45.7937244  47.6397970  25.6083786  46.2806476
  46.5401141  27.0052454  46.3619000  45.9487951  25.4415640  45.7516665
  45.6048159  21.9412711  42.5125233  45.6709601  21.1028741  43.4182023
  44.5978470  22.0168947  41.6381414  44.6010680  22.7642689  40.9587883
  43.4392314  21.1291907  41.6853606  43.0462062  21.1979697  42.6997076
  42.3498866  21.5790162  40.7067525  42.7254621  21.5070517  39.6860350
  41.4746095  20.9388781  40.8172671  42.0733747  22.6116424  40.9196460
  43.8168231  19.6504865  41.4374530  43.2380649  18.7600821  42.0663990
  44.7551714  19.4049204  40.5270817  45.1089636  20.1668974  39.9664380
  45.2582592  18.0266787  40.2470652  44.3923500  17.3700868  40.1622866
  46.0258663  18.0010655  38.9166437  45.3777025  18.3567000  38.1157024
  46.9009596  18.6468820  38.9889819  46.4711303  16.5742414  38.6140923
  47.1197467  16.2180601  39.4144251  45.5964907  15.9278777  38.5411429
  47.2331448  16.5488143  37.2933682  46.5849826  16.9044504  36.4924265
  48.1082385  17.1946296  37.3657081  47.6819783  15.1769577  36.9663221
  47.4563857  14.4302697  37.6079328  48.3688197  14.8824847  35.8661243
  48.7032017  15.8108630  34.9743829  48.4333743  16.7723414  35.1255534
  49.2254198  15.5501275  34.1501226  48.7220788  13.6151839  35.6710407
  48.4665593  12.9126353  36.3501838  49.2442407  13.3611695  34.8446496
  46.1499530  17.4781240  41.3869669  46.2432557  16.2551377  41.5961874
  46.8091441  18.3859833  42.1144541  46.6697330  19.3587410  41.8812022
  47.8429394  18.0471097  43.1084551  48.3715870  17.1415531  42.8108007
  48.8649738  19.2074159  43.2066440  49.7611059  18.9274160  42.6528872
  48.4171893  20.0900052  42.7498888  49.2670615  19.5517440  44.6505594
  49.6847108  18.6846067  45.4170005  49.1428603  20.8402597  45.0161512
  49.3927393  21.1224792  45.9531744  48.8002888  21.5196824  44.3519748
  47.2975517  17.6124371  44.4764741  46.1990285  18.0123873  44.8889613
  47.9069266  16.7917404  45.1587926  50.2866232  46.4076192  36.8503317
  50.3704558  45.6881802  38.0504970  51.4389094  45.6251654  38.9013278
  51.0953675  44.8207934  39.9371321  49.8132155  44.3518854  39.7781143
  49.3331139  44.9061747  38.5606757  48.1226345  44.8192373  37.8449079
  47.9958849  45.5206335  36.6392126  46.7648644  45.4608182  35.8648919
  46.6682409  46.1380840  34.7173271  47.7709729  46.9575435  34.1877753
  47.6451365  47.5621573  33.1292851  48.9298353  46.9991037  34.9449508
  49.0623023  46.2908505  36.1678882  51.2518025  47.2069883  36.2627059
  52.5112258  46.5962905  35.9844221  52.6065714  46.1480245  32.8647457
  53.2583036  47.2717309  33.6212740  54.0252269  48.2370462  32.7548786
  53.1949792  47.4524604  34.9554074  51.8551491  44.6825274  40.6939368
  49.2884402  43.6937588  40.4552046  47.3070413  44.2145534  38.2319054
  45.9355757  44.8647760  36.2319708  45.7678016  46.1170379  34.1147823
  52.3806027  45.5664303  35.6362616  53.1172630  46.5724287  36.8965726
  51.9786515  45.5140931  33.4962864  51.9647804  46.5477662  32.0729320
  53.3695634  45.5119023  32.4034770  53.3558761  48.7050852  32.0249999
  54.4932491  49.0376824  33.3377054  54.8188140  47.7115681  32.2137924
  53.6823577  48.3264086  35.3840795  38.9467081  61.7075228  35.3139146
  44.1868580  15.3976119  46.2476865  32.5317694  58.7395577  26.7946921
  53.2938353  48.8617969  52.4146656  27.7716628  29.0036913  52.2427243
  54.9552194  23.8350320  46.6895520  30.4671783  51.7079927   8.9480580
   2.1874914  27.9415769  34.2717155  41.9318806  21.3044484  14.0906253
  27.6975532  71.4022390  28.3468677  58.5314036  38.3440089  57.1102609
  63.3053176  75.0435140  22.2875173  61.7590630   6.2826720  57.8490010
  46.0256765  80.2785702  38.5461760  54.0917328  43.4943614  27.0681560
  37.2286326  16.6227650  44.6192195  40.5961838  35.9651416  -2.2357293
  26.5602918  24.1664211  57.6852149   1.8042700  36.3537298  36.6044607
  44.0032605  13.8605571  58.9720731  23.0896581  65.0340182  51.5336825
  77.8439718  52.4189295  37.1513886  74.0196171  49.2453109  17.2569732
  44.5742599  22.6289139  60.3664876  42.6290617  48.1162242   1.8727477
  57.2106351  11.6752678  63.7300844  64.1588367  54.3722450  55.2003654
  63.4042399  56.8764400  52.6873079  36.7081061  59.7239964  65.8800619
  52.7390146  39.1694825   2.3894562  51.0757879  22.2401579  73.5094475
  43.9750470  35.0321461  67.2841895  39.3301115  42.8285716  84.5099838
  38.9176249  26.2196941  10.9045124  17.7892000  12.6094237  34.4553768
  70.5366584  13.3598527  43.9211188  64.9362555  38.7508165   1.6583079
  26.8394579  72.8467295  67.7892500  48.8051032  74.2764596  28.3764900
  73.8456820  28.8550497  39.9564813  74.4811778  16.3710480  41.3726296
  54.7735976  83.5393130  49.1463035  18.3342186  13.7108777  44.2360778
  63.6506918  30.5131574  38.8406667  27.7978594  70.1714784  60.0457237
  34.1172634  59.5388440  10.1155677  14.3648731  21.3688433  51.4839986
   2.2223482  62.7406907  53.5128742  63.6408769  12.2089371  42.3945855
  48.9228060  65.5768558  12.1900324  73.1714271  47.0061131  26.8263257
  37.5335502  39.6849518  57.6852149   0.5168690  48.4631268  24.0548398
  29.2692532  62.2822725  12.2680006  41.5300454  67.7816566  69.0895092
  10.9478287  37.6286450  22.3116350  62.9814527  12.8197403  48.5137773
  38.6132719  59.2108920  69.7796455  37.0493201  70.8042633  67.3557937
  37.1326738  56.9461229  17.3767369  21.2535934  20.1588400  13.7286968
  44.7150575  38.3019146  85.7191364  44.1862046  38.5178780  86.3788671
  45.2375595  38.9955285  85.6392334  44.7139028  38.4362283  85.8046964
  36.6050183  42.1982363  84.5198832  36.0207398  42.7032394  84.9264696
  36.2020278  41.9724750  83.7795424  36.4589487  42.2390611  84.4703858
  41.0627397  38.4448015  82.9967753  41.3023401  38.6525999  82.1843096
  41.3843238  37.6405524  83.1056698  41.1464555  38.3562116  82.8928306
  34.2736779  36.0585902  82.0527877  33.5594956  35.7724082  82.4650309
  34.7580748  36.3982528  82.6934264  34.2396142  36.0667552  82.2083512
  41.4484097  44.5615856  82.4289685  41.8635245  44.2300880  81.7374181
  40.6176027  44.3284758  82.3009822  41.3872106  44.4787112  82.3080533
  44.1417487  40.8126416  81.6150887  44.0597650  40.8828603  82.4805874
  44.7797208  41.3756160  81.4234627  44.2237324  40.9065387  81.7140836
  41.2457597  40.8346870  84.6259493  42.0598236  41.1261763  84.5142264
  41.1816739  40.1806732  84.0517786  41.3560336  40.7812065  84.5248330
  37.7568321  39.5270677  84.0906695  38.1413473  39.3078384  84.8423240
  37.5079941  40.3533623  84.2207771  37.7770393  39.6168823  84.2207771
  42.6833619  44.0508670  79.9675298  43.4506605  44.1108795  79.5581150
  42.2364928  43.4789111  79.4831617  42.7307047  43.9745246  79.8353009
  38.7308220  40.3227436  81.4312409  39.0200745  41.0992319  81.7055983
  38.8180019  39.8116168  82.1326908  38.7862476  40.3619355  81.5754906
  43.5239839  35.7160699  85.6866095  42.9962857  35.7989443  84.9971804
  43.9835547  36.4578571  85.6830740  43.5141689  35.8381362  85.5840791
  35.5172904  33.9863219  80.7106991  35.1685708  34.6382944  81.1738540
  35.0369350  33.9720332  79.9830862  35.3943148  34.0806272  80.6718082
  35.9197035  37.4788860  83.5525612  36.5542115  38.0749285  83.4875074
  36.0022646  37.1792318  84.3671482  36.0253586  37.5229769  83.6628698
  40.5587129  35.3510960  85.0261718  39.9651968  35.6727956  84.4746285
  40.5962407  34.5052055  84.8182824  40.4761518  35.2735288  84.9144489
  38.5316361  35.9908210  83.1191048  38.9115326  36.0087839  82.3342162
  37.7908957  36.4362199  82.9981895  38.4785199  36.0589985  82.9854616
  47.9337086  15.3152537  74.5701076  47.9031090  16.1697173  74.7419346
  48.5318434  15.0147829  75.1287220  48.0174243  15.3969033  74.6775879
  35.5177910  23.9390906  75.0891238  34.7660810  23.5606444  74.8607283
  35.9663922  23.9709339  74.3410049  35.4727577  23.8876513  74.9448741
  40.9702870  24.3616275  70.5176786  40.6354238  25.0393197  70.0821008
  41.4829740  23.9721586  69.9293657  40.9968451  24.4040853  70.3663577
  40.5107161  26.3130544  76.4587897  40.8946541  26.8817442  75.9192672
  40.4466303  25.5880054  75.9793713  40.5580589  26.2906007  76.3081760
  45.7553660  17.8904839  72.8419386  45.6393186  18.6412525  73.2711524
  46.5509547  17.6328792  73.0915473  45.8558250  17.9639686  72.9423478
  36.9363406  28.8686887  78.7568867  37.5800861  29.3100051  79.1465025
  37.2619661  28.0640313  78.6699126  37.0795235  28.8152082  78.8014344
  37.6383986  21.8798862  74.1288729  37.9599827  22.4204069  73.5250037
  38.2856082  21.3095633  74.2611018  37.7810041  21.8758037  74.0595764
  39.8773629  20.2685302  74.2002907  40.3167265  19.6602402  74.6457680
  39.7278292  19.8892675  73.4288372  39.9195095  20.1223773  74.1522074
  43.4782966  18.6212483  71.1533676  43.3934261  19.4773450  71.2983245
  43.9667349  18.3456807  71.8215835  43.5371863  18.7069804  71.2735758
  44.4101399  15.2397277  72.6531411  43.8812870  15.4556911  73.3128717
  44.9326419  15.9333416  72.5732381  44.4089852  15.3740414  72.7387010
  49.8649452  20.8143582  78.0264456  49.0347155  21.0254225  78.1897872
  49.8158704  19.9880636  77.7506739  49.7356187  20.7233188  78.0101821
  36.3001007  19.1360494  71.4538879  35.7158222  19.6410525  71.8604743
  35.8971102  18.9102881  70.7135471  36.1540310  19.1768742  71.4043904
  40.7578221  15.3826146  69.9307800  40.9974225  15.5904130  69.1183143
  41.0794062  14.5783655  70.0396744  40.8415379  15.2940247  69.8268353
  47.1213767  21.4842936  78.1629171  46.6848999  21.4879679  78.9188143
  46.7876682  22.1648435  77.7308749  47.0076387  21.5855392  78.2110004
  50.2558113  18.2023856  77.0548809  50.9174547  17.6414524  76.9544717
  49.6149525  17.7075887  77.3801500  50.2586981  18.0460265  77.0881149
  41.1434921  21.4993987  69.3629732  41.5586069  21.1679011  68.6714228
  40.3126851  21.2662890  69.2349869  41.0822930  21.4165243  69.2420579
  46.5422944  19.2189238  76.7960798  46.7778533  19.3634437  75.9687648
  46.6912508  19.9831646  77.1892311  46.5988747  19.3528293  76.7324401
  48.3713401  18.0590904  74.6330401  48.7021618  18.5918544  74.0270496
  48.9446489  18.1129792  75.2892352  48.5047080  18.1460473  74.6408183
  43.8368311  17.7504547  68.5490933  43.7548474  17.8206734  69.4145920
  44.4748032  18.3134291  68.3574674  43.9188148  17.8443518  68.6480883
  40.9408421  17.7725001  71.5599540  41.7549060  18.0639894  71.4482311
  40.8767563  17.1184863  70.9857833  41.0511160  17.7190196  71.4588377
  37.4519145  16.4648808  71.0246741  37.8364297  16.2456515  71.7763286
  37.2030765  17.2911754  71.1547818  37.4721217  16.5546955  71.1547818
  37.7342387  24.6853684  73.0979112  38.0240686  24.2942666  72.3738338
  38.4645868  24.8670389  73.5384387  37.8849271  24.6547498  73.0561919
  35.6748303  26.6621067  76.1639261  35.4548598  26.3718421  76.9565928
  35.4542825  26.0036022  75.6357174  35.6095897  26.5220775  76.2028170
  37.8416258  28.0350457  74.9469954  38.4940317  27.5026899  75.1760980
  37.1441867  27.6819109  75.3337828  37.8346976  27.9039980  75.0382122
  45.8356177  20.3554871  74.2900933  46.4014209  21.0148081  74.2059476
  45.1884080  20.7004569  74.7617335  45.8234933  20.5036812  74.3473690
  42.3062755  23.2993655  73.7138012  42.0649431  22.5661515  73.3065077
  42.4864088  23.8480512  73.0604346  42.2970379  23.2716046  73.5568235
  47.0318875  20.4061098  71.0826570  46.6525683  19.6198236  71.0755859
  46.3685120  20.9547955  70.9398214  46.8777349  20.3705922  71.0607366
  39.8565783  23.9574617  74.9215396  40.6215674  23.6884261  74.5998060
  39.7543873  23.4724628  75.6385459  39.9547278  23.8464182  74.9795223
  42.3784443  20.9886801  66.9015345  43.1457429  21.0486926  66.4921197
  41.9315752  20.4167243  66.4171664  42.4257871  20.9123377  66.7693055
  45.2778973  22.6506589  71.4178255  45.3598811  23.4573576  71.0939706
  45.7628716  22.6702549  72.1419029  45.3616131  22.7727252  71.4765154
  40.9137066  17.2001360  74.3869669  41.4552612  16.6971741  74.8508290
  41.2283625  17.1466555  73.5759154  41.0401463  17.1180781  74.3353481
  39.0823516  22.5918712  71.6709697  39.1516336  21.7333250  71.8102697
  39.8611971  22.8090593  71.3428722  39.2076366  22.4971576  71.6426854
  43.4731004  25.0156413  75.8846190  43.0810795  24.7123128  75.1669057
  43.6284076  25.8525503  75.6951144  43.4384594  25.0940250  75.7502688
  43.6370678  21.5806402  75.8252221  43.2785333  21.7521045  76.6016253
  43.1509389  22.0419608  75.2680219  43.5129375  21.6745373  75.8577490
  38.4259044  17.2605567  68.3652455  38.7151569  18.0370450  68.6396030
  38.5130843  16.7494299  69.0666955  38.4813300  17.2997486  68.5094953
  44.2421309  24.4191906  79.3176225  44.0440998  24.9082720  78.6232436
  43.6209020  24.6233147  79.8960358  44.1208873  24.5208444  79.2999448
  43.2190663  12.6538831  72.6206142  42.6913681  12.7367575  71.9311851
  43.6786371  13.3956702  72.6170787  43.2092513  12.7759493  72.5180837
  35.2123728  10.9241350  67.6447037  34.8636532  11.5761075  68.1078587
  34.7320174  10.9098463  66.9170909  35.0893972  11.0184404  67.6058129
  42.7727745  21.2242394  71.7515799  43.4961944  21.6900507  71.6080373
  42.3328336  21.2916004  71.0013396  42.8143437  21.3026231  71.6200581
  43.0331595  25.2863099  71.9113860  42.3160905  25.1123961  71.4461098
  43.6838333  25.0515671  71.3789346  43.0233445  25.2258892  71.7643078
  38.3144757  26.5224858  78.3404008  37.9005155  25.8598988  77.9507850
  38.9992131  26.6702716  77.8199702  38.3543129  26.4465516  78.2060505
  41.6810051  25.6814943  79.0927625  41.2826334  25.7917213  78.3248445
  41.0661271  25.8897009  79.6754185  41.5308940  25.7288511  79.0658924
  49.4151894  20.2566910  72.4770716  49.7985499  21.0058266  72.7068813
  48.6196007  20.5032729  72.2182705  49.3545676  20.4036603  72.4728289
  38.2267185  12.9286341  70.0531094  38.6066150  12.9465971  69.2682209
  37.4859781  13.3740330  69.9321942  38.1736023  12.9968116  69.9194663
  39.0251939  19.7663848  71.4439884  38.2163262  19.4430521  71.3973194
  39.5326848  19.0597070  71.3768133  38.9801606  19.6145164  71.4270179
  58.9069669  30.8337845  74.5701076  58.8763673  31.6882481  74.7419346
  59.5051018  30.5333137  75.1287220  58.9906827  30.9154341  74.6775879
  52.1069354  29.9213496  79.3254007  51.2507250  30.0821994  79.3763124
  52.1537008  29.0505560  79.3459068  51.9868465  29.8164298  79.3360073
  46.4910494  39.4576214  75.0891238  45.7393393  39.0791752  74.8607283
  46.9396505  39.4894647  74.3410049  46.4460161  39.4061821  74.9448741
  51.9435454  39.8801583  70.5176786  51.6086822  40.5578505  70.0821008
  52.4562324  39.4906894  69.9293657  51.9701035  39.9226161  70.3663577
  51.4839745  41.8315852  76.4587897  51.8679124  42.4002750  75.9192672
  51.4198886  41.1065362  75.9793713  51.5313172  41.8091315  76.3081760
  54.9521175  31.9805540  81.9685658  55.4977135  32.6590626  82.0279628
  54.8938051  31.8393000  81.1087240  55.0237089  32.0597541  81.8497719
  48.0695250  39.4694606  77.3554011  48.1705613  38.6594960  77.6651139
  47.4736995  39.3751552  76.7253689  47.9967789  39.3359634  77.3080249
  56.7286244  33.4090147  72.8419386  56.6125770  34.1597833  73.2711524
  57.5242130  33.1514100  73.0915473  56.8290833  33.4824994  72.9423478
  47.9095989  44.3872195  78.7568867  48.5533445  44.8285359  79.1465025
  48.2352245  43.5825621  78.6699126  48.0527818  44.3337390  78.8014344
  41.2660294  35.4914892  76.9806345  41.0310479  34.6582545  76.8738613
  41.4045935  35.7719558  76.1667546  41.2515957  35.4098396  76.8448700
  43.5650382  27.6600623  79.8790652  42.9455413  27.0693270  79.7100667
  43.4634245  28.2512058  79.2454976  43.4588057  27.6604705  79.7595642
  48.6116569  37.3984170  74.1288729  48.9332410  37.9389377  73.5250037
  49.2588666  36.8280941  74.2611018  48.7542624  37.3943345  74.0595764
  50.6618277  29.4000165  74.2123115  51.3598442  29.5788292  74.7044579
  50.9770610  28.8770504  73.5893505  50.8113614  29.3493937  74.1925126
  43.2919515  31.2052905  82.1234221  43.1678211  31.7915350  82.7584040
  43.9437799  30.7113100  82.4246496  43.3693164  31.2191709  82.2620151
  50.8506213  35.7870610  74.2002907  51.2899848  35.1787710  74.6457680
  50.7010876  35.4077983  73.4288372  50.8927678  35.6409081  74.1522074
  48.3177856  34.3814622  81.4021732  48.9626858  33.8887065  81.0832681
  48.5579633  34.5239408  82.2287811  48.4488441  34.3292064  81.4771266
  50.8563947  37.2269527  81.0528625  51.1387190  36.4320933  80.8315381
  51.5850107  37.7050115  81.0733686  51.0053511  37.1804124  81.0231640
  48.8345141  24.7692561  78.2944390  48.5048471  25.2203705  77.6248089
  48.1590143  24.6908725  78.8417396  48.6855577  24.8243697  78.2767613
  54.4515549  34.1397791  71.1533676  54.3666844  34.9958758  71.2983245
  54.9399932  33.8642115  71.8215835  54.5104446  34.2255112  71.2735758
  56.0421549  20.7578084  76.5394001  55.7274990  21.4481563  76.9714423
  55.5248490  20.7022866  75.8379501  55.9186019  20.8512973  76.4990950
  55.3833982  30.7582585  72.6531411  54.8545454  30.9742219  73.3128717
  55.9059002  31.4518724  72.5732381  55.3822435  30.8925722  72.7387010
  60.8382035  36.3328890  78.0264456  60.0079738  36.5439533  78.1897872
  60.7891288  35.5065944  77.7506739  60.7088771  36.2418496  78.0101821
  47.2733590  34.6545802  71.4538879  46.6890805  35.1595833  71.8604743
  46.8703685  34.4288189  70.7135471  47.1272894  34.6954050  71.4043904
  42.8277619  40.3700563  78.2562551  42.3445197  41.0951053  78.2322134
  43.6400937  40.6676693  78.3672708  42.8768367  40.5202917  78.2689830
  48.8991773  39.1632744  80.8612365  48.3818715  38.8040159  80.2573673
  49.5966164  38.6394918  80.8718431  48.9257354  39.0330432  80.7742624
  51.7310805  30.9011454  69.9307800  51.9706808  31.1089438  69.1183143
  52.0526646  30.0968963  70.0396744  51.8147963  30.8125555  69.8268353
  47.0401095  22.8304850  73.7767338  47.7947063  23.1983167  73.5384388
  46.8628630  23.2044404  74.5446517  47.1255573  22.9403038  73.8552226
  45.6821816  40.8856739  78.4082831  46.3842395  40.3708728  78.4655587
  45.6019299  41.2130890  79.2129706  45.7745577  40.8570965  78.5355623
  45.3958160  25.2375169  70.4745451  45.2133733  25.4547050  69.6486444
  46.2583773  25.3514181  70.5304065  45.4962749  25.2865067  70.3599938
  45.0072592  37.0763091  77.9168439  45.8461491  37.3086024  77.9642200
  45.0384361  36.2067402  77.8475474  45.1354309  36.9820037  77.9133083
  45.6325295  37.4963966  82.2181744  46.1723519  37.3535097  82.8885117
  44.9495241  37.8960717  82.5865770  45.6117448  37.5343637  82.3716166
  55.0566179  33.1754967  77.4126769  55.8123694  33.6086481  77.4515677
  55.1628504  32.5259737  77.9861405  55.1836350  33.1432451  77.5024794
  58.0946351  37.0028244  78.1629171  57.6581582  37.0064986  78.9188143
  57.7609266  37.6833743  77.7308749  57.9808970  37.1040700  78.2110004
  41.0362440  33.7164257  82.3716166  40.7700855  32.9003374  82.5307156
  41.0501004  33.7617412  81.5011681  40.9987162  33.6021162  82.2669648
  44.9420187  28.5149341  68.9867924  44.2278364  28.2287521  69.3990356
  45.4264155  28.8545967  69.6274311  44.9079550  28.5230991  69.1423559
  61.2290697  33.7209164  77.0548809  61.8907131  33.1599832  76.9544717
  60.5882109  33.2261195  77.3801500  61.2319564  33.5645573  77.0881149
  52.1167504  37.0179295  69.3629732  52.5318653  36.6864319  68.6714228
  51.2859434  36.7848198  69.2349869  52.0555513  36.9350551  69.2420579
  41.4455853  34.5023036  79.6527910  41.2631426  34.4769922  78.8000202
  42.1805522  34.9721974  79.6916819  41.5269917  34.5684399  79.5325828
  57.5155527  34.7374546  76.7960798  57.7511117  34.8819745  75.9687648
  57.6645091  35.5016954  77.1892311  57.5721331  34.8713601  76.7324401
  59.3445984  33.5776212  74.6330401  59.6754201  34.1103852  74.0270496
  59.9179072  33.6315100  75.2892352  59.4779663  33.6645781  74.6408183
  54.5577873  31.4241115  75.3153981  54.6524728  32.1630409  75.7693607
  53.9336717  30.9958590  75.7488546  54.4786903  31.4702436  75.4462129
  41.4126764  31.3816537  79.8026977  41.9900266  31.2452988  80.4419222
  40.7140825  30.9252321  80.0572561  41.3947785  31.2938803  79.9349266
  54.8100895  33.2689855  68.5490933  54.7281057  33.3392042  69.4145920
  55.4480615  33.8319599  68.3574674  54.8920732  33.3628826  68.6480883
  48.1694066  33.0350593  78.0165460  47.9113310  32.2022328  77.9896759
  48.2242549  33.2608206  77.1757960  48.1393844  32.9448364  77.8885597
  53.2495116  25.1379043  78.1169552  52.5451443  24.6488229  78.2753472
  53.2980090  25.1501518  77.2457997  53.1525168  25.0668691  78.0108892
  47.1428778  30.5888355  78.5030354  46.5678369  30.7480524  79.1394315
  46.7664454  29.9523764  78.0398805  47.0031590  30.5186168  78.5284913
  50.8102067  29.0611704  83.3622733  50.4216499  28.6365922  82.7074924
  50.1456765  29.3093854  83.8699760  50.6548994  29.0350426  83.3410601
  60.4525336  28.8186709  76.1370563  60.1961901  28.0066651  75.9468446
  61.2954650  28.8264276  75.9100750  60.5391361  28.6998707  76.0755380
  36.8885597  30.2328430  76.5174795  36.9745849  29.8560298  77.2988325
  37.5161394  29.8588876  76.0394753  36.9942148  30.1213912  76.5620272
  51.9141005  33.2910309  71.5599540  52.7281644  33.5825202  71.4482311
  51.8500146  32.6370171  70.9857833  52.0243744  33.2375504  71.4588377
  47.7848913  36.7631826  76.6871852  48.4222860  36.5243574  77.2323645
  48.2103985  36.9668985  75.9525013  47.9425079  36.7582837  76.6589009
  42.4761555  39.0020163  80.5706156  42.5165701  39.2735014  79.7425935
  43.0356080  39.5262071  80.9863944  42.5644901  39.1195918  80.5098044
  48.4251728  31.9834116  71.0246741  48.8096881  31.7641823  71.7763286
  48.1763348  32.8097062  71.1547818  48.4453801  32.0732263  71.1547818
  50.1670385  37.2404249  78.3665638  50.2409393  37.0779421  79.2207488
  50.9839891  37.4294439  78.1226120  50.2986744  37.2440991  78.4563664
  43.9276142  37.5862112  75.3960082  43.1014259  37.8323849  75.2694361
  43.9888133  37.5074193  76.2622140  43.8150309  37.6107061  75.5049026
  46.1452165  23.6531053  76.3555522  45.2774591  23.7253652  76.4213131
  46.4327370  24.4553132  76.5443497  46.0591914  23.7825200  76.3930288
  48.7074971  40.2038992  73.0979112  48.9973269  39.8127973  72.3738338
  49.4378452  40.3855697  73.5384387  48.8581855  40.1732806  73.0561919
  49.2969716  35.0056738  84.1832242  48.7981410  35.7172506  84.2617131
  50.1069940  35.3257405  84.1450405  49.3425823  35.1583587  84.1888811
  46.6480886  42.1806375  76.1639261  46.4281182  41.8903729  76.9565928
  46.4275408  41.5221330  75.6357174  46.5828481  42.0406083  76.2028170
  45.5597834  34.2679691  78.4294963  45.2711082  33.6417162  78.9640690
  46.4281182  34.2099979  78.4959644  45.6458085  34.1667235  78.5185918
  56.3475731  29.4114474  78.7476945  56.0040497  28.6904810  79.0984195
  56.4468774  29.2028326  77.9055303  56.3117774  29.2738678  78.6748625
  48.8148842  43.5535765  74.9469954  49.4672900  43.0212207  75.1760980
  48.1174451  43.2004417  75.3337828  48.8079560  43.4225288  75.0382122
  45.7630107  35.9074942  74.3537328  46.5176075  36.2887981  74.5672791
  45.1700720  36.3586086  74.8084025  45.7866820  36.0303770  74.4520207
  56.8088760  35.8740179  74.2900933  57.3746793  36.5333388  74.2059476
  56.1616664  36.2189877  74.7617335  56.7967517  36.0222120  74.3473690
  47.0828334  37.0783503  79.7277444  46.5609087  37.2183795  80.4129308
  47.4702354  36.3194168  79.9179561  47.0632034  36.9869027  79.8578520
  44.0719518  27.1289312  73.7972398  43.7844313  26.7590583  73.0604345
  44.7589986  27.5984168  73.5356103  44.1308415  27.1436282  73.6487474
  53.2795338  38.8178963  73.7138012  53.0382014  38.0846823  73.3065077
  53.4596671  39.3665820  73.0604346  53.2702962  38.7901354  73.5568235
  48.5094659  34.1087523  75.1258935  48.3137442  34.7162257  74.5319237
  48.7329005  33.4155467  74.6450608  48.5129300  34.0965048  74.9675015
  46.9073189  30.9942260  75.2439803  47.6295841  31.1583419  74.7843609
  46.4281182  31.7151925  75.1379143  46.9436920  31.1240490  75.1605417
  54.8666697  27.3306059  80.6236488  54.0277797  27.3567338  80.3874751
  54.9371064  27.9776795  81.2041834  54.7535090  27.4302185  80.6745605
  44.5580806  33.4000333  84.3493943  45.0701903  33.6784586  83.7002703
  44.2717148  34.1389627  84.7156756  44.5915669  33.5502687  84.3083821
  53.3135975  24.2291436  75.3564104  54.0162328  24.0299185  74.8784062
  53.0480164  23.4567379  75.6632947  53.3782607  24.0854402  75.3309545
  58.7424221  32.5374046  77.9097730  58.6558195  32.6929472  78.7632508
  58.2874700  33.1812122  77.5357135  58.6627477  32.6549801  77.9804836
  41.6447712  27.9070525  74.6457679  41.7463849  28.7096686  74.9738655
  42.4403599  27.7057861  74.3480760  41.7775618  27.9956423  74.6493035
  52.6150037  29.8584793  76.5323289  52.3684751  29.7780544  77.3660078
  52.9435160  29.0738261  76.3385817  52.6271280  29.7311058  76.6270812
  56.5098085  36.5668152  80.3210070  56.3712445  37.2649198  80.8258813
  55.7298083  36.4116809  79.9646252  56.3741312  36.6468319  80.3436344
  48.5747064  32.5941512  85.9446272  48.7190440  33.1742720  85.3089382
  48.9222712  32.9717808  86.6496127  48.6474525  32.7362216  85.9545267
  50.7466981  31.7931680  83.7271404  49.9990295  31.9862694  83.3219682
  50.9008506  30.9676900  83.4895525  50.6589409  31.6996791  83.6316810
  47.6474819  40.7844284  82.8107299  47.7964383  40.2247199  82.1580703
  48.4274821  40.8636285  83.1939818  47.7848913  40.7129849  82.7704248
  58.0051458  35.9246406  71.0826570  57.6258267  35.1383544  71.0755859
  57.3417704  36.4733263  70.9398214  57.8509933  35.8891230  71.0607366
  50.8298366  39.4759925  74.9215396  51.5948258  39.2069569  74.5998060
  50.7276456  38.9909936  75.6385459  50.9279862  39.3649490  74.9795223
  48.8651136  27.6784335  81.4608632  48.0747211  27.4975795  81.7825967
  49.2611759  26.9011287  81.4438926  48.8068012  27.5371796  81.5061180
  53.3517027  36.5072109  66.9015345  54.1190012  36.5672234  66.4921197
  52.9048336  35.9352550  66.4171664  53.3990454  36.4308685  66.7693055
  54.2494823  35.3126765  79.1868077  53.5739824  35.0811997  79.6881464
  54.2587199  34.7047948  78.5610182  54.1513327  35.1885690  79.1684230
  51.3788966  30.1544594  85.9432130  51.3148108  31.0154550  85.8152267
  51.5186154  29.8376587  85.1427682  51.3904437  30.2344760  85.8060343
  56.2511557  38.1691897  71.4178255  56.3331394  38.9758883  71.0939706
  56.7361299  38.1887856  72.1419029  56.3348715  38.2912560  71.4765154
  50.0608060  32.8476733  80.0848333  49.6370309  33.0481232  79.3487352
  49.8852916  32.0005581  80.1972633  49.9718941  32.7525515  79.9922023
  45.3490505  33.3428785  75.5176306  45.5055125  33.2775587  76.3732298
  45.6891098  34.1177337  75.3054985  45.4223740  33.4477983  75.6130900
  51.8869650  32.7186668  74.3869669  52.4285195  32.2157049  74.8508290
  52.2016209  32.6651863  73.5759154  52.0134047  32.6366089  74.3353481
  50.0556100  38.1104020  71.6709697  50.1248920  37.2518558  71.8102697
  50.8344555  38.3275901  71.3428722  50.1808950  38.0156884  71.6426854
  53.0358919  27.6122973  84.4391970  53.2500889  26.9733887  83.8855323
  52.4192819  28.0568797  84.0099831  52.9764249  27.5833116  84.2942401
  54.4463587  40.5341721  75.8846190  54.0543379  40.2308436  75.1669057
  54.6016659  41.3710811  75.6951144  54.4117177  40.6125558  75.7502688
  41.9224767  30.5263735  75.8337073  42.3023732  30.9448280  75.1697340
  41.3480132  31.1077191  76.1405916  41.8936092  30.6741594  75.7813814
  54.6103262  37.0991710  75.8252221  54.2517917  37.2706353  76.6016253
  54.1241973  37.5604916  75.2680219  54.4861959  37.1930681  75.8577490
  52.4273648  20.7222908  79.4279312  51.5567206  20.6961629  79.3812622
  52.6813989  20.5500101  78.6105158  52.3367208  20.6933052  79.2999449
  49.3991627  32.7790875  68.3652455  49.6884152  33.5555758  68.6396030
  49.4863426  32.2679607  69.0666955  49.4545884  32.8182794  68.5094953
  49.4522788  22.7329137  80.8852783  48.9361277  22.0409328  81.0104362
  48.8916717  23.3999914  80.8315381  49.2929302  22.7292394  80.8958849
  57.4965001  29.8384752  81.3385337  57.0692610  29.7511100  80.5833437
  56.8591054  29.9462527  81.9240182  57.3394609  29.8417412  81.3130779
  45.5655568  32.0924140  80.4652567  44.7243575  31.9928014  80.6731461
  45.7745576  32.8619620  80.8166888  45.4720261  32.1916183  80.5479882
  43.0431135  29.7143677  78.2937318  42.6487833  29.7886689  77.5187428
  42.4871252  30.1001623  78.8445680  42.9033948  29.7825451  78.2604978
  54.6796082  22.6924971  77.9741197  54.8845675  22.6247279  78.8198194
  54.3522506  23.4983792  77.9062374  54.6611330  22.8010911  78.0900852
  49.3772233  30.0205539  79.7150165  49.0735371  29.4661527  80.3160573
  48.6751654  30.1997749  79.2278199  49.2288443  29.9650321  79.7319871
  48.4338330  27.3306059  74.2794867  48.7098065  26.6124971  73.8672434
  49.0337000  27.9290979  74.0715973  48.5631595  27.3126430  74.1875628
  47.4390584  37.2355260  84.4222263  47.3310939  37.2457322  85.2884321
  47.6486366  38.0610040  84.2327217  47.4540695  37.3596335  84.5226354
  57.9329770  23.2456735  77.4543962  57.3204083  23.7327137  77.8397694
  58.0293945  22.5700226  77.9981614  57.8567667  23.2175044  77.5922821
  51.9348851  25.0019576  72.5541462  52.3892597  25.1730137  73.2789306
  52.4088897  24.3887687  72.1539238  52.0717171  24.9370461  72.6015223
  45.4564376  34.4867902  81.8844200  44.8652309  35.1277400  81.8547215
  46.2185400  34.9105519  81.8575500  45.4812637  34.6443741  81.8759348
  55.2153892  39.9377214  79.3176225  55.0173581  40.4268028  78.6232436
  54.5941604  40.1418455  79.8960358  55.0941457  40.0393752  79.2999448
  49.2761871  31.7062111  73.6586469  50.0203916  32.0936387  73.8969419
  49.4222567  30.8619536  73.8226957  49.4072456  31.6392583  73.7180439
  51.1941446  23.5012369  78.6918330  50.3477491  23.6735177  78.5659680
  51.1912579  22.6961713  79.0284159  51.0688596  23.4073398  78.7229457
  52.2639747  27.2787584  79.5580388  51.7899701  26.7529346  80.0685699
  52.6357882  26.7317057  78.9895250  52.2489636  27.1203580  79.5495536
  58.5276477  32.3389960  80.9687169  58.2874700  31.4996375  80.9729595
  59.0068484  32.4190126  81.6927942  58.5628661  32.2271359  81.0761971
  54.1923246  28.1724138  72.6206142  53.6646265  28.2552882  71.9311851
  54.6518955  28.9142010  72.6170787  54.1825097  28.2944801  72.5180837
  60.5281664  29.1191417  78.9216428  60.2891434  29.0787251  78.0837213
  60.6915566  29.9662569  79.0482149  60.5171968  29.2383502  78.8169910
  46.0014563  28.1001540  81.5874352  45.3767633  28.1119932  80.9800305
  45.6660158  28.5761715  82.2365593  45.8600055  28.1720057  81.5930921
  46.1856311  26.4426658  67.6447037  45.8369116  27.0946383  68.1078587
  45.7052757  26.4283771  66.9170909  46.0626555  26.5369712  67.6058129
  42.7140238  36.1602000  83.0278117  42.1840163  35.4694439  83.0773091
  42.9865332  36.1512185  82.1990825  42.6764961  36.0569131  82.9125533
  53.7460329  36.7427702  71.7515799  54.4694528  37.2085815  71.6080373
  53.3060920  36.8101312  71.0013396  53.7876021  36.8211539  71.6200581
  52.9146484  33.6025244  83.0016488  52.3003477  33.0583295  83.2965124
  53.4313769  33.0889481  82.5222304  52.9002146  33.4461653  82.9740717
  52.1542781  34.6729514  80.7360787  51.7270389  34.0479233  80.3026222
  52.1467725  34.3904436  81.5619794  52.0901922  34.5382295  80.7940614
  50.4828491  25.5498269  80.9503321  50.5070978  25.0158381  80.2616101
  50.7339964  25.0415578  81.6128911  50.5238409  25.3959173  80.9467966
  37.9936081  32.8329764  80.3846465  37.8879530  32.7876608  79.5198549
  37.2436301  33.1783544  80.6660750  37.8671684  32.8770672  80.2983795
  46.7629813  24.2769087  80.3309065  46.8028185  24.7778294  81.0443773
  45.9379478  24.3679481  80.0614988  46.6469339  24.3650903  80.3959603
  48.1844176  30.7929597  82.6282964  47.3536106  30.9603415  82.4218212
  48.1295694  30.4165548  83.4131849  48.0533591  30.7619328  82.7131492
  46.5580220  29.0685188  73.1573082  46.6983181  29.5657653  73.8601723
  47.0562753  28.3671483  73.2987296  46.6521301  29.0387167  73.2824661
  46.5880443  29.9352299  70.4865659  47.2225522  30.5312725  70.4215120
  46.6706053  29.6355757  71.3011529  46.6936994  29.9793208  70.5968745
  48.1659425  25.8666275  70.4611101  48.4875267  25.3869357  69.8070363
  48.4286369  26.6765921  70.2701912  48.2525451  25.9156173  70.3366593
  53.5618580  25.2538469  82.8234580  53.9873652  24.8010995  82.2118106
  52.9475574  24.6998540  83.0999367  53.5347226  25.1052445  82.7739605
  43.0933431  32.1320140  73.7555205  43.6025660  32.7284648  74.1366510
  43.5667703  31.8646114  73.0731624  43.2376806  32.1805956  73.7109727
  54.0064179  40.8048407  71.9113860  53.2893488  40.6309269  71.4461098
  54.6570916  40.5700979  71.3789346  53.9966029  40.7444199  71.7643078
  52.0012803  21.7253569  76.2325157  51.3581121  21.5751215  76.8010295
  51.6612210  21.4795914  75.4674261  51.8557881  21.6665691  76.2028172
  56.5912150  29.6812995  75.6555165  55.9203340  30.2242698  75.5268231
  57.2851900  30.1507851  75.4136860  56.5941017  29.8311267  75.6010693
  50.6398884  41.8209707  80.8866924  50.4164538  41.0628537  81.2550950
  50.1508727  41.8507729  80.1647363  50.5342333  41.7131932  80.8343665
  56.7540277  26.1368879  78.5645539  57.1067887  25.7098602  79.2391337
  55.8955079  26.0519723  78.6946615  56.6789722  26.0613620  78.6840549
  45.4523962  28.7676399  76.6228385  44.7335951  29.1840531  76.8901249
  45.8236325  29.3330638  76.0720023  45.4015894  28.9125680  76.5811192
  54.7523543  29.4004248  82.5130381  54.7321470  29.2187543  83.3665160
  54.8002744  30.2716266  82.4889964  54.7558184  29.5020786  82.6353676
  49.2877340  42.0410166  78.3404008  48.8737739  41.3784296  77.9507850
  49.9724715  42.1888024  77.8199702  49.3275712  41.9650824  78.2060505
  52.6542635  41.2000251  79.0927625  52.2558918  41.3102521  78.3248445
  52.0393854  41.4082317  79.6754185  52.5041524  41.2473819  79.0658924
  51.2270537  27.8074399  71.9601765  50.6335376  28.1291395  71.4086332
  51.2645814  26.9615494  71.7522871  51.1444926  27.7298727  71.8484536
  54.1028353  27.7653903  75.3903515  53.8742046  27.7886605  74.5481873
  54.3626429  26.9411370  75.5098525  54.1074541  27.6469983  75.2828713
  47.1573116  26.3030450  76.6857711  47.6330482  26.6647529  76.0507892
  46.6561715  26.9586917  76.9657853  47.1538475  26.4524638  76.6334451
  60.3884477  35.7752218  72.4770716  60.7718083  36.5243574  72.7068813
  59.5928591  36.0218037  72.2182705  60.3278259  35.9221911  72.4728289
  49.1999769  28.4471649  70.0531094  49.5798734  28.4651278  69.2682209
  48.4592365  28.8925638  69.9321942  49.1468607  28.5153424  69.9194663
  56.8285059  26.7553840  75.6406673  56.8279286  26.6002497  76.4990950
  56.6241239  27.6016828  75.5848059  56.7984837  26.8574461  75.7594613
  38.8902330  30.1793625  80.0565490  38.7124091  29.7270234  80.7820405
  38.6021352  30.9819786  80.2403967  38.8215283  30.2316183  80.1908993
  54.5525911  31.4351342  79.2942880  55.0479577  30.7174337  79.2546900
  53.7425687  31.1322140  79.1797367  54.5069805  31.2848989  79.2716606
  49.9984523  35.2849156  71.4439884  49.1895846  34.9615829  71.3973194
  50.5059432  34.5782378  71.3768133  49.9534190  35.1330472  71.4270179
  40.6274800  32.7121349  77.1687249  39.7620320  32.7007039  77.0570020
  40.7273616  32.5251572  78.0158388  40.5148967  32.6827410  77.2776193
  56.6177730  34.1855030  81.9820009  57.0432802  33.6629452  81.4290434
  56.2534650  34.7835867  81.4608632  56.6264333  34.1965257  81.8229019
  46.2531810  42.4819247  80.7417354  46.5678369  43.2955636  80.7495136
  46.6625223  42.0969466  81.4099513  46.3599908  42.5447950  80.8421446
  53.2056330  37.8989294  78.3121166  53.6767508  38.6129557  78.4811151
  53.5416508  37.2988044  78.8481036  53.3251445  37.9160758  78.4153542
  49.1918940  24.6733177  72.7358726  50.0134634  24.8431490  72.4940421
  48.7288590  24.8280438  72.0125024  49.2450102  24.7214910  72.5930370
  43.5944830  36.4292356  80.3895963  44.1989688  36.3888190  79.7609783
  43.3872143  37.2763508  80.4200019  43.6533727  36.5480358  80.3012079
  53.4088602  38.6958301  81.6058200  54.2286976  38.5521267  81.8674495
  53.1282680  39.3204500  82.1474638  53.4885346  38.7668653  81.7246139
  38.8296113  35.4126973  80.2594886  38.7320391  34.6023245  80.5684943
  39.6124982  35.3918767  79.8741154  38.9312249  35.2894063  80.2481749
  61.6350861  44.9185473  74.2123115  62.3331026  45.0973600  74.7044579
  61.9503193  44.3955812  73.5893505  61.7846198  44.8679245  74.1925126
  59.8077724  40.2877869  78.2944390  59.4781054  40.7389013  77.6248089
  59.1322726  40.2094033  78.8417396  59.6588161  40.3429004  78.2767613
  67.0154132  36.2763392  76.5394001  66.7007573  36.9666871  76.9714423
  66.4981074  36.2208174  75.8379501  66.8918603  36.3698281  76.4990950
  58.2466174  50.1731110  71.4538879  57.6623389  50.6781141  71.8604743
  57.8436269  49.9473497  70.7135471  58.1005478  50.2139358  71.4043904
  62.7043388  46.4196762  69.9307800  62.9439392  46.6274746  69.1183143
  63.0259229  45.6154271  70.0396744  62.7880546  46.3310863  69.8268353
  58.0133678  38.3490158  73.7767338  58.7679647  38.7168475  73.5384388
  57.8361213  38.7229712  74.5446517  58.0988157  38.4588346  73.8552226
  56.3690743  40.7560477  70.4745451  56.1866316  40.9732357  69.6486444
  57.2316356  40.8699489  70.5304065  56.4695333  40.8050375  70.3599938
  62.0490462  37.7586887  73.5094475  62.7776623  37.5802842  73.0632631
  62.1385355  38.6004967  73.7201653  62.1697124  37.8570766  73.4747992
  55.9152770  44.0334649  68.9867924  55.2010947  43.7472829  69.3990356
  56.3996739  44.3731275  69.6274311  55.8812133  44.0416299  69.1423559
  63.0900088  52.5364603  69.3629732  63.5051237  52.2049627  68.6714228
  62.2592018  52.3033506  69.2349869  63.0288097  52.4535859  69.2420579
  65.7833478  48.7875163  68.5490933  65.7013641  48.8577350  69.4145920
  66.4213199  49.3504907  68.3574674  65.8653316  48.8814134  68.6480883
  47.8618180  45.7513738  76.5174795  47.9478432  45.3745606  77.2988325
  48.4893978  45.3774183  76.0394753  47.9674731  45.6399220  76.5620272
  62.8873588  48.8095617  71.5599540  63.7014227  49.1010510  71.4482311
  62.8232730  48.1555479  70.9857833  62.9976327  48.7560812  71.4588377
  59.3984312  47.5019424  71.0246741  59.7829464  47.2827131  71.7763286
  59.1495932  48.3282370  71.1547818  59.4186384  47.5917570  71.1547818
  57.1184749  39.1716361  76.3555522  56.2507175  39.2438960  76.4213131
  57.4059953  39.9738440  76.5443497  57.0324497  39.3010508  76.3930288
  55.0452101  42.6474620  73.7972398  54.7576897  42.2775891  73.0604345
  55.7322569  43.1169475  73.5356103  55.1040998  42.6621590  73.6487474
  57.8805773  46.5127568  75.2439803  58.6028425  46.6768726  74.7843609
  57.4013765  47.2337233  75.1379143  57.9169503  46.6425798  75.1605417
  64.2868559  39.7476744  75.3564104  64.9894911  39.5484493  74.8784062
  64.0212747  38.9752687  75.6632947  64.3515191  39.6039710  75.3309545
  52.6180296  43.4255833  74.6457679  52.7196432  44.2281994  74.9738655
  53.4136182  43.2243169  74.3480760  52.7508201  43.5141731  74.6493035
  64.3249611  52.0257417  66.9015345  65.0922596  52.0857542  66.4921197
  63.8780920  51.4537858  66.4171664  64.3723038  51.9493993  66.7693055
  52.8957350  46.0449043  75.8337073  53.2756315  46.4633588  75.1697340
  52.3212715  46.6262499  76.1405916  52.8668675  46.1926902  75.7813814
  63.4006232  36.2408216  79.4279312  62.5299790  36.2146937  79.3812622
  63.6546573  36.0685408  78.6105158  63.3099792  36.2118360  79.2999449
  60.3724211  48.2976183  68.3652455  60.6616736  49.0741066  68.6396030
  60.4596010  47.7864915  69.0666955  60.4278467  48.3368102  68.5094953
  59.4070914  42.8491367  74.2794867  59.6830648  42.1310279  73.8672434
  60.0069583  43.4476287  74.0715973  59.5364179  42.8311737  74.1875628
  62.9081434  40.5204884  72.5541462  63.3625181  40.6915445  73.2789306
  63.3821480  39.9072995  72.1539238  63.0449755  40.4555769  72.6015223
  60.2494454  47.2247418  73.6586469  60.9936499  47.6121695  73.8969419
  60.3955151  46.3804844  73.8226957  60.3805040  47.1577891  73.7180439
  62.1674030  39.0197677  78.6918330  61.3210075  39.1920485  78.5659680
  62.1645162  38.2147021  79.0284159  62.0421180  38.9258706  78.7229457
  65.1655830  43.6909446  72.6206142  64.6378849  43.7738190  71.9311851
  65.6251538  44.4327318  72.6170787  65.1557680  43.8130109  72.5180837
  57.1588895  41.9611966  67.6447037  56.8101699  42.6131691  68.1078587
  56.6785341  41.9469079  66.9170909  57.0359139  42.0555020  67.6058129
  57.5312804  44.5870496  73.1573082  57.6715765  45.0842961  73.8601723
  58.0295337  43.8856791  73.2987296  57.6253885  44.5572475  73.2824661
  57.5613026  45.4537607  70.4865659  58.1958106  46.0498032  70.4215120
  57.6438637  45.1541065  71.3011529  57.6669577  45.4978516  70.5968745
  59.1392009  41.3851583  70.4611101  59.4607850  40.9054665  69.8070363
  59.4018953  42.1951229  70.2701912  59.2258034  41.4341481  70.3366593
  54.0666014  47.6505448  73.7555205  54.5758243  48.2469956  74.1366510
  54.5400286  47.3831422  73.0731624  54.2109390  47.6991264  73.7109727
  62.9745387  37.2438877  76.2325157  62.3313705  37.0936523  76.8010295
  62.6344794  36.9981222  75.4674261  62.8290464  37.1850999  76.2028172
  56.4256546  44.2861707  76.6228385  55.7068535  44.7025839  76.8901249
  56.7968908  44.8515946  76.0720023  56.3748478  44.4310988  76.5811192
  62.2003120  43.3259707  71.9601765  61.6067959  43.6476703  71.4086332
  62.2378398  42.4800802  71.7522871  62.1177509  43.2484035  71.8484536
  58.1305699  41.8215757  76.6857711  58.6063066  42.1832837  76.0507892
  57.6294299  42.4772225  76.9657853  58.1271058  41.9709946  76.6334451
  60.1732352  43.9656957  70.0531094  60.5531317  43.9836586  69.2682209
  59.4324948  44.4110946  69.9321942  60.1201190  44.0338732  69.9194663
  60.9717106  50.8034463  71.4439884  60.1628429  50.4801137  71.3973194
  61.4792015  50.0967686  71.3768133  60.9266773  50.6515780  71.4270179
  60.1651523  40.1918485  72.7358726  60.9867217  40.3616798  72.4940421
  59.7021174  40.3465746  72.0125024  60.2182685  40.2400218  72.5930370
  35.2128734   0.8769037  62.0231285  34.4611634   0.4984575  61.7947330
  35.6614746   0.9087470  61.2750096  35.1678401   0.8254644  61.8788787
  40.6653694   1.2994406  57.4516832  40.3305062   1.9771328  57.0161054
  41.1780564   0.9099718  56.8633704  40.6919275   1.3418985  57.3003624
  40.2057985   3.2508675  63.3927944  40.5897365   3.8195574  62.8532719
  40.1417126   2.5258185  62.9133760  40.2531412   3.2284138  63.2421806
  36.6314230   5.8065018  65.6908914  37.2751685   6.2478182  66.0805072
  36.9570485   5.0018444  65.6039173  36.7746059   5.7530213  65.7354391
  37.3334810  -1.1823007  61.0628776  37.6550651  -0.6417800  60.4590084
  37.9806906  -1.7526236  61.1951065  37.4760865  -1.1863832  60.9935811
  37.4293211   1.6231815  60.0319158  37.7191510   1.2320797  59.3078385
  38.1596692   1.8048520  60.4724434  37.5800095   1.5925629  59.9901965
  35.3699127   3.5999198  63.0979308  35.1499422   3.3096553  63.8905975
  35.1493649   2.9414153  62.5697221  35.3046721   3.4598906  63.1368217
  37.5367082   4.9728588  61.8810001  38.1891140   4.4405030  62.1101027
  36.8392691   4.6197240  62.2677875  37.5297800   4.8418111  61.9722168
  42.0013579   0.2371786  60.6478059  41.7600255  -0.4960353  60.2405124
  42.1814912   0.7858643  59.9944392  41.9921203   0.2094177  60.4908282
  39.5516607   0.8952749  61.8555443  40.3166498   0.6262392  61.5338107
  39.4494697   0.4102759  62.5725505  39.6498102   0.7842313  61.9135270
  38.7774340  -0.4703157  58.6049744  38.8467160  -1.3288619  58.7442744
  39.5562795  -0.2531276  58.2768768  38.9027190  -0.5650293  58.5766901
  43.1681828   1.9534544  62.8186237  42.7761619   1.6501259  62.1009103
  43.3234900   2.7903634  62.6291191  43.1335417   2.0318381  62.6842734
  43.9372133   1.3570037  66.2516272  43.7391822   1.8460851  65.5572483
  43.3159844   1.5611278  66.8300405  43.8159697   1.4586575  66.2339495
  42.7282419   2.2241230  58.8453907  42.0111729   2.0502092  58.3801144
  43.3789157   1.9893802  58.3129393  42.7184269   2.1637023  58.6983125
  38.0095581   3.4602989  65.2744055  37.5955979   2.7977119  64.8847897
  38.6942955   3.6080848  64.7539749  38.0493953   3.3843647  65.1400552
  41.3760875   2.6193074  66.0267672  40.9777158   2.7295344  65.2588492
  40.7612095   2.8275140  66.6094231  41.2259764   2.6666642  65.9998971
  58.6020493   7.7715976  61.5041123  58.5714497   8.6260613  61.6759393
  59.2001842   7.4711268  62.0627267  58.6857651   7.8532472  61.6115926
  51.8020178   6.8591627  66.2594054  50.9458073   7.0200125  66.3103170
  51.8487832   5.9883691  66.2799115  51.6819289   6.7542429  66.2700120
  46.1861318  16.3954345  62.0231285  45.4344217  16.0169883  61.7947330
  46.6347329  16.4272778  61.2750096  46.1410984  16.3439952  61.8788787
  51.6386278  16.8179714  57.4516832  51.3037646  17.4956636  57.0161054
  52.1513148  16.4285025  56.8633704  51.6651859  16.8604292  57.3003624
  51.1790569  18.7693983  63.3927944  51.5629948  19.3380882  62.8532719
  51.1149710  18.0443493  62.9133760  51.2263996  18.7469446  63.2421806
  54.6471999   8.9183671  68.9025705  55.1927959   9.5968757  68.9619675
  54.5888875   8.7771132  68.0427287  54.7187913   8.9975672  68.7837766
  47.7646074  16.4072737  64.2894058  47.8656437  15.5973091  64.5991186
  47.1687819  16.3129683  63.6593736  47.6918612  16.2737765  64.2420296
  56.4237068  10.3468278  59.7759433  56.3076594  11.0975964  60.2051571
  57.2192954  10.0892231  60.0255520  56.5241657  10.4203125  59.8763525
  47.6046813  21.3250326  65.6908914  48.2484269  21.7663490  66.0805072
  47.9303069  20.5203752  65.6039173  47.7478642  21.2715521  65.7354391
  40.9611118  12.4293023  63.9146391  40.7261303  11.5960676  63.8078660
  41.0996759  12.7097689  63.1007592  40.9466781  12.3476527  63.7788746
  43.2601206   4.5978754  66.8130699  42.6406237   4.0071401  66.6440714
  43.1585069   5.1890189  66.1795022  43.1538881   4.5982837  66.6935689
  48.3067393  14.3362301  61.0628776  48.6283234  14.8767508  60.4590084
  48.9539490  13.7659072  61.1951065  48.4493448  14.3321476  60.9935811
  50.3569101   6.3378296  61.1463162  51.0549266   6.5166423  61.6384625
  50.6721434   5.8148635  60.5233552  50.5064438   6.2872068  61.1265172
  42.9870339   8.1431036  69.0574268  42.8629035   8.7293481  69.6924087
  43.6388623   7.6491231  69.3586543  43.0643988   8.1569840  69.1960197
  50.5457037  12.7248741  61.1342954  50.9850672  12.1165841  61.5797726
  50.3961699  12.3456114  60.3628419  50.5878502  12.5787212  61.0862121
  48.0128680  11.3192753  68.3361779  48.6577682  10.8265196  68.0172728
  48.2530457  11.4617539  69.1627857  48.1439265  11.2670195  68.4111312
  50.5514771  14.1647659  67.9868672  50.8338014  13.3699064  67.7655428
  51.2800931  14.6428246  68.0073733  50.7004335  14.1182255  67.9571687
  48.5295965   1.7070693  65.2284437  48.1999295   2.1581836  64.5588136
  47.8540967   1.6286856  65.7757443  48.3806401   1.7621828  65.2107660
  54.1466373  11.0775922  58.0873723  54.0617668  11.9336889  58.2323292
  54.6350756  10.8020246  58.7555882  54.2055270  11.1633244  58.2075804
  55.0784806   7.6960716  59.5871458  54.5496278   7.9120350  60.2468764
  55.6009826   8.3896855  59.5072427  55.0773259   7.8303853  59.6727057
  60.5332859  13.2707021  64.9604503  59.7030562  13.4817664  65.1237919
  60.4842112  12.4444075  64.6846786  60.4039595  13.1796627  64.9441868
  46.9684414  11.5923933  58.3878926  46.3841629  12.0973964  58.7944790
  46.5654509  11.3666320  57.6475518  46.8223718  11.6332181  58.3383951
  42.5228443  17.3078694  65.1902598  42.0396021  18.0329184  65.1662181
  43.3351761  17.6054824  65.3012755  42.5719191  17.4581048  65.2029877
  48.5942597  16.1010875  67.7952412  48.0769538  15.7418290  67.1913720
  49.2916988  15.5773049  67.8058478  48.6208178  15.9708563  67.7082671
  52.2506189  16.5505689  73.7568585  52.3389535  16.3631829  74.6046795
  52.6795901  15.9043119  73.3573432  52.3268291  16.4268697  73.8240337
  49.8176649  15.8336849  72.7386247  49.2547483  15.4209459  73.2625908
  50.5797672  15.7589755  73.1579391  49.8471097  15.7614250  72.8779248
  51.4261629   7.8389585  56.8647847  51.6657632   8.0467569  56.0523190
  51.7477470   7.0347094  56.9736791  51.5098786   7.7503686  56.7608400
  45.3772640  17.8234870  65.3422877  46.0793219  17.3086859  65.3995634
  45.2970123  18.1509021  66.1469753  45.4696400  17.7949096  65.4695670
  45.0908983   2.1753300  57.4085498  44.9084557   2.3925181  56.5826490
  45.9534597   2.2892313  57.4644112  45.1913573   2.2243198  57.2939985
  44.7023415  14.0141222  64.8508485  45.5412315  14.2464155  64.8982247
  44.7335185  13.1445534  64.7815521  44.8305133  13.9198169  64.8473130
  45.3276118  14.4342097  69.1521791  45.8674343  14.2913228  69.8225163
  44.6446065  14.8338848  69.5205817  45.3068272  14.4721768  69.3056213
  54.7517003  10.1133098  64.3466815  55.5074518  10.5464612  64.3855724
  54.8579328   9.4637868  64.9201451  54.8787174  10.0810582  64.4364841
  57.7897174  13.9406375  65.0969218  57.3532406  13.9443118  65.8528190
  57.4560090  14.6211874  64.6648796  57.6759794  14.0418831  65.1450051
  52.3626248  15.9814708  76.4212369  53.1466665  16.0945556  76.7868111
  52.1622843  15.1555845  76.6171054  52.4492273  15.8761427  76.5046755
  40.7313264  10.6542388  69.3056213  40.4651679   9.8381505  69.4647203
  40.7451828  10.6995544  68.4351728  40.6937986  10.5399293  69.2009694
  44.6371011   5.4527473  55.9207971  43.9229188   5.1665652  56.3330403
  45.1214979   5.7924098  56.5614358  44.6030374   5.4609122  56.0763606
  52.5196641  17.8924810  70.0678824  51.7211887  17.6524310  70.3252693
  52.9682653  17.9439203  70.8145872  52.4671253  17.8647201  70.2163748
  60.9241521  10.6587295  63.9888856  61.5857955  10.0977964  63.8884764
  60.2832933  10.1639326  64.3141547  60.9270388  10.5023704  64.0221196
  51.8118328  13.9557427  56.2969779  52.2269477  13.6242450  55.6054275
  50.9810258  13.7226329  56.1689915  51.7506337  13.8728682  56.1760626
  41.1406677  11.4401168  66.5867957  40.9582250  11.4148054  65.7340249
  41.8756346  11.9100105  66.6256866  41.2220741  11.5062530  66.4665875
  59.0396808  10.5154343  61.5670448  59.3705025  11.0481984  60.9610543
  59.6129896  10.5693231  62.2232399  59.1730487  10.6023912  61.5748230
  54.2528697   8.3619246  62.2494028  54.3475552   9.1008540  62.7033654
  53.6287541   7.9336722  62.6828593  54.1737727   8.4080567  62.3802176
  52.5081171  11.5405459  72.8984309  53.0820033  10.9032703  73.0532873
  52.4295975  11.5409541  72.0293967  52.5814406  11.4470570  72.7930720
  41.1077588   8.3194668  66.7367023  41.6851090   8.1831119  67.3759269
  40.4091649   7.8630452  66.9912608  41.0898609   8.2316934  66.8689313
  54.5051719  10.2067986  55.4830980  54.4231881  10.2770173  56.3485967
  55.1431439  10.7697730  55.2914721  54.5871556  10.3006957  55.5820930
  47.8644890   9.9728724  64.9505507  47.6064134   9.1400459  64.9236806
  47.9193373  10.1986337  64.1098007  47.8344668   9.8826495  64.8225643
  46.8379602   7.5266486  65.4370401  46.2629193   7.6858655  66.0734362
  46.4615278   6.8901895  64.9738852  46.6982414   7.4564299  65.4624960
  50.5052891   5.9989836  70.2962780  50.1167323   5.5744053  69.6414971
  49.8407589   6.2471985  70.8039806  50.3499818   5.9728557  70.2750648
  36.5836421   7.1706561  63.4514842  36.6696673   6.7938429  64.2328372
  37.2112218   6.7967007  62.9734800  36.6892972   7.0592043  63.4960319
  51.6091829  10.2288440  58.4939587  52.4232468  10.5203333  58.3822358
  51.5450970   9.5748303  57.9197880  51.7194568  10.1753635  58.3928424
  47.4799737  13.7009958  63.6211899  48.1173684  13.4621705  64.1663692
  47.9054809  13.9047117  62.8865059  47.6375903  13.6960968  63.5929056
  42.1712379  15.9398294  67.5046203  42.2116525  16.2113145  66.6765982
  42.7306903  16.4640202  67.9203990  42.2595725  16.0574049  67.4438091
  48.1202552   8.9212247  57.9586788  48.5047705   8.7019954  58.7103333
  47.8714172   9.7475193  58.0887865  48.1404625   9.0110394  58.0887865
  58.8537740  12.6958885  68.9697457  58.5483557  13.4286942  69.3310772
  58.1343955  12.2896815  68.6890243  58.7025082  12.7440618  68.9810594
  49.8621209  14.1782380  65.3005685  49.9360217  14.0157552  66.1547535
  50.6790715  14.3672570  65.0566167  49.9937568  14.1819123  65.3903711
  43.6226966  14.5240243  62.3300129  42.7965083  14.7701980  62.2034407
  43.6838957  14.4452324  63.1962187  43.5101133  14.5485192  62.4389073
  45.8402989   0.5909184  63.2895569  44.9725415   0.6631784  63.3553178
  46.1278194   1.3931263  63.4783544  45.7542738   0.7203331  63.3270335
  48.4025795  17.1417123  60.0319158  48.6924093  16.7506105  59.3078385
  49.1329276  17.3233828  60.4724434  48.5532679  17.1110937  59.9901965
  48.9920540  11.9434869  71.1172289  48.4932234  12.6550637  71.1957177
  49.8020764  12.2635536  71.0790451  49.0376647  12.0961718  71.1228857
  46.3431710  19.1184506  63.0979308  46.1232006  18.8281860  63.8905975
  46.1226232  18.4599461  62.5697221  46.2779304  18.9784214  63.1368217
  45.2548658  11.2057822  65.3635010  44.9661906  10.5795294  65.8980737
  46.1232006  11.1478110  65.4299690  45.3408909  11.1045367  65.4525964
  56.0426555   6.3492606  65.6816992  55.6991321   5.6282941  66.0324241
  56.1419598   6.1406457  64.8395350  56.0068598   6.2116809  65.6088672
  48.5099666  20.4913896  61.8810001  49.1623724  19.9590338  62.1101027
  47.8125275  20.1382548  62.2677875  48.5030384  20.3603419  61.9722168
  45.4580931  12.8453073  61.2877375  46.2126899  13.2266112  61.5012837
  44.8651544  13.2964217  61.7424071  45.4817644  12.9681901  61.3860253
  56.5039584  12.8118310  61.2240980  57.0697617  13.4711520  61.1399523
  55.8567488  13.1568008  61.6957382  56.4918341  12.9600251  61.2813736
  46.7779157  14.0161635  66.6617490  46.2559911  14.1561926  67.3469355
  47.1653178  13.2572299  66.8519608  46.7582858  13.9247159  66.7918567
  43.7670342   4.0667443  60.7312445  43.4795137   3.6968714  59.9944392
  44.4540810   4.5362299  60.4696150  43.8259239   4.0814413  60.5827521
  52.9746162  15.7557094  60.6478059  52.7332838  15.0224955  60.2405124
  53.1547495  16.3043951  59.9944392  52.9653786  15.7279485  60.4908282
  48.2045483  11.0465654  62.0598981  48.0088266  11.6540388  61.4659284
  48.4279829  10.3533598  61.5790655  48.2080124  11.0343179  61.9015062
  46.6024013   7.9320392  62.1779850  47.3246665   8.0961550  61.7183656
  46.1232006   8.6530056  62.0719189  46.6387744   8.0618621  62.0945464
  54.5617521   4.2684190  67.5576535  53.7228621   4.2945469  67.3214798
  54.6321888   4.9154926  68.1381881  54.4485914   4.3680316  67.6085651
  44.2531630  10.3378464  71.2833990  44.7652727  10.6162717  70.6342749
  43.9667972  11.0767758  71.6496803  44.2866493  10.4880818  71.2423868
  58.4375045   9.4752177  64.8437776  58.3509019   9.6307603  65.6972555
  57.9825524  10.1190253  64.4697181  58.3578301   9.5927932  64.9144883
  41.3398536   4.8448656  61.5797726  41.4414673   5.6474817  61.9078701
  42.1354423   4.6435992  61.2820807  41.4726442   4.9334555  61.5833081
  52.3100861   6.7962924  63.4663336  52.0635575   6.7158675  64.3000125
  52.6385984   6.0116392  63.2725863  52.3222104   6.6689190  63.5610859
  56.2048909  13.5046284  67.2550117  56.0663269  14.2027329  67.7598859
  55.4248907  13.3494940  66.8986299  56.0692136  13.5846450  67.2776391
  48.2697888   9.5319643  72.8786319  48.4141264  10.1120851  72.2429429
  48.6173536   9.9095940  73.5836174  48.3425349   9.6740347  72.8885314
  50.4417805   8.7309811  70.6611451  49.6941119   8.9240826  70.2559729
  50.5959330   7.9055031  70.4235572  50.3540233   8.6374923  70.5656856
  47.3425643  17.7222415  69.7447346  47.4915207  17.1625331  69.0920750
  48.1225645  17.8014416  70.1279865  47.4799736  17.6507980  69.7044295
  57.7002282  12.8624537  58.0166616  57.3209091  12.0761675  58.0095906
  57.0368528  13.4111394  57.8738261  57.5460757  12.8269361  57.9947413
  49.8678943  17.8937058  71.0231837  49.7922615  17.2245868  71.5782625
  49.7968803  18.5954846  71.5372503  49.8459550  17.8981965  71.1808685
  50.5249190  16.4138056  61.8555443  51.2899082  16.1447700  61.5338107
  50.4227280  15.9288067  62.5725505  50.6230686  16.3027621  61.9135270
  48.5601960   4.6162466  68.3948678  47.7698035   4.4353926  68.7166014
  48.9562583   3.8389418  68.3778973  48.5018836   4.4749927  68.4401227
  53.0467851  13.4450240  53.8355392  53.8140836  13.5050365  53.4261244
  52.5999160  12.8730682  53.3511710  53.0941278  13.3686816  53.7033102
  53.9445646  12.2504896  66.1208124  53.2690648  12.0190128  66.6221511
  53.9538023  11.6426079  65.4950229  53.8464151  12.1263821  66.1024276
  51.0739790   7.0922725  72.8772177  51.0098932   7.9532681  72.7492314
  51.2136978   6.7754718  72.0767729  51.0855260   7.1722892  72.7400390
  55.9462381  15.1070028  58.3518302  56.0282218  15.9137015  58.0279753
  56.4312123  15.1265988  59.0759076  56.0299539  15.2290691  58.4105201
  49.7558884   9.7854864  67.0188380  49.3321133   9.9859363  66.2827398
  49.5803740   8.9383712  67.1312680  49.6669765   9.6903646  66.9262070
  49.2570578  21.3005377  69.4809837  49.7466508  20.6016167  69.2985502
  48.6854810  21.0029247  70.0685895  49.2455108  21.1531601  69.5410878
  45.0441329  10.2806916  62.4516353  45.2005948  10.2153719  63.3072345
  45.3841922  11.0555468  62.2395032  45.1174564  10.3856114  62.5470947
  51.5820474   9.6564799  61.3209716  52.1236019   9.1535180  61.7848336
  51.8967033   9.6029994  60.5099201  51.7084871   9.5744220  61.2693528
  49.7506924  15.0482151  58.6049744  49.8199744  14.1896689  58.7442744
  50.5295379  15.2654032  58.2768768  49.8759774  14.9535015  58.5766901
  52.7309743   4.5501104  71.3732016  52.9451713   3.9112018  70.8195370
  52.1143642   4.9946928  70.9439878  52.6715073   4.5211248  71.2282447
  54.1414411  17.4719852  62.8186237  53.7494203  17.1686567  62.1009103
  54.2967483  18.3088942  62.6291191  54.1068001  17.5503689  62.6842734
  41.6175591   7.4641866  62.7677120  41.9974556   7.8826411  62.1037387
  41.0430956   8.0455322  63.0745963  41.5886916   7.6119725  62.7153861
  54.3054086  14.0369841  62.7592268  53.9468741  14.2084484  63.5356300
  53.8192797  14.4983047  62.2020266  54.1812783  14.1308812  62.7917537
  49.0942451   9.7169006  55.2992502  49.3834976  10.4933889  55.5736076
  49.1814250   9.2057738  56.0007001  49.1496708   9.7560925  55.4435000
  55.4658825  14.9273737  73.7059469  56.1038546  14.4333933  73.3721925
  54.8232917  14.8551137  73.1211695  55.4653052  14.8432745  73.5701824
  57.1915825   6.7762883  68.2725384  56.7643433   6.6889232  67.5173484
  56.5541878   6.8840658  68.8580228  57.0345433   6.7795543  68.2470826
  55.5213082  15.6193545  70.3464825  56.3105460  15.2682610  70.4666907
  55.6956680  16.4329934  70.0841459  55.6633364  15.6879402  70.3252693
  45.2606392   9.0302271  67.3992614  44.4194399   8.9306145  67.6071508
  45.4696400   9.7997751  67.7506935  45.1671085   9.1294314  67.4819929
  42.7381959   6.6521808  65.2277365  42.3438657   6.7264820  64.4527475
  42.1822076   7.0379754  65.7785727  42.5984772   6.7203583  65.1945025
  49.0723057   6.9583670  66.6490212  48.7686195   6.4039658  67.2500619
  48.3702478   7.1375880  66.1618246  48.9239267   6.9028453  66.6659917
  48.1289154   4.2684190  61.2134914  48.4048889   3.5503103  60.8012481
  48.7287824   4.8669110  61.0056020  48.2582419   4.2504561  61.1215675
  47.1341408  14.1733391  71.3562310  47.0261763  14.1835453  72.2224368
  47.3437190  14.9988171  71.1667263  47.1491519  14.2974466  71.4566401
  45.1515200  11.4246033  68.8184247  44.5603133  12.0655531  68.7887262
  45.9136224  11.8483651  68.7915547  45.1763461  11.5821872  68.8099394
  54.9104716  16.8755345  66.2516272  54.7124405  17.3646159  65.5572483
  54.2892427  17.0796586  66.8300405  54.7892281  16.9771883  66.2339495
  48.9712695   8.6440242  60.5926516  49.7154740   9.0314518  60.8309466
  49.1173391   7.7997667  60.7567004  49.1023280   8.5770715  60.6520486
  51.9590571   4.2165715  66.4920435  51.4850525   3.6907477  67.0025746
  52.3308706   3.6695188  65.9235297  51.9440460   4.0581712  66.4835582
  58.2227301   9.2768091  67.9027216  57.9825524   8.4374506  67.9069642
  58.7019308   9.3568257  68.6267989  58.2579485   9.1649490  68.0102018
  53.8874070   5.1102270  59.5546189  53.3597089   5.1931014  58.8651898
  54.3469778   5.8520141  59.5510834  53.8775921   5.2322932  59.4520884
  60.2232488   6.0569548  65.8556475  59.9842258   6.0165382  65.0177259
  60.3866389   6.9040700  65.9822196  60.2122792   6.1761633  65.7509957
  56.8278518  10.4419497  71.7861520  57.5512717   9.9892024  71.6072540
  56.5628481  10.7224163  71.0033848  56.8959792  10.4170466  71.6440235
  45.6965387   5.0379671  68.5214399  45.0718457   5.0498063  67.9140352
  45.3610982   5.5139846  69.1705639  45.5550879   5.1098188  68.5270968
  45.8807135   3.3804789  54.5787084  45.5319940   4.0324514  55.0418634
  45.4003581   3.3661902  53.8510955  45.7577379   3.4747843  54.5398175
  42.4091062  13.0980131  69.9618163  41.8790987  12.4072570  70.0113138
  42.6816156  13.0890316  69.1330872  42.3715785  12.9947263  69.8465579
  53.4411153  13.6805833  58.6855846  54.1645352  14.1463946  58.5420419
  53.0011744  13.7479443  57.9353443  53.4826845  13.7589670  58.5540627
  52.6097308  10.5403375  69.9356535  51.9954301   9.9961426  70.2305170
  53.1264593  10.0267612  69.4562351  52.5952970  10.3839784  69.9080763
  51.8493605  11.6107645  67.6700834  51.4221213  10.9857364  67.2366269
  51.8418549  11.3282567  68.4959841  51.7852746  11.4760426  67.7280661
  37.6886905   9.7707895  67.3186512  37.5830354   9.7254739  66.4538596
  36.9387125  10.1161676  67.6000797  37.5622507   9.8148803  67.2323841
  46.4580637   1.2147218  67.2649112  46.4979009   1.7156425  67.9783819
  45.6330302   1.3057612  66.9955035  46.3420163   1.3029035  67.3299650
  47.8795000   7.7307728  69.5623011  47.0486930   7.8981546  69.3558259
  47.8246518   7.3543679  70.3471896  47.7484415   7.6997459  69.6471539
  46.2531044   6.0063320  60.0913129  46.3934005   6.5035784  60.7941770
  46.7513577   5.3049614  60.2327342  46.3472125   5.9765298  60.2164708
  46.2831267   6.8730431  57.4205706  46.9176346   7.4690856  57.3555167
  46.3656877   6.5733888  58.2351576  46.3887818   6.9171339  57.5308792
  47.8610249   2.8044406  57.3951147  48.1826090   2.3247489  56.7410410
  48.1237193   3.6144052  57.2041959  47.9476275   2.8534304  57.2706640
  51.0907222  13.8263280  70.9149964  50.5832313  14.3799127  71.3590594
  50.7933868  13.8871570  70.0968738  50.9712107  13.9169592  70.8598420
  42.7884254   9.0698271  60.6895252  43.2976484   9.6662779  61.0706557
  43.2618527   8.8024245  60.0071671  42.9327630   9.1184087  60.6449774
  53.7015002  17.7426538  58.8453907  52.9844312  17.5687400  58.3801144
  54.3521740  17.5079110  58.3129393  53.6916853  17.6822331  58.6983125
  56.2862974   6.6191127  62.5895212  55.6154164   7.1620829  62.4608278
  56.9802724   7.0885982  62.3476907  56.2891841   6.7689398  62.5350740
  50.3349707  18.7587839  67.8206970  50.1115362  18.0006668  68.1890997
  49.8459551  18.7885860  67.0987410  50.2293156  18.6510063  67.7683711
  45.1474786   5.7054530  63.5568432  44.4286775   6.1218663  63.8241295
  45.5187148   6.2708769  63.0060070  45.0966718   5.8503811  63.5151239
  54.4474367   6.3382379  69.4470428  54.4272294   6.1565674  70.3005207
  54.4953568   7.2094397  69.4230011  54.4509008   6.4398917  69.5693722
  52.3920697  12.9269571  75.3718904  52.3516552  12.2819248  74.7864060
  53.2044015  12.8706188  75.6844316  52.5063850  12.8228538  75.3315853
  48.9828164  18.9788297  65.2744055  48.5688563  18.3162427  64.8847897
  49.6675539  19.1266156  64.7539749  49.0226536  18.9028955  65.1400552
  52.3493459  18.1378382  66.0267672  51.9509742  18.2480652  65.2588492
  51.7344678  18.3460448  66.6094231  52.1992348  18.1851950  65.9998971
  50.9221361   4.7452530  58.8941811  50.3286200   5.0669526  58.3426378
  50.9596638   3.8993625  58.6862918  50.8395750   4.6676858  58.7824583
  53.7979177   4.7032034  62.3243562  53.5692870   4.7264736  61.4821920
  54.0577253   3.8789501  62.4438572  53.8025365   4.5848114  62.2168759
  46.8523940   3.2408581  63.6197757  47.3281306   3.6025660  62.9847938
  46.3512539   3.8965048  63.8997900  46.8489299   3.3902769  63.5674498
  60.0835301  12.7130349  59.4110762  60.4668907  13.4621705  59.6408859
  59.2879415  12.9596168  59.1522751  60.0229083  12.8600043  59.4068336
  48.8950593   5.3849780  56.9871141  49.2749558   5.4029410  56.2022256
  48.1543189   5.8303769  56.8661989  48.8419431   5.4531555  56.8534709
  38.5853154   7.1171756  66.9905537  38.4074915   6.6648365  67.7160452
  38.2972176   7.9197917  67.1744014  38.5166107   7.1694314  67.1249039
  54.2476735   8.3729473  66.2282927  54.7430401   7.6552469  66.1886947
  53.4376511   8.0700271  66.1137414  54.2020629   8.2227120  66.2056653
  49.6935347  12.2227287  58.3779931  48.8846670  11.8993960  58.3313241
  50.2010256  11.5160509  58.3108180  49.6485014  12.0708603  58.3610226
  40.3225624   9.6499480  64.1027296  39.4571144   9.6385170  63.9910067
  40.4224440   9.4629703  64.9498435  40.2099791   9.6205541  64.2116240
  56.3128554  11.1233161  68.9160056  56.7383626  10.6007583  68.3630481
  55.9485474  11.7213998  68.3948679  56.3215157  11.1343388  68.7569065
  45.9482634  19.4197378  67.6757401  46.2629193  20.2333767  67.6835183
  46.3576047  19.0347597  68.3439560  46.0550732  19.4826081  67.7761493
  52.9007154  14.8367425  65.2461213  53.3718332  15.5507688  65.4151198
  53.2367332  14.2366175  65.7821083  53.0202269  14.8538890  65.3493589
  53.5381100  14.6285359  72.0088906  52.9902046  14.0043243  71.7408971
  53.9994129  14.8179631  71.2932985  53.5248309  14.5644410  71.8639337
  43.2895654  13.3670487  67.3236010  43.8940512  13.3266321  66.6949830
  43.0822967  14.2141639  67.3540065  43.3484551  13.4858489  67.2352126
  53.1039426  15.6336432  68.5398247  53.9237800  15.4899398  68.8014542
  52.8233504  16.2582631  69.0814685  53.1836170  15.7046784  68.6586186
  38.5246936  12.3505104  67.1934933  38.4271214  11.5401376  67.5024989
  39.3075806  12.3296898  66.8081201  38.6263073  12.2272195  67.1821796
  69.5753077  23.2901284  61.5041123  69.5447081  24.1445920  61.6759393
  70.1734425  22.9896576  62.0627267  69.6590235  23.3717780  61.6115926
  62.7752762  22.3776935  66.2594054  61.9190657  22.5385433  66.3103170
  62.8220415  21.5068999  66.2799115  62.6551873  22.2727737  66.2700120
  57.1593901  31.9139653  62.0231285  56.4076801  31.5355191  61.7947330
  57.6079913  31.9458086  61.2750096  57.1143568  31.8625260  61.8788787
  62.6118861  32.3365022  57.4516832  62.2770230  33.0141944  57.0161054
  63.1245732  31.9470333  56.8633704  62.6384442  32.3789600  57.3003624
  62.1523152  34.2879291  63.3927944  62.5362532  34.8566189  62.8532719
  62.0882294  33.5628801  62.9133760  62.1996580  34.2654754  63.2421806
  65.6204583  24.4368979  68.9025705  66.1660543  25.1154065  68.9619675
  65.5621459  24.2956440  68.0427287  65.6920497  24.5160980  68.7837766
  58.7378657  31.9258045  64.2894058  58.8389020  31.1158399  64.5991186
  58.1420403  31.8314991  63.6593736  58.6651196  31.7923073  64.2420296
  67.3969651  25.8653586  59.7759433  67.2809177  26.6161272  60.2051571
  68.1925538  25.6077539  60.0255520  67.4974241  25.9388433  59.8763525
  58.5779397  36.8435634  65.6908914  59.2216852  37.2848798  66.0805072
  58.9035653  36.0389060  65.6039173  58.7211226  36.7900829  65.7354391
  51.9343702  27.9478331  63.9146391  51.6993886  27.1145984  63.8078660
  52.0729342  28.2282997  63.1007592  51.9199364  27.8661835  63.7788746
  54.2333789  20.1164062  66.8130699  53.6138821  19.5256709  66.6440714
  54.1317653  20.7075497  66.1795022  54.1271465  20.1168144  66.6935689
  59.2799977  29.8547609  61.0628776  59.6015818  30.3952816  60.4590084
  59.9272073  29.2844380  61.1951065  59.4226032  29.8506784  60.9935811
  61.3301685  21.8563604  61.1463162  62.0281849  22.0351731  61.6384625
  61.6454017  21.3333943  60.5233552  61.4797022  21.8057376  61.1265172
  53.9602922  23.6616344  69.0574268  53.8361619  24.2478789  69.6924087
  54.6121207  23.1676539  69.3586543  54.0376572  23.6755148  69.1960197
  61.5189620  28.2434049  61.1342954  61.9583256  27.6351149  61.5797726
  61.3694283  27.8641422  60.3628419  61.5611086  28.0972520  61.0862121
  58.9861263  26.8378061  68.3361779  59.6310266  26.3450504  68.0172728
  59.2263040  26.9802847  69.1627857  59.1171848  26.7855503  68.4111312
  61.5247355  29.6832966  67.9868672  61.8070597  28.8884372  67.7655428
  62.2533515  30.1613554  68.0073733  61.6736918  29.6367563  67.9571687
  59.5028548  17.2256000  65.2284437  59.1731878  17.6767144  64.5588136
  58.8273550  17.1472164  65.7757443  59.3538985  17.2807136  65.2107660
  65.1198957  26.5961230  58.0873723  65.0350252  27.4522197  58.2323292
  65.6083340  26.3205554  58.7555882  65.1787854  26.6818551  58.2075804
  66.7104956  13.2141523  63.4734047  66.3958397  13.9045002  63.9054470
  66.1931898  13.1586306  62.7719548  66.5869427  13.3076412  63.4330997
  66.0517390  23.2146024  59.5871458  65.5228861  23.4305658  60.2468764
  66.5742410  23.9082163  59.5072427  66.0505843  23.3489161  59.6727057
  71.5065443  28.7892329  64.9604503  70.6763146  29.0002972  65.1237919
  71.4574695  27.9629383  64.6846786  71.3772178  28.6981935  64.9441868
  57.9416998  27.1109241  58.3878926  57.3574213  27.6159272  58.7944790
  57.5387093  26.8851628  57.6475518  57.7956302  27.1517489  58.3383951
  53.4961026  32.8264002  65.1902598  53.0128605  33.5514492  65.1662181
  54.3084345  33.1240132  65.3012755  53.5451774  32.9766356  65.2029877
  59.5675180  31.6196183  67.7952412  59.0502122  31.2603598  67.1913720
  60.2649572  31.0958357  67.8058478  59.5940762  31.4893871  67.7082671
  63.2238772  32.0690997  73.7568585  63.3122118  31.8817137  74.6046795
  63.6528485  31.4228426  73.3573432  63.3000875  31.9454005  73.8240337
  60.7909232  31.3522157  72.7386247  60.2280067  30.9394767  73.2625908
  61.5530256  31.2775063  73.1579391  60.8203681  31.2799557  72.8779248
  62.3994212  23.3574893  56.8647847  62.6390216  23.5652877  56.0523190
  62.7210053  22.5532402  56.9736791  62.4831370  23.2688994  56.7608400
  57.7084502  15.2868289  60.7107385  58.4630470  15.6546606  60.4724435
  57.5312037  15.6607843  61.4786564  57.7938981  15.3966477  60.7892273
  56.3505224  33.3420178  65.3422877  57.0525803  32.8272167  65.3995634
  56.2702707  33.6694329  66.1469753  56.4428984  33.3134404  65.4695670
  57.3984130  23.5795765  74.4703293  57.5704634  23.4701660  75.3188574
  57.9353488  24.2250170  74.2334485  57.5029134  23.6587767  74.5608389
  56.0641567  17.6938608  57.4085498  55.8817140  17.9110489  56.5826490
  56.9267180  17.8077621  57.4644112  56.1646157  17.7428506  57.2939985
  55.6755999  29.5326530  64.8508485  56.5144898  29.7649463  64.8982247
  55.7067768  28.6630841  64.7815521  55.8037717  29.4383477  64.8473130
  56.3008702  29.9527405  69.1521791  56.8406927  29.8098536  69.8225163
  55.6178648  30.3524156  69.5205817  56.2800856  29.9907076  69.3056213
  61.7441286  14.6965019  60.4434521  62.4727447  14.5180973  59.9972678
  61.8336179  15.5383098  60.6541700  61.8647948  14.7948897  60.4088039
  65.7249587  25.6318406  64.3466815  66.4807102  26.0649920  64.3855724
  65.8311911  24.9823176  64.9201451  65.8519758  25.5995890  64.4364841
  68.7629758  29.4591683  65.0969218  68.3264990  29.4628426  65.8528190
  68.4292674  30.1397182  64.6648796  68.6492378  29.5604139  65.1450051
  63.3358832  31.5000016  76.4212369  64.1199248  31.6130864  76.7868111
  63.1355426  30.6741153  76.6171054  63.4224857  31.3946735  76.5046755
  51.7045847  26.1727696  69.3056213  51.4384262  25.3566813  69.4647203
  51.7184411  26.2180852  68.4351728  51.6670569  26.0584601  69.2009694
  55.6103594  20.9712780  55.9207971  54.8961771  20.6850960  56.3330403
  56.0947563  21.3109406  56.5614358  55.5762957  20.9794430  56.0763606
  56.4544454  19.7106074  71.9523220  55.7616250  19.2403054  72.1983952
  57.0704781  19.4844379  72.5264927  56.4428983  19.6073206  72.0732373
  63.4929225  33.4110118  70.0678824  62.6944471  33.1709618  70.3252693
  63.9415237  33.4624511  70.8145872  63.4403836  33.3832509  70.2163748
  71.8974104  26.1772603  63.9888856  72.5590538  25.6163271  63.8884764
  71.2565516  25.6824634  64.3141547  71.9002972  26.0209012  64.0221196
  62.7850912  29.4742734  56.2969779  63.2002061  29.1427758  55.6054275
  61.9542842  29.2411637  56.1689915  62.7238921  29.3913990  56.1760626
  52.1139261  26.9586475  66.5867957  51.9314834  26.9333361  65.7340249
  52.8488930  27.4285413  66.6256866  52.1953325  27.0247838  66.4665875
  68.1838935  27.1937985  63.7300844  68.4194524  27.3383184  62.9027695
  68.3328499  27.9580393  64.1232358  68.2404738  27.3277040  63.6664448
  55.1785012  23.6771478  73.0950065  55.9024985  23.6624509  73.5814960
  55.2801149  24.3866834  72.5972034  55.3003222  23.7796182  73.0928852
  70.0129392  26.0339651  61.5670448  70.3437609  26.5667292  60.9610543
  70.5862480  26.0878539  62.2232399  70.1463071  26.1209220  61.5748230
  65.2261281  23.8804554  62.2494028  65.3208135  24.6193848  62.7033654
  64.6020124  23.4522030  62.6828593  65.1470311  23.9265875  62.3802176
  63.4813755  27.0590767  72.8984309  64.0552616  26.4218011  73.0532873
  63.4028558  27.0594849  72.0293967  63.5546990  26.9655878  72.7930720
  52.0810171  23.8379976  66.7367023  52.6583674  23.7016427  67.3759269
  51.3824233  23.3815760  66.9912608  52.0631193  23.7502242  66.8689313
  65.4784302  25.7253294  55.4830980  65.3964465  25.7955481  56.3485967
  66.1164023  26.2883038  55.2914721  65.5604140  25.8192265  55.5820930
  58.8377473  25.4914032  64.9505507  58.5796718  24.6585767  64.9236806
  58.8925956  25.7171645  64.1098007  58.8077251  25.4011803  64.8225643
  63.9178523  17.5942482  65.0509599  63.2134850  17.1051668  65.2093518
  63.9663498  17.6064957  64.1798044  63.8208575  17.5232130  64.9448939
  57.8112185  23.0451794  65.4370401  57.2361777  23.2043963  66.0734362
  57.4347862  22.4087203  64.9738852  57.6714998  22.9749607  65.4624960
  61.4785474  21.5175144  70.2962780  61.0899907  21.0929361  69.6414971
  60.8140172  21.7657293  70.8039806  61.3232402  21.4913865  70.2750648
  71.1208743  21.2750148  63.0710610  70.8645308  20.4630090  62.8808493
  71.9638057  21.2827715  62.8440797  71.2074769  21.1562146  63.0095427
  47.5569004  22.6891869  63.4514842  47.6429256  22.3123737  64.2328372
  48.1844802  22.3152315  62.9734800  47.6625555  22.5777351  63.4960319
  62.5824412  25.7473748  58.4939587  63.3965051  26.0388641  58.3822358
  62.5183554  25.0933610  57.9197880  62.6927151  25.6938943  58.3928424
  58.4532321  29.2195266  63.6211899  59.0906268  28.9807013  64.1663692
  58.8787392  29.4232425  62.8865059  58.6108487  29.2146276  63.5929056
  53.1444963  31.4583602  67.5046203  53.1849108  31.7298453  66.6765982
  53.7039487  31.9825510  67.9203990  53.2328309  31.5759357  67.4438091
  59.0935136  24.4397555  57.9586788  59.4780288  24.2205262  58.7103333
  58.8446756  25.2660501  58.0887865  59.1137208  24.5295702  58.0887865
  69.8270323  28.2144193  68.9697457  69.5216140  28.9472250  69.3310772
  69.1076539  27.8082123  68.6890243  69.6757665  28.2625926  68.9810594
  60.8353793  29.6967688  65.3005685  60.9092801  29.5342860  66.1547535
  61.6523299  29.8857878  65.0566167  60.9670151  29.7004431  65.3903711
  54.5959549  30.0425551  62.3300129  53.7697667  30.2887288  62.2034407
  54.6571540  29.9637632  63.1962187  54.4833716  30.0670500  62.4389073
  56.8135573  16.1094492  63.2895569  55.9457998  16.1817092  63.3553178
  57.1010777  16.9116571  63.4783544  56.7275321  16.2388639  63.3270335
  59.3758378  32.6602431  60.0319158  59.6656677  32.2691413  59.3078385
  60.1061859  32.8419136  60.4724434  59.5265262  32.6296245  59.9901965
  59.9653123  27.4620177  71.1172289  59.4664817  28.1735945  71.1957177
  60.7753348  27.7820844  71.0790451  60.0109230  27.6147026  71.1228857
  57.3164294  34.6369814  63.0979308  57.0964589  34.3467168  63.8905975
  57.0958816  33.9784769  62.5697221  57.2511888  34.4969522  63.1368217
  56.2281241  26.7243130  65.3635010  55.9394490  26.0980601  65.8980737
  57.0964589  26.6663418  65.4299690  56.3141493  26.6230674  65.4525964
  67.0159139  21.8677914  65.6816992  66.6723905  21.1468249  66.0324241
  67.1152181  21.6591765  64.8395350  66.9801182  21.7302117  65.6088672
  59.4832250  36.0099204  61.8810001  60.1356308  35.4775646  62.1101027
  58.7857858  35.6567856  62.2677875  59.4762968  35.8788727  61.9722168
  56.4313514  28.3638381  61.2877375  57.1859482  28.7451420  61.5012837
  55.8384127  28.8149525  61.7424071  56.4550228  28.4867209  61.3860253
  67.4772168  28.3303618  61.2240980  68.0430201  28.9896828  61.1399523
  66.8300071  28.6753316  61.6957382  67.4650924  28.4785559  61.2813736
  58.8920181  20.3201222  76.4134587  58.0819957  20.6259001  76.3024429
  59.3694868  21.0406804  76.5287171  58.8423660  20.4715823  76.4141658
  57.7511741  29.5346943  66.6617490  57.2292495  29.6747234  67.3469355
  58.1385761  28.7757607  66.8519608  57.7315442  29.4432466  66.7918567
  54.7402925  19.5852751  60.7312445  54.4527721  19.2154022  59.9944392
  55.4273393  20.0547607  60.4696150  54.7991822  19.5999721  60.5827521
  63.9478746  31.2742402  60.6478059  63.7065422  30.5410263  60.2405124
  64.1280079  31.8229259  59.9944392  63.9386370  31.2464793  60.4908282
  59.1778067  26.5650962  62.0598981  58.9820849  27.1725696  61.4659284
  59.4012412  25.8718906  61.5790655  59.1812708  26.5528487  61.9015062
  57.5756597  23.4505700  62.1779850  58.2979249  23.6146858  61.7183656
  57.0964589  24.1715364  62.0719189  57.6120327  23.5803929  62.0945464
  65.5350104  19.7869498  67.5576535  64.6961205  19.8130777  67.3214798
  65.6054472  20.4340234  68.1381881  65.4218498  19.8865624  67.6085651
  55.2264213  25.8563772  71.2833990  55.7385310  26.1348025  70.6342749
  54.9400556  26.5953066  71.6496803  55.2599077  26.0066126  71.2423868
  63.9819383  16.6854875  62.2904151  64.6845735  16.4862624  61.8124109
  63.7163571  15.9130818  62.5972994  64.0466015  16.5417841  62.2649592
  69.4107628  24.9937485  64.8437776  69.3241603  25.1492911  65.6972555
  68.9558108  25.6375561  64.4697181  69.3310885  25.1113240  64.9144883
  52.3131120  20.3633964  61.5797726  52.4147256  21.1660125  61.9078701
  53.1087006  20.1621300  61.2820807  52.4459025  20.4519863  61.5833081
  58.7447939  17.9490161  71.3435031  58.5531136  17.9645295  72.1934455
  59.5946535  18.1453835  71.3201686  58.8423661  17.9804512  71.4658326
  53.1294852  20.4781142  69.3218848  52.9880344  19.6265083  69.4463356
  53.4135415  20.5209803  68.4981054  53.1502698  20.3580892  69.2186472
  63.2833444  22.3148232  63.4663336  63.0368158  22.2343983  64.3000125
  63.6118567  21.5301700  63.2725863  63.2954688  22.1874498  63.5610859
  67.1781493  29.0231592  67.2550117  67.0395852  29.7212637  67.7598859
  66.3981491  28.8680248  66.8986299  67.0424720  29.1031758  67.2776391
  59.2430471  25.0504951  72.8786319  59.3873847  25.6306159  72.2429429
  59.5906120  25.4281248  73.5836174  59.3157933  25.1925655  72.8885314
  61.4150389  24.2495119  70.6611451  60.6673703  24.4426134  70.2559729
  61.5691914  23.4240339  70.4235572  61.3272816  24.1560231  70.5656856
  58.3158226  33.2407723  69.7447346  58.4647790  32.6810639  69.0920750
  59.0958228  33.3199724  70.1279865  58.4532320  33.1693288  69.7044295
  68.6734866  28.3809845  58.0166616  68.2941675  27.5946983  58.0095906
  68.0101111  28.9296702  57.8738261  68.5193341  28.3454669  57.9947413
  60.8411527  33.4122366  71.0231837  60.7655198  32.7431176  71.5782625
  60.7701386  34.1140154  71.5372503  60.8192134  33.4167273  71.1808685
  61.6552166  18.1445670  71.5506854  62.1124780  18.8769644  71.6779647
  61.7308495  17.7212135  72.3094110  61.7343136  18.1902908  71.6807931
  53.8985157  18.3911490  72.6396298  53.3627346  17.7791848  72.9557065
  53.9602922  18.9659626  73.2929965  53.8280790  18.3858417  72.7831725
  61.4981774  31.9323364  61.8555443  62.2631665  31.6633008  61.5338107
  61.3959864  31.4473375  62.5725505  61.5963269  31.8212929  61.9135270
  59.5334544  20.1347774  68.3948678  58.7430618  19.9539234  68.7166014
  59.9295167  19.3574726  68.3778973  59.4751420  19.9935235  68.4401227
  64.0200434  28.9635548  53.8355392  64.7873420  29.0235673  53.4261244
  63.5731743  28.3915990  53.3511710  64.0673862  28.8872124  53.7033102
  64.9178230  27.7690204  66.1208124  64.2423232  27.5375436  66.6221511
  64.9270606  27.1611387  65.4950229  64.8196735  27.6449129  66.1024276
  62.0472374  22.6108033  72.8772177  61.9831515  23.4717989  72.7492314
  62.1869562  22.2940026  72.0767729  62.0587844  22.6908200  72.7400390
  66.9194965  30.6255336  58.3518302  67.0014802  31.4322323  58.0279753
  67.4044707  30.6451296  59.0759076  67.0032122  30.7475999  58.4105201
  60.7291468  25.3040172  67.0188380  60.3053717  25.5044671  66.2827398
  60.5536323  24.4569020  67.1312680  60.6402348  25.2088954  66.9262070
  60.2303161  36.8190685  69.4809837  60.7199092  36.1201475  69.2985502
  59.6587394  36.5214555  70.0685895  60.2187691  36.6716909  69.5410878
  56.0173913  25.7992224  62.4516353  56.1738532  25.7339027  63.3072345
  56.3574506  26.5740776  62.2395032  56.0907148  25.9041422  62.5470947
  62.5553057  25.1750107  61.3209716  63.0968603  24.6720488  61.7848336
  62.8699617  25.1215302  60.5099201  62.6817455  25.0929528  61.2693528
  60.7239507  30.5667459  58.6049744  60.7932327  29.7081997  58.7442744
  61.5027962  30.7839340  58.2768768  60.8492357  30.4720323  58.5766901
  63.7042327  20.0686412  71.3732016  63.9184296  19.4297326  70.8195370
  63.0876226  20.5132236  70.9439878  63.6447656  20.0396556  71.2282447
  65.1146995  32.9905160  62.8186237  64.7226786  32.6871875  62.1009103
  65.2700067  33.8274250  62.6291191  65.0800585  33.0688997  62.6842734
  52.5908174  22.9827174  62.7677120  52.9707139  23.4011719  62.1037387
  52.0163539  23.5640630  63.0745963  52.5619499  23.1305033  62.7153861
  65.2786670  29.5555149  62.7592268  64.9201324  29.7269792  63.5356300
  64.7925380  30.0168355  62.2020266  65.1545366  29.6494120  62.7917537
  63.0957056  13.1786347  66.3619359  62.2250613  13.1525069  66.3152669
  63.3497397  13.0063540  65.5445205  63.0050616  13.1496491  66.2339496
  60.0675035  25.2354314  55.2992502  60.3567560  26.0119197  55.5736076
  60.1546834  24.7243046  56.0007001  60.1229291  25.2746233  55.4435000
  60.1206196  15.1892576  67.8192830  59.6044685  14.4972767  67.9444409
  59.5600125  15.8563353  67.7655428  59.9612709  15.1855834  67.8298896
  62.1898429  15.7285536  69.6485682  61.8030183  15.7534567  70.4299212
  61.7031367  15.1627215  69.1960199  62.0610938  15.6481287  69.6973586
  66.4391409  30.4459045  73.7059469  67.0771129  29.9519241  73.3721925
  65.7965500  30.3736445  73.1211695  66.4385635  30.3618053  73.5701824
  68.1648409  22.2948191  68.2725384  67.7376017  22.2074539  67.5173484
  67.5274462  22.4025966  68.8580228  68.0078016  22.2980851  68.2470826
  66.4945665  31.1378853  70.3464825  67.2838044  30.7867918  70.4666907
  66.6689263  31.9515242  70.0841459  66.6365947  31.2064710  70.3252693
  56.2338976  24.5487579  67.3992614  55.3926982  24.4491453  67.6071508
  56.4428984  25.3183059  67.7506935  56.1403668  24.6479622  67.4819929
  53.7114543  22.1707116  65.2277365  53.3171241  22.2450128  64.4527475
  53.1554660  22.5565062  65.7785727  53.5717355  22.2388891  65.1945025
  65.3479490  15.1488410  64.9081244  65.5529083  15.0810718  65.7538241
  65.0205914  15.9547231  64.8402421  65.3294738  15.2574350  65.0240899
  60.0455641  22.4768978  66.6490212  59.7418778  21.9224966  67.2500619
  59.3435062  22.6561188  66.1618246  59.8971851  22.4213760  66.6659917
  59.1021738  19.7869498  61.2134914  59.3781472  19.0688410  60.8012481
  59.7020407  20.3854418  61.0056020  59.2315002  19.7689869  61.1215675
  58.1073992  29.6918699  71.3562310  57.9994347  29.7020761  72.2224368
  58.3169773  30.5173479  71.1667263  58.1224103  29.8159774  71.4566401
  68.6013177  15.7020174  64.3884009  67.9887491  16.1890576  64.7737741
  68.6977352  15.0263665  64.9321660  68.5251075  15.6738483  64.5262867
  62.6032258  17.4583015  59.4881509  63.0576005  17.6293576  60.2129353
  63.0772304  16.8451126  59.0879284  62.7400578  17.3933901  59.5355270
  56.1247784  26.9431341  68.8184247  55.5335717  27.5840839  68.7887262
  56.8868807  27.3668959  68.7915547  56.1496044  27.1007180  68.8099394
  56.5208407  18.1033339  69.4852265  56.9809888  18.1772268  70.2227389
  56.5664513  18.9014593  69.1352086  56.5958962  18.2327486  69.5425021
  58.1691756  18.7700034  74.0524292  57.7777321  18.1233381  74.4880070
  58.3377619  19.3611469  74.6718547  58.1362667  18.7614302  74.2086998
  65.8837300  32.3940653  66.2516272  65.6856989  32.8831467  65.5572483
  65.2625011  32.5981894  66.8300405  65.7624864  32.4957191  66.2339495
  59.9445278  24.1625550  60.5926516  60.6887323  24.5499826  60.8309466
  60.0905975  23.3182975  60.7567004  60.0755863  24.0956022  60.6520486
  61.8624854  15.9575809  65.6258377  61.0160899  16.1298616  65.4999727
  61.8595986  15.1525152  65.9624206  61.7372004  15.8636838  65.6569504
  62.9323154  19.7351023  66.4920435  62.4583108  19.2092785  67.0025746
  63.3041290  19.1880496  65.9235297  62.9173043  19.5767020  66.4835582
  53.3096184  21.7322530  71.8603981  54.1721797  21.6318239  71.7741311
  52.9787967  21.1517239  71.2989553  53.3881381  21.6314156  71.7649387
  69.1959885  24.7953399  67.9027216  68.9558108  23.9559814  67.9069642
  69.6751892  24.8753565  68.6267989  69.2312068  24.6834798  68.0102018
  64.8606654  20.6287578  59.5546189  64.3329672  20.7116322  58.8651898
  65.3202362  21.3705449  59.5510834  64.8508504  20.7508240  59.4520884
  71.1965072  21.5754856  65.8556475  70.9574842  21.5350690  65.0177259
  71.3598973  22.4226008  65.9822196  71.1855375  21.6946941  65.7509957
  67.8011102  25.9604805  71.7861520  68.5245301  25.5077332  71.6072540
  67.5361064  26.2409471  71.0033848  67.8692375  25.9355774  71.6440235
  56.6697970  20.5564979  68.5214399  56.0451040  20.5683371  67.9140352
  56.3343565  21.0325154  69.1705639  56.5283462  20.6283496  68.5270968
  56.8539719  18.8990097  54.5787084  56.5052523  19.5509822  55.0418634
  56.3736165  18.8847210  53.8510955  56.7309963  18.9933151  54.5398175
  53.3823646  28.6165439  69.9618163  52.8523570  27.9257878  70.0113138
  53.6548739  28.6075624  69.1330872  53.3448368  28.5132571  69.8465579
  64.4143736  29.1991141  58.6855846  65.1377935  29.6649254  58.5420419
  63.9744327  29.2664751  57.9353443  64.4559429  29.2774978  58.5540627
  63.5829891  26.0588683  69.9356535  62.9686885  25.5146734  70.2305170
  64.0997176  25.5452920  69.4562351  63.5685554  25.9025092  69.9080763
  62.8226189  27.1292953  67.6700834  62.3953797  26.5042672  67.2366269
  62.8151133  26.8467875  68.4959841  62.7585330  26.9945734  67.7280661
  55.9388716  22.1658126  70.7389268  56.0982202  21.4101451  71.1440990
  55.7581609  22.7149066  71.3930005  55.9354075  22.1351940  70.8951974
  61.1511898  18.0061708  67.8843368  61.1754385  17.4721820  67.1956148
  61.4023372  17.4979017  68.5468958  61.1921817  17.8522612  67.8808012
  48.6619488  25.2893203  67.3186512  48.5562937  25.2440047  66.4538596
  47.9119708  25.6346983  67.6000797  48.5355091  25.3334111  67.2323841
  57.4313221  16.7332526  67.2649112  57.4711592  17.2341733  67.9783819
  56.6062885  16.8242920  66.9955035  57.3152746  16.8214343  67.3299650
  59.6142833  26.2993266  75.3669407  58.7638464  26.4364980  75.5027051
  59.7770961  25.5657044  75.8117108  59.5126697  26.2107367  75.4525006
  58.8527584  23.2493036  69.5623011  58.0219514  23.4166854  69.3558259
  58.7979101  22.8728987  70.3471896  58.7216999  23.2182767  69.6471539
  57.2263628  21.5248628  60.0913129  57.3666589  22.0221092  60.7941770
  57.7246161  20.8234922  60.2327342  57.3204709  21.4950606  60.2164708
  57.2563850  22.3915739  57.4205706  57.8908930  22.9876164  57.3555167
  57.3389461  22.0919196  58.2351576  57.3620401  22.4356647  57.5308792
  58.8342833  18.3229714  57.3951147  59.1558674  17.8432797  56.7410410
  59.0969777  19.1329360  57.2041959  58.9208858  18.3719612  57.2706640
  62.0639806  29.3448588  70.9149964  61.5564897  29.8984435  71.3590594
  61.7666452  29.4056878  70.0968738  61.9444691  29.4354900  70.8598420
  64.2301988  17.7101908  69.7574627  64.6557060  17.2574434  69.1458153
  63.6158981  17.1561979  70.0339414  64.2030633  17.5615884  69.7079652
  53.7616838  24.5883579  60.6895252  54.2709067  25.1848087  61.0706557
  54.2351110  24.3209553  60.0071671  53.9060214  24.6369395  60.6449774
  64.6747586  33.2611846  58.8453907  63.9576896  33.0872708  58.3801144
  65.3254324  33.0264418  58.3129393  64.6649437  33.2007639  58.6983125
  62.6696211  14.1817008  63.1665204  62.0264529  14.0314654  63.7350342
  62.3295618  13.9359353  62.4014308  62.5241288  14.1229130  63.1368219
  67.2595557  22.1376435  62.5895212  66.5886747  22.6806137  62.4608278
  67.9535308  22.6071290  62.3476907  67.2624425  22.2874706  62.5350740
  61.3082291  34.2773147  67.8206970  61.0847945  33.5191976  68.1890997
  60.8192134  34.3071168  67.0987410  61.2025740  34.1695371  67.7683711
  67.4223685  18.5932318  65.4985585  67.7751295  18.1662041  66.1731384
  66.5638486  18.5083162  65.6286662  67.3473129  18.5177059  65.6180596
  56.1207370  21.2239838  63.5568432  55.4019359  21.6403970  63.8241295
  56.4919732  21.7894077  63.0060070  56.0699302  21.3689119  63.5151239
  65.4206951  21.8567687  69.4470428  65.4004878  21.6750982  70.3005207
  65.4686151  22.7279705  69.4230011  65.4241592  21.9584225  69.5693722
  63.3653280  28.4454879  75.3718904  63.3249135  27.8004556  74.7864060
  64.1776599  28.3891496  75.6844316  63.4796434  28.3413846  75.3315853
  59.9560748  34.4973605  65.2744055  59.5421147  33.8347735  64.8847897
  60.6408122  34.6451463  64.7539749  59.9959120  34.4214263  65.1400552
  63.3226042  33.6563690  66.0267672  62.9242325  33.7665960  65.2588492
  62.7077262  33.8645756  66.6094231  63.1724931  33.7037258  65.9998971
  61.8953944  20.2637838  58.8941811  61.3018783  20.5854834  58.3426378
  61.9329222  19.4178933  58.6862918  61.8128333  20.1862166  58.7824583
  64.7711761  20.2217342  62.3243562  64.5425454  20.2450044  61.4821920
  65.0309837  19.3974809  62.4438572  64.7757949  20.1033422  62.2168759
  59.0530989  22.0751815  71.9268662  58.5409892  21.4672998  72.2853693
  58.8810485  22.7908408  72.3942638  58.9520626  22.0915115  72.0484886
  53.8996704  20.5189391  74.5771024  53.7299294  21.1790765  74.0319230
  53.4562654  20.7295952  75.2983513  53.8096037  20.6475373  74.6032653
  57.8256523  18.7593889  63.6197757  58.3013889  19.1210968  62.9847938
  57.3245123  19.4150356  63.8997900  57.8221882  18.9088077  63.5674498
  71.0567885  28.2315657  59.4110762  71.4401491  28.9807013  59.6408859
  70.2611998  28.4781476  59.1522751  70.9961667  28.3785351  59.4068336
  50.7998768  23.4236256  69.8359513  50.2525488  22.7536902  69.9540382
  51.5891147  23.0566104  69.9002981  50.8350952  23.2701243  69.8628214
  60.6483177  23.0843713  75.3322925  61.3994504  23.3995390  75.6462479
  60.8405753  22.8822884  74.5056846  60.7874591  23.1011095  75.2566320
  59.8683176  20.9035088  56.9871141  60.2482141  20.9214718  56.2022256
  59.1275772  21.3489077  56.8661989  59.8152014  20.9716863  56.8534709
  67.4968467  19.2117280  62.5746720  67.4962693  19.0565936  63.4330996
  67.2924647  20.0580267  62.5188106  67.4668245  19.3137900  62.6934659
  49.5585738  22.6357064  66.9905537  49.3807499  22.1833673  67.7160452
  49.2704760  23.4383225  67.1744014  49.4898691  22.6879622  67.1249039
  65.2209319  23.8914781  66.2282927  65.7162984  23.1737776  66.1886947
  64.4109095  23.5885579  66.1137414  65.1753212  23.7412428  66.2056653
  60.6667930  27.7412595  58.3779931  59.8579253  27.4179268  58.3313241
  61.1742839  27.0345817  58.3108180  60.6217597  27.5893911  58.3610226
  51.2958208  25.1684788  64.1027296  50.4303727  25.1570478  63.9910067
  51.3957024  24.9815011  64.9498435  51.1832375  25.1390849  64.2116240
  67.2861138  26.6418469  68.9160056  67.7116209  26.1192891  68.3630481
  66.9218058  27.2399306  68.3948679  67.2947740  26.6528696  68.7569065
  56.9215218  34.9382686  67.6757401  57.2361777  35.7519075  67.6835183
  57.3308631  34.5532905  68.3439560  57.0283316  35.0011389  67.7761493
  63.8739737  30.3552733  65.2461213  64.3450915  31.0692996  65.4151198
  64.2099916  29.7551483  65.7821083  63.9934852  30.3724197  65.3493589
  64.5113684  30.1470667  72.0088906  63.9634630  29.5228551  71.7408971
  64.9726712  30.3364939  71.2932985  64.4980893  30.0829717  71.8639337
  59.8602347  17.1296617  59.6698773  60.6818041  17.2994929  59.4280468
  59.3971998  17.2843878  58.9465070  59.9133509  17.1778350  59.5270417
  58.4497679  15.1239379  70.4497202  58.9942092  14.7830506  71.0401543
  58.5034615  15.9824840  70.5918486  58.5386798  15.1994638  70.5579075
  54.2628238  28.8855795  67.3236010  54.8673095  28.8451629  66.6949830
  54.0555550  29.7326947  67.3540065  54.3217135  29.0043797  67.2352126
  64.0772010  31.1521740  68.5398247  64.8970384  31.0084706  68.8014542
  63.7966088  31.7767939  69.0814685  64.1568753  31.2232092  68.6586186
  49.4979520  27.8690412  67.1934933  49.4003798  27.0586684  67.5024989
  50.2808390  27.8482206  66.8081201  49.5995656  27.7457503  67.1821796
  73.7485345  37.8962243  66.2594054  72.8923241  38.0570741  66.3103170
  73.7952999  37.0254307  66.2799115  73.6284457  37.7913045  66.2700120
  68.1326485  47.4324961  62.0231285  67.3809384  47.0540499  61.7947330
  68.5812496  47.4643394  61.2750096  68.0876152  47.3810568  61.8788787
  73.5851445  47.8550330  57.4516832  73.2502813  48.5327252  57.0161054
  74.0978315  47.4655641  56.8633704  73.6117026  47.8974908  57.3003624
  73.1255736  49.8064599  63.3927944  73.5095115  50.3751497  62.8532719
  73.0614877  49.0814109  62.9133760  73.1729163  49.7840062  63.2421806
  76.5937166  39.9554287  68.9025705  77.1393126  40.6339373  68.9619675
  76.5354042  39.8141748  68.0427287  76.6653080  40.0346288  68.7837766
  69.7111241  47.4443353  64.2894058  69.8121604  46.6343707  64.5991186
  69.1152986  47.3500299  63.6593736  69.6383780  47.3108381  64.2420296
  69.5511981  52.3620942  65.6908914  70.1949436  52.8034106  66.0805072
  69.8768236  51.5574368  65.6039173  69.6943809  52.3086137  65.7354391
  62.9076285  43.4663639  63.9146391  62.6726470  42.6331292  63.8078660
  63.0461926  43.7468305  63.1007592  62.8931948  43.3847143  63.7788746
  65.2066373  35.6349370  66.8130699  64.5871404  35.0442017  66.6440714
  65.1050236  36.2260805  66.1795022  65.1004048  35.6353452  66.6935689
  70.2532560  45.3732917  61.0628776  70.5748401  45.9138124  60.4590084
  70.9004657  44.8029688  61.1951065  70.3958615  45.3692092  60.9935811
  72.3034268  37.3748912  61.1463162  73.0014433  37.5537039  61.6384625
  72.6186601  36.8519251  60.5233552  72.4529606  37.3242684  61.1265172
  64.9335506  39.1801652  69.0574268  64.8094203  39.7664097  69.6924087
  65.5853790  38.6861847  69.3586543  65.0109155  39.1940456  69.1960197
  72.4922204  43.7619357  61.1342954  72.9315839  43.1536457  61.5797726
  72.3426867  43.3826730  60.3628419  72.5343669  43.6157828  61.0862121
  69.9593847  42.3563369  68.3361779  70.6042849  41.8635812  68.0172728
  70.1995624  42.4988155  69.1627857  70.0904432  42.3040811  68.4111312
  72.4979938  45.2018274  67.9868672  72.7803181  44.4069680  67.7655428
  73.2266098  45.6798862  68.0073733  72.6469502  45.1552871  67.9571687
  70.4761132  32.7441308  65.2284437  70.1464462  33.1952452  64.5588136
  69.8006134  32.6657472  65.7757443  70.3271568  32.7992444  65.2107660
  76.0931540  42.1146538  58.0873723  76.0082835  42.9707505  58.2323292
  76.5815924  41.8390862  58.7555882  76.1520438  42.2003859  58.2075804
  77.6837540  28.7326831  63.4734047  77.3690981  29.4230310  63.9054470
  77.1664481  28.6771614  62.7719548  77.5602010  28.8261720  63.4330997
  77.0249974  38.7331332  59.5871458  76.4961445  38.9490966  60.2468764
  77.5474993  39.4267471  59.5072427  77.0238426  38.8674469  59.6727057
  68.9149581  42.6294549  58.3878926  68.3306797  43.1344580  58.7944790
  68.5119676  42.4036936  57.6475518  68.7688885  42.6702797  58.3383951
  64.4693610  48.3449310  65.1902598  63.9861188  49.0699800  65.1662181
  65.2816928  48.6425440  65.3012755  64.5184358  48.4951664  65.2029877
  70.5407764  47.1381491  67.7952412  70.0234706  46.7788906  67.1913720
  71.2382155  46.6143665  67.8058478  70.5673345  47.0079179  67.7082671
  73.3726796  38.8760201  56.8647847  73.6122799  39.0838185  56.0523190
  73.6942637  38.0717710  56.9736791  73.4563954  38.7874302  56.7608400
  68.6817086  30.8053597  60.7107385  69.4363054  31.1731914  60.4724435
  68.5044621  31.1793151  61.4786564  68.7671564  30.9151785  60.7892273
  67.3237807  48.8605486  65.3422877  68.0258386  48.3457475  65.3995634
  67.2435290  49.1879637  66.1469753  67.4161568  48.8319712  65.4695670
  68.3716714  39.0981073  74.4703293  68.5437217  38.9886968  75.3188574
  68.9086071  39.7435478  74.2334485  68.4761718  39.1773075  74.5608389
  67.0374151  33.2123916  57.4085498  66.8549724  33.4295797  56.5826490
  67.8999764  33.3262928  57.4644112  67.1378740  33.2613814  57.2939985
  66.6488583  45.0511838  64.8508485  67.4877482  45.2834771  64.8982247
  66.6800352  44.1816149  64.7815521  66.7770300  44.9568784  64.8473130
  67.2741286  45.4712713  69.1521791  67.8139511  45.3283844  69.8225163
  66.5911232  45.8709464  69.5205817  67.2533440  45.5092384  69.3056213
  72.7173870  30.2150326  60.4434521  73.4460030  30.0366281  59.9972678
  72.8068763  31.0568406  60.6541700  72.8380532  30.3134205  60.4088039
  76.6982171  41.1503714  64.3466815  77.4539686  41.5835228  64.3855724
  76.8044495  40.5008484  64.9201451  76.8252341  41.1181198  64.4364841
  62.6778431  41.6913004  69.3056213  62.4116846  40.8752121  69.4647203
  62.6916995  41.7366160  68.4351728  62.6403153  41.5769909  69.2009694
  66.5836178  36.4898088  55.9207971  65.8694355  36.2036268  56.3330403
  67.0680146  36.8294714  56.5614358  66.5495541  36.4979738  56.0763606
  67.4277037  35.2291382  71.9523220  66.7348834  34.7588362  72.1983952
  68.0437364  35.0029687  72.5264927  67.4161567  35.1258514  72.0732373
  73.7583496  44.9928042  56.2969779  74.1734644  44.6613066  55.6054275
  72.9275425  44.7596945  56.1689915  73.6971504  44.9099298  56.1760626
  63.0871844  42.4771783  66.5867957  62.9047418  42.4518669  65.7340249
  63.8221513  42.9470721  66.6256866  63.1685908  42.5433146  66.4665875
  66.1517596  39.1956786  73.0950065  66.8757568  39.1809817  73.5814960
  66.2533733  39.9052141  72.5972034  66.2735805  39.2981489  73.0928852
  76.1993864  39.3989862  62.2494028  76.2940719  40.1379156  62.7033654
  75.5752708  38.9707337  62.6828593  76.1202895  39.4451183  62.3802176
  63.0542755  39.3565284  66.7367023  63.6316257  39.2201735  67.3759269
  62.3556816  38.9001068  66.9912608  63.0363776  39.2687550  66.8689313
  76.4516886  41.2438602  55.4830980  76.3697048  41.3140789  56.3485967
  77.0896606  41.8068346  55.2914721  76.5336723  41.3377573  55.5820930
  69.8110057  41.0099340  64.9505507  69.5529301  40.1771075  64.9236806
  69.8658540  41.2356953  64.1098007  69.7809835  40.9197111  64.8225643
  74.8911107  33.1127790  65.0509599  74.1867434  32.6236976  65.2093518
  74.9396081  33.1250265  64.1798044  74.7941159  33.0417438  64.9448939
  68.7844769  38.5637102  65.4370401  68.2094360  38.7229271  66.0734362
  68.4080445  37.9272511  64.9738852  68.6447581  38.4934915  65.4624960
  72.4518058  37.0360451  70.2962780  72.0632490  36.6114669  69.6414971
  71.7872756  37.2842601  70.8039806  72.2964985  37.0099173  70.2750648
  58.5301588  38.2077177  63.4514842  58.6161840  37.8309045  64.2328372
  59.1577385  37.8337623  62.9734800  58.6358139  38.0962659  63.4960319
  73.5556996  41.2659056  58.4939587  74.3697635  41.5573949  58.3822358
  73.4916137  40.6118918  57.9197880  73.6659735  41.2124251  58.3928424
  69.4264904  44.7380574  63.6211899  70.0638851  44.4992321  64.1663692
  69.8519976  44.9417732  62.8865059  69.5841070  44.7331584  63.5929056
  64.1177547  46.9768910  67.5046203  64.1581692  47.2483761  66.6765982
  64.6772071  47.5010818  67.9203990  64.2060892  47.0944665  67.4438091
  70.0667719  39.9582863  57.9586788  70.4512872  39.7390570  58.7103333
  69.8179340  40.7845809  58.0887865  70.0869792  40.0481010  58.0887865
  71.8086376  45.2152996  65.3005685  71.8825384  45.0528168  66.1547535
  72.6255882  45.4043186  65.0566167  71.9402735  45.2189739  65.3903711
  65.5692133  45.5610859  62.3300129  64.7430250  45.8072596  62.2034407
  65.6304124  45.4822940  63.1962187  65.4566300  45.5855808  62.4389073
  67.7868157  31.6279800  63.2895569  66.9190582  31.7002399  63.3553178
  68.0743361  32.4301879  63.4783544  67.7007905  31.7573947  63.3270335
  70.3490962  48.1787739  60.0319158  70.6389260  47.7876721  59.3078385
  71.0794443  48.3604444  60.4724434  70.4997846  48.1481553  59.9901965
  70.9385707  42.9805485  71.1172289  70.4397401  43.6921253  71.1957177
  71.7485931  43.3006152  71.0790451  70.9841814  43.1332334  71.1228857
  68.2896877  50.1555122  63.0979308  68.0697173  49.8652476  63.8905975
  68.0691399  49.4970077  62.5697221  68.2244472  50.0154830  63.1368217
  67.2013825  42.2428438  65.3635010  66.9127073  41.6165909  65.8980737
  68.0697173  42.1848726  65.4299690  67.2874077  42.1415982  65.4525964
  77.9891722  37.3863222  65.6816992  77.6456488  36.6653557  66.0324241
  78.0884765  37.1777073  64.8395350  77.9533765  37.2487425  65.6088672
  70.4564833  51.5284512  61.8810001  71.1088891  50.9960954  62.1101027
  69.7590442  51.1753164  62.2677875  70.4495551  51.3974035  61.9722168
  67.4046098  43.8823689  61.2877375  68.1592066  44.2636728  61.5012837
  66.8116711  44.3334833  61.7424071  67.4282812  44.0052517  61.3860253
  69.8652765  35.8386530  76.4134587  69.0552541  36.1444309  76.3024429
  70.3427452  36.5592112  76.5287171  69.8156244  35.9901131  76.4141658
  68.7244325  45.0532251  66.6617490  68.2025078  45.1932542  67.3469355
  69.1118345  44.2942915  66.8519608  68.7048026  44.9617774  66.7918567
  65.7135509  35.1038059  60.7312445  65.4260304  34.7339330  59.9944392
  66.4005977  35.5732915  60.4696150  65.7724406  35.1185029  60.5827521
  74.9211330  46.7927710  60.6478059  74.6798006  46.0595570  60.2405124
  75.1012662  47.3414567  59.9944392  74.9118954  46.7650101  60.4908282
  70.1510650  42.0836270  62.0598981  69.9553433  42.6911004  61.4659284
  70.3744996  41.3904214  61.5790655  70.1545291  42.0713795  61.9015062
  68.5489180  38.9691007  62.1779850  69.2711832  39.1332166  61.7183656
  68.0697173  39.6900672  62.0719189  68.5852911  39.0989237  62.0945464
  76.5082688  35.3054806  67.5576535  75.6693788  35.3316085  67.3214798
  76.5787055  35.9525542  68.1381881  76.3951081  35.4050932  67.6085651
  66.1996797  41.3749080  71.2833990  66.7117894  41.6533333  70.6342749
  65.9133140  42.1138374  71.6496803  66.2331660  41.5251434  71.2423868
  74.9551966  32.2040183  62.2904151  75.6578319  32.0047932  61.8124109
  74.6896155  31.4316126  62.5972994  75.0198598  32.0603149  62.2649592
  63.2863703  35.8819272  61.5797726  63.3879840  36.6845433  61.9078701
  64.0819590  35.6806608  61.2820807  63.4191609  35.9705171  61.5833081
  69.7180522  33.4675468  71.3435031  69.5263719  33.4830603  72.1934455
  70.5679118  33.6639143  71.3201686  69.8156244  33.4989820  71.4658326
  64.1027435  35.9966450  69.3218848  63.9612927  35.1450391  69.4463356
  64.3867999  36.0395111  68.4981054  64.1235281  35.8766200  69.2186472
  74.2566028  37.8333540  63.4663336  74.0100742  37.7529291  64.3000125
  74.5851151  37.0487008  63.2725863  74.2687271  37.7059805  63.5610859
  78.1514077  44.5416899  67.2550117  78.0128436  45.2397945  67.7598859
  77.3714074  44.3865556  66.8986299  78.0157303  44.6217066  67.2776391
  70.2163055  40.5690259  72.8786319  70.3606431  41.1491467  72.2429429
  70.5638704  40.9466555  73.5836174  70.2890516  40.7110963  72.8885314
  72.3882972  39.7680427  70.6611451  71.6406286  39.9611441  70.2559729
  72.5424498  38.9425647  70.4235572  72.3005400  39.6745539  70.5656856
  72.6284749  33.6630978  71.5506854  73.0857363  34.3954952  71.6779647
  72.7041078  33.2397443  72.3094110  72.7075719  33.7088216  71.6807931
  64.8717741  33.9096798  72.6396298  64.3359930  33.2977156  72.9557065
  64.9335505  34.4844934  73.2929965  64.8013373  33.9043725  72.7831725
  72.4714358  47.4508672  61.8555443  73.2364249  47.1818316  61.5338107
  72.3692448  46.9658683  62.5725505  72.5695853  47.3398237  61.9135270
  70.5067127  35.6533082  68.3948678  69.7163202  35.4724542  68.7166014
  70.9027750  34.8760034  68.3778973  70.4484004  35.5120543  68.4401227
  74.9933018  44.4820856  53.8355392  75.7606003  44.5420981  53.4261244
  74.5464327  43.9101298  53.3511710  75.0406445  44.4057432  53.7033102
  75.8910814  43.2875512  66.1208124  75.2155815  43.0560744  66.6221511
  75.9003190  42.6796695  65.4950229  75.7929318  43.1634437  66.1024276
  73.0204958  38.1293341  72.8772177  72.9564099  38.9903297  72.7492314
  73.1602145  37.8125334  72.0767729  73.0320428  38.2093508  72.7400390
  77.8927548  46.1440644  58.3518302  77.9747386  46.9507630  58.0279753
  78.3777290  46.1636604  59.0759076  77.9764706  46.2661307  58.4105201
  71.7024051  40.8225480  67.0188380  71.2786301  41.0229979  66.2827398
  71.5268907  39.9754328  67.1312680  71.6134932  40.7274262  66.9262070
  66.9906496  41.3177532  62.4516353  67.1471116  41.2524334  63.3072345
  67.3307090  42.0926084  62.2395032  67.0639731  41.4226730  62.5470947
  73.5285641  40.6935415  61.3209716  74.0701187  40.1905796  61.7848336
  73.8432200  40.6400610  60.5099201  73.6550038  40.6114836  61.2693528
  71.6972091  46.0852767  58.6049744  71.7664911  45.2267305  58.7442744
  72.4760546  46.3024648  58.2768768  71.8224941  45.9905631  58.5766901
  74.6774910  35.5871720  71.3732016  74.8916880  34.9482634  70.8195370
  74.0608810  36.0317544  70.9439878  74.6180240  35.5581863  71.2282447
  76.0879578  48.5090468  62.8186237  75.6959370  48.2057183  62.1009103
  76.2432651  49.3459558  62.6291191  76.0533168  48.5874305  62.6842734
  63.5640758  38.5012482  62.7677120  63.9439723  38.9197027  62.1037387
  62.9896123  39.0825938  63.0745963  63.5352083  38.6490341  62.7153861
  76.2519253  45.0740457  62.7592268  75.8933908  45.2455100  63.5356300
  75.7657964  45.5353663  62.2020266  76.1277950  45.1679428  62.7917537
  74.0689639  28.6971655  66.3619359  73.1983197  28.6710377  66.3152669
  74.3229980  28.5248848  65.5445205  73.9783199  28.6681799  66.2339496
  71.0407619  40.7539622  55.2992502  71.3300143  41.5304505  55.5736076
  71.1279417  40.2428354  56.0007001  71.0961875  40.7931541  55.4435000
  71.0938780  30.7077884  67.8192830  70.5777268  30.0158075  67.9444409
  70.5332708  31.3748661  67.7655428  70.9345293  30.7041141  67.8298896
  73.1631013  31.2470844  69.6485682  72.7762766  31.2719875  70.4299212
  72.6763950  30.6812523  69.1960199  73.0343522  31.1666595  69.6973586
  67.2071559  40.0672887  67.3992614  66.3659566  39.9676761  67.6071508
  67.4161567  40.8368367  67.7506935  67.1136252  40.1664930  67.4819929
  64.6847126  37.6892424  65.2277365  64.2903824  37.7635436  64.4527475
  64.1287243  38.0750370  65.7785727  64.5449939  37.7574198  65.1945025
  76.3212073  30.6673718  64.9081244  76.5261667  30.5996026  65.7538241
  75.9938497  31.4732539  64.8402421  76.3027321  30.7759658  65.0240899
  71.0188224  37.9954286  66.6490212  70.7151362  37.4410274  67.2500619
  70.3167645  38.1746496  66.1618246  70.8704434  37.9399068  66.6659917
  70.0754321  35.3054806  61.2134914  70.3514056  34.5873718  60.8012481
  70.6752991  35.9039726  61.0056020  70.2047586  35.2875177  61.1215675
  69.0806575  45.2104007  71.3562310  68.9726930  45.2206069  72.2224368
  69.2902357  46.0358787  71.1667263  69.0956686  45.3345082  71.4566401
  73.5764842  32.9768323  59.4881509  74.0308588  33.1478884  60.2129353
  74.0504888  32.3636434  59.0879284  73.7133162  32.9119208  59.5355270
  67.0980367  42.4616649  68.8184247  66.5068301  43.1026147  68.7887262
  67.8601391  42.8854266  68.7915547  67.1228628  42.6192488  68.8099394
  67.4940990  33.6218647  69.4852265  67.9542472  33.6957576  70.2227389
  67.5397097  34.4199901  69.1352086  67.5691545  33.7512794  69.5425021
  69.1424340  34.2885342  74.0524292  68.7509905  33.6418689  74.4880070
  69.3110203  34.8796777  74.6718547  69.1095250  34.2799610  74.2086998
  76.8569884  47.9125961  66.2516272  76.6589572  48.4016775  65.5572483
  76.2357595  48.1167202  66.8300405  76.7357448  48.0142499  66.2339495
  70.9177862  39.6810858  60.5926516  71.6619907  40.0685134  60.8309466
  71.0638558  38.8368283  60.7567004  71.0488447  39.6141330  60.6520486
  72.8357437  31.4761116  65.6258377  71.9893482  31.6483924  65.4999727
  72.8328570  30.6710460  65.9624206  72.7104587  31.3822145  65.6569504
  73.9055738  35.2536331  66.4920435  73.4315692  34.7278093  67.0025746
  74.2773874  34.7065804  65.9235297  73.8905627  35.0952328  66.4835582
  64.2828768  37.2507838  71.8603981  65.1454381  37.1503547  71.7741311
  63.9520551  36.6702547  71.2989553  64.3613964  37.1499464  71.7649387
  75.8339237  36.1472885  59.5546189  75.3062256  36.2301629  58.8651898
  76.2934946  36.8890757  59.5510834  75.8241088  36.2693548  59.4520884
  67.6430554  36.0750287  68.5214399  67.0183624  36.0868679  67.9140352
  67.3076149  36.5510462  69.1705639  67.5016046  36.1468804  68.5270968
  67.8272303  34.4175405  54.5787084  67.4785107  35.0695130  55.0418634
  67.3468748  34.4032518  53.8510955  67.7042547  34.5118459  54.5398175
  64.3556229  44.1350747  69.9618163  63.8256154  43.4443186  70.0113138
  64.6281323  44.1260932  69.1330872  64.3180952  44.0317879  69.8465579
  75.3876320  44.7176449  58.6855846  76.1110519  45.1834562  58.5420419
  74.9476911  44.7850059  57.9353443  75.4292012  44.7960286  58.5540627
  74.5562475  41.5773991  69.9356535  73.9419468  41.0332042  70.2305170
  75.0729760  41.0638228  69.4562351  74.5418137  41.4210400  69.9080763
  73.7958772  42.6478261  67.6700834  73.3686380  42.0227980  67.2366269
  73.7883717  42.3653183  68.4959841  73.7317913  42.5131042  67.7280661
  66.9121299  37.6843434  70.7389268  67.0714786  36.9286759  71.1440990
  66.7314193  38.2334374  71.3930005  66.9086658  37.6537248  70.8951974
  72.1244482  33.5247016  67.8843368  72.1486969  32.9907128  67.1956148
  72.3755955  33.0164325  68.5468958  72.1654401  33.3707920  67.8808012
  59.6352072  40.8078511  67.3186512  59.5295521  40.7625355  66.4538596
  58.8852292  41.1532291  67.6000797  59.5087675  40.8519419  67.2323841
  68.4045804  32.2517834  67.2649112  68.4444176  32.7527041  67.9783819
  67.5795469  32.3428228  66.9955035  68.2885330  32.3399650  67.3299650
  69.8260167  38.7678344  69.5623011  68.9952097  38.9352162  69.3558259
  69.7711685  38.3914295  70.3471896  69.6949582  38.7368075  69.6471539
  68.1996211  37.0433935  60.0913129  68.3399172  37.5406400  60.7941770
  68.6978744  36.3420230  60.2327342  68.2937292  37.0135914  60.2164708
  68.2296434  37.9101047  57.4205706  68.8641513  38.5061472  57.3555167
  68.3122045  37.6104504  58.2351576  68.3352985  37.9541955  57.5308792
  69.8075417  33.8415022  57.3951147  70.1291258  33.3618104  56.7410410
  70.0702360  34.6514668  57.2041959  69.8941442  33.8904920  57.2706640
  75.2034572  33.2287216  69.7574627  75.6289643  32.7759742  69.1458153
  74.5891565  32.6747287  70.0339414  75.1763217  33.0801192  69.7079652
  64.7349422  40.1068887  60.6895252  65.2441651  40.7033395  61.0706557
  65.2083694  39.8394861  60.0071671  64.8792797  40.1554703  60.6449774
  75.6480170  48.7797154  58.8453907  74.9309479  48.6058016  58.3801144
  76.2986907  48.5449726  58.3129393  75.6382020  48.7192946  58.6983125
  73.6428794  29.7002316  63.1665204  72.9997112  29.5499962  63.7350342
  73.3028201  29.4544661  62.4014308  73.4973872  29.6414438  63.1368219
  72.2814875  49.7958455  67.8206970  72.0580529  49.0377284  68.1890997
  71.7924718  49.8256476  67.0987410  72.1758324  49.6880679  67.7683711
  78.3956268  34.1117626  65.4985585  78.7483878  33.6847349  66.1731384
  77.5371070  34.0268470  65.6286662  78.3205713  34.0362367  65.6180596
  67.0939953  36.7425146  63.5568432  66.3751942  37.1589278  63.8241295
  67.4652316  37.3079385  63.0060070  67.0431885  36.8874427  63.5151239
  76.3939534  37.3752995  69.4470428  76.3737461  37.1936290  70.3005207
  76.4418735  38.2465013  69.4230011  76.3974175  37.4769533  69.5693722
  70.9293332  50.0158913  65.2744055  70.5153730  49.3533043  64.8847897
  71.6140706  50.1636771  64.7539749  70.9691703  49.9399571  65.1400552
  74.2958626  49.1748998  66.0267672  73.8974909  49.2851268  65.2588492
  73.6809845  49.3831064  66.6094231  74.1457515  49.2222566  65.9998971
  72.8686528  35.7823146  58.8941811  72.2751367  36.1040142  58.3426378
  72.9061805  34.9364241  58.6862918  72.7860917  35.7047474  58.7824583
  75.7444344  35.7402650  62.3243562  75.5158037  35.7635352  61.4821920
  76.0042420  34.9160117  62.4438572  75.7490532  35.6218730  62.2168759
  70.0263573  37.5937123  71.9268662  69.5142476  36.9858306  72.2853693
  69.8543069  38.3093716  72.3942638  69.9253210  37.6100423  72.0484886
  64.8729287  36.0374699  74.5771024  64.7031878  36.6976073  74.0319230
  64.4295237  36.2481260  75.2983513  64.7828621  36.1660681  74.6032653
  68.7989107  34.2779197  63.6197757  69.2746473  34.6396276  62.9847938
  68.2977706  34.9335664  63.8997900  68.7954466  34.4273385  63.5674498
  61.7731352  38.9421564  69.8359513  61.2258071  38.2722210  69.9540382
  62.5623730  38.5751412  69.9002981  61.8083536  38.7886551  69.8628214
  70.8415760  36.4220396  56.9871141  71.2214725  36.4400026  56.2022256
  70.1008356  36.8674385  56.8661989  70.7884598  36.4902171  56.8534709
  78.4701050  34.7302588  62.5746720  78.4695277  34.5751244  63.4330996
  78.2657231  35.5765575  62.5188106  78.4400828  34.8323208  62.6934659
  60.5318321  38.1542372  66.9905537  60.3540083  37.7018981  67.7160452
  60.2437344  38.9568533  67.1744014  60.4631275  38.2064930  67.1249039
  76.1941902  39.4100089  66.2282927  76.6895568  38.6923084  66.1886947
  75.3841678  39.1070887  66.1137414  76.1485796  39.2597736  66.2056653
  71.6400514  43.2597903  58.3779931  70.8311837  42.9364576  58.3313241
  72.1475423  42.5531125  58.3108180  71.5950181  43.1079219  58.3610226
  62.2690791  40.6870096  64.1027296  61.4036311  40.6755786  63.9910067
  62.3689607  40.5000319  64.9498435  62.1564958  40.6576157  64.2116240
  78.2593721  42.1603777  68.9160056  78.6848793  41.6378199  68.3630481
  77.8950641  42.7584614  68.3948679  78.2680324  42.1714004  68.7569065
  67.8947801  50.4567994  67.6757401  68.2094360  51.2704383  67.6835183
  68.3041215  50.0718213  68.3439560  68.0015899  50.5196697  67.7761493
  74.8472321  45.8738041  65.2461213  75.3183499  46.5878304  65.4151198
  75.1832499  45.2736791  65.7821083  74.9667436  45.8909505  65.3493589
  70.8334931  32.6481925  59.6698773  71.6550625  32.8180237  59.4280468
  70.3704582  32.8029185  58.9465070  70.8866093  32.6963657  59.5270417
  69.4230263  30.6424687  70.4497202  69.9674676  30.3015814  71.0401543
  69.4767198  31.5010148  70.5918486  69.5119382  30.7179946  70.5579075
  65.2360821  44.4041103  67.3236010  65.8405679  44.3636937  66.6949830
  65.0288134  45.2512255  67.3540065  65.2949719  44.5229105  67.2352126
  60.4712104  43.3875720  67.1934933  60.3736382  42.5771992  67.5024989
  61.2540973  43.3667514  66.8081201  60.5728240  43.2642810  67.1821796
  77.5568761  52.0083396  55.9207971  76.8426938  51.7221576  56.3330403
  78.0412730  52.3480022  56.5614358  77.5228125  52.0165046  56.0763606
  69.5034171  53.7262485  63.4514842  69.5894423  53.3494353  64.2328372
  70.1309969  53.3522931  62.9734800  69.6090722  53.6147967  63.4960319
  76.6868092  50.6223367  60.7312445  76.3992888  50.2524638  59.9944392
  77.3738560  51.0918223  60.4696150  76.7456990  50.6370337  60.5827521
  74.2596287  51.4004580  61.5797726  74.3612423  52.2030741  61.9078701
  75.0552174  51.1991916  61.2820807  74.3924192  51.4890478  61.5833081
  74.5373342  54.0197790  62.7677120  74.9172306  54.4382335  62.1037387
  73.9628706  54.6011246  63.0745963  74.5084666  54.1675649  62.7153861
  75.7082005  55.6254195  60.6895252  76.2174235  56.2218703  61.0706557
  76.1816277  55.3580169  60.0071671  75.8525381  55.6740011  60.6449774
  78.0672537  52.2610454  63.5568432  77.3484526  52.6774586  63.8241295
  78.4384899  52.8264693  63.0060070  78.0164469  52.4059735  63.5151239
  56.8544725   8.8517784  48.9571332  56.1027625   8.4733322  48.7287377
  57.3030737   8.8836217  48.2090142  56.8094392   8.8003391  48.8128834
  62.3069685   9.2743153  44.3856879  61.9721054   9.9520075  43.9501101
  62.8196555   8.8848465  43.7973751  62.3335266   9.3167732  44.2343671
  61.8473976  11.2257422  50.3267991  62.2313356  11.7944321  49.7872766
  61.7833118  10.5006932  49.8473807  61.8947404  11.2032885  50.1761853
  58.4329481   8.8636176  51.2234105  58.5339844   8.0536530  51.5331232
  57.8371227   8.7693122  50.5933783  58.3602020   8.7301204  51.1760343
  58.2730221  13.7813765  52.6248961  58.9167676  14.2226929  53.0145119
  58.5986476  12.9767191  52.5379219  58.4162050  13.7278960  52.6694438
  51.6294526   4.8856463  50.8486438  51.3944710   4.0524115  50.7418707
  51.7680166   5.1661128  50.0347639  51.6150188   4.8039966  50.7128793
  58.9750801   6.7925740  47.9968822  59.2966642   7.3330947  47.3930130
  59.6222897   6.2222511  48.1291112  59.1176856   6.7884915  47.9275858
  53.1911850   9.7642133  52.1242644  52.7079429  10.4892623  52.1002228
  54.0035169  10.0618263  52.2352802  53.2402598   9.9144487  52.1369924
  59.2626004   8.5574314  54.7292459  58.7452946   8.1981729  54.1253767
  59.9600396   8.0336488  54.7398525  59.2891585   8.4272002  54.6422718
  62.9189596   9.0069128  60.6908632  63.0072942   8.8195269  61.5386842
  63.3479309   8.3606558  60.2913479  62.9951699   8.8832136  60.7580383
  60.4860056   8.2900288  59.6726294  59.9230891   7.8772898  60.1965955
  61.2481080   8.2153194  60.0919437  60.5154505   8.2177689  59.8119294
  56.0456048  10.2798309  52.2762924  56.7476627   9.7650298  52.3335681
  55.9653531  10.6072461  53.0809799  56.1379808  10.2512535  52.4035716
  55.3706823   6.4704661  51.7848532  56.2095722   6.7027594  51.8322294
  55.4018592   5.6008973  51.7155568  55.4988541   6.3761608  51.7813177
  55.9959526   6.8905536  56.0861838  56.5357751   6.7476667  56.7565210
  55.3129472   7.2902287  56.4545864  55.9751680   6.9285207  56.2396260
  63.0309656   8.4378147  63.3552415  63.8150072   8.5508995  63.7208158
  62.8306250   7.6119284  63.5511101  63.1175681   8.3324867  63.4386801
  63.1880049  10.3488249  57.0018871  62.3895295  10.1087749  57.2592740
  63.6366060  10.4002642  57.7485919  63.1354660  10.3210640  57.1503795
  51.8090085   3.8964607  53.5208004  51.6265658   3.8711493  52.6680296
  52.5439754   4.3663544  53.5596912  51.8904149   3.9625969  53.4005922
  58.1483145   6.1573397  50.5551946  58.7857091   5.9185144  51.1003739
  58.5738216   6.3610556  49.8205106  58.3059311   6.1524407  50.5269103
  52.8395787   8.3961733  54.4386249  52.8799932   8.6676584  53.6106029
  53.3990311   8.9203641  54.8544037  52.9279133   8.5137488  54.3778138
  60.5304617   6.6345819  52.2345732  60.6043625   6.4720991  53.0887582
  61.3474123   6.8236009  51.9906214  60.6620975   6.6382562  52.3243757
  54.2910373   6.9803682  49.2640175  53.4648491   7.2265419  49.1374454
  54.3522364   6.9015763  50.1302233  54.1784540   7.0048631  49.3729120
  59.0709202   9.5980562  46.9659205  59.3607501   9.2069544  46.2418432
  59.8012683   9.7797267  47.4064481  59.2216086   9.5674376  46.9242012
  57.0115118  11.5747945  50.0319355  56.7915413  11.2845300  50.8246022
  56.7909640  10.9162900  49.5037267  56.9462712  11.4347653  50.0708264
  59.1783074  12.9477335  48.8150047  59.8307132  12.4153777  49.0441073
  58.4808682  12.5945987  49.2017921  59.1713791  12.8166858  48.9062215
  56.1264338   5.3016512  48.2217422  56.8810306   5.6829551  48.4352884
  55.5334951   5.7527656  48.6764118  56.1501052   5.4245340  48.3200300
  57.4462565   6.4725074  53.5957537  56.9243318   6.6125365  54.2809402
  57.8336585   5.7135738  53.7859654  57.4266266   6.3810598  53.7258614
  63.6429570   8.2120533  47.5818106  63.4016246   7.4788394  47.1745171
  63.8230903   8.7607390  46.9284439  63.6337194   8.1842924  47.4248329
  58.0109050  10.1785854  56.6787393  58.1598614   9.6188770  56.0260797
  58.7909052  10.2577856  57.0619911  58.1483144  10.1071419  56.6384342
  60.5362351  10.3500497  57.9571883  60.4606022   9.6809307  58.5122672
  60.4652210  11.0518285  58.4712550  60.5142958  10.3545404  58.1148732
  61.1932598   8.8701496  48.7895489  61.9582489   8.6011139  48.4678154
  61.0910688   8.3851506  49.5065552  61.2914093   8.7591060  48.8475317
  59.9253985  13.7568816  56.4149884  60.4149916  13.0579606  56.2325549
  59.3538218  13.4592686  57.0025942  59.9138515  13.6095040  56.4750925
  60.4190331   7.5045590  45.5389791  60.4883151   6.6460128  45.6782791
  61.1978786   7.7217471  45.2108815  60.5443181   7.4098454  45.5106948
  64.8097819   9.9283291  49.7526284  64.4177610   9.6250006  49.0349150
  64.9650891  10.7652381  49.5631238  64.7751409  10.0067128  49.6182781
  57.8024816   6.6296830  58.2902356  57.6945171   6.6398892  59.1564414
  58.0120597   7.4551610  58.1007310  57.8174927   6.7537905  58.3906448
  65.5788124   9.3318784  53.1856318  65.3807813   9.8209598  52.4912530
  64.9575835   9.5360026  53.7640452  65.4575688   9.4335322  53.1679542
  53.0774470   5.5543570  56.8958210  52.5474394   4.8636009  56.9453185
  53.3499563   5.5453755  56.0670919  53.0399192   5.4510702  56.7805626
  48.3570312   2.2271334  54.2526559  48.2513761   2.1818178  53.3878643
  47.6070532   2.5725115  54.5340843  48.2305915   2.2712242  54.1663888
  64.3698410  10.1989977  45.7793954  63.6527720  10.0250839  45.3141191
  65.0205148   9.9642550  45.2469440  64.3600260  10.1385770  45.6323172
  61.0033115  11.2151278  54.7547017  60.7798769  10.4570107  55.1231044
  60.5142958  11.2449299  54.0327457  60.8976564  11.1073502  54.7023758
  59.6511572  11.4351736  52.2084102  59.2371971  10.7725866  51.8187944
  60.3358946  11.5829595  51.6879796  59.6909944  11.3592394  52.0740599
  63.0176866  10.5941821  52.9607718  62.6193149  10.7044091  52.1928539
  62.4028086  10.8023887  53.5434278  62.8675755  10.6415389  52.9339018
  56.6166042  11.8760818  54.6097448  56.9312600  12.6897206  54.6175230
  57.0259455  11.4911036  55.2779607  56.7234140  11.9389520  54.7101540
  53.9579062   5.8233926  54.2576056  54.5623919   5.7829760  53.6289877
  53.7506374   6.6705078  54.2880112  54.0167959   5.9421929  54.1692173
  63.7722834   8.0899871  55.4738294  64.5921208   7.9462837  55.7354589
  63.4916911   8.7146070  56.0154732  63.8519577   8.1610223  55.5926233
  49.1930344   4.8068544  54.1274979  49.0954622   3.9964815  54.4365036
  49.9759214   4.7860337  53.7421248  49.2946480   4.6835634  54.1161842
  73.4436169  14.8340374  53.1934101  72.5874065  14.9948872  53.2443217
  73.4903823  13.9632438  53.2139162  73.3235280  14.7291176  53.2040167
  67.8277309  24.3703092  48.9571332  67.0760208  23.9918630  48.7287377
  68.2763320  24.4021525  48.2090142  67.7826976  24.3188699  48.8128834
  73.2802269  24.7928461  44.3856879  72.9453637  25.4705383  43.9501101
  73.7929139  24.4033773  43.7973751  73.3067850  24.8353039  44.2343671
  72.8206560  26.7442730  50.3267991  73.2045939  27.3129629  49.7872766
  72.7565701  26.0192240  49.8473807  72.8679987  26.7218193  50.1761853
  76.2887990  16.8932418  55.8365752  76.8343950  17.5717504  55.8959722
  76.2304866  16.7519879  54.9767334  76.3603904  16.9724419  55.7177813
  69.4062065  24.3821484  51.2234105  69.5072428  23.5721838  51.5331232
  68.8103810  24.2878430  50.5933783  69.3334604  24.2486512  51.1760343
  69.2462805  29.2999073  52.6248961  69.8900260  29.7412237  53.0145119
  69.5719060  28.4952499  52.5379219  69.3894633  29.2464268  52.6694438
  62.6027109  20.4041770  50.8486438  62.3677294  19.5709423  50.7418707
  62.7412750  20.6846436  50.0347639  62.5882772  20.3225274  50.7128793
  64.9017197  12.5727501  53.7470746  64.2822228  11.9820148  53.5780761
  64.8001060  13.1638936  53.1135069  64.7954872  12.5731584  53.6275735
  69.9483384  22.3111048  47.9968822  70.2699225  22.8516255  47.3930130
  70.5955481  21.7407819  48.1291112  70.0909439  22.3070223  47.9275858
  71.9985092  14.3127043  48.0803209  72.6965257  14.4915170  48.5724672
  72.3137425  13.7897382  47.4573598  72.1480429  14.2620815  48.0605219
  64.6286330  16.1179783  55.9914315  64.5045027  16.7042228  56.6264134
  65.2804614  15.6239979  56.2926590  64.7059979  16.1318587  56.1300244
  72.1873028  20.6997488  48.0683000  72.6266663  20.0914588  48.5137773
  72.0377691  20.3204861  47.2968466  72.2294493  20.5535959  48.0202168
  69.6544671  19.2941500  55.2701826  70.2993673  18.8013943  54.9512775
  69.8946448  19.4366286  56.0967904  69.7855256  19.2418942  55.3451359
  72.1930762  22.1396406  54.9208719  72.4754005  21.3447811  54.6995474
  72.9216922  22.6176993  54.9413780  72.3420326  22.0931003  54.8911734
  70.1711956   9.6819440  52.1624484  69.8415286  10.1330583  51.4928182
  69.4956958   9.6035603  52.7097490  70.0222392   9.7370575  52.1447707
  75.7882364  19.0524669  45.0213770  75.7033659  19.9085636  45.1663339
  76.2766747  18.7768993  45.6895929  75.8471262  19.1381991  45.1415851
  76.7200797  15.6709463  46.5211505  76.1912269  15.8869097  47.1808811
  77.2425817  16.3645602  46.4412474  76.7189250  15.8052600  46.6067104
  68.6100405  19.5672680  45.3218973  68.0257620  20.0722712  45.7284837
  68.2070500  19.3415067  44.5815565  68.4639709  19.6080928  45.2723998
  64.1644434  25.2827441  52.1242644  63.6812012  26.0077931  52.1002228
  64.9767752  25.5803571  52.2352802  64.2135182  25.4329795  52.1369924
  70.2358588  24.0759622  54.7292459  69.7185530  23.7167037  54.1253767
  70.9332979  23.5521796  54.7398525  70.2624169  23.9457310  54.6422718
  73.8922180  24.5254436  60.6908632  73.9805526  24.3380576  61.5386842
  74.3211892  23.8791866  60.2913479  73.9684282  24.4017444  60.7580383
  71.4592640  23.8085596  59.6726294  70.8963474  23.3958206  60.1965955
  72.2213663  23.7338502  60.0919437  71.4887088  23.7362997  59.8119294
  73.0677620  15.8138332  43.7987893  73.3073623  16.0216316  42.9863237
  73.3893461  15.0095841  43.9076838  73.1514778  15.7252433  43.6948446
  67.0188631  25.7983617  52.2762924  67.7209210  25.2835606  52.3335681
  66.9386114  26.1257769  53.0809799  67.1112392  25.7697843  52.4035716
  68.0667538  16.0359204  61.4043339  68.2388041  15.9265099  62.2528621
  68.6036895  16.6813610  61.1674532  68.1712542  16.1151206  61.4948436
  66.7324975  10.1502047  44.3425544  66.5500548  10.3673928  43.5166537
  67.5950588  10.2641060  44.3984159  66.8329564  10.1991945  44.2280031
  66.3439407  21.9889969  51.7848532  67.1828306  22.2212902  51.8322294
  66.3751176  21.1194281  51.7155568  66.4721124  21.8946916  51.7813177
  66.9692110  22.4090844  56.0861838  67.5090335  22.2661975  56.7565210
  66.2862056  22.8087595  56.4545864  66.9484263  22.4470515  56.2396260
  76.3932994  18.0881845  51.2806862  77.1490509  18.5213359  51.3195771
  76.4995319  17.4386615  51.8541498  76.5203165  18.0559329  51.3704888
  74.0042239  23.9563455  63.3552415  74.7882656  24.0694303  63.7208158
  73.8038834  23.1304592  63.5511101  74.0908265  23.8510174  63.4386801
  62.3729255  18.6291135  56.2396259  62.1067670  17.8130252  56.3987250
  62.3867819  18.6744291  55.3691775  62.3353977  18.5148040  56.1349741
  66.2787002  13.4276220  42.8548017  65.5645179  13.1414399  43.2670450
  66.7630970  13.7672845  43.4954405  66.2446365  13.4357869  43.0103652
  67.1227861  12.1669513  58.8863267  66.4299658  11.6966493  59.1323999
  67.7388188  11.9407818  59.4604974  67.1112391  12.0636645  59.0072420
  74.1612633  25.8673557  57.0018871  73.3627878  25.6273057  57.2592740
  74.6098644  25.9187950  57.7485919  74.1087244  25.8395948  57.1503795
  73.4534320  21.9306174  43.2309826  73.8685468  21.5991197  42.5394321
  72.6226249  21.6975076  43.1029962  73.3922328  21.8477430  43.1100673
  62.7822668  19.4149915  53.5208004  62.5998242  19.3896801  52.6680296
  63.5172337  19.8848852  53.5596912  62.8636732  19.4811277  53.4005922
  65.8468420  16.1334917  60.0290112  66.5708392  16.1187948  60.5155007
  65.9484556  16.8430273  59.5312080  65.9686629  16.2359621  60.0268899
  75.8944688  16.3367993  49.1834075  75.9891543  17.0757287  49.6373701
  75.2703532  15.9085469  49.6168640  75.8153718  16.3829314  49.3142223
  74.1497162  19.5154206  59.8324356  74.7236024  18.8781450  59.9872920
  74.0711966  19.5158288  58.9634014  74.2230397  19.4219317  59.7270767
  62.7493579  16.2943415  53.6707070  63.3267081  16.1579866  54.3099316
  62.0507640  15.8379199  53.9252655  62.7314600  16.2065681  53.8029360
  76.1467710  18.1816733  42.4171027  76.0647872  18.2518920  43.2826014
  76.7847430  18.7446477  42.2254768  76.2287547  18.2755704  42.5160977
  69.5060881  17.9477471  51.8845553  69.2480125  17.1149206  51.8576853
  69.5609364  18.1735084  51.0438054  69.4760659  17.8575242  51.7565690
  68.4795593  15.5015233  52.3710448  67.9045184  15.6607402  53.0074409
  68.1031269  14.8650642  51.9078899  68.3398405  15.4313046  52.3965007
  72.1468882  13.9738583  57.2302827  71.7583314  13.5492800  56.5755018
  71.4823580  14.2220732  57.7379853  71.9915809  13.9477304  57.2090695
  58.2252412  15.1455308  50.3854889  58.3112664  14.7687176  51.1668419
  58.8528209  14.7715754  49.9074847  58.3308963  15.0340790  50.4300366
  73.2507820  18.2037187  45.4279634  74.0648459  18.4952080  45.3162405
  73.1866961  17.5497050  44.8537927  73.3610559  18.1502382  45.3268471
  69.1215728  21.6758705  50.5551946  69.7589675  21.4370452  51.1003739
  69.5470800  21.8795864  49.8205106  69.2791894  21.6709715  50.5269103
  63.8128371  23.9147041  54.4386249  63.8532516  24.1861892  53.6106029
  64.3722895  24.4388949  54.8544037  63.9011716  24.0322796  54.3778138
  69.7618543  16.8960994  44.8926835  70.1463696  16.6768701  45.6443380
  69.5130163  17.7223940  45.0227911  69.7820616  16.9859141  45.0227911
  71.5037200  22.1531127  52.2345732  71.5776208  21.9906299  53.0887582
  72.3206706  22.3421317  51.9906214  71.6353559  22.1567870  52.3243757
  65.2642957  22.4988990  49.2640175  64.4381074  22.7450727  49.1374454
  65.3254948  22.4201071  50.1302233  65.1517124  22.5233939  49.3729120
  67.4818981   8.5657931  50.2235616  66.6141406   8.6380531  50.2893225
  67.7694185   9.3680010  50.4123591  67.3958729   8.6952078  50.2610382
  70.0441786  25.1165870  46.9659205  70.3340084  24.7254852  46.2418432
  70.7745267  25.2982575  47.4064481  70.1948670  25.0859684  46.9242012
  70.6336531  19.9183616  58.0512336  70.1348225  20.6299384  58.1297224
  71.4436755  20.2384283  58.0130498  70.6792638  20.0710465  58.0568904
  67.9847701  27.0933253  50.0319355  67.7647997  26.8030608  50.8246022
  67.7642223  26.4348208  49.5037267  67.9195296  26.9532961  50.0708264
  66.8964649  19.1806569  52.2975057  66.6077897  18.5544041  52.8320784
  67.7647997  19.1226857  52.3639737  66.9824900  19.0794114  52.3866011
  77.6842546  14.3241353  52.6157039  77.3407312  13.6031688  52.9664288
  77.7835589  14.1155204  51.7735397  77.6484589  14.1865556  52.5428719
  70.1515657  28.4662643  48.8150047  70.8039715  27.9339085  49.0441073
  69.4541266  28.1131295  49.2017921  70.1446375  28.3352166  48.9062215
  67.0996922  20.8201820  48.2217422  67.8542890  21.2014859  48.4352884
  66.5067535  21.2712964  48.6764118  67.1233636  20.9430648  48.3200300
  78.1455575  20.7867057  48.1581027  78.7113608  21.4460267  48.0739570
  77.4983479  21.1316755  48.6297429  78.1334332  20.9348998  48.2153783
  69.5603589  12.7764661  63.3474634  68.7503365  13.0822440  63.2364476
  70.0378276  13.4970243  63.4627218  69.5107068  12.9279262  63.3481705
  68.4195149  21.9910382  53.5957537  67.8975902  22.1310673  54.2809402
  68.8069169  21.2321046  53.7859654  68.3998849  21.8995906  53.7258614
  65.4086333  12.0416190  47.6652492  65.1211128  11.6717461  46.9284439
  66.0956801  12.5111046  47.4036197  65.4675230  12.0563160  47.5167568
  74.6162154  23.7305841  47.5818106  74.3748829  22.9973702  47.1745171
  74.7963486  24.2792698  46.9284439  74.6069778  23.7028232  47.4248329
  69.8461474  19.0214401  48.9939028  69.6504257  19.6289135  48.3999331
  70.0695820  18.3282345  48.5130702  69.8496115  19.0091926  48.8355109
  68.2440004  15.9069139  49.1119897  68.9662656  16.0710297  48.6523703
  67.7647997  16.6278803  49.0059236  68.2803735  16.0367368  49.0285511
  76.2033512  12.2432937  54.4916581  75.3644612  12.2694216  54.2554845
  76.2737879  12.8903673  55.0721928  76.0901905  12.3429063  54.5425698
  65.8947621  18.3127211  58.2174036  66.4068718  18.5911464  57.5682796
  65.6083963  19.0516505  58.5836849  65.9282484  18.4629565  58.1763914
  69.4131346  10.4053600  58.2775078  69.2214543  10.4208734  59.1274501
  70.2629942  10.6017274  58.2541733  69.5107068  10.4367951  58.3998373
  63.7978259  12.9344581  56.2558894  63.6563751  12.0828522  56.3803402
  64.0818823  12.9773242  55.4321100  63.8186105  12.8144331  56.1526519
  73.9516852  14.7711671  50.4003383  73.7051566  14.6907422  51.2340172
  74.2801975  13.9865139  50.2065910  73.9638095  14.6437937  50.4950906
  77.8464900  21.4795031  54.1890164  77.7079260  22.1776076  54.6938906
  77.0664898  21.3243687  53.8326346  77.7108127  21.5595197  54.2116438
  69.9113879  17.5068390  59.8126366  70.0557255  18.0869598  59.1769476
  70.2589527  17.8844687  60.5176220  69.9841340  17.6489094  59.8225361
  72.0833796  16.7058558  57.5951497  71.3357110  16.8989573  57.1899775
  72.2375322  15.8803778  57.3575619  71.9956224  16.6123670  57.4996903
  68.9841634  25.6971162  56.6787393  69.1331198  25.1374078  56.0260797
  69.7641636  25.7763163  57.0619911  69.1215728  25.6256727  56.6384342
  71.5094935  25.8685805  57.9571883  71.4338606  25.1994615  58.5122672
  71.4384794  26.5703593  58.4712550  71.4875541  25.8730712  58.1148732
  72.3235573  10.6009109  58.4846901  72.7808187  11.3333083  58.6119693
  72.3991902  10.1775574  59.2434157  72.4026543  10.6466347  58.6147978
  64.5668565  10.8474929  59.5736345  64.0310754  10.2355287  59.8897112
  64.6286329  11.4223065  60.2270011  64.4964197  10.8421856  59.7171772
  72.1665181  24.3886803  48.7895489  72.9315073  24.1196447  48.4678154
  72.0643271  23.9036814  49.5065552  72.2646677  24.2776368  48.8475317
  70.2017951  12.5911213  55.3288725  69.4114026  12.4102673  55.6506061
  70.5978574  11.8138165  55.3119020  70.1434827  12.4498674  55.3741273
  74.6883842  21.4198987  40.7695439  75.4556827  21.4799112  40.3601291
  74.2415151  20.8479429  40.2851757  74.7357269  21.3435563  40.6373149
  75.5861638  20.2253643  53.0548171  74.9106639  19.9938875  53.5561558
  75.5954014  19.6174826  52.4290276  75.4880142  20.1012568  53.0364323
  72.7155782  15.0671472  59.8112224  72.6514923  15.9281428  59.6832361
  72.8552969  14.7503465  59.0107775  72.7271252  15.1471639  59.6740437
  77.5878372  23.0818775  45.2858349  77.6698210  23.8885762  44.9619800
  78.0728114  23.1014735  46.0099122  77.6715530  23.2039438  45.3445248
  71.3974875  17.7603611  53.9528427  70.9737125  17.9608110  53.2167445
  71.2219731  16.9132459  54.0652727  71.3085756  17.6652393  53.8602117
  70.8986569  29.2754124  56.4149884  71.3882499  28.5764914  56.2325549
  70.3270801  28.9777994  57.0025942  70.8871099  29.1280348  56.4750925
  66.6857320  18.2555663  49.3856399  66.8421940  18.1902466  50.2412392
  67.0257913  19.0304215  49.1735079  66.7590555  18.3604861  49.4810994
  73.2236465  17.6313546  48.2549763  73.7652010  17.1283928  48.7188383
  73.5383024  17.5778741  47.4439248  73.3500862  17.5492967  48.2033575
  71.3922915  23.0230898  45.5389791  71.4615735  22.1645436  45.6782791
  72.1711370  23.2402779  45.2108815  71.5175765  22.9283762  45.5106948
  74.3725734  12.5249851  58.3072063  74.5867704  11.8860765  57.7535417
  73.7559634  12.9695675  57.8779925  74.3131064  12.4959995  58.1622494
  75.7830402  25.4468599  49.7526284  75.3910194  25.1435314  49.0349150
  75.9383475  26.2837689  49.5631238  75.7483992  25.5252436  49.6182781
  63.2591582  15.4390613  49.7017167  63.6390547  15.8575158  49.0377434
  62.6846947  16.0204069  50.0086010  63.2302907  15.5868472  49.6493908
  75.9470077  22.0118588  49.6932315  75.5884732  22.1833231  50.4696347
  75.4608788  22.4731794  49.1360313  75.8228774  22.1057559  49.7257584
  70.7358442  17.6917753  42.2332549  71.0250967  18.4682636  42.5076123
  70.8230241  17.1806485  42.9347048  70.7912699  17.7309672  42.3775047
  77.1074816  22.9022484  60.6399515  77.7454537  22.4082680  60.3061972
  76.4648908  22.8299885  60.0551742  77.1069043  22.8181493  60.5041870
  77.1629073  23.5942292  57.2804872  77.9521451  23.2431357  57.4006954
  77.3372671  24.4078681  57.0181506  77.3049355  23.6628149  57.2592740
  66.9022383  17.0051018  54.3332661  66.0610390  16.9054892  54.5411555
  67.1112391  17.7746498  54.6846982  66.8087076  17.1043061  54.4159976
  64.3797950  14.6270555  52.1617412  63.9854648  14.7013567  51.3867521
  63.8238067  15.0128501  52.7125773  64.2400763  14.6952330  52.1285072
  70.7139048  14.9332417  53.5830259  70.4102186  14.3788406  54.1840666
  70.0118469  15.1124627  53.0958293  70.5655258  14.8777200  53.5999964
  69.7705145  12.2432937  48.1474960  70.0464880  11.5251850  47.7352528
  70.3703815  12.8417857  47.9396067  69.8998410  12.2253308  48.0555722
  68.7757399  22.1482138  58.2902356  68.6677754  22.1584200  59.1564414
  68.9853181  22.9736918  58.1007310  68.7907510  22.2723213  58.3906448
  66.7931191  19.3994780  55.7524294  66.2019125  20.0404279  55.7227309
  67.5552215  19.8232398  55.7255593  66.8179452  19.5570619  55.7439441
  67.1891814  10.5596778  56.4192312  67.6493296  10.6335708  57.1567435
  67.2347921  11.3578032  56.0692133  67.2642369  10.6890925  56.4765068
  68.8375164  11.2263473  60.9864339  68.4460729  10.5796820  61.4220116
  69.0061027  11.8174908  61.6058594  68.8046074  11.2177741  61.1427045
  76.5520708  24.8504092  53.1856318  76.3540396  25.3394906  52.4912530
  75.9308419  25.0545333  53.7640452  76.4308272  24.9520630  53.1679542
  70.6128686  16.6188989  47.5266563  71.3570731  17.0063265  47.7649513
  70.7589382  15.7746414  47.6907050  70.7439271  16.5519462  47.5860532
  73.6006562  12.1914462  53.4260482  73.1266516  11.6656224  53.9365793
  73.9724698  11.6443935  52.8575344  73.5856451  12.0330459  53.4175629
  63.9779592  14.1885969  58.7944028  64.8405205  14.0881678  58.7081358
  63.6471375  13.6080678  58.2329600  64.0564788  14.0877595  58.6989434
  75.5290061  13.0851017  46.4886236  75.0013080  13.1679761  45.7991945
  75.9885770  13.8268888  46.4850880  75.5191912  13.2071679  46.3860931
  67.3381378  13.0128418  55.4554446  66.7134448  13.0246810  54.8480399
  67.0026973  13.4888593  56.1045686  67.1966870  13.0846935  55.4611014
  67.5223127  11.3553536  41.5127131  67.1735931  12.0073261  41.9758680
  67.0419572  11.3410649  40.7851002  67.3993370  11.4496590  41.4738222
  64.0507053  21.0728878  56.8958210  63.5206978  20.3821317  56.9453185
  64.3232147  21.0639063  56.0670919  64.0131776  20.9696010  56.7805626
  75.0827144  21.6554580  45.6195893  75.8061343  22.1212693  45.4760466
  74.6427735  21.7228190  44.8693490  75.1242836  21.7338417  45.4880674
  74.2513299  18.5152122  56.8696582  73.6370292  17.9710173  57.1645217
  74.7680584  18.0016359  56.3902398  74.2368961  18.3588532  56.8420810
  73.4909596  19.5856392  54.6040880  73.0637204  18.9606111  54.1706316
  73.4834541  19.3031314  55.4299888  73.4268737  19.4509173  54.6620708
  66.6072123  14.6221566  57.6729314  66.7665610  13.8664890  58.0781036
  66.4265017  15.1712505  58.3270052  66.6037482  14.5915379  57.8292020
  71.8195306  10.4625147  54.8183414  71.8437793   9.9285259  54.1296194
  72.0706779   9.9542456  55.4809005  71.8605224  10.3086051  54.8148059
  59.3302896  17.7456642  54.2526559  59.2246345  17.7003486  53.3878643
  58.5803116  18.0910423  54.5340843  59.2038499  17.7897550  54.1663888
  68.0996628   9.1895965  54.1989159  68.1395000   9.6905172  54.9123866
  67.2746293   9.2806359  53.9295082  67.9836154   9.2777782  54.2639697
  70.2826241  18.7556705  62.3009453  69.4321871  18.8928420  62.4367098
  70.4454369  18.0220484  62.7457155  70.1810104  18.6670806  62.3865053
  69.5210991  15.7056475  56.4963058  68.6902921  15.8730293  56.2898306
  69.4662509  15.3292426  57.2811943  69.3900406  15.6746206  56.5811586
  67.8947035  13.9812067  47.0253176  68.0349996  14.4784531  47.7281817
  68.3929568  13.2798361  47.1667389  67.9888116  13.9514045  47.1504755
  67.9247258  14.8479178  44.3545752  68.5592337  15.4439603  44.2895214
  68.0072868  14.5482635  45.1691622  68.0303809  14.8920086  44.4648839
  69.5026240  10.7793153  44.3291194  69.8242082  10.2996236  43.6750457
  69.7653184  11.5892799  44.1382006  69.5892266  10.8283051  44.2046686
  72.7323213  21.8012027  57.8490010  72.2248304  22.3547874  58.2930641
  72.4349859  21.8620317  57.0308785  72.6128098  21.8918339  57.7938467
  64.4300246  17.0447018  47.6235298  64.9392475  17.6411526  48.0046604
  64.9034518  16.7772992  46.9411718  64.5743621  17.0932834  47.5789821
  75.3430994  25.7175285  45.7793954  74.6260303  25.5436147  45.3141191
  75.9937731  25.4827857  45.2469440  75.3332844  25.6571078  45.6323172
  77.9278965  14.5939874  49.5235259  77.2570155  15.1369576  49.3948325
  78.6218715  15.0634729  49.2816954  77.9307832  14.7438145  49.4690787
  71.9765699  26.7336586  54.7547017  71.7531353  25.9755415  55.1231044
  71.4875542  26.7634607  54.0327457  71.8709148  26.6258810  54.7023758
  66.7890777  13.6803277  50.4908479  66.0702766  14.0967410  50.7581342
  67.1603140  14.2457516  49.9400117  66.7382709  13.8252558  50.4491286
  76.0890358  14.3131126  56.3810474  76.0688285  14.1314421  57.2345253
  76.1369559  15.1843144  56.3570058  76.0924999  14.4147664  56.5033769
  74.0336688  20.9018318  62.3058951  73.9932543  20.2567995  61.7204107
  74.8460006  20.8454935  62.6184363  74.1479841  20.7977285  62.2655900
  70.6244155  26.9537044  52.2084102  70.2104554  26.2911174  51.8187944
  71.3091530  27.1014903  51.6879796  70.6642527  26.8777702  52.0740599
  73.9909450  26.1127129  52.9607718  73.5925733  26.2229399  52.1928539
  73.3760669  26.3209195  53.5434278  73.8408339  26.1600697  52.9339018
  72.5637352  12.7201277  45.8281858  71.9702191  13.0418273  45.2766425
  72.6012629  11.8742372  45.6202964  72.4811741  12.6425605  45.7164630
  75.4395168  12.6780781  49.2583608  75.2108861  12.7013483  48.4161967
  75.6993244  11.8538248  49.3778619  75.4441356  12.5596861  49.1508806
  69.7214397  14.5315254  58.8608709  69.2093300  13.9236437  59.2193740
  69.5493893  15.2471847  59.3282684  69.6204034  14.5478554  58.9824932
  64.5680111  12.9752830  61.5111070  64.3982702  13.6354205  60.9659277
  64.1246061  13.1859391  62.2323560  64.4779445  13.1038812  61.5372700
  68.4939931  11.2157328  50.5537804  68.9697297  11.5774408  49.9187985
  67.9928530  11.8713795  50.8337947  68.4905290  11.3651516  50.5014545
  61.4682176  15.8799695  56.7699560  60.9208895  15.2100341  56.8880429
  62.2574554  15.5129543  56.8343028  61.5034360  15.7264682  56.7968261
  71.3166584  15.5407152  62.2662971  72.0677911  15.8558829  62.5802526
  71.5089161  15.3386323  61.4396893  71.4557998  15.5574534  62.1906367
  60.2269145  15.0920503  53.9245583  60.0490906  14.6397112  54.6500499
  59.9388167  15.8946665  54.1084061  60.1582099  15.1443061  54.0589086
  75.8892726  16.3478220  53.1622974  76.3846392  15.6301216  53.1226994
  75.0792502  16.0449018  53.0477461  75.8436620  16.1975867  53.1396699
  71.3351338  20.1976034  45.3119978  70.5262661  19.8742707  45.2653288
  71.8426247  19.4909256  45.2448227  71.2901005  20.0457350  45.2950272
  61.9641615  17.6248227  51.0367342  61.0987135  17.6133917  50.9250114
  62.0640431  17.4378450  51.8838482  61.8515782  17.5954288  51.1456287
  77.9544545  19.0981908  55.8500102  78.3799617  18.5756330  55.2970527
  77.5901465  19.6962745  55.3288725  77.9631148  19.1092135  55.6909112
  67.5898625  27.3946125  54.6097448  67.9045184  28.2082514  54.6175230
  67.9992038  27.0096344  55.2779607  67.6966723  27.4574828  54.7101540
  74.5423145  22.8116172  52.1801260  75.0134323  23.5256435  52.3491245
  74.8783323  22.2114922  52.7161129  74.6618260  22.8287637  52.2833636
  75.1797091  22.6034106  58.9428953  74.6318037  21.9791990  58.6749018
  75.6410120  22.7928378  58.2273032  75.1664301  22.5393157  58.7979384
  70.5285755   9.5860056  46.6038820  71.3501449   9.7558369  46.3620515
  70.0655405   9.7407317  45.8805117  70.5816917   9.6341789  46.4610464
  64.9311645  21.3419234  54.2576056  65.5356503  21.3015068  53.6289877
  64.7238958  22.1890386  54.2880112  64.9900543  21.4607236  54.1692173
  74.7455417  23.6085179  55.4738294  75.5653791  23.4648145  55.7354589
  74.4649495  24.2331378  56.0154732  74.8252161  23.6795531  55.5926233
  60.1662928  20.3253851  54.1274979  60.0687206  19.5150123  54.4365036
  60.9491797  20.3045645  53.7421248  60.2679064  20.2020942  54.1161842
  73.5759693  35.9227078  50.8486438  73.3409877  35.0894731  50.7418707
  73.7145334  36.2031744  50.0347639  73.5615355  35.8410582  50.7128793
  75.8749780  28.0912809  53.7470746  75.2554812  27.5005456  53.5780761
  75.7733644  28.6824244  53.1135069  75.7687456  28.0916892  53.6275735
  75.6018913  31.6365091  55.9914315  75.4777610  32.2227536  56.6264134
  76.2537198  31.1425286  56.2926590  75.6792563  31.6503895  56.1300244
  75.1377017  40.8012749  52.1242644  74.6544596  41.5263239  52.1002228
  75.9500336  41.0988879  52.2352802  75.1867765  40.9515103  52.1369924
  77.9921215  41.3168925  52.2762924  78.6941794  40.8020914  52.3335681
  77.9118698  41.6443076  53.0809799  78.0844975  41.2883151  52.4035716
  77.7057558  25.6687355  44.3425544  77.5233131  25.8859236  43.5166537
  78.5683171  25.7826368  44.3984159  77.8062148  25.7177253  44.2280031
  77.3171990  37.5075277  51.7848532  78.1560890  37.7398210  51.8322294
  77.3483759  36.6379589  51.7155568  77.4453708  37.4132224  51.7813177
  77.9424693  37.9276152  56.0861838  78.4822918  37.7847283  56.7565210
  77.2594639  38.3272903  56.4545864  77.9216847  37.9655823  56.2396260
  73.3461838  34.1476443  56.2396259  73.0800253  33.3315560  56.3987250
  73.3600402  34.1929599  55.3691775  73.3086561  34.0333348  56.1349741
  77.2519585  28.9461528  42.8548017  76.5377762  28.6599707  43.2670450
  77.7363554  29.2858153  43.4954405  77.2178949  28.9543177  43.0103652
  78.0960445  27.6854821  58.8863267  77.4032241  27.2151801  59.1323999
  78.7120772  27.4593126  59.4604974  78.0844975  27.5821953  59.0072420
  73.7555252  34.9335222  53.5208004  73.5730825  34.9082109  52.6680296
  74.4904921  35.4034160  53.5596912  73.8369316  34.9996585  53.4005922
  76.8201004  31.6520225  60.0290112  77.5440976  31.6373256  60.5155007
  76.9217140  32.3615581  59.5312080  76.9419213  31.7544929  60.0268899
  73.7226162  31.8128723  53.6707070  74.2999665  31.6765174  54.3099316
  73.0240224  31.3564507  53.9252655  73.7047184  31.7250989  53.8029360
  69.1984995  30.6640616  50.3854889  69.2845247  30.2872484  51.1668419
  69.8260793  30.2901062  49.9074847  69.3041546  30.5526098  50.4300366
  74.7860954  39.4332349  54.4386249  74.8265099  39.7047200  53.6106029
  75.3455478  39.9574257  54.8544037  74.8744300  39.5508104  54.3778138
  76.2375540  38.0174298  49.2640175  75.4113658  38.2636035  49.1374454
  76.2987532  37.9386379  50.1302233  76.1249707  38.0419247  49.3729120
  78.4551564  24.0843239  50.2235616  77.5873990  24.1565839  50.2893225
  78.7426768  24.8865318  50.4123591  78.3691312  24.2137386  50.2610382
  77.8697232  34.6991877  52.2975057  77.5810481  34.0729348  52.8320784
  78.7380580  34.6412165  52.3639737  77.9557484  34.5979421  52.3866011
  76.3818916  27.5601498  47.6652492  76.0943712  27.1902769  46.9284439
  77.0689384  28.0296354  47.4036197  76.4407813  27.5748468  47.5167568
  76.8680204  33.8312519  58.2174036  77.3801301  34.1096772  57.5682796
  76.5816547  34.5701813  58.5836849  76.9015068  33.9814873  58.1763914
  73.9547111  28.3382711  48.5137773  74.0563247  29.1408872  48.8418748
  74.7502998  28.1370047  48.2160853  74.0875016  28.4268610  48.5173128
  74.7710843  28.4529889  56.2558894  74.6296335  27.6013830  56.3803402
  75.0551406  28.4958550  55.4321100  74.7918689  28.3329639  56.1526519
  75.5401148  26.3660237  59.5736345  75.0043338  25.7540595  59.8897112
  75.6018913  26.9408373  60.2270011  75.4696781  26.3607164  59.7171772
  77.6589904  33.7740971  49.3856399  77.8154523  33.7087774  50.2412392
  77.9990497  34.5489523  49.1735079  77.7323139  33.8790169  49.4810994
  74.2324165  30.9575921  49.7017167  74.6123130  31.3760466  49.0377434
  73.6579530  31.5389377  50.0086010  74.2035490  31.1053780  49.6493908
  77.8754967  32.5236326  54.3332661  77.0342974  32.4240200  54.5411555
  78.0844975  33.2931806  54.6846982  77.7819660  32.6228369  54.4159976
  75.3530534  30.1455863  52.1617412  74.9587232  30.2198875  51.3867521
  74.7970651  30.5313809  52.7125773  75.2133346  30.2137638  52.1285072
  77.7663775  34.9180088  55.7524294  77.1751708  35.5589586  55.7227309
  78.5284798  35.3417706  55.7255593  77.7912035  35.0755927  55.7439441
  78.1624398  26.0782086  56.4192312  78.6225879  26.1521015  57.1567435
  78.2080504  26.8763340  56.0692133  78.2374953  26.2076233  56.4765068
  74.9512175  29.7071277  58.7944028  75.8137788  29.6066986  58.7081358
  74.6203958  29.1265986  58.2329600  75.0297372  29.6062903  58.6989434
  78.3113961  28.5313726  55.4554446  77.6867032  28.5432118  54.8480399
  77.9759556  29.0073901  56.1045686  78.1699453  28.6032243  55.4611014
  78.4955710  26.8738844  41.5127131  78.1468514  27.5258569  41.9758680
  78.0152156  26.8595957  40.7851002  78.3725954  26.9681898  41.4738222
  75.0239637  36.5914186  56.8958210  74.4939561  35.9006625  56.9453185
  75.2964730  36.5824371  56.0670919  74.9864359  36.4881318  56.7805626
  77.5804707  30.1406873  57.6729314  77.7398194  29.3850198  58.0781036
  77.3997600  30.6897813  58.3270052  77.5770066  30.1100687  57.8292020
  70.3035479  33.2641950  54.2526559  70.1978928  33.2188794  53.3878643
  69.5535699  33.6095731  54.5340843  70.1771082  33.3082858  54.1663888
  75.4032829  32.5632326  47.6235298  75.9125058  33.1596834  48.0046604
  75.8767101  32.2958300  46.9411718  75.5476205  32.6118142  47.5789821
  77.7623361  29.1988585  50.4908479  77.0435350  29.6152718  50.7581342
  78.1335723  29.7642824  49.9400117  77.7115293  29.3437866  50.4491286
  75.5412695  28.4938138  61.5111070  75.3715285  29.1539513  60.9659277
  75.0978645  28.7044699  62.2323560  75.4512029  28.6224120  61.5372700
  72.4414759  31.3985003  56.7699560  71.8941479  30.7285649  56.8880429
  73.2307138  31.0314851  56.8343028  72.4766943  31.2449990  56.7968261
  71.2001729  30.6105811  53.9245583  71.0223490  30.1582420  54.6500499
  70.9120751  31.4131972  54.1084061  71.1314682  30.6628369  54.0589086
  72.9374199  33.1433535  51.0367342  72.0719718  33.1319225  50.9250114
  73.0373015  32.9563758  51.8838482  72.8248366  33.1139596  51.1456287
  75.9044229  36.8604542  54.2576056  76.5089086  36.8200376  53.6289877
  75.6971541  37.7075694  54.2880112  75.9633126  36.9792544  54.1692173
  71.1395511  35.8439159  54.1274979  71.0419789  35.0335431  54.4365036
  71.9224381  35.8230953  53.7421248  71.2411648  35.7206250  54.1161842
  73.2710517  12.8605210  37.7826485  73.0360701  12.0272862  37.6758754
  73.4096157  13.1409875  36.9687686  73.2566179  12.7788713  37.6468840
  74.8327841  17.7390880  39.0582691  74.3495420  18.4641370  39.0342275
  75.6451160  18.0367010  39.1692849  74.8818589  17.8893234  39.0709970
  77.6872039  18.2547056  39.2102971  78.3892618  17.7399045  39.2675728
  77.6069522  18.5821208  40.0149846  77.7795799  18.2261282  39.3375763
  77.0122814  14.4453408  38.7188579  77.8511713  14.6776341  38.7662341
  77.0434583  13.5757720  38.6495614  77.1404532  14.3510355  38.7153224
  77.6375517  14.8654283  43.0201885  78.1773742  14.7225414  43.6905257
  76.9545463  15.2651034  43.3885911  77.6167671  14.9033954  43.1736306
  73.0412662  11.0854574  43.1736306  72.7751077  10.2693691  43.3327296
  73.0551226  11.1307730  42.3031822  73.0037384  10.9711479  43.0689788
  73.4506076  11.8713354  40.4548050  73.2681649  11.8460240  39.6020343
  74.1855745  12.3412292  40.4936959  73.5320140  11.9374716  40.3345969
  75.9326364  14.9552429  36.1980222  75.1064482  15.2014166  36.0714501
  75.9938355  14.8764510  37.0642280  75.8200531  14.9797378  36.3069167
  78.6531109  19.5496692  36.9659402  78.4331404  19.2594047  37.7586069
  78.4325631  18.8911647  36.4377314  78.5878703  19.4096400  37.0048311
  77.7680329  13.2765259  35.1557469  78.5226297  13.6578299  35.3692931
  77.1750942  13.7276403  35.6104165  77.7917043  13.3994087  35.2540347
  77.4614599  11.8558219  42.6864341  76.8702532  12.4967718  42.6567356
  78.2235622  12.2795837  42.6595640  77.4862859  12.0134058  42.6779488
  74.7190461  13.5292317  43.8298257  74.1890385  12.8384756  43.8793232
  74.9915554  13.5202502  43.0010966  74.6815183  13.4259449  43.7145673
  69.9986303  10.2020081  41.1866605  69.8929752  10.1566925  40.3218689
  69.2486523  10.5473862  41.4680890  69.8721906  10.2460989  41.1003935
  78.2582033  19.8509565  41.5437495  78.5728592  20.6645953  41.5515276
  78.6675446  19.4659783  42.2119654  78.3650131  19.9138267  41.6441586
  75.5995053  13.7982673  41.1916103  76.2039910  13.7578507  40.5629924
  75.3922365  14.6453825  41.2220159  75.6583950  13.9170676  41.1032220
  70.8346335  12.7817291  41.0615026  70.7370613  11.9713562  41.3705083
  71.6175205  12.7609084  40.6761294  70.9362472  12.6584381  41.0501889
  26.3737452  30.5604500  74.2966437  26.3431456  31.4149137  74.4684706
  26.9718800  30.2599792  74.8552581  26.4574610  30.6420996  74.4041239
  13.9578276  39.1842869  74.8156599  13.2061176  38.8058407  74.5872644
  14.4064288  39.2161302  74.0675409  13.9127943  39.1328476  74.6714101
  19.4103236  39.6068238  70.2442146  19.0754605  40.2845160  69.8086368
  19.9230107  39.2173550  69.6559018  19.4368817  39.6492816  70.0928937
  18.9507527  41.5582507  76.1853258  19.3346907  42.1269406  75.6458033
  18.8866669  40.8332017  75.7059074  18.9980955  41.5357970  76.0347120
  24.1954026  33.1356802  72.5684747  24.0793552  33.8864488  72.9976885
  24.9909913  32.8780755  72.8180834  24.2958616  33.2091649  72.6688838
  15.3763772  44.1138850  78.4834227  16.0201228  44.5552014  78.8730386
  15.7020028  43.3092276  78.3964486  15.5195601  44.0604045  78.5279705
  16.0784352  37.1250825  73.8554089  16.4000193  37.6656032  73.2515397
  16.7256448  36.5547596  73.9876379  16.2210407  37.1210000  73.7861125
  18.3173995  35.5137265  73.9268267  18.7567631  34.9054365  74.3723040
  18.1678658  35.1344638  73.1553732  18.3595461  35.3675736  73.8787435
  21.9183332  33.8664446  70.8799037  21.8334627  34.7225413  71.0248605
  22.4067715  33.5908770  71.5481196  21.9772229  33.9521768  71.0001118
  22.8501765  30.4849240  72.3796772  22.3213236  30.7008874  73.0394078
  23.3726785  31.1785379  72.2997741  22.8490218  30.6192377  72.4652371
  28.3049818  36.0595545  77.7529816  27.4747521  36.2706188  77.9163233
  28.2559070  35.2332599  77.4772100  28.1756553  35.9685151  77.7367182
  14.7401373  34.3812457  71.1804240  14.1558588  34.8862489  71.5870104
  14.3371468  34.1554844  70.4400832  14.5940677  34.4220705  71.1309265
  19.1978587  30.6278109  69.6573160  19.4374591  30.8356093  68.8448503
  19.5194428  29.8235618  69.7662105  19.2815745  30.5392210  69.5533713
  25.5614133  36.7294899  77.8894532  25.1249365  36.7331642  78.6453503
  25.2277049  37.4100398  77.4574109  25.4476753  36.8307355  77.9375365
  12.4087969  28.2415997  68.7133284  11.6946146  27.9554176  69.1255717
  12.8931938  28.5812622  69.3539672  12.3747332  28.2497646  68.8688919
  28.6958479  33.4475819  76.7814169  29.3574913  32.8866488  76.6810078
  28.0549891  32.9527850  77.1066860  28.6987347  33.2912228  76.8146509
  19.5835287  36.7445951  69.0895092  19.9986436  36.4130974  68.3979588
  18.7527217  36.5114853  68.9615229  19.5223296  36.6617206  68.9685940
  24.9823310  34.4641202  76.5226158  25.2178899  34.6086400  75.6953009
  25.1312874  35.2283610  76.9157672  25.0389113  34.5980256  76.4589762
  26.8113767  33.3042867  74.3595762  27.1421984  33.8370508  73.7535857
  27.3846855  33.3581755  75.0157713  26.9447446  33.3912436  74.3673544
  22.2768677  32.9956510  68.2756294  22.1948840  33.0658697  69.1411281
  22.9148398  33.5586254  68.0840035  22.3588515  33.0895481  68.3746243
  27.9193118  28.5453364  75.8635923  27.6629683  27.7333306  75.6733806
  28.7622432  28.5530931  75.6366111  28.0059144  28.4265362  75.8020741
  19.3808787  33.0176964  71.2864900  20.1949426  33.3091857  71.1747672
  19.3167929  32.3636827  70.7123193  19.4911526  32.9642159  71.1853738
  15.8919511  31.7100771  70.7512102  16.2764663  31.4908478  71.5028647
  15.6431131  32.5363717  70.8813178  15.9121583  31.7998918  70.8813178
  16.1742753  39.9305647  72.8244472  16.4641052  39.5394629  72.1003699
  16.9046234  40.1122352  73.2649747  16.3249638  39.8999461  72.7827279
  14.1148669  41.9073030  75.8904622  13.8948964  41.6170385  76.6831289
  13.8943191  41.2487985  75.3622534  14.0496263  41.7672738  75.9293531
  16.2816625  43.2802420  74.6735314  16.9340683  42.7478862  74.9026340
  15.5842233  42.9271072  75.0603188  16.2747343  43.1491943  74.7647482
  24.2756543  35.6006834  74.0166293  24.8414576  36.2600044  73.9324836
  23.6284446  35.9456532  74.4882696  24.2635299  35.7488775  74.0739050
  20.7463121  38.5445618  73.4403373  20.5049797  37.8113479  73.0330438
  20.9264454  39.0932475  72.7869706  20.7370745  38.5168009  73.2833596
  25.4719241  35.6513061  70.8091930  25.0926050  34.8650199  70.8021219
  24.8085486  36.1999918  70.6663574  25.3177716  35.6157885  70.7872727
  18.2966149  39.2026580  74.6480756  19.0616040  38.9336224  74.3263420
  18.1944239  38.7176591  75.3650819  18.3947644  39.0916145  74.7060584
  20.8184810  36.2338764  66.6280706  21.5857795  36.2938889  66.2186557
  20.3716118  35.6619206  66.1437024  20.8658237  36.1575340  66.4958416
  23.7179340  37.8958552  71.1443616  23.7999177  38.7025539  70.8205067
  24.2029082  37.9154512  71.8684389  23.8016498  38.0179215  71.2030514
  19.3537432  32.4453323  74.1135030  19.8952978  31.9423704  74.5773650
  19.6683992  32.3918518  73.3024515  19.4801830  32.3632744  74.0618842
  17.5223882  37.8370675  71.3975058  17.5916703  36.9785213  71.5368058
  18.3012337  38.0542556  71.0694082  17.6476732  37.7423539  71.3692215
  21.9131370  40.2608376  75.6111551  21.5211162  39.9575091  74.8934417
  22.0684442  41.0977466  75.4216505  21.8784960  40.3392213  75.4768048
  22.0771045  36.8258365  75.5517581  21.7185699  36.9973008  76.3281614
  21.5909755  37.2871571  74.9945580  21.9529741  36.9197336  75.5842851
  16.8659410  32.5057530  68.0917816  17.1551935  33.2822413  68.3661390
  16.9531209  31.9946262  68.7932315  16.9213666  32.5449449  68.2360314
  22.6821675  39.6643869  79.0441585  22.4841364  40.1534683  78.3497797
  22.0609386  39.8685110  79.6225719  22.5609239  39.7660407  79.0264808
  21.6591029  27.8990794  72.3471503  21.1314048  27.9819538  71.6577211
  22.1186737  28.6408665  72.3436147  21.6492879  28.0211456  72.2446198
  13.6524094  26.1693313  67.3712398  13.3036898  26.8213038  67.8343947
  13.1720540  26.1550426  66.6436269  13.5294338  26.2636367  67.3323489
  21.2128111  36.4694357  71.4781160  21.9362310  36.9352470  71.3345733
  20.7728702  36.5367967  70.7278757  21.2543804  36.5478194  71.3465941
  14.0548225  29.6618955  70.2131019  14.6893305  30.2579380  70.1480481
  14.1373836  29.3622412  71.0276889  14.1604776  29.7059863  70.3234106
  21.4731961  40.5315062  71.6379221  20.7561271  40.3575924  71.1726458
  22.1238699  40.2967634  71.1054707  21.4633812  40.4710855  71.4908439
  16.7545123  41.7676821  78.0669369  16.3405522  41.1050951  77.6773210
  17.4392497  41.9154680  77.5465063  16.7943495  41.6917479  77.9325866
  20.1210417  40.9266906  78.8192985  19.7226700  41.0369176  78.0513806
  19.5061637  41.1348972  79.4019545  19.9709306  40.9740474  78.7924285
  27.8552260  35.5018873  72.2036076  28.2385866  36.2510229  72.4334173
  27.0596373  35.7484692  71.9448065  27.7946042  35.6488567  72.1993650
  16.6667551  28.1738304  69.7796455  17.0466516  28.1917934  68.9947570
  15.9260147  28.6192293  69.6587302  16.6136389  28.2420079  69.6460023
  17.4652305  35.0115811  71.1705245  16.6563628  34.6882484  71.1238554
  17.9727214  34.3049033  71.1033494  17.4201972  34.8597127  71.1535539
  37.3470035  46.0789808  74.2966437  37.3164040  46.9334445  74.4684706
  37.9451384  45.7785100  74.8552581  37.4307193  46.1606304  74.4041239
  30.5469720  45.1665459  79.0519367  29.6907616  45.3273957  79.1028484
  30.5937374  44.2957523  79.0724428  30.4268832  45.0616261  79.0625433
  24.9310860  54.7028177  74.8156599  24.1793759  54.3243715  74.5872644
  25.3796872  54.7346610  74.0675409  24.8860527  54.6513784  74.6714101
  30.3835820  55.1253546  70.2442146  30.0487188  55.8030468  69.8086368
  30.8962690  54.7358857  69.6559018  30.4101401  55.1678124  70.0928937
  29.9240111  57.0767815  76.1853258  30.3079490  57.6454714  75.6458033
  29.8599252  56.3517325  75.7059074  29.9713538  57.0543278  76.0347120
  33.3921541  47.2257503  81.6951019  33.9377501  47.9042589  81.7544989
  33.3338417  47.0844964  80.8352600  33.4637455  47.3049504  81.5763080
  26.5095616  54.7146569  77.0819371  26.6105979  53.9046923  77.3916499
  25.9137361  54.6203515  76.4519050  26.4368155  54.5811597  77.0345610
  35.1686610  48.6542110  72.5684747  35.0526136  49.4049796  72.9976885
  35.9642496  48.3966063  72.8180834  35.2691199  48.7276957  72.6688838
  26.3496356  59.6324158  78.4834227  26.9933811  60.0737322  78.8730386
  26.6752611  58.8277584  78.3964486  26.4928184  59.5789353  78.5279705
  19.7060660  50.7366855  76.7071705  19.4710845  49.9034508  76.6003974
  19.8446301  51.0171521  75.8932906  19.6916323  50.6550359  76.5714060
  22.0050748  42.9052586  79.6056013  21.3855779  42.3145233  79.4366028
  21.9034611  43.4964021  78.9720336  21.8988423  42.9056669  79.4861002
  27.0516935  52.6436133  73.8554089  27.3732776  53.1841340  73.2515397
  27.6989032  52.0732904  73.9876379  27.1942990  52.6395308  73.7861125
  29.1018643  44.6452128  73.9388476  29.7998808  44.8240255  74.4309939
  29.4170976  44.1222467  73.3158865  29.2513981  44.5945900  73.9190486
  21.7319881  46.4504868  81.8499582  21.6078578  47.0367313  82.4849401
  22.3838165  45.9565063  82.1511857  21.8093530  46.4643672  81.9885511
  29.2906579  51.0322573  73.9268267  29.7300214  50.4239673  74.3723040
  29.1411242  50.6529946  73.1553732  29.3328044  50.8861044  73.8787435
  26.7578222  49.6266585  81.1287093  27.4027224  49.1339028  80.8098041
  26.9979999  49.7691371  81.9553171  26.8888807  49.5744027  81.2036626
  29.2964313  52.4721490  80.7793985  29.5787556  51.6772896  80.5580741
  30.0250474  52.9502078  80.7999046  29.4453877  52.4256087  80.7497001
  27.2745507  40.0144524  78.0209750  26.9448837  40.4655668  77.3513449
  26.5990509  39.9360688  78.5682757  27.1255943  40.0695660  78.0032974
  32.8915915  49.3849754  70.8799037  32.8067210  50.2410721  71.0248605
  33.3800299  49.1094078  71.5481196  32.9504813  49.4707076  71.0001118
  34.4821915  36.0030047  76.2659361  34.1675356  36.6933526  76.6979783
  33.9648856  35.9474830  75.5644862  34.3586385  36.0964936  76.2256310
  33.8234349  46.0034548  72.3796772  33.2945820  46.2194182  73.0394078
  34.3459368  46.6970687  72.2997741  33.8222802  46.1377685  72.4652371
  39.2782401  51.5780853  77.7529816  38.4480105  51.7891496  77.9163233
  39.2291654  50.7517907  77.4772100  39.1489137  51.4870459  77.7367182
  25.7133956  49.8997765  71.1804240  25.1291172  50.4047796  71.5870104
  25.3104052  49.6740152  70.4400832  25.5673260  49.9406013  71.1309265
  21.2677985  55.6152526  77.9827911  20.7845563  56.3403016  77.9587495
  22.0801303  55.9128656  78.0938069  21.3168733  55.7654880  77.9955190
  27.3392139  54.4084707  80.5877726  26.8219081  54.0492122  79.9839034
  28.0366530  53.8846881  80.5983792  27.3657720  54.2782395  80.5007984
  30.1711171  46.1463417  69.6573160  30.4107174  46.3541401  68.8448503
  30.4927012  45.3420926  69.7662105  30.2548329  46.0577518  69.5533713
  25.4801461  38.0756813  73.5032698  26.2347429  38.4435130  73.2649748
  25.3028996  38.4496367  74.2711878  25.5655939  38.1855001  73.5817587
  24.1222182  56.1308702  78.1348191  24.8242762  55.6160691  78.1920948
  24.0419665  56.4582853  78.9395066  24.2145943  56.1022928  78.2620983
  38.7736360  44.2251253  81.5480238  37.9364781  44.2953440  81.7827832
  38.7424591  44.2275748  80.6754540  38.6454642  44.2361480  81.4539786
  23.8358526  40.4827132  70.2010811  23.6534099  40.6999013  69.3751804
  24.6984139  40.5966145  70.2569426  23.9363115  40.5317030  70.0865298
  23.4472958  52.3215054  77.6433799  24.2861857  52.5537987  77.6907561
  23.4784727  51.4519365  77.5740835  23.5754675  52.2272001  77.6398444
  24.0725661  52.7415929  81.9447105  24.6123886  52.5987060  82.6150477
  23.3895607  53.1412680  82.3131131  24.0517815  52.7795600  82.0981526
  29.5158245  37.4853543  73.2359835  30.2444405  37.3069497  72.7897991
  29.6053138  38.3271622  73.4467013  29.6364907  37.5837421  73.2013353
  33.4966546  48.4206930  77.1392129  34.2524061  48.8538444  77.1781038
  33.6028870  47.7711700  77.7126765  33.6236716  48.3884414  77.2290155
  36.5346717  52.2480207  77.8894532  36.0981949  52.2516950  78.6453503
  36.2009632  52.9285706  77.4574109  36.4209337  52.3492663  77.9375365
  36.4544200  39.2894035  80.1323960  37.0970108  39.3592140  80.7185875
  36.7067220  38.6223258  79.6303502  36.5866332  39.2020384  80.1451239
  23.3820553  43.7601304  68.7133284  22.6678730  43.4739484  69.1255717
  23.8664521  44.0997930  69.3539672  23.3479916  43.7682954  68.8688919
  39.6691063  48.9661127  76.7814169  40.3307497  48.4051796  76.6810078
  39.0282475  48.4713158  77.1066860  39.6719930  48.8097536  76.8146509
  30.5567871  52.2631258  69.0895092  30.9719019  51.9316282  68.3979588
  29.7259800  52.0300161  68.9615229  30.4955879  52.1802514  68.9685940
  19.8856219  49.7474999  79.3793270  19.7031793  49.7221885  78.5265563
  20.6205888  50.2173937  79.4182179  19.9670283  49.8136362  79.2591189
  35.9555894  49.9826509  76.5226158  36.1911483  50.1271708  75.6953009
  36.1045457  50.7468917  76.9157672  36.0121697  50.1165564  76.4589762
  37.7846350  48.8228175  74.3595762  38.1154567  49.3555816  73.7535857
  38.3579438  48.8767063  75.0157713  37.9180029  48.9097744  74.3673544
  32.9978239  46.6693078  75.0419342  33.0925094  47.4082372  75.4958967
  32.3737083  46.2410554  75.4753906  32.9187270  46.7154399  75.1727489
  19.8527130  46.6268500  79.5292337  20.4300632  46.4904951  80.1684582
  19.1541191  46.1704284  79.7837921  19.8348151  46.5390766  79.6614627
  33.2501261  48.5141818  68.2756294  33.1681423  48.5844005  69.1411281
  33.8880981  49.0771562  68.0840035  33.3321098  48.6080789  68.3746243
  26.6094432  48.2802556  77.7430820  26.3513676  47.4474291  77.7162120
  26.6642915  48.5060169  76.9023321  26.5794210  48.1900327  77.6150957
  31.6895482  40.3831007  77.8434913  30.9851809  39.8940192  78.0018832
  31.7380456  40.3953481  76.9723357  31.5925534  40.3120654  77.7374253
  25.5829144  45.8340318  78.2295715  25.0078735  45.9932487  78.8659676
  25.2064820  45.1975727  77.7664166  25.4431956  45.7638131  78.2550273
  29.2502433  44.3063668  83.0888093  28.8616865  43.8817885  82.4340285
  28.5857131  44.5545817  83.5965120  29.0949360  44.2802389  83.0675961
  38.8925702  44.0638672  75.8635923  38.6362267  43.2518614  75.6733806
  39.7355016  44.0716239  75.6366111  38.9791727  43.9450670  75.8020741
  15.3285963  45.4780393  76.2440156  15.4146215  45.1012261  77.0253686
  15.9561760  45.1040839  75.7660114  15.4342514  45.3665875  76.2885633
  33.0728794  38.0038296  80.6012078  33.4539306  37.3216467  80.9879952
  32.2692079  37.7147898  80.4187742  33.0105256  37.8605345  80.6316134
  30.3541371  48.5362272  71.2864900  31.1682010  48.8277165  71.1747672
  30.2900512  47.8822135  70.7123193  30.4644110  48.4827467  71.1853738
  26.2249279  52.0083790  76.4137212  26.8623226  51.7695537  76.9589006
  26.6504351  52.2120949  75.6790373  26.3825445  52.0034800  76.3854370
  26.8652094  47.2286079  70.7512102  27.2497247  47.0093786  71.5028647
  26.6163715  48.0549025  70.8813178  26.8854167  47.3184226  70.8813178
  28.6070751  52.4856212  78.0930999  28.6809759  52.3231384  78.9472849
  29.4240258  52.6746402  77.8491480  28.7387110  52.4892955  78.1829024
  22.3676508  52.8314075  75.1225442  21.5414626  53.0775812  74.9959721
  22.4288499  52.7526156  75.9887500  22.2550675  52.8559024  75.2314387
  24.5852532  38.8983016  76.0820882  23.7174957  38.9705616  76.1478492
  24.8727736  39.7005095  76.2708857  24.4992280  39.0277163  76.1195649
  33.7085420  39.0460875  84.4132204  34.4539012  38.8570686  83.9995630
  33.2922725  39.5719113  83.8546061  33.7570395  39.0963021  84.2696777
  27.1475337  55.4490955  72.8244472  27.4373635  55.0579937  72.1003699
  27.8778818  55.6307660  73.2649747  27.2982221  55.4184769  72.7827279
  41.0847691  46.4170104  79.3637709  41.6355613  45.7838173  79.6034801
  41.0691807  46.9485497  80.0553213  41.1632888  46.4019052  79.5016567
  27.7370082  50.2508701  83.9097603  27.2381776  50.9624469  83.9882491
  28.5470306  50.5709368  83.8715765  27.7826189  50.4035550  83.9154171
  25.0881252  57.4258338  75.8904622  24.8681548  57.1355692  76.6831289
  24.8675775  56.7673293  75.3622534  25.0228847  57.2858046  75.9293531
  23.9998200  49.5131654  78.1560324  23.7111448  48.8869125  78.6906051
  24.8681548  49.4551942  78.2225004  24.0858452  49.4119198  78.2451278
  34.7876097  44.6566438  78.4742305  34.4440863  43.9356773  78.8249555
  34.8869140  44.4480289  77.6320664  34.7518140  44.5190641  78.4013985
  27.2549208  58.7987728  74.6735314  27.9073266  58.2664170  74.9026340
  26.5574817  58.4456380  75.0603188  27.2479926  58.6677251  74.7647482
  24.2030473  51.1526905  74.0802689  24.9576441  51.5339944  74.2938151
  23.6101086  51.6038049  74.5349385  24.2267187  51.2755733  74.1785567
  35.2489127  51.1192142  74.0166293  35.8147159  51.7785352  73.9324836
  34.6017030  51.4641840  74.4882696  35.2367883  51.2674083  74.0739050
  25.5228700  52.3235467  79.4542804  25.0009453  52.4635758  80.1394669
  25.9102720  51.5646131  79.6444921  25.5032401  52.2320990  79.5843880
  22.5119884  42.3741275  73.5237759  22.2244679  42.0042546  72.7869706
  23.1990352  42.8436131  73.2621464  22.5708781  42.3888245  73.3752834
  31.7195705  54.0630926  73.4403373  31.4782381  53.3298787  73.0330438
  31.8997038  54.6117783  72.7869706  31.7103329  54.0353317  73.2833596
  26.9495025  49.3539486  74.8524295  26.7537808  49.9614220  74.2584598
  27.1729371  48.6607430  74.3715969  26.9529666  49.3417011  74.6940376
  25.3473555  46.2394224  74.9705163  26.0696207  46.4035382  74.5108969
  24.8681548  46.9603888  74.8644503  25.3837286  46.3692453  74.8870777
  33.3067063  42.5758022  80.3501848  32.4678163  42.6019301  80.1140112
  33.3771430  43.2228758  80.9307195  33.1935456  42.6754148  80.4010965
  31.7536341  39.4743399  75.0829464  32.4562694  39.2751148  74.6049422
  31.4880530  38.7019342  75.3898308  31.8182973  39.3306365  75.0574906
  37.1824587  47.7826009  77.6363090  37.0958561  47.9381435  78.4897869
  36.7275067  48.4264085  77.2622495  37.1027843  47.9001764  77.7070197
  20.0848078  43.1522488  74.3723040  20.1864215  43.9548649  74.7004015
  20.8803965  42.9509824  74.0746120  20.2175984  43.2408387  74.3758395
  31.0550403  45.1036756  76.2588650  30.8085117  45.0232507  77.0925438
  31.3835526  44.3190224  76.0651177  31.0671646  44.9763022  76.3536173
  34.9498452  51.8120116  80.0475431  34.8112811  52.5101161  80.5524173
  34.1698449  51.6568772  79.6911613  34.8141678  51.8920282  80.0701705
  27.0147430  47.8393475  85.6711633  27.1590806  48.4194683  85.0354743
  27.3623079  48.2169772  86.3761487  27.0874891  47.9814179  85.6810628
  29.1867347  47.0383643  83.4536764  28.4390661  47.2314658  83.0485042
  29.3408873  46.2128863  83.2160885  29.0989775  46.9448755  83.3582170
  26.0875185  56.0296247  82.5372659  26.2364749  55.4699163  81.8846064
  26.8675187  56.1088248  82.9205178  26.2249279  55.9581812  82.4969609
  36.4451824  51.1698369  70.8091930  36.0658633  50.3835507  70.8021219
  35.7818070  51.7185226  70.6663574  36.2910299  51.1343193  70.7872727
  33.8996450  34.1124069  78.2126011  34.0180018  34.5700532  77.4793314
  33.7258626  33.3069330  77.9262228  33.8915621  34.0617841  78.0626945
  29.2698733  54.7211888  74.6480756  30.0348624  54.4521532  74.3263420
  29.1676823  54.2361899  75.3650819  29.3680228  54.6101453  74.7060584
  27.3051502  42.9236298  81.1873992  26.5147577  42.7427758  81.5091328
  27.7012125  42.1463250  81.1704286  27.2468379  42.7823759  81.2326540
  31.7917393  51.7524072  66.6280706  32.5590378  51.8124197  66.2186557
  31.3448702  51.1804514  66.1437024  31.8390820  51.6760648  66.4958416
  32.6895189  50.5578728  78.9133438  32.0140190  50.3263960  79.4146825
  32.6987565  49.9499911  78.2875543  32.5913693  50.4337653  78.8949590
  29.8189333  45.3996557  85.6697491  29.7548474  46.2606513  85.5417628
  29.9586520  45.0828550  84.8693042  29.8304803  45.4796724  85.5325704
  34.6911923  53.4143860  71.1443616  34.7731761  54.2210847  70.8205067
  35.1761665  53.4339820  71.8684389  34.7749081  53.5364523  71.2030514
  28.5008427  48.0928696  79.8113694  28.0770676  48.2933195  79.0752712
  28.3253282  47.2457544  79.9237994  28.4119307  47.9977478  79.7187384
  23.7890871  48.5880748  75.2441666  23.9455491  48.5227551  76.0997658
  24.1291465  49.3629300  75.0320346  23.8624106  48.6929946  75.3396260
  30.3270016  47.9638631  74.1135030  30.8685562  47.4609012  74.5773650
  30.6416575  47.9103826  73.3024515  30.4534413  47.8818052  74.0618842
  28.4956466  53.3555983  71.3975058  28.5649286  52.4970521  71.5368058
  29.2744921  53.5727864  71.0694082  28.6209316  53.2608847  71.3692215
  31.4759285  42.8574936  84.1657330  31.6901255  42.2185850  83.6120684
  30.8593185  43.3020760  83.7365192  31.4164615  42.8285080  84.0207761
  32.8863953  55.7793684  75.6111551  32.4943745  55.4760399  74.8934417
  33.0417026  56.6162774  75.4216505  32.8517543  55.8577521  75.4768048
  20.3625133  45.7715698  75.5602433  20.7424098  46.1900243  74.8962701
  19.7880498  46.3529154  75.8671277  20.3336458  45.9193557  75.5079174
  33.6398373  44.4664001  85.1040637  32.8275055  44.1589891  85.1853810
  34.0988308  43.9863001  85.6683349  33.5878758  44.3500493  85.1995231
  33.0503628  52.3443673  75.5517581  32.6918283  52.5158316  76.3281614
  32.5642339  52.8056879  74.9945580  32.9262325  52.4382644  75.5842851
  30.8674014  35.9674872  79.1544673  29.9967572  35.9413593  79.1077982
  31.1214355  35.7952064  78.3370518  30.7767574  35.9385015  79.0264810
  27.8391994  48.0242838  68.0917816  28.1284518  48.8007721  68.3661390
  27.9263792  47.5131570  68.7932315  27.8946250  48.0634757  68.2360314
  27.8923155  37.9781100  80.6118143  27.3761643  37.2861291  80.7369722
  27.3317083  38.6451877  80.5580742  27.7329668  37.9744358  80.6224209
  35.9365368  45.0836715  81.0650698  35.5092976  44.9963064  80.3098797
  35.2991421  45.1914490  81.6505542  35.7794975  45.0869375  81.0396139
  24.0055935  47.3376103  80.1917928  23.1643941  47.2379977  80.3996822
  24.2145942  48.1071583  80.5432249  23.9120627  47.4368146  80.2745243
  21.4831501  44.9595640  78.0202679  21.0888199  45.0338652  77.2452788
  20.9271618  45.3453586  78.5711040  21.3434314  45.0277415  77.9870338
  33.1196448  37.9376934  77.7006557  33.3246042  37.8699242  78.5463555
  32.7922872  38.7435755  77.6327735  33.1011696  38.0462874  77.8166213
  27.8172599  45.2657502  79.4415525  27.5135737  44.7113490  80.0425933
  27.1152020  45.4449712  78.9543560  27.6688809  45.2102284  79.4585231
  26.8738696  42.5758022  74.0060227  27.1498431  41.8576934  73.5937795
  27.4737366  43.1742942  73.7981333  27.0031961  42.5578393  73.9140988
  36.3730136  38.4908698  77.1809323  35.7604450  38.9779100  77.5663055
  36.4694311  37.8152189  77.7246974  36.2968034  38.4627007  77.3188181
  30.3749217  40.2471539  72.2806822  30.8292964  40.4182100  73.0054667
  30.8489263  39.6339650  71.8804598  30.5117537  40.1822425  72.3280584
  23.8964742  49.7319865  81.6109561  23.3052676  50.3729363  81.5812576
  24.6585766  50.1557483  81.5840860  23.9213003  49.8895704  81.6024708
  33.6554259  55.1829177  79.0441585  33.4573947  55.6719991  78.3497797
  33.0341970  55.3870418  79.6225719  33.5341823  55.2845715  79.0264808
  27.7162237  46.9514074  73.3851829  28.4604282  47.3388350  73.6234779
  27.8622933  46.1071499  73.5492317  27.8472822  46.8844546  73.4445799
  29.6341812  38.7464333  78.4183691  28.7877858  38.9187140  78.2925041
  29.6312945  37.9413676  78.7549519  29.5088962  38.6525362  78.4494818
  30.7040113  42.5239547  79.2845749  30.2300067  41.9981309  79.7951060
  31.0758249  41.9769020  78.7160610  30.6890002  42.3655544  79.2760896
  36.9676843  47.5841923  80.6952529  36.7275066  46.7448338  80.6994956
  37.4468851  47.6642089  81.4193303  37.0029027  47.4723322  80.8027332
  32.6323612  43.4176102  72.3471503  32.1046631  43.5004846  71.6577211
  33.0919321  44.1593973  72.3436147  32.6225463  43.5396764  72.2446198
  38.9682030  44.3643380  78.6481788  38.7291800  44.3239214  77.8102573
  39.1315932  45.2114532  78.7747510  38.9572334  44.4835465  78.5435270
  24.4414929  43.3453503  81.3139713  23.8167999  43.3571895  80.7065665
  24.1060524  43.8213678  81.9630953  24.3000421  43.4172020  81.3196281
  24.6256678  41.6878621  67.3712398  24.2769482  42.3398346  67.8343947
  24.1453123  41.6735734  66.6436269  24.5026922  41.7821675  67.3323489
  32.1860695  51.9879665  71.4781160  32.9094894  52.4537778  71.3345733
  31.7461286  52.0553275  70.7278757  32.2276387  52.0663502  71.3465941
  31.3546850  48.8477207  82.7281849  30.7403843  48.3035258  83.0230484
  31.8714135  48.3341444  82.2487665  31.3402512  48.6913616  82.7006077
  30.5943147  49.9181477  80.4626147  30.1670755  49.2931196  80.0291583
  30.5868092  49.6356399  81.2885155  30.5302288  49.7834258  80.5205975
  28.9228857  40.7950232  80.6768681  28.9471344  40.2610344  79.9881461
  29.1740331  40.2867541  81.3394272  28.9638776  40.6411136  80.6733326
  25.2030179  39.5221050  80.0574426  25.2428551  40.0230257  80.7709133
  24.3779844  39.6131444  79.7880349  25.0869705  39.6102867  80.1224964
  26.6244543  46.0381560  82.3548325  25.7936472  46.2055378  82.1483573
  26.5696060  45.6617511  83.1397210  26.4933957  46.0071291  82.4396853
  24.9980586  44.3137152  72.8838442  25.1383547  44.8109616  73.5867084
  25.4963119  43.6123446  73.0252656  25.0921667  44.2839130  73.0090021
  25.0280809  45.1804263  70.2131019  25.6625888  45.7764688  70.1480481
  25.1106420  44.8807720  71.0276889  25.1337360  45.2245171  70.3234106
  26.6059792  41.1118238  70.1876461  26.9275633  40.6321321  69.5335723
  26.8686735  41.9217884  69.9967273  26.6925817  41.1608136  70.0631953
  29.8356764  52.1337112  83.7075277  29.3281855  52.6872959  84.1515908
  29.5383411  52.1945402  82.8894052  29.7161649  52.2243424  83.6523734
  32.0018947  40.4990432  82.5499940  32.4274018  40.0462958  81.9383467
  31.3875940  39.9450503  82.8264728  31.9747592  40.3504408  82.5004966
  21.5333797  47.3772103  73.4820565  22.0426026  47.9736611  73.8631871
  22.0068069  47.1098077  72.7996985  21.6777172  47.4257919  73.4375088
  32.4464545  56.0500370  71.6379221  31.7293854  55.8761232  71.1726458
  33.0971282  55.8152942  71.1054707  32.4366395  55.9896163  71.4908439
  30.4413169  36.9705532  75.9590517  29.7981487  36.8203178  76.5275656
  30.1012576  36.7247877  75.1939622  30.2958247  36.9117654  75.9293532
  35.0312516  44.9264959  75.3820526  34.3603706  45.4694661  75.2533591
  35.7252266  45.3959814  75.1402221  35.0341383  45.0763230  75.3276054
  29.0799250  57.0661671  80.6132284  28.8564904  56.3080500  80.9816310
  28.5909093  57.0959692  79.8912724  28.9742699  56.9583895  80.5609025
  35.1940643  41.3820842  78.2910899  35.5468253  40.9550565  78.9656698
  34.3355445  41.2971686  78.4211975  35.1190088  41.3065583  78.4105910
  23.8924328  44.0128362  76.3493746  23.1736317  44.4292495  76.6166609
  24.2636691  44.5782601  75.7985384  23.8416260  44.1577643  76.3076553
  33.1923909  44.6456211  82.2395741  33.1721836  44.4639506  83.0930520
  33.2403110  45.5168229  82.2155325  33.1958550  44.7472749  82.3619036
  27.7277707  57.2862129  78.0669369  27.3138105  56.6236259  77.6773210
  28.4125081  57.4339987  77.5465063  27.7676078  57.2102787  77.9325866
  31.0943001  56.4452214  78.8192985  30.6959284  56.5554484  78.0513806
  30.4794220  56.6534280  79.4019545  30.9441890  56.4925782  78.7924285
  29.6670903  43.0526362  71.6867125  29.0735742  43.3743358  71.1351692
  29.7046180  42.2067457  71.4788231  29.5845292  42.9750690  71.5749896
  36.6264703  36.5039254  79.2195212  36.1195568  35.7968394  79.1516389
  37.4232137  36.1732443  79.3496288  36.6691943  36.3512405  79.2294207
  32.5428719  43.0105866  75.1168875  32.3142412  43.0338568  74.2747234
  32.8026796  42.1863333  75.2363886  32.5474907  42.8921946  75.0094073
  25.5973482  41.5482413  76.4123071  26.0730848  41.9099492  75.7773252
  25.0962081  42.2038880  76.6923214  25.5938841  41.6976601  76.3599812
  38.8284843  51.0204181  72.2036076  39.2118449  51.7695537  72.4334173
  38.0328957  51.2670000  71.9448065  38.7678626  51.1673875  72.1993650
  27.6400135  43.6923612  69.7796455  28.0199100  43.7103242  68.9947570
  26.8992731  44.1377601  69.6587302  27.5868973  43.7605387  69.6460023
  35.2685425  42.0005804  75.3672034  35.2679652  41.8454460  76.2256310
  35.0641606  42.8468791  75.3113419  35.2385203  42.1026424  75.4859973
  17.3302696  45.4245588  79.7830850  17.1524458  44.9722197  80.5085766
  17.0421719  46.2271749  79.9669328  17.2615650  45.4768146  79.9174353
  32.9926278  46.6803305  79.0208240  33.4879943  45.9626300  78.9812261
  32.1826053  46.3774103  78.9062727  32.9470171  46.5300952  78.9981966
  28.4384889  50.5301119  71.1705245  27.6296212  50.2067792  71.1238554
  28.9459798  49.8234341  71.1033494  28.3934556  50.3782435  71.1535539
  19.0675166  47.9573312  76.8952609  18.2020686  47.9459002  76.7835380
  19.1673982  47.7703535  77.7423748  18.9549333  47.9279373  77.0041554
  35.0578096  49.4306993  81.7085369  35.4833168  48.9081415  81.1555794
  34.6935016  50.0287830  81.1873992  35.0664699  49.4417220  81.5494379
  24.6932176  57.7271210  80.4682715  25.0078735  58.5407599  80.4760496
  25.1025590  57.3421429  81.1364874  24.8000274  57.7899913  80.5686806
  31.6456696  53.1441257  78.0386527  32.1167874  53.8581520  78.2076512
  31.9816874  52.5440007  78.5746396  31.7651811  53.1612721  78.1418903
  35.0924507  41.0044546  82.1865412  34.5087495  41.5053752  81.7742979
  35.4128801  40.4974102  81.5529735  35.0537682  41.0036381  82.0323919
  27.6319306  39.9185141  72.4624086  28.4535000  40.0883453  72.2205781
  27.1688957  40.0732402  71.7390384  27.6850468  39.9666874  72.3195731
  22.0345196  51.6744319  80.1161323  22.6390054  51.6340153  79.4875144
  21.8272509  52.5215471  80.1465379  22.0934094  51.7932321  80.0277440
  31.8488968  53.9410264  81.3323561  32.6687342  53.7973230  81.5939856
  31.5683046  54.5656463  81.8739998  31.9285712  54.0120616  81.4511500
  40.0751227  60.1637436  73.9388476  40.7731392  60.3425563  74.4309939
  40.3903559  59.6407775  73.3158865  40.2246564  60.1131208  73.9190486
  38.2478091  55.5329832  78.0209750  37.9181421  55.9840976  77.3513449
  37.5723092  55.4545996  78.5682757  38.0988527  55.5880968  78.0032974
  45.4554498  51.5215355  76.2659361  45.1407939  52.2118834  76.6979783
  44.9381440  51.4660138  75.5644862  45.3318969  51.6150244  76.2256310
  36.6866540  65.4183073  71.1804240  36.1023755  65.9233104  71.5870104
  36.2836635  65.1925460  70.4400832  36.5405844  65.4591321  71.1309265
  41.1443754  61.6648725  69.6573160  41.3839758  61.8726709  68.8448503
  41.4659595  60.8606234  69.7662105  41.2280912  61.5762826  69.5533713
  36.4534045  53.5942121  73.5032698  37.2080013  53.9620438  73.2649748
  36.2761579  53.9681675  74.2711878  36.5388523  53.7040309  73.5817587
  34.8091109  56.0012440  70.2010811  34.6266682  56.2184321  69.3751804
  35.6716722  56.1151453  70.2569426  34.9095699  56.0502338  70.0865298
  40.4890828  53.0038850  73.2359835  41.2176989  52.8254805  72.7897991
  40.5785721  53.8456930  73.4467013  40.6097491  53.1022729  73.2013353
  34.3553136  59.2786612  68.7133284  33.6411313  58.9924792  69.1255717
  34.8397105  59.6183238  69.3539672  34.3212500  59.2868262  68.8688919
  44.2233844  64.0327126  68.2756294  44.1414007  64.1029313  69.1411281
  44.8613565  64.5956870  68.0840035  44.3053682  64.1266097  68.3746243
  26.3018547  60.9965701  76.2440156  26.3878798  60.6197569  77.0253686
  26.9294344  60.6226147  75.7660114  26.4075098  60.8851183  76.2885633
  41.3273955  64.0547580  71.2864900  42.1414593  64.3462473  71.1747672
  41.2633096  63.4007442  70.7123193  41.4376694  64.0012775  71.1853738
  37.8384678  62.7471387  70.7512102  38.2229831  62.5279094  71.5028647
  37.5896298  63.5734333  70.8813178  37.8586750  62.8369534  70.8813178
  35.5585115  54.4168324  76.0820882  34.6907541  54.4890923  76.1478492
  35.8460320  55.2190403  76.2708857  35.4724863  54.5462471  76.1195649
  33.4852467  57.8926583  73.5237759  33.1977263  57.5227854  72.7869706
  34.1722935  58.3621439  73.2621464  33.5441365  57.9073553  73.3752834
  36.3206139  61.7579532  74.9705163  37.0428791  61.9220690  74.5108969
  35.8414132  62.4789196  74.8644503  36.3569870  61.8877761  74.8870777
  42.7268925  54.9928707  75.0829464  43.4295278  54.7936456  74.6049422
  42.4613113  54.2204650  75.3898308  42.7915557  54.8491673  75.0574906
  31.0580662  58.6707796  74.3723040  31.1596798  59.4733957  74.7004015
  31.8536549  58.4695132  74.0746120  31.1908567  58.7593695  74.3758395
  44.8729034  49.6309377  78.2126011  44.9912602  50.0885840  77.4793314
  44.6991210  48.8254638  77.9262228  44.8648205  49.5803149  78.0626945
  42.7649977  67.2709380  66.6280706  43.5322962  67.3309505  66.2186557
  42.3181286  66.6989822  66.1437024  42.8123404  67.1945956  66.4958416
  31.3357717  61.2901006  75.5602433  31.7156681  61.7085551  74.8962701
  30.7613081  61.8714462  75.8671277  31.3069041  61.4378865  75.5079174
  41.8406598  51.4860179  79.1544673  40.9700156  51.4598901  79.1077982
  42.0946939  51.3137372  78.3370518  41.7500158  51.4570323  79.0264810
  38.8124577  63.5428146  68.0917816  39.1017102  64.3193029  68.3661390
  38.8996376  63.0316878  68.7932315  38.8678833  63.5820065  68.2360314
  37.8471280  58.0943330  74.0060227  38.1231014  57.3762242  73.5937795
  38.4469949  58.6928250  73.7981333  37.9764545  58.0763701  73.9140988
  41.3481801  55.7656847  72.2806822  41.8025547  55.9367408  73.0054667
  41.8221846  55.1524958  71.8804598  41.4850121  55.7007732  72.3280584
  38.6894821  62.4699382  73.3851829  39.4336865  62.8573658  73.6234779
  38.8355517  61.6256807  73.5492317  38.8205406  62.4029854  73.4445799
  40.6074396  54.2649641  78.4183691  39.7610441  54.4372448  78.2925041
  40.6045528  53.4598984  78.7549519  40.4821546  54.1710669  78.4494818
  43.6056196  58.9361410  72.3471503  43.0779215  59.0190153  71.6577211
  44.0651904  59.6779281  72.3436147  43.5958047  59.0582072  72.2446198
  35.5989261  57.2063929  67.3712398  35.2502066  57.8583654  67.8343947
  35.1185707  57.1921042  66.6436269  35.4759505  57.3006983  67.3323489
  35.9713170  59.8322460  72.8838442  36.1116131  60.3294924  73.5867084
  36.4695703  59.1308754  73.0252656  36.0654251  59.8024438  73.0090021
  36.0013392  60.6989571  70.2131019  36.6358472  61.2949996  70.1480481
  36.0839003  60.3993028  71.0276889  36.1069943  60.7430479  70.3234106
  37.5792375  56.6303546  70.1876461  37.9008216  56.1506628  69.5335723
  37.8419319  57.4403192  69.9967273  37.6658401  56.6793444  70.0631953
  32.5066380  62.8957411  73.4820565  33.0158610  63.4921919  73.8631871
  32.9800652  62.6283385  72.7996985  32.6509756  62.9443227  73.4375088
  41.4145753  52.4890840  75.9590517  40.7714071  52.3388486  76.5275656
  41.0745160  52.2433185  75.1939622  41.2690830  52.4302962  75.9293532
  34.8656912  59.5313670  76.3493746  34.1468901  59.9477802  76.6166609
  35.2369274  60.0967909  75.7985384  34.8148844  59.6762951  76.3076553
  40.6403486  58.5711670  71.6867125  40.0468326  58.8928666  71.1351692
  40.6778764  57.7252765  71.4788231  40.5577875  58.4935998  71.5749896
  43.5161303  58.5291174  75.1168875  43.2874996  58.5523876  74.2747234
  43.7759379  57.7048641  75.2363886  43.5207491  58.4107254  75.0094073
  36.5706065  57.0667721  76.4123071  37.0463432  57.4284800  75.7773252
  36.0694665  57.7224188  76.6923214  36.5671424  57.2161909  76.3599812
  39.4117473  66.0486427  71.1705245  38.6028795  65.7253100  71.1238554
  39.9192381  65.3419649  71.1033494  39.3667139  65.8967743  71.1535539
  30.0407750  63.4758620  76.8952609  29.1753269  63.4644310  76.7835380
  30.1406566  63.2888843  77.7423748  29.9281917  63.4464681  77.0041554
  38.6051889  55.4370449  72.4624086  39.4267584  55.6068761  72.2205781
  38.1421540  55.5917710  71.7390384  38.6583052  55.4852182  72.3195731
  26.0688276   7.4982631  61.2306484  26.0382280   8.3527268  61.4024753
  26.6669624   7.1977924  61.7892627  26.1525434   7.5799128  61.3381286
  13.6529100  16.1221000  61.7496646  12.9012000  15.7436538  61.5212691
  14.1015112  16.1539434  61.0015456  13.6078767  16.0706607  61.6054148
  19.1054060  16.5446369  57.1782193  18.7705429  17.2223291  56.7426415
  19.6180931  16.1551681  56.5899064  19.1319641  16.5870948  57.0268984
  18.6458351  18.4960638  63.1193304  19.0297731  19.0647537  62.5798080
  18.5817493  17.7710148  62.6399120  18.6931779  18.4736102  62.9687167
  23.8904850  10.0734933  59.5024794  23.7744376  10.8242619  59.9316932
  24.6860737   9.8158886  59.7520881  23.9909440  10.1469780  59.6028885
  15.0714596  21.0516981  65.4174274  15.7152051  21.4930145  65.8070433
  15.3970852  20.2470407  65.3304533  15.2146425  20.9982176  65.4619752
  15.7735176  14.0628956  60.7894136  16.0951017  14.6034163  60.1855444
  16.4207272  13.4925727  60.9216426  15.9161231  14.0588131  60.7201171
  18.0124819  12.4515396  60.8608314  18.4518455  11.8432497  61.3063087
  17.8629482  12.0722769  60.0893779  18.0546285  12.3053867  60.8127482
  21.6134156  10.8042577  57.8139083  21.5285451  11.6603544  57.9588652
  22.1018539  10.5286901  58.4821243  21.6723053  10.8899899  57.9341165
  22.5452589   7.4227372  59.3136819  22.0164060   7.6387005  59.9734125
  23.0677609   8.1163510  59.2337788  22.5441042   7.5570508  59.3992418
  28.0000642  12.9973676  64.6869863  27.1698345  13.2084320  64.8503280
  27.9509894  12.1710731  64.4112147  27.8707377  12.9063282  64.6707228
  14.4352197  11.3190588  58.1144286  13.8509412  11.8240620  58.5210150
  14.0322292  11.0932975  57.3740878  14.2891501  11.3598837  58.0649312
  18.8929411   7.5656240  56.5913207  19.1325415   7.7734224  55.7788550
  19.2145252   6.7613749  56.7002152  18.9766569   7.4770342  56.4873760
  25.2564957  13.6673030  64.8234579  24.8200189  13.6709773  65.5793550
  24.9227873  14.3478529  64.3914156  25.1427577  13.7685486  64.8715411
  28.3909303  10.3853950  63.7154216  29.0525737   9.8244619  63.6150124
  27.7500715   9.8905981  64.0406907  28.3938171  10.2290359  63.7486556
  19.2786111  13.6824082  56.0235139  19.6937259  13.3509106  55.3319635
  18.4478041  13.4492984  55.8955276  19.2174120  13.5995338  55.9025987
  24.6774134  11.4019333  63.4566205  24.9129723  11.5464532  62.6293055
  24.8263698  12.1661741  63.8497718  24.7339937  11.5358387  63.3929809
  26.5064591  10.2420999  61.2935809  26.8372808  10.7748639  60.6875903
  27.0797679  10.2959886  61.9497760  26.6398270  10.3290567  61.3013590
  21.9719501   9.9334641  55.2096341  21.8899664  10.0036828  56.0751328
  22.6099222  10.4964385  55.0180081  22.0539338  10.0273612  55.3086290
  19.0759611   9.9555095  58.2204947  19.8900250  10.2469988  58.1087719
  19.0118753   9.3014958  57.6463240  19.1862350   9.9020290  58.1193785
  15.5870335   8.6478903  57.6852149  15.9715487   8.4286609  58.4368694
  15.3381955   9.4741848  57.8153225  15.6072407   8.7377049  57.8153225
  15.8693577  16.8683779  59.7584519  16.1591876  16.4772760  59.0343746
  16.5997058  17.0500483  60.1989794  16.0200461  16.8377592  59.7167326
  13.8099493  18.8451161  62.8244669  13.5899788  18.5548516  63.6171336
  13.5894015  18.1866116  62.2962581  13.7447087  18.7050869  62.8633577
  15.9767449  20.2180551  61.6075361  16.6291507  19.6856993  61.8366387
  15.2793057  19.8649203  61.9943235  15.9698167  20.0870074  61.6987529
  23.9707367  12.5384965  60.9506340  24.5365400  13.1978175  60.8664883
  23.3235270  12.8834663  61.4222742  23.9586123  12.6866906  61.0079097
  20.4413945  15.4823749  60.3743420  20.2000621  14.7491610  59.9670484
  20.6215278  16.0310606  59.7209753  20.4321569  15.4546140  60.2173642
  25.1670065  12.5891193  57.7431977  24.7876874  11.8028331  57.7361266
  24.5036310  13.1378050  57.6003621  25.0128540  12.5536017  57.7212774
  17.9916973  16.1404712  61.5820803  18.7566864  15.8714355  61.2603467
  17.8895063  15.6554722  62.2990866  18.0898468  16.0294276  61.6400631
  20.5135633  13.1716895  53.5620752  21.2808619  13.2317020  53.1526604
  20.0666942  12.5997337  53.0777071  20.5609061  13.0953471  53.4298463
  23.4130164  14.8336684  58.0783663  23.4950001  15.6403670  57.7545114
  23.8979906  14.8532643  58.8024436  23.4967321  14.9557346  58.1370561
  19.0488256   9.3831455  61.0475076  19.5903802   8.8801836  61.5113697
  19.3634815   9.3296649  60.2364562  19.1752654   9.3010876  60.9958888
  17.2174706  14.7748806  58.3315104  17.2867526  13.9163345  58.4708105
  17.9963161  14.9920687  58.0034129  17.3427556  14.6801670  58.3032262
  21.6082194  17.1986507  62.5451598  21.2161985  16.8953223  61.8274464
  21.7635266  18.0355597  62.3556551  21.5735784  17.2770344  62.4108095
  21.7721868  13.7636496  62.4857628  21.4136523  13.9351139  63.2621661
  21.2860579  14.2249702  61.9285627  21.6480565  13.8575467  62.5182897
  16.5610234   9.4435662  55.0257863  16.8502759  10.2200544  55.3001437
  16.6482033   8.9324393  55.7272362  16.6164490   9.4827580  55.1700360
  22.3772499  16.6022000  65.9781632  22.1792188  17.0912815  65.2837843
  21.7560210  16.8063242  66.5565765  22.2560063  16.7038538  65.9604855
  21.3541853   4.8368925  59.2811549  20.8264871   4.9197669  58.5917258
  21.8137561   5.5786796  59.2776194  21.3443703   4.9589587  59.1786245
  20.9078935  13.4072488  58.4121207  21.6313134  13.8730601  58.2685780
  20.4679526  13.4746098  57.6618804  20.9494628  13.4856325  58.2805988
  21.1682785  17.4693193  58.5719268  20.4512095  17.2954056  58.1066505
  21.8189523  17.2345766  58.0394754  21.1584636  17.4088986  58.4248485
  16.4495947  18.7054952  65.0009416  16.0356346  18.0429082  64.6113257
  17.1343321  18.8532811  64.4805110  16.4894319  18.6295610  64.8665913
  19.8161241  17.8645037  65.7533032  19.4177524  17.9747308  64.9853852
  19.2012461  18.0727104  66.3359592  19.6660130  17.9118605  65.7264332
  27.5503084  12.4397004  59.1376123  27.9336690  13.1888360  59.3674220
  26.7547197  12.6862824  58.8788112  27.4896866  12.5866698  59.1333696
  16.3618375   5.1116436  56.7136502  16.7417340   5.1296065  55.9287617
  15.6210971   5.5570424  56.5927349  16.3087213   5.1798210  56.5800070
  17.1603129  11.9493942  58.1045292  16.3514452  11.6260615  58.0578601
  17.6678038  11.2427164  58.0373540  17.1152796  11.7975258  58.0875586
  37.0420859  23.0167939  61.2306484  37.0114864  23.8712576  61.4024753
  37.6402208  22.7163232  61.7892627  37.1258017  23.0984436  61.3381286
  30.2420544  22.1043590  65.9859414  29.3858440  22.2652088  66.0368531
  30.2888198  21.2335654  66.0064475  30.1219656  21.9994392  65.9965480
  24.6261684  31.6406308  61.7496646  23.8744583  31.2621846  61.5212691
  25.0747695  31.6724741  61.0015456  24.5811351  31.5891915  61.6054148
  33.5514261  28.3730116  75.5919870  34.2581028  27.8782146  75.7206805
  33.7402196  28.8139197  74.8622528  33.6842166  28.3648466  75.5028916
  30.0786644  32.0631677  57.1782193  29.7438012  32.7408599  56.7426415
  30.5913514  31.6736989  56.5899064  30.1052225  32.1056256  57.0268984
  29.6190935  34.0145946  63.1193304  30.0030314  34.5832845  62.5798080
  29.5550076  33.2895456  62.6399120  29.6664362  33.9921409  62.9687167
  33.0872365  24.1635634  68.6291066  33.6328325  24.8420721  68.6885035
  33.0289241  24.0223095  67.7692647  33.1588279  24.2427636  68.5103126
  26.2046440  31.6524700  64.0159418  26.3056803  30.8425054  64.3256546
  25.6088185  31.5581646  63.3859097  26.1318979  31.5189728  63.9685657
  34.8637434  25.5920241  59.5024794  34.7476960  26.3427927  59.9316932
  35.6593320  25.3344194  59.7520881  34.9642023  25.6655088  59.6028885
  26.0447180  36.5702289  65.4174274  26.6884635  37.0115453  65.8070433
  26.3703435  35.7655715  65.3304533  26.1879008  36.5167484  65.4619752
  19.4011484  27.6744987  63.6411752  19.1661669  26.8412639  63.5344021
  19.5397125  27.9549652  62.8272953  19.3867147  27.5928490  63.5054107
  21.7001572  19.8430717  66.5396060  21.0806603  19.2523364  66.3706074
  21.5985435  20.4342152  65.9060383  21.5939247  19.8434800  66.4201049
  26.7467759  29.5814264  60.7894136  27.0683600  30.1219471  60.1855444
  27.3939856  29.0111035  60.9216426  26.8893814  29.5773439  60.7201171
  28.7969467  21.5830259  60.8728523  29.4949632  21.7618387  61.3649986
  29.1121800  21.0600598  60.2498912  28.9464805  21.5324031  60.8530533
  21.4270705  23.3882999  68.7839629  21.3029402  23.9745444  69.4189447
  22.0788989  22.8943195  69.0851904  21.5044354  23.4021803  68.9225558
  28.9857403  27.9700704  60.8608314  29.4251038  27.3617805  61.3063087
  28.8362066  27.5908077  60.0893779  29.0278868  27.8239175  60.8127482
  26.4529046  26.5644716  68.0627140  27.0978048  26.0717159  67.7438088
  26.6930823  26.7069502  68.8893218  26.5839631  26.5122158  68.1376673
  28.9915137  29.4099622  67.7134032  29.2738380  28.6151027  67.4920788
  29.7201297  29.8880209  67.7339093  29.1404701  29.3634219  67.6837047
  26.9696331  16.9522656  64.9549797  26.6399661  17.4033799  64.2853496
  26.2941333  16.8738819  65.5022804  26.8206767  17.0073791  64.9373021
  32.5866739  26.3227885  57.8139083  32.5018034  27.1788852  57.9588652
  33.0751122  26.0472209  58.4821243  32.6455637  26.4085207  57.9341165
  34.1772739  12.9408179  63.1999408  33.8626180  13.6311657  63.6319830
  33.6599680  12.8852961  62.4984909  34.0537209  13.0343067  63.1596357
  33.5185172  22.9412679  59.3136819  32.9896644  23.1572313  59.9734125
  34.0410192  23.6348818  59.2337788  33.5173625  23.0755816  59.3992418
  38.9733225  28.5158984  64.6869863  38.1430929  28.7269628  64.8503280
  38.9242478  27.6896038  64.4112147  38.8439961  28.4248590  64.6707228
  25.4084780  26.8375896  58.1144286  24.8241996  27.3425928  58.5210150
  25.0054875  26.6118283  57.3740878  25.2624084  26.8784145  58.0649312
  20.9628809  32.5530657  64.9167958  20.4796387  33.2781147  64.8927542
  21.7752127  32.8506787  65.0278116  21.0119557  32.7033011  64.9295237
  27.0342963  31.3462838  67.5217773  26.5169905  30.9870253  66.9179081
  27.7317354  30.8225013  67.5323839  27.0608544  31.2160526  67.4348031
  30.6906555  31.7957652  73.4833946  30.7789901  31.6083793  74.3312156
  31.1196267  31.1495082  73.0838792  30.7668657  31.6720660  73.5505697
  28.2577015  31.0788812  72.4651608  27.6947850  30.6661422  72.9891269
  29.0198038  31.0041718  72.8844751  28.2871463  31.0066213  72.6044608
  29.8661995  23.0841548  56.5913207  30.1057998  23.2919532  55.7788550
  30.1877836  22.2799057  56.7002152  29.9499153  22.9955650  56.4873760
  25.1752285  15.0134944  60.4372745  25.9298253  15.3813261  60.1989795
  24.9979820  15.3874498  61.2051925  25.2606763  15.1233132  60.5157634
  23.8173006  33.0686833  65.0688238  24.5193585  32.5538822  65.1260994
  23.7370489  33.3960985  65.8735113  23.9096767  33.0401059  65.1961030
  38.4687184  21.1629385  68.4820284  37.6315605  21.2331572  68.7167879
  38.4375415  21.1653879  67.6094587  38.3405466  21.1739612  68.3879832
  23.5309350  17.4205263  57.1350858  23.3484923  17.6377144  56.3091851
  24.3934963  17.5344276  57.1909472  23.6313939  17.4695161  57.0205345
  23.1423782  29.2593185  64.5773846  23.9812681  29.4916118  64.6247608
  23.1735551  28.3897497  64.5080881  23.2705499  29.1650132  64.5738491
  23.7676485  29.6794060  68.8787151  24.3074710  29.5365191  69.5490524
  23.0846431  30.0790811  69.2471178  23.7468638  29.7173731  69.0321573
  29.2109069  14.4231674  60.1699882  29.9395229  14.2447629  59.7238038
  29.3003962  15.2649753  60.3807060  29.3315731  14.5215552  60.1353399
  33.1917370  25.3585061  64.0732176  33.9474885  25.7916575  64.1121085
  33.2979694  24.7089831  64.6466812  33.3187540  25.3262545  64.1630201
  36.2297541  29.1858338  64.8234579  35.7932772  29.1895081  65.5793550
  35.8960456  29.8663837  64.3914156  36.1160161  29.2870794  64.8715411
  30.8026614  31.2266671  76.1477729  31.5867031  31.3397519  76.5133471
  30.6023209  30.4007808  76.3436415  30.8892640  31.1213391  76.2312115
  19.1713630  25.8994351  69.0321573  18.9052045  25.0833468  69.1912563
  19.1852194  25.9447507  68.1617088  19.1338352  25.7851256  68.9275055
  36.1495024  16.2272166  67.0664007  36.7920932  16.2970271  67.6525922
  36.4018044  15.5601389  66.5643549  36.2817156  16.1398515  67.0791286
  23.0771377  20.6979436  55.6473331  22.3629554  20.4117615  56.0595764
  23.5615345  21.0376061  56.2879719  23.0430740  20.7061085  55.8028966
  30.9597008  33.1376773  69.7944185  30.1612253  32.8976273  70.0518053
  31.4083019  33.1891166  70.5411232  30.9071619  33.1099164  69.9429109
  39.3641887  25.9039258  63.7154216  40.0258321  25.3429927  63.6150124
  38.7233299  25.4091289  64.0406907  39.3670754  25.7475667  63.7486556
  30.2518695  29.2009390  56.0235139  30.6669843  28.8694413  55.3319635
  29.4210624  28.9678292  55.8955276  30.1906703  29.1180646  55.9025987
  19.5807043  26.6853131  66.3133317  19.3982617  26.6600017  65.4605609
  20.3156712  27.1552068  66.3522226  19.6621107  26.7514493  66.1931236
  35.6506718  26.9204641  63.4566205  35.8862307  27.0649840  62.6293055
  35.7996281  27.6847049  63.8497718  35.7072521  27.0543695  63.3929809
  37.4797174  25.7606307  61.2935809  37.8105391  26.2933947  60.6875903
  38.0530262  25.8145194  61.9497760  37.6130853  25.8475875  61.3013590
  32.6929063  23.6071209  61.9759389  32.7875918  24.3460503  62.4299014
  32.0687907  23.1788685  62.4093953  32.6138093  23.6532530  62.1067536
  30.9481537  26.7857422  72.6249670  31.5220399  26.1484666  72.7798234
  30.8696341  26.7861504  71.7559327  31.0214772  26.6922533  72.5196080
  19.5477954  23.5646631  66.4632384  20.1251456  23.4283082  67.1024629
  18.8492015  23.1082415  66.7177968  19.5298975  23.4768898  66.5954673
  32.9452085  25.4519949  55.2096341  32.8632247  25.5222136  56.0751328
  33.5831805  26.0149693  55.0180081  33.0271922  25.5458920  55.3086290
  26.3045256  25.2180687  64.6770867  26.0464500  24.3852422  64.6502166
  26.3593739  25.4438300  63.8363367  26.2745034  25.1278458  64.5491004
  31.3846306  17.3209138  64.7774960  30.6802633  16.8318323  64.9358879
  31.4331280  17.3331612  63.9063404  31.2876358  17.2498786  64.6714300
  25.2779968  22.7718449  65.1635762  24.7029559  22.9310618  65.7999723
  24.9015644  22.1353859  64.7004212  25.1382780  22.7016262  65.1890320
  28.9453257  21.2441799  70.0228140  28.5567689  20.8196016  69.3680331
  28.2807955  21.4923948  70.5305167  28.7900184  21.2180520  70.0016008
  38.5876526  21.0016803  62.7975970  38.3313091  20.1896745  62.6073853
  39.4305840  21.0094371  62.5706158  38.6742551  20.8828801  62.7360787
  15.0236787  22.4158524  63.1780202  15.1097039  22.0390393  63.9593732
  15.6512584  22.0418970  62.7000161  15.1293338  22.3044006  63.2225680
  32.7679618  14.9416428  67.5352124  33.1490130  14.2594599  67.9219999
  31.9642902  14.6526030  67.3527789  32.7056080  14.7983476  67.5656180
  30.0492195  25.4740403  58.2204947  30.8632834  25.7655296  58.1087719
  29.9851336  24.8200266  57.6463240  30.1594934  25.4205598  58.1193785
  36.2701685  28.1566399  72.6334523  36.0340322  27.3254464  72.5146583
  36.9144914  28.1052007  73.2189367  36.3296356  28.0264087  72.7020416
  25.9200103  28.9461921  63.3477259  26.5574050  28.7073668  63.8929053
  26.3455175  29.1499080  62.6130420  26.0776269  28.9412931  63.3194417
  20.6112746  31.1850257  67.2311563  20.6516891  31.4565108  66.4031343
  21.1707270  31.7092165  67.6469351  20.6996091  31.3026012  67.1703451
  37.2938106  27.9410848  68.6962817  36.9883923  28.6738905  69.0576133
  36.5744321  27.5348778  68.4155603  37.1425448  27.9892581  68.7075954
  28.3021575  29.4234343  65.0271046  28.3760583  29.2609515  65.8812895
  29.1191081  29.6124533  64.7831527  28.4337934  29.4271086  65.1169071
  42.9939898  24.5803849  68.0231162  42.9264398  24.5999808  67.1533748
  42.9795560  25.4234176  68.2486832  42.9818654  24.7077584  67.9283638
  22.0627332  29.7692206  62.0565489  21.2365449  30.0153943  61.9299768
  22.1239323  29.6904287  62.9227547  21.9501499  29.7937155  62.1654433
  24.2803356  15.8361147  63.0160929  23.4125781  15.9083747  63.0818538
  24.5678560  16.6383226  63.2048904  24.1943104  15.9655294  63.0535696
  26.8426161  32.3869086  59.7584519  27.1324459  31.9958068  59.0343746
  27.5729642  32.5685791  60.1989794  26.9933045  32.3562900  59.7167326
  40.7798515  23.3548235  66.2977756  41.3306437  22.7216304  66.5374848
  40.7642631  23.8863628  66.9893260  40.8583712  23.3397183  66.4356614
  27.4320906  27.1886832  70.8437649  26.9332600  27.9002600  70.9222538
  28.2421130  27.5087499  70.8055812  27.4777013  27.3413681  70.8494218
  24.7832076  34.3636469  62.8244669  24.5632372  34.0733824  63.6171336
  24.5626598  33.7051424  62.2962581  24.7179671  34.2236177  62.8633577
  23.6949024  26.4509785  65.0900370  23.4062272  25.8247257  65.6246098
  24.5632372  26.3930073  65.1565051  23.7809276  26.3497330  65.1791325
  34.4826921  21.5944569  65.4082352  34.1391687  20.8734904  65.7589602
  34.5819964  21.3858420  64.5660710  34.4468964  21.4568772  65.3354032
  26.9500032  35.7365859  61.6075361  27.6024090  35.2042301  61.8366387
  26.2525641  35.3834511  61.9943235  26.9430750  35.6055382  61.6987529
  23.8981297  28.0905036  61.0142735  24.6527265  28.4718076  61.2278198
  23.3051910  28.5416180  61.4689432  23.9218011  28.2133864  61.1125614
  34.9439950  28.0570273  60.9506340  35.5097983  28.7163483  60.8664883
  34.2967854  28.4019971  61.4222742  34.9318707  28.2052214  61.0079097
  25.2179524  29.2613598  66.3882851  24.6960277  29.4013889  67.0734715
  25.6053544  28.5024262  66.5784968  25.1983225  29.1699122  66.5183927
  22.2070708  19.3119407  60.4577805  21.9195503  18.9420677  59.7209753
  22.8941176  19.7814262  60.1961510  22.2659605  19.3266376  60.3092881
  31.4146529  31.0009057  60.3743420  31.1733204  30.2676918  59.9670484
  31.5947861  31.5495914  59.7209753  31.4054153  30.9731448  60.2173642
  26.6445849  26.2917617  61.7864342  26.4488632  26.8992351  61.1924645
  26.8680195  25.5985561  61.3056016  26.6480490  26.2795142  61.6280423
  25.0424379  23.1772355  61.9045210  25.7647031  23.3413513  61.4449016
  24.5632372  23.8982020  61.7984550  25.0788110  23.3070584  61.8210824
  33.0017887  19.5136154  67.2841895  32.1628987  19.5397432  67.0480158
  33.0722254  20.1606889  67.8647242  32.8886280  19.6132279  67.3351012
  22.6931996  25.5830427  71.0099350  23.2053093  25.8614680  70.3608110
  22.4068339  26.3219721  71.3762163  22.7266859  25.7332781  70.9689228
  31.4487165  16.4121531  62.0169511  32.1513518  16.2129279  61.5389469
  31.1831354  15.6397473  62.3238354  31.5133797  16.2684497  61.9914953
  36.8775411  24.7204140  64.5703137  36.7909385  24.8759566  65.4237916
  36.4225891  25.3642216  64.1962542  36.7978667  24.8379895  64.6410244
  19.7798902  20.0900619  61.3063087  19.8815039  20.8926780  61.6344062
  20.5754789  19.8887955  61.0086167  19.9126808  20.1786518  61.3098442
  30.7501227  22.0414887  63.1928696  30.5035941  21.9610638  64.0265485
  31.0786350  21.2568355  62.9991224  30.7622470  21.9141153  63.2876219
  34.6449276  28.7498247  66.9815478  34.5063635  29.4479293  67.4864220
  33.8649273  28.5946903  66.6251659  34.5092502  28.8298413  67.0041752
  32.9827361  25.0494622  73.2337859  32.9775399  24.1774439  73.2380286
  33.6888355  25.2482791  72.7607315  33.0872365  24.9498496  73.1644895
  26.7098254  24.7771606  72.6051679  26.8541630  25.3572814  71.9694789
  27.0573903  25.1547903  73.3101534  26.7825715  24.9192310  72.6150674
  28.8818171  23.9761774  70.3876811  28.1341485  24.1692789  69.9825089
  29.0359697  23.1506994  70.1500932  28.7940599  23.8826886  70.2922217
  25.7826009  32.9674378  69.4712706  25.9315573  32.4077294  68.8186111
  26.5626011  33.0466380  69.8545225  25.9200103  32.8959943  69.4309655
  36.1402648  28.1076501  57.7431977  35.7609457  27.3213638  57.7361266
  35.4768894  28.6563358  57.6003621  35.9861123  28.0721325  57.7212774
  28.3079310  33.1389021  70.7497197  28.2322981  32.4697831  71.3047985
  28.2369169  33.8406809  71.2637863  28.2859916  33.1433928  70.9074045
  33.5947274  11.0502200  65.1466058  33.7130842  11.5078664  64.4133360
  33.4209450  10.2447462  64.8602275  33.5866445  10.9995972  64.9966991
  28.9649557  31.6590020  61.5820803  29.7299448  31.3899663  61.2603467
  28.8627646  31.1740030  62.2990866  29.0631052  31.5479584  61.6400631
  27.0002326  19.8614429  68.1214039  26.2098401  19.6805889  68.4431375
  27.3962949  19.0841382  68.1044333  26.9419202  19.7201890  68.1666587
  31.4868217  28.6902203  53.5620752  32.2541202  28.7502328  53.1526604
  31.0399526  28.1182645  53.0777071  31.5341644  28.6138779  53.4298463
  32.3846013  27.4956859  65.8473485  31.7091014  27.2642091  66.3486872
  32.3938389  26.8878042  65.2215590  32.2864517  27.3715784  65.8289637
  29.5140157  22.3374688  72.6037538  29.4499298  23.1984645  72.4757674
  29.6537344  22.0206681  71.8033089  29.5255627  22.4174855  72.4665751
  34.3862747  30.3521992  58.0783663  34.4682585  31.1588978  57.7545114
  34.8712489  30.3717951  58.8024436  34.4699905  30.4742654  58.1370561
  28.1959250  25.0306827  66.7453741  27.7721500  25.2311327  66.0092759
  28.0204106  24.1835675  66.8578040  28.1070131  24.9355609  66.6527431
  27.6970944  36.5457340  69.2075198  28.1866874  35.8468130  69.0250862
  27.1255176  36.2481210  69.7951255  27.6855474  36.3983564  69.2676239
  23.4841695  25.5258879  62.1781713  23.6406315  25.4605682  63.0337705
  23.8242289  26.3007431  61.9660393  23.5574930  25.6308077  62.2736307
  30.0220840  24.9016763  61.0475076  30.5636385  24.3987144  61.5113697
  30.3367399  24.8481957  60.2364562  30.1485237  24.8196183  60.9958888
  33.8937947  29.1119410  78.1601989  34.7072813  28.8404559  78.3207121
  33.7332914  28.8126950  77.3562184  33.9907896  29.0274336  78.0647394
  28.1907290  30.2934114  58.3315104  28.2600110  29.4348653  58.4708105
  28.9695745  30.5105995  58.0034129  28.3160140  30.1986978  58.3032262
  31.1710109  19.7953067  71.0997377  31.3852079  19.1563981  70.5460731
  30.5544009  20.2398891  70.6705239  31.1115439  19.7663211  70.9547808
  32.5814777  32.7171815  62.5451598  32.1894569  32.4138530  61.8274464
  32.7367850  33.5540905  62.3556551  32.5468367  32.7955652  62.4108095
  20.0575957  22.7093829  62.4942480  20.4374922  23.1278374  61.8302748
  19.4831322  23.2907285  62.8011324  20.0287282  22.8571688  62.4419221
  33.3349197  21.4042132  72.0380684  32.5225879  21.0968023  72.1193857
  33.7939132  20.9241132  72.6023396  33.2829582  21.2878625  72.1335278
  32.7454452  29.2821804  62.4857628  32.3869107  29.4536447  63.2621661
  32.2593163  29.7435010  61.9285627  32.6213149  29.3760775  62.5182897
  30.5624838  12.9053003  66.0884720  29.6918396  12.8791724  66.0418029
  30.8165179  12.7330195  65.2710565  30.4718398  12.8763146  65.9604856
  27.5342817  24.9620970  55.0257863  27.8235342  25.7385852  55.3001437
  27.6214616  24.4509701  55.7272362  27.5897074  25.0012888  55.1700360
  33.9059191  30.1725700  73.4324829  34.5438912  29.6785896  73.0987285
  33.2633283  30.1003101  72.8477056  33.9053418  30.0884709  73.2967184
  35.6316192  22.0214846  67.9990745  35.2043800  21.9341195  67.2438844
  34.9942244  22.1292622  68.5845589  35.4745799  22.0247506  67.9736186
  33.9613448  30.8645508  70.0730186  34.7505826  30.5134573  70.1932267
  34.1357046  31.6781897  69.8106820  34.1033730  30.9331366  70.0518054
  23.7006758  24.2754234  67.1257975  22.8594765  24.1758108  67.3336869
  23.9096766  25.0449714  67.4772295  23.6071451  24.3746277  67.2085290
  21.1782325  21.8973771  64.9542725  20.7839023  21.9716783  64.1792835
  20.6222442  22.2831717  65.5051087  21.0385138  21.9655546  64.9210385
  32.8147272  14.8755065  64.6346604  33.0196866  14.8077373  65.4803601
  32.4873696  15.6813886  64.5667782  32.7962520  14.9841006  64.7506259
  27.5123423  22.2035633  66.3755572  27.2086561  21.6491622  66.9765980
  26.8102844  22.3827843  65.8883606  27.3639633  22.1480416  66.3925278
  26.5689520  19.5136153  60.9400274  26.8449255  18.7955066  60.5277842
  27.1688190  20.1121073  60.7321380  26.6982785  19.4956524  60.8481035
  25.5741774  29.4185354  71.0827670  25.4662129  29.4287416  71.9489728
  25.7837556  30.2440134  70.8932624  25.5891885  29.5426429  71.1831762
  36.0680960  15.4286829  64.1149370  35.4555274  15.9157232  64.5003102
  36.1645135  14.7530320  64.6587021  35.9918858  15.4005138  64.2528228
  30.0700041  17.1849671  59.2146869  30.5243787  17.3560231  59.9394714
  30.5440087  16.5717781  58.8144645  30.2068361  17.1200556  59.2620631
  23.5915566  26.6697996  68.5449608  23.0003500  27.3107495  68.5152623
  24.3536590  27.0935614  68.5180907  23.6163827  26.8273835  68.5364755
  39.7105988  26.5003766  69.5426886  39.7689112  26.9490415  70.2886862
  39.0772455  26.9102579  69.1056966  39.6257283  26.6277501  69.5879434
  33.3505083  32.1207308  65.9781632  33.1524771  32.6098123  65.2837843
  32.7292794  32.3248550  66.5565765  33.2292647  32.2223846  65.9604855
  27.4113061  23.8892205  60.3191876  28.1555106  24.2766481  60.5574826
  27.5573757  23.0449630  60.4832364  27.5423646  23.8222678  60.3785846
  29.3292636  15.6842464  65.3523738  28.4828681  15.8565272  65.2265088
  29.3263769  14.8791808  65.6889566  29.2039786  15.5903493  65.3834865
  30.3990937  19.4617678  66.2185796  29.9250891  18.9359440  66.7291107
  30.7709073  18.9147151  65.6500657  30.3840826  19.3033675  66.2100943
  36.6627667  24.5220054  67.6292576  36.4225890  23.6826469  67.6335003
  37.1419675  24.6020221  68.3533350  36.6979851  24.4101454  67.7367379
  32.3274436  20.3554233  59.2811549  31.7997455  20.4382977  58.5917258
  32.7870145  21.0972104  59.2776194  32.3176287  20.4774895  59.1786245
  38.6632854  21.3021511  65.5821835  38.4242624  21.2617345  64.7442620
  38.8266756  22.1492663  65.7087556  38.6523158  21.4213596  65.4775317
  35.2678884  25.6871460  71.5126880  35.9913083  25.2343987  71.3337900
  35.0028847  25.9676126  70.7299208  35.3360158  25.6622429  71.3705596
  24.1365753  20.2831634  68.2479760  23.5118823  20.2950026  67.6405712
  23.8011348  20.7591809  68.8971000  23.9951245  20.3550151  68.2536328
  24.3207502  18.6256752  54.3052445  23.9720306  19.2776478  54.7683994
  23.8403947  18.6113865  53.5776316  24.1977746  18.7199806  54.2663536
  20.8491428  28.3432094  69.6883524  20.3191353  27.6524533  69.7378499
  21.1216522  28.3342279  68.8596232  20.8116151  28.2399226  69.5730940
  31.8811519  28.9257796  58.4121207  32.6045718  29.3915909  58.2685780
  31.4412110  28.9931406  57.6618804  31.9227211  29.0041633  58.2805988
  31.0497674  25.7855339  69.6621896  30.4354667  25.2413389  69.9570531
  31.5664959  25.2719575  69.1827712  31.0353336  25.6291748  69.6346124
  30.2893971  26.8559609  67.3966194  29.8621579  26.2309327  66.9631630
  30.2818916  26.5734530  68.2225201  30.2253112  26.7212389  67.4546022
  28.6179681  17.7328363  67.6108728  28.6422168  17.1988475  66.9221508
  28.8691154  17.2245672  68.2734319  28.6589600  17.5789267  67.6073373
  16.1287271  25.0159858  67.0451872  16.0230720  24.9706702  66.1803956
  15.3787491  25.3613639  67.3266157  16.0022874  25.0600766  66.9589202
  24.8981003  16.4599181  66.9914472  24.9379375  16.9608388  67.7049180
  24.0730668  16.5509575  66.7220396  24.7820529  16.5480998  67.0565011
  26.3195366  22.9759691  69.2888371  25.4887296  23.1433509  69.0823620
  26.2646884  22.5995642  70.0737257  26.1884781  22.9449423  69.3736900
  24.6931410  21.2515283  59.8178489  24.8334371  21.7487747  60.5207131
  25.1913943  20.5501577  59.9592703  24.7872491  21.2217262  59.9430068
  24.7231633  22.1182394  57.1471066  25.3576712  22.7142819  57.0820528
  24.8057243  21.8185851  57.9616936  24.8288184  22.1623302  57.2574153
  37.7014198  24.6497871  70.0157430  38.2932039  25.2895122  70.0475628
  38.1373193  23.9520908  70.3049497  37.8532630  24.6416221  70.0638263
  26.3010616  18.0496369  57.1216508  26.6226457  17.5699452  56.4675770
  26.5637559  18.8596015  56.9307320  26.3876641  18.0986267  56.9972000
  29.5307588  29.0715244  70.6415324  29.0232679  29.6251090  71.0855955
  29.2334235  29.1323533  69.8234099  29.4112473  29.1621555  70.5863781
  31.6969771  17.4368563  69.4839987  32.1224842  16.9841090  68.8723513
  31.0826764  16.8828634  69.7604775  31.6698416  17.2882539  69.4345012
  21.2284621  24.3150235  60.4160612  21.7376850  24.9114742  60.7971918
  21.7018893  24.0476208  59.7337032  21.3727996  24.3636050  60.3715135
  32.1415369  32.9878501  58.5719268  31.4244678  32.8139363  58.1066505
  32.7922106  32.7531074  58.0394754  32.1317219  32.9274294  58.4248485
  30.1363993  13.9083663  62.8930564  29.4932311  13.7581309  63.4615703
  29.7963400  13.6626008  62.1279669  29.9909071  13.8495785  62.8633579
  34.7263340  21.8643090  62.3160573  34.0554530  22.4072792  62.1873638
  35.4203090  22.3337945  62.0742267  34.7292207  22.0141361  62.2616100
  28.7750074  34.0039802  67.5472331  28.5515728  33.2458631  67.9156357
  28.2859917  34.0337823  66.8252771  28.6693523  33.8962026  67.4949072
  34.8891467  18.3198973  65.2250946  35.2419077  17.8928696  65.8996745
  34.0306269  18.2349817  65.3552022  34.8140912  18.2443714  65.3445956
  23.5875152  20.9506493  63.2833792  22.8687141  21.3670626  63.5506656
  23.9587515  21.5160732  62.7325431  23.5367084  21.0955775  63.2416599
  32.8874733  21.5834342  69.1735788  32.8672660  21.4017637  70.0270567
  32.9353934  22.4546361  69.1495372  32.8909374  21.6850880  69.2959083
  30.8321063  28.1721534  75.0984265  30.7916918  27.5271211  74.5129421
  31.6444381  28.1158151  75.4109677  30.9464216  28.0680501  75.0581214
  27.4228531  34.2240260  65.0009416  27.0088929  33.5614390  64.6113257
  28.1075905  34.3718119  64.4805110  27.4626902  34.1480918  64.8665913
  30.7893825  33.3830345  65.7533032  30.3910108  33.4932615  64.9853852
  30.1745044  33.5912411  66.3359592  30.6392714  33.4303913  65.7264332
  29.3621727  19.9904493  58.6207172  28.7686566  20.3121489  58.0691739
  29.3997004  19.1445588  58.4128278  29.2796116  19.9128821  58.5089943
  36.3215527  13.4417385  66.1535258  35.8146392  12.7346525  66.0856436
  37.1182961  13.1110574  66.2836335  36.3642767  13.2890537  66.1634253
  32.2379543  19.9483997  62.0508922  32.0093236  19.9716699  61.2087280
  32.4977619  19.1241465  62.1703933  32.2425731  19.8300077  61.9434120
  25.2924306  18.4860544  63.3463118  25.7681672  18.8477624  62.7113299
  24.7912905  19.1417011  63.6263261  25.2889665  18.6354733  63.2939859
  38.5235667  27.9582312  59.1376123  38.9069273  28.7073668  59.3674220
  37.7279781  28.2048132  58.8788112  38.4629450  28.1052006  59.1333696
  27.3350959  20.6301744  56.7136502  27.7149924  20.6481373  55.9287617
  26.5943555  21.0755732  56.5927349  27.2819797  20.6983518  56.5800070
  34.9636249  18.9383935  62.3012080  34.9630476  18.7832591  63.1596357
  34.7592429  19.7846922  62.2453466  34.9336027  19.0404556  62.4200020
  17.0253520  22.3623719  66.7170897  16.8475281  21.9100328  67.4425813
  16.7372543  23.1649881  66.9009375  16.9566474  22.4146277  66.8514400
  32.6877101  23.6181437  65.9548287  33.1830767  22.9004432  65.9152308
  31.8776877  23.3152234  65.8402774  32.6420995  23.4679083  65.9322013
  28.1335713  27.4679250  58.1045292  27.3247036  27.1445923  58.0578601
  28.6410622  26.7612472  58.0373540  28.0885380  27.3160566  58.0875586
  18.7625990  24.8951443  63.8292656  17.8971510  24.8837133  63.7175427
  18.8624806  24.7081666  64.6763795  18.6500157  24.8657504  63.9381600
  34.7528920  26.3685124  68.6425416  35.1783992  25.8459546  68.0895841
  34.3885840  26.9665962  68.1214039  34.7615523  26.3795351  68.4834426
  24.3883000  34.6649342  67.4022762  24.7029559  35.4785730  67.4100543
  24.7976413  34.2799560  68.0704921  24.4951098  34.7278044  67.5026853
  31.3407520  30.0819388  64.9726574  31.8118698  30.7959651  65.1416559
  31.6767698  29.4818139  65.5086443  31.4602635  30.0990853  65.0758949
  33.4284504  31.6920702  77.1518646  33.5381470  30.9029262  77.5075393
  33.7575401  31.6026638  76.3492984  33.4936910  31.5626555  77.0861036
  31.9781466  29.8737323  71.7354266  31.4302412  29.2495206  71.4674331
  32.4394495  30.0631595  71.0198346  31.9648676  29.8096373  71.5904697
  34.7875330  17.9422677  69.1205458  34.2038319  18.4431883  68.7083026
  35.1079625  17.4352233  68.4869782  34.7488506  17.9414512  68.9663966
  27.3270130  16.8563272  59.3964133  28.1485824  17.0261585  59.1545828
  26.8639781  17.0110533  58.6730431  27.3801292  16.9045005  59.2535778
  21.7296020  28.6122450  67.0501370  22.3340878  28.5718284  66.4215191
  21.5223333  29.4593602  67.0805426  21.7884918  28.7310453  66.9617486
  31.5439792  30.8788395  68.2663607  32.3638166  30.7351361  68.5279903
  31.2633870  31.5034594  68.8080045  31.6236536  30.9498747  68.3851547
  16.9647303  27.5957068  66.9200293  16.8671581  26.7853339  67.2290350
  17.7476172  27.5748861  66.5346561  17.0663439  27.4724158  66.9087156
  41.2153128  37.6228898  65.9859414  40.3591023  37.7837396  66.0368531
  41.2620781  36.7520962  66.0064475  41.0952239  37.5179700  65.9965480
  44.5246844  43.8915424  75.5919870  45.2313611  43.3967454  75.7206805
  44.7134780  44.3324505  74.8622528  44.6574750  43.8833774  75.5028916
  44.0604949  39.6820942  68.6291066  44.6060909  40.3606028  68.6885035
  44.0021825  39.5408403  67.7692647  44.1320863  39.7612944  68.5103126
  37.1779024  47.1710008  64.0159418  37.2789386  46.3610362  64.3256546
  36.5820769  47.0766954  63.3859097  37.1051562  47.0375036  63.9685657
  37.0179763  52.0887597  65.4174274  37.6617219  52.5300761  65.8070433
  37.3436019  51.2841023  65.3304533  37.1611592  52.0352792  65.4619752
  30.3744068  43.1930294  63.6411752  30.1394252  42.3597947  63.5344021
  30.5129709  43.4734960  62.8272953  30.3599730  43.1113798  63.5054107
  32.6734155  35.3616025  66.5396060  32.0539187  34.7708672  66.3706074
  32.5718019  35.9527460  65.9060383  32.5671831  35.3620108  66.4201049
  39.7702051  37.1015567  60.8728523  40.4682216  37.2803694  61.3649986
  40.0854383  36.5785906  60.2498912  39.9197388  37.0509339  60.8530533
  32.4003288  38.9068307  68.7839629  32.2761985  39.4930752  69.4189447
  33.0521573  38.4128503  69.0851904  32.4776938  38.9207111  68.9225558
  37.4261629  42.0830024  68.0627140  38.0710632  41.5902467  67.7438088
  37.6663406  42.2254810  68.8893218  37.5572214  42.0307466  68.1376673
  39.9647721  44.9284930  67.7134032  40.2470963  44.1336335  67.4920788
  40.6933881  45.4065517  67.7339093  40.1137284  44.8819527  67.6837047
  37.9428914  32.4707964  64.9549797  37.6132245  32.9219107  64.2853496
  37.2673916  32.3924127  65.5022804  37.7939351  32.5259099  64.9373021
  45.1505322  28.4593486  63.1999408  44.8358763  29.1496965  63.6319830
  44.6332264  28.4038269  62.4984909  45.0269793  28.5528375  63.1596357
  36.3817364  42.3561204  58.1144286  35.7974579  42.8611236  58.5210150
  35.9787459  42.1303591  57.3740878  36.2356668  42.3969452  58.0649312
  31.9361392  48.0715965  64.9167958  31.4528971  48.7966455  64.8927542
  32.7484711  48.3692095  65.0278116  31.9852140  48.2218319  64.9295237
  38.0075547  46.8648146  67.5217773  37.4902488  46.5055561  66.9179081
  38.7049938  46.3410320  67.5323839  38.0341128  46.7345834  67.4348031
  41.6639139  47.3142960  73.4833946  41.7522484  47.1269100  74.3312156
  42.0928851  46.6680390  73.0838792  41.7401241  47.1905968  73.5505697
  39.2309598  46.5974120  72.4651608  38.6680433  46.1846730  72.9891269
  39.9930622  46.5227026  72.8844751  39.2604047  46.5251521  72.6044608
  36.1484869  30.5320252  60.4372745  36.9030837  30.8998569  60.1989795
  35.9712403  30.9059806  61.2051925  36.2339347  30.6418440  60.5157634
  34.7905590  48.5872141  65.0688238  35.4926169  48.0724130  65.1260994
  34.7103073  48.9146293  65.8735113  34.8829350  48.5586367  65.1961030
  49.4419767  36.6814692  68.4820284  48.6048188  36.7516880  68.7167879
  49.4107998  36.6839187  67.6094587  49.3138050  36.6924920  68.3879832
  35.8384496  38.8247728  74.1968653  36.0105000  38.7153623  75.0453934
  36.3753854  39.4702134  73.9599845  35.9429500  38.9039730  74.2873750
  34.5041933  32.9390571  57.1350858  34.3217506  33.1562452  56.3091851
  35.3667546  33.0529584  57.1909472  34.6046523  32.9880469  57.0205345
  34.1156365  44.7778493  64.5773846  34.9545265  45.0101426  64.6247608
  34.1468134  43.9082805  64.5080881  34.2438083  44.6835440  64.5738491
  34.7409068  45.1979368  68.8787151  35.2807293  45.0550499  69.5490524
  34.0579014  45.5976119  69.2471178  34.7201222  45.2359039  69.0321573
  40.1841652  29.9416982  60.1699882  40.9127813  29.7632937  59.7238038
  40.2736545  30.7835061  60.3807060  40.3048314  30.0400860  60.1353399
  44.1649953  40.8770369  64.0732176  44.9207468  41.3101883  64.1121085
  44.2712278  40.2275139  64.6466812  44.2920124  40.8447853  64.1630201
  47.2030124  44.7043646  64.8234579  46.7665356  44.7080389  65.5793550
  46.8693040  45.3849145  64.3914156  47.0892744  44.8056102  64.8715411
  41.7759198  46.7451979  76.1477729  42.5599614  46.8582827  76.5133471
  41.5755792  45.9193116  76.3436415  41.8625223  46.6398699  76.2312115
  30.1446213  41.4179659  69.0321573  29.8784628  40.6018776  69.1912563
  30.1584777  41.4632815  68.1617088  30.1070936  41.3036564  68.9275055
  47.1227607  31.7457474  67.0664007  47.7653516  31.8155579  67.6525922
  47.3750628  31.0786697  66.5643549  47.2549739  31.6583823  67.0791286
  34.8944820  34.9558037  71.6788581  34.2016616  34.4855017  71.9249312
  35.5105147  34.7296342  72.2530288  34.8829350  34.8525169  71.7997733
  41.9329591  48.6562081  69.7944185  41.1344837  48.4161581  70.0518053
  42.3815603  48.7076474  70.5411232  41.8804202  48.6284472  69.9429109
  30.5539627  42.2038439  66.3133317  30.3715200  42.1785325  65.4605609
  31.2889296  42.6737376  66.3522226  30.6353691  42.2699801  66.1931236
  46.6239301  42.4389949  63.4566205  46.8594890  42.5835147  62.6293055
  46.7728865  43.2032357  63.8497718  46.6805104  42.5729003  63.3929809
  33.6185379  38.9223441  72.8215426  34.3425351  38.9076472  73.3080321
  33.7201515  39.6318797  72.3237394  33.7403588  39.0248145  72.8194213
  40.9930328  42.4022526  77.6864373  40.2003309  42.7166038  77.8716993
  41.1079255  42.6173994  76.8485158  40.8925739  42.4806363  77.5902708
  41.9214121  42.3042730  72.6249670  42.4952982  41.6669974  72.7798234
  41.8428925  42.3046812  71.7559327  41.9947356  42.2107841  72.5196080
  30.5210537  39.0831939  66.4632384  31.0984040  38.9468390  67.1024629
  29.8224599  38.6267723  66.7177968  30.5031559  38.9954205  66.5954673
  37.2777839  40.7365995  64.6770867  37.0197084  39.9037730  64.6502166
  37.3326322  40.9623608  63.8363367  37.2477617  40.6463766  64.5491004
  42.3578890  32.8394446  64.7774960  41.6535216  32.3503631  64.9358879
  42.4063864  32.8516920  63.9063404  42.2608941  32.7684094  64.6714300
  36.2512552  38.2903757  65.1635762  35.6762143  38.4495926  65.7999723
  35.8748228  37.6539167  64.7004212  36.1115364  38.2201570  65.1890320
  39.9185840  36.7627107  70.0228140  39.5300273  36.3381324  69.3680331
  39.2540539  37.0109256  70.5305167  39.7632768  36.7365828  70.0016008
  49.5609109  36.5202111  62.7975970  49.3045674  35.7082053  62.6073853
  50.4038423  36.5279679  62.5706158  49.6475135  36.4014109  62.7360787
  25.9969370  37.9343832  63.1780202  26.0829622  37.5575701  63.9593732
  26.6245168  37.5604278  62.7000161  26.1025921  37.8229314  63.2225680
  43.7412202  30.4601735  67.5352124  44.1222714  29.7779907  67.9219999
  42.9375486  30.1711338  67.3527789  43.6788663  30.3168784  67.5656180
  47.2434269  43.6751707  72.6334523  47.0072906  42.8439772  72.5146583
  47.8877498  43.6237315  73.2189367  47.3028939  43.5449395  72.7020416
  36.8932687  44.4647229  63.3477259  37.5306634  44.2258976  63.8929053
  37.3187758  44.6684388  62.6130420  37.0508853  44.4598239  63.3194417
  31.5845329  46.7035565  67.2311563  31.6249474  46.9750416  66.4031343
  32.1439853  47.2277473  67.6469351  31.6728675  46.8211320  67.1703451
  37.7004042  32.9655934  77.4014733  37.3857483  33.7355496  77.1384296
  37.3793975  32.4026190  76.8166960  37.6062961  32.9966202  77.2756083
  48.2670689  43.4596156  68.6962817  47.9616506  44.1924213  69.0576133
  47.5476905  43.0534086  68.4155603  48.1158032  43.5077889  68.7075954
  39.2754159  44.9419651  65.0271046  39.3493167  44.7794823  65.8812895
  40.0923665  45.1309841  64.7831527  39.4070517  44.9456394  65.1169071
  53.9672481  40.0989157  68.0231162  53.8996982  40.1185116  67.1533748
  53.9528144  40.9419484  68.2486832  53.9551238  40.2262892  67.9283638
  33.0359915  45.2877514  62.0565489  32.2098033  45.5339251  61.9299768
  33.0971907  45.2089595  62.9227547  32.9234082  45.3122463  62.1654433
  35.2535939  31.3546455  63.0160929  34.3858365  31.4269055  63.0818538
  35.5411143  32.1568534  63.2048904  35.1675687  31.4840602  63.0535696
  44.3768828  31.5024315  71.3472251  45.1222420  31.3134125  70.9335676
  43.9606132  32.0282552  70.7886107  44.4253802  31.5526460  71.2036824
  51.7531099  38.8733543  66.2977756  52.3039020  38.2401612  66.5374848
  51.7375214  39.4048936  66.9893260  51.8316295  38.8582491  66.4356614
  38.4053490  42.7072140  70.8437649  37.9065183  43.4187908  70.9222538
  39.2153714  43.0272807  70.8055812  38.4509596  42.8598989  70.8494218
  35.7564660  49.8821777  62.8244669  35.5364955  49.5919132  63.6171336
  35.5359182  49.2236732  62.2962581  35.6912254  49.7421485  62.8633577
  34.6681607  41.9695093  65.0900370  34.3794856  41.3432565  65.6246098
  35.5364955  41.9115381  65.1565051  34.7541859  41.8682638  65.1791325
  45.4559505  37.1129877  65.4082352  45.1124271  36.3920212  65.7589602
  45.5552548  36.9043728  64.5660710  45.4201548  36.9754080  65.3354032
  37.9232616  51.2551167  61.6075361  38.5756674  50.7227609  61.8366387
  37.2258224  50.9019819  61.9943235  37.9163334  51.1240690  61.6987529
  34.8713881  43.6090344  61.0142735  35.6259849  43.9903383  61.2278198
  34.2784493  44.0601488  61.4689432  34.8950594  43.7319172  61.1125614
  37.3320548  35.5653185  76.1399948  36.5220323  35.8710964  76.0289790
  37.8095234  36.2858767  76.2552532  37.2824026  35.7167786  76.1407019
  36.1912107  44.7798906  66.3882851  35.6692861  44.9199197  67.0734715
  36.5786127  44.0209570  66.5784968  36.1715808  44.6884430  66.5183927
  33.1803291  34.8304714  60.4577805  32.8928087  34.4605985  59.7209753
  33.8673759  35.2999570  60.1961510  33.2392188  34.8451684  60.3092881
  37.6178433  41.8102925  61.7864342  37.4221215  42.4177659  61.1924645
  37.8412778  41.1170869  61.3056016  37.6213074  41.7980450  61.6280423
  36.0156963  38.6957663  61.9045210  36.7379615  38.8598821  61.4449016
  35.5364956  39.4167328  61.7984550  36.0520693  38.8255892  61.8210824
  33.6664579  41.1015735  71.0099350  34.1785676  41.3799988  70.3608110
  33.3800922  41.8405029  71.3762163  33.6999443  41.2518089  70.9689228
  42.4219749  31.9306838  62.0169511  43.1246101  31.7314587  61.5389469
  42.1563937  31.1582781  62.3238354  42.4866381  31.7869805  61.9914953
  47.8507994  40.2389448  64.5703137  47.7641969  40.3944874  65.4237916
  47.3958474  40.8827524  64.1962542  47.7711251  40.3565203  64.6410244
  30.7531486  35.6085927  61.3063087  30.8547622  36.4112088  61.6344062
  31.5487373  35.4073263  61.0086167  30.8859391  35.6971826  61.3098442
  37.1848305  33.1942124  71.0700392  36.9931502  33.2097258  71.9199815
  38.0346901  33.3905798  71.0467046  37.2824027  33.2256475  71.1923686
  31.5695218  35.7233105  69.0484208  31.4280710  34.8717046  69.1728716
  31.8535781  35.7661766  68.2246414  31.5903064  35.6032855  68.9451832
  41.7233810  37.5600195  63.1928696  41.4768525  37.4795946  64.0265485
  42.0518933  36.7753663  62.9991224  41.7355054  37.4326461  63.2876219
  45.6181859  44.2683555  66.9815478  45.4796218  44.9664600  67.4864220
  44.8381857  44.1132211  66.6251659  45.4825086  44.3483721  67.0041752
  43.9559944  40.5679930  73.2337859  43.9507983  39.6959747  73.2380286
  44.6620938  40.7668099  72.7607315  44.0604948  40.4683804  73.1644895
  37.6830838  40.2956914  72.6051679  37.8274213  40.8758122  71.9694789
  38.0306486  40.6733211  73.3101534  37.7558299  40.4377618  72.6150674
  39.8550755  39.4947082  70.3876811  39.1074069  39.6878097  69.9825089
  40.0092280  38.6692302  70.1500932  39.7673182  39.4012194  70.2922217
  36.7558593  48.4859686  69.4712706  36.9048156  47.9262602  68.8186111
  37.5358595  48.5651687  69.8545225  36.8932686  48.4145251  69.4309655
  39.2811893  48.6574329  70.7497197  39.2055564  47.9883139  71.3047985
  39.2101752  49.3592117  71.2637863  39.2592500  48.6619236  70.9074045
  40.0952532  33.3897633  71.2772215  40.5525146  34.1221607  71.4045007
  40.1708861  32.9664098  72.0359471  40.1743502  33.4354871  71.4073291
  32.3385523  33.6363453  72.3661658  31.8027713  33.0243811  72.6822426
  32.4003288  34.2111589  73.0195325  32.2681156  33.6310380  72.5097085
  44.5679858  26.5687508  65.1466058  44.6863426  27.0263972  64.4133360
  44.3942034  25.7632769  64.8602275  44.5599029  26.5181280  64.9966991
  37.9734910  35.3799737  68.1214039  37.1830985  35.1991197  68.4431375
  38.3695533  34.6026690  68.1044333  37.9151786  35.2387198  68.1666587
  43.3578596  43.0142167  65.8473485  42.6823598  42.7827399  66.3486872
  43.3670972  42.4063350  65.2215590  43.2597101  42.8901092  65.8289637
  40.4872740  37.8559996  72.6037538  40.4231881  38.7169953  72.4757674
  40.6269928  37.5391989  71.8033089  40.4988210  37.9360163  72.4665751
  39.1691834  40.5492135  66.7453741  38.7454083  40.7496634  66.0092759
  38.9936689  39.7020983  66.8578040  39.0802715  40.4540917  66.6527431
  38.6703527  52.0642648  69.2075198  39.1599458  51.3653438  69.0250862
  38.0987760  51.7666518  69.7951255  38.6588057  51.9168872  69.2676239
  34.4574279  41.0444187  62.1781713  34.6138898  40.9790990  63.0337705
  34.7974872  41.8192739  61.9660393  34.5307514  41.1493385  62.2736307
  44.8670531  44.6304718  78.1601989  45.6805396  44.3589867  78.3207121
  44.7065497  44.3312258  77.3562184  44.9640479  44.5459644  78.0647394
  42.1442693  35.3138375  71.0997377  42.3584663  34.6749289  70.5460731
  41.5276592  35.7584199  70.6705239  42.0848022  35.2848519  70.9547808
  43.5547361  48.2357123  62.5451598  43.1627153  47.9323838  61.8274464
  43.7100433  49.0726213  62.3556551  43.5200951  48.3140960  62.4108095
  31.0308540  38.2279137  62.4942480  31.4107505  38.6463682  61.8302748
  30.4563905  38.8092593  62.8011324  31.0019865  38.3756996  62.4419221
  44.3081781  36.9227440  72.0380684  43.4958463  36.6153331  72.1193857
  44.7671716  36.4426440  72.6023396  44.2562166  36.8063933  72.1335278
  43.7187036  44.8007112  62.4857628  43.3601690  44.9721755  63.2621661
  43.2325746  45.2620318  61.9285627  43.5945733  44.8946083  62.5182897
  41.5357422  28.4238311  66.0884720  40.6650980  28.3977032  66.0418029
  41.7897763  28.2515503  65.2710565  41.4450982  28.3948454  65.9604856
  41.4035288  38.3287512  76.8209386  41.8734920  38.9529628  77.2077260
  41.4497169  37.6604487  77.3802601  41.4803164  38.3222192  76.9609458
  38.5606562  30.4344539  67.5458190  38.0445051  29.7424731  67.6709769
  38.0000491  31.1015316  67.4920789  38.4013075  30.4307797  67.5564256
  40.6298796  30.9737499  69.3751043  40.2430549  30.9986531  70.1564572
  40.1431733  30.4079178  68.9225559  40.5011304  30.8933250  69.4238946
  44.8791775  45.6911008  73.4324829  45.5171496  45.1971204  73.0987285
  44.2365867  45.6188409  72.8477056  44.8786002  45.6070017  73.2967184
  46.6048775  37.5400154  67.9990745  46.1776383  37.4526503  67.2438844
  45.9674828  37.6477930  68.5845589  46.4478382  37.5432814  67.9736186
  40.2955937  27.8604485  71.6661302  40.9249055  28.3964785  71.3882373
  40.4641800  27.7681844  72.5174868  40.4133732  27.9265847  71.7509831
  40.0969852  32.6475679  73.9387714  40.9243282  32.3760828  73.9946329
  40.1177698  33.4436521  74.2951532  40.2222702  32.7255434  74.0002897
  44.9346032  46.3830816  70.0730186  45.7238410  46.0319881  70.1932267
  45.1089629  47.1967205  69.8106820  45.0766313  46.4516673  70.0518054
  34.6739342  39.7939542  67.1257975  33.8327349  39.6943416  67.3336869
  34.8829350  40.5635022  67.4772295  34.5804035  39.8931585  67.2085290
  32.1514909  37.4159079  64.9542725  31.7571607  37.4902091  64.1792835
  31.5955026  37.8017025  65.5051087  32.0117721  37.4840854  64.9210385
  43.7879856  30.3940373  64.6346604  43.9929449  30.3262681  65.4803601
  43.4606280  31.1999194  64.5667782  43.7695104  30.5026313  64.7506259
  38.4856007  37.7220941  66.3755572  38.1819144  37.1676930  66.9765980
  37.7835428  37.9013151  65.8883606  38.3372217  37.6665724  66.3925278
  37.5422104  35.0321461  60.9400274  37.8181838  34.3140374  60.5277842
  38.1420773  35.6306381  60.7321380  37.6715369  35.0141832  60.8481035
  36.5474358  44.9370662  71.0827670  36.4394713  44.9472724  71.9489728
  36.7570139  45.7625442  70.8932624  36.5624469  45.0611737  71.1831762
  47.0413543  30.9472137  64.1149370  46.4287857  31.4342539  64.5003102
  47.1377718  30.2715628  64.6587021  46.9651441  30.9190446  64.2528228
  41.0432624  32.7034978  59.2146869  41.4976371  32.8745539  59.9394714
  41.5172670  32.0903089  58.8144645  41.1800945  32.6385864  59.2620631
  34.5648150  42.1883304  68.5449608  33.9736083  42.8292803  68.5152623
  35.3269173  42.6120922  68.5180907  34.5896411  42.3459143  68.5364755
  34.9608773  33.3485302  69.2117625  35.4210254  33.4224232  69.9492749
  35.0064879  34.1466556  68.8617447  35.0359328  33.4779449  69.2690382
  36.6092122  34.0151997  73.7789652  36.2177688  33.3685344  74.2145430
  36.7777985  34.6063432  74.3983908  36.5763033  34.0066265  73.9352358
  50.6838571  42.0189074  69.5426886  50.7421695  42.4675723  70.2886862
  50.0505039  42.4287887  69.1056966  50.5989867  42.1462809  69.5879434
  44.3237666  47.6392616  65.9781632  44.1257355  48.1283430  65.2837843
  43.7025377  47.8433857  66.5565765  44.2025231  47.7409154  65.9604855
  38.3845644  39.4077513  60.3191876  39.1287689  39.7951789  60.5574826
  38.5306341  38.5634938  60.4832364  38.5156230  39.3407986  60.3785846
  40.3025220  31.2027772  65.3523738  39.4561265  31.3750579  65.2265088
  40.2996352  30.3977115  65.6889566  40.1772370  31.1088801  65.3834865
  41.3723520  34.9802986  66.2185796  40.8983475  34.4544748  66.7291107
  41.7441656  34.4332459  65.6500657  41.3573409  34.8218983  66.2100943
  31.7496550  36.9774493  71.5869341  32.6122164  36.8770202  71.5006671
  31.4188333  36.3969202  71.0254914  31.8281747  36.8766120  71.4914747
  47.6360251  40.0405362  67.6292576  47.3958474  39.2011777  67.6335003
  48.1152258  40.1205528  68.3533350  47.6712435  39.9286761  67.7367379
  49.6365438  36.8206819  65.5821835  49.3975208  36.7802653  64.7442620
  49.7999339  37.6677971  65.7087556  49.6255741  36.9398904  65.4775317
  46.2411468  41.2056768  71.5126880  46.9645667  40.7529295  71.3337900
  45.9761430  41.4861434  70.7299208  46.3092741  41.1807737  71.3705596
  35.1098336  35.8016942  68.2479760  34.4851407  35.8135334  67.6405712
  34.7743931  36.2777117  68.8971000  34.9683828  35.8735459  68.2536328
  31.8224012  43.8617402  69.6883524  31.2923937  43.1709841  69.7378499
  32.0949105  43.8527587  68.8596232  31.7848734  43.7584534  69.5730940
  42.0230258  41.3040646  69.6621896  41.4087251  40.7598697  69.9570531
  42.5397543  40.7904883  69.1827712  42.0085920  41.1477056  69.6346124
  41.2626555  42.3744917  67.3966194  40.8354163  41.7494635  66.9631630
  41.2551499  42.0919838  68.2225201  41.1985696  42.2397697  67.4546022
  34.3789082  37.4110090  70.4654628  34.5382569  36.6553414  70.8706350
  34.1981975  37.9601029  71.1195366  34.3754441  37.3803903  70.6217334
  42.3209385  29.5771325  71.0205418  41.8249946  29.7734999  70.3296984
  43.0778447  29.9763993  70.8494219  42.3596210  29.6649059  70.8925554
  39.5912264  33.2513671  67.6108728  39.6154752  32.7173783  66.9221508
  39.8423738  32.7430980  68.2734319  39.6322183  33.0974575  67.6073373
  27.1019854  40.5345166  67.0451872  26.9963303  40.4892010  66.1803956
  26.3520074  40.8798947  67.3266157  26.9755457  40.5786074  66.9589202
  35.8713587  31.9784489  66.9914472  35.9111958  32.4793696  67.7049180
  35.0463251  32.0694883  66.7220396  35.7553113  32.0666306  67.0565011
  38.0543200  41.5445229  75.0934767  37.2038830  41.6816944  75.2292412
  38.2171327  40.8109008  75.5382469  37.9527063  41.4559331  75.1790366
  37.2927950  38.4944999  69.2888371  36.4619880  38.6618817  69.0823620
  37.2379467  38.1180950  70.0737257  37.1617365  38.4634730  69.3736900
  35.1011733  31.9853892  74.9244782  35.7264437  31.4416025  75.1974214
  34.6462213  31.5048810  74.3552573  35.1259994  31.8343373  74.8806376
  35.6663994  36.7700591  59.8178489  35.8066955  37.2673055  60.5207131
  36.1646527  36.0686885  59.9592703  35.7605075  36.7402569  59.9430068
  35.6964216  37.6367702  57.1471066  36.3309296  38.2328127  57.0820528
  35.7789827  37.3371159  57.9616936  35.8020767  37.6808610  57.2574153
  48.6746782  40.1683179  70.0157430  49.2664622  40.8080430  70.0475628
  49.1105777  39.4706216  70.3049497  48.8265213  40.1601529  70.0638263
  37.2743199  33.5681677  57.1216508  37.5959040  33.0884760  56.4675770
  37.5370143  34.3781323  56.9307320  37.3609225  33.6171575  56.9972000
  40.5040172  44.5900551  70.6415324  39.9965263  45.1436398  71.0855955
  40.2066818  44.6508841  69.8234099  40.3845057  44.6806863  70.5863781
  42.6702354  32.9553871  69.4839987  43.0957426  32.5026398  68.8723513
  42.0559347  32.4013942  69.7604775  42.6430999  32.8067847  69.4345012
  32.2017204  39.8335542  60.4160612  32.7109433  40.4300050  60.7971918
  32.6751476  39.5661516  59.7337032  32.3460580  39.8821358  60.3715135
  41.1096577  29.4268971  62.8930564  40.4664895  29.2766617  63.4615703
  40.7695984  29.1811316  62.1279669  40.9641654  29.3681093  62.8633579
  39.7482657  49.5225110  67.5472331  39.5248312  48.7643939  67.9156357
  39.2592500  49.5523131  66.8252771  39.6426106  49.4147334  67.4949072
  45.8624051  33.8384281  65.2250946  46.2151661  33.4114004  65.8996745
  45.0038852  33.7535125  65.3552022  45.7873496  33.7629022  65.3445956
  34.5607736  36.4691801  63.2833792  33.8419725  36.8855934  63.5506656
  34.9320098  37.0346040  62.7325431  34.5099668  36.6141082  63.2416599
  43.8607317  37.1019650  69.1735788  43.8405244  36.9202945  70.0270567
  43.9086517  37.9731668  69.1495372  43.8641958  37.2036188  69.2959083
  41.8053647  43.6906842  75.0984265  41.7649501  43.0456519  74.5129421
  42.6176965  43.6343459  75.4109677  41.9196800  43.5865809  75.0581214
  38.3961114  49.7425568  65.0009416  37.9821513  49.0799698  64.6113257
  39.0808488  49.8903427  64.4805110  38.4359486  49.6666226  64.8665913
  41.7626408  48.9015653  65.7533032  41.3642691  49.0117923  64.9853852
  41.1477628  49.1097719  66.3359592  41.6125298  48.9489221  65.7264332
  40.3354310  35.5089801  58.6207172  39.7419150  35.8306797  58.0691739
  40.3729588  34.6630896  58.4128278  40.2528699  35.4314129  58.5089943
  47.2948111  28.9602693  66.1535258  46.7878976  28.2531833  66.0856436
  48.0915545  28.6295882  66.2836335  47.3375350  28.8075845  66.1634253
  37.4931355  37.3203778  71.6534022  36.9810258  36.7124961  72.0119054
  37.3210851  38.0360371  72.1207998  37.3920992  37.3367078  71.7750246
  32.3397070  35.7641354  74.3036384  32.1699660  36.4242729  73.7584591
  31.8963020  35.9747915  75.0248873  32.2496404  35.8927336  74.3298014
  36.2656889  34.0045852  63.3463118  36.7414256  34.3662932  62.7113299
  35.7645489  34.6602319  63.6263261  36.2622248  34.1540040  63.2939859
  41.3700426  35.2428023  74.0936278  41.9271856  35.0141833  73.4614743
  41.0461491  36.0033689  73.8171490  41.4046836  35.3211860  73.9592775
  29.2399134  38.6688219  69.5624874  28.6925854  37.9988865  69.6805742
  30.0291513  38.3018067  69.6268341  29.2751318  38.5153206  69.5893575
  39.0883543  38.3295676  75.0588285  39.8394870  38.6447353  75.3727839
  39.2806119  38.1274847  74.2322207  39.2274957  38.3463058  74.9831681
  45.9368833  34.4569243  62.3012080  45.9363059  34.3017899  63.1596357
  45.7325013  35.3032230  62.2453466  45.9068611  34.5589863  62.4200020
  27.9986104  37.8809027  66.7170897  27.8207865  37.4285636  67.4425813
  27.7105126  38.6835189  66.9009375  27.9299057  37.9331585  66.8514400
  43.6609685  39.1366745  65.9548287  44.1563350  38.4189740  65.9152308
  42.8509461  38.8337542  65.8402774  43.6153578  38.9864391  65.9322013
  29.7358574  40.4136751  63.8292656  28.8704093  40.4022441  63.7175427
  29.8357390  40.2266974  64.6763795  29.6232741  40.3842812  63.9381600
  45.7261504  41.8870432  68.6425416  46.1516575  41.3644854  68.0895841
  45.3618424  42.4851269  68.1214039  45.7348106  41.8980659  68.4834426
  35.3615584  50.1834650  67.4022762  35.6762143  50.9971038  67.4100543
  35.7708997  49.7984868  68.0704921  35.4683682  50.2463352  67.5026853
  42.3140103  45.6004696  64.9726574  42.7851282  46.3144959  65.1416559
  42.6500282  45.0003446  65.5086443  42.4335218  45.6176161  65.0758949
  44.4017088  47.2106010  77.1518646  44.5114053  46.4214570  77.5075393
  44.7307985  47.1211946  76.3492984  44.4669494  47.0811863  77.0861036
  39.2309598  30.3732167  71.9284668  39.3637504  29.5763160  72.2565644
  39.6154751  30.8998570  72.5082944  39.3065927  30.3332084  72.0628171
  42.9514050  45.3922630  71.7354266  42.4034996  44.7680514  71.4674331
  43.4127078  45.5816902  71.0198346  42.9381259  45.3281681  71.5904697
  42.3041953  27.2962493  68.5265762  41.4987917  27.1860223  68.8433600
  42.1748689  27.3974949  67.6695627  42.1662086  27.2946163  68.4473802
  45.7607914  33.4607985  69.1205458  45.1770903  33.9617191  68.7083026
  46.0812208  32.9537541  68.4869782  45.7221089  33.4599820  68.9663966
  38.3002713  32.3748580  59.3964133  39.1218408  32.5446893  59.1545828
  37.8372364  32.5295841  58.6730431  38.3533875  32.4230313  59.2535778
  36.8898045  30.3691342  70.1762562  37.4342458  30.0282469  70.7666904
  36.9434981  31.2276803  70.3183847  36.9787164  30.4446601  70.2844435
  32.7028604  44.1307758  67.0501370  33.3073461  44.0903592  66.4215191
  32.4955916  44.9778910  67.0805426  32.7617501  44.2495760  66.9617486
  42.5172376  46.3973703  68.2663607  43.3370750  46.2536669  68.5279903
  42.2366454  47.0219902  68.8080045  42.5969119  46.4684055  68.3851547
  27.9379886  43.1142376  66.9200293  27.8404164  42.3038647  67.2290350
  28.7208756  43.0934169  66.5346561  28.0396023  42.9909466  66.9087156
  58.9886026  54.0538555  61.2306484  58.9580031  54.9083192  61.4024753
  59.5867375  53.7533847  61.7892627  59.0723184  54.1355051  61.3381286
  52.1885711  53.1414206  65.9859414  51.3323607  53.3022704  66.0368531
  52.2353365  52.2706270  66.0064475  52.0684823  53.0365008  65.9965480
  46.5726851  62.6776924  61.7496646  45.8209750  62.2992462  61.5212691
  47.0212863  62.7095357  61.0015456  46.5276518  62.6262531  61.6054148
  52.0251811  63.1002293  57.1782193  51.6903179  63.7779215  56.7426415
  52.5378681  62.7107604  56.5899064  52.0517392  63.1426871  57.0268984
  51.5656102  65.0516562  63.1193304  51.9495481  65.6203461  62.5798080
  51.5015243  64.3266072  62.6399120  51.6129529  65.0292025  62.9687167
  55.0337532  55.2006250  68.6291066  55.5793492  55.8791336  68.6885035
  54.9754409  55.0593711  67.7692647  55.1053447  55.2798251  68.5103126
  48.1511607  62.6895316  64.0159418  48.2521970  61.8795670  64.3256546
  47.5553352  62.5952262  63.3859097  48.0784146  62.5560344  63.9685657
  56.8102601  56.6290857  59.5024794  56.6942127  57.3798543  59.9316932
  57.6058488  56.3714810  59.7520881  56.9107190  56.7025704  59.6028885
  47.9912347  67.6072905  65.4174274  48.6349802  68.0486069  65.8070433
  48.3168602  66.8026331  65.3304533  48.1344175  67.5538100  65.4619752
  41.3476651  58.7115602  63.6411752  41.1126836  57.8783255  63.5344021
  41.4862292  58.9920268  62.8272953  41.3332314  58.6299106  63.5054107
  43.6466739  50.8801333  66.5396060  43.0271770  50.2893980  66.3706074
  43.5450602  51.4712768  65.9060383  43.5404414  50.8805416  66.4201049
  48.6932926  60.6184880  60.7894136  49.0148767  61.1590087  60.1855444
  49.3405023  60.0481651  60.9216426  48.8358982  60.6144055  60.7201171
  50.7434634  52.6200875  60.8728523  51.4414799  52.7989002  61.3649986
  51.0586967  52.0971214  60.2498912  50.8929972  52.5694647  60.8530533
  43.3735872  54.4253615  68.7839629  43.2494569  55.0116060  69.4189447
  44.0254156  53.9313810  69.0851904  43.4509521  54.4392419  68.9225558
  50.9322570  59.0071320  60.8608314  51.3716205  58.3988420  61.3063087
  50.7827233  58.6278693  60.0893779  50.9744036  58.8609791  60.8127482
  48.3994213  57.6015332  68.0627140  49.0443215  57.1087775  67.7438088
  48.6395990  57.7440118  68.8893218  48.5304798  57.5492774  68.1376673
  50.9380304  60.4470238  67.7134032  51.2203547  59.6521643  67.4920788
  51.6666465  60.9250825  67.7339093  51.0869868  60.4004834  67.6837047
  54.5331906  57.3598501  57.8139083  54.4483202  58.2159468  57.9588652
  55.0216290  57.0842825  58.4821243  54.5920804  57.4455823  57.9341165
  56.1237906  43.9778794  63.1999408  55.8091347  44.6682273  63.6319830
  55.6064847  43.9223577  62.4984909  56.0002376  44.0713683  63.1596357
  55.4650340  53.9783295  59.3136819  54.9361811  54.1942929  59.9734125
  55.9875360  54.6719434  59.2337788  55.4638793  54.1126432  59.3992418
  60.9198393  59.5529600  64.6869863  60.0896096  59.7640243  64.8503280
  60.8707645  58.7266654  64.4112147  60.7905128  59.4619206  64.6707228
  47.3549947  57.8746512  58.1144286  46.7707163  58.3796543  58.5210150
  46.9520043  57.6488899  57.3740878  47.2089251  57.9154760  58.0649312
  42.9093976  63.5901273  64.9167958  42.4261554  64.3151763  64.8927542
  43.7217294  63.8877403  65.0278116  42.9584724  63.7403627  64.9295237
  48.9808130  62.3833454  67.5217773  48.4635072  62.0240869  66.9179081
  49.6782521  61.8595628  67.5323839  49.0073711  62.2531142  67.4348031
  51.8127162  54.1212164  56.5913207  52.0523166  54.3290148  55.7788550
  52.1343003  53.3169673  56.7002152  51.8964320  54.0326265  56.4873760
  45.7638173  64.1057449  65.0688238  46.4658753  63.5909438  65.1260994
  45.6835656  64.4331600  65.8735113  45.8561934  64.0771675  65.1961030
  60.4152351  52.2000000  68.4820284  59.5780772  52.2702187  68.7167879
  60.3840582  52.2024495  67.6094587  60.2870633  52.2110227  68.3879832
  46.8117080  54.3433036  74.1968653  46.9837584  54.2338931  75.0453934
  47.3486437  54.9887442  73.9599845  46.9162084  54.4225038  74.2873750
  45.0888949  60.2963801  64.5773846  45.9277848  60.5286734  64.6247608
  45.1200718  59.4268113  64.5080881  45.2170666  60.2020748  64.5738491
  45.7141652  60.7164676  68.8787151  46.2539877  60.5735807  69.5490524
  45.0311598  61.1161427  69.2471178  45.6933806  60.7544347  69.0321573
  55.1382537  56.3955677  64.0732176  55.8940052  56.8287191  64.1121085
  55.2444861  55.7460447  64.6466812  55.2652707  56.3633161  64.1630201
  58.1762708  60.2228954  64.8234579  57.7397940  60.2265697  65.5793550
  57.8425623  60.9034453  64.3914156  58.0625328  60.3241410  64.8715411
  41.1178797  56.9364967  69.0321573  40.8517212  56.1204084  69.1912563
  41.1317361  56.9818123  68.1617088  41.0803519  56.8221872  68.9275055
  58.0960191  47.2642782  67.0664007  58.7386099  47.3340887  67.6525922
  58.3483211  46.5972005  66.5643549  58.2282323  47.1769131  67.0791286
  45.8677403  50.4743345  71.6788581  45.1749200  50.0040325  71.9249312
  46.4837731  50.2481650  72.2530288  45.8561933  50.3710477  71.7997733
  61.3107054  56.9409874  63.7154216  61.9723488  56.3800543  63.6150124
  60.6698466  56.4461905  64.0406907  61.3135921  56.7846283  63.7486556
  52.1983862  60.2380005  56.0235139  52.6135010  59.9065029  55.3319635
  51.3675791  60.0048908  55.8955276  52.1371870  60.1551261  55.9025987
  41.5272210  57.7223747  66.3133317  41.3447784  57.6970633  65.4605609
  42.2621879  58.1922684  66.3522226  41.6086274  57.7885109  66.1931236
  57.5971885  57.9575256  63.4566205  57.8327474  58.1020455  62.6293055
  57.7461448  58.7217665  63.8497718  57.6537688  58.0914311  63.3929809
  44.5917962  54.4408749  72.8215426  45.3157934  54.4261780  73.3080321
  44.6934099  55.1504105  72.3237394  44.7136171  54.5433453  72.8194213
  59.4262341  56.7976922  61.2935809  59.7570559  57.3304563  60.6875903
  59.9995430  56.8515810  61.9497760  59.5596021  56.8846491  61.3013590
  54.6394231  54.6441825  61.9759389  54.7341085  55.3831119  62.4299014
  54.0153074  54.2159301  62.4093953  54.5603261  54.6903146  62.1067536
  41.4943121  54.6017247  66.4632384  42.0716623  54.4653698  67.1024629
  40.7957183  54.1453031  66.7177968  41.4764142  54.5139513  66.5954673
  54.8917252  56.4890565  55.2096341  54.8097414  56.5592752  56.0751328
  55.5296972  57.0520309  55.0180081  54.9737089  56.5829536  55.3086290
  48.2510423  56.2551303  64.6770867  47.9929667  55.4223038  64.6502166
  48.3058906  56.4808916  63.8363367  48.2210201  56.1649074  64.5491004
  47.2245135  53.8089065  65.1635762  46.6494726  53.9681234  65.7999723
  46.8480811  53.1724474  64.7004212  47.0847948  53.7386878  65.1890320
  50.8918424  52.2812415  70.0228140  50.5032857  51.8566632  69.3680331
  50.2273122  52.5294564  70.5305167  50.7365352  52.2551136  70.0016008
  60.5341693  52.0387419  62.7975970  60.2778258  51.2267361  62.6073853
  61.3771007  52.0464986  62.5706158  60.6207718  51.9199417  62.7360787
  36.9701954  53.4529140  63.1780202  37.0562206  53.0761008  63.9593732
  37.5977752  53.0789586  62.7000161  37.0758505  53.3414622  63.2225680
  54.7144785  45.9787043  67.5352124  55.0955297  45.2965214  67.9219999
  53.9108070  45.6896645  67.3527789  54.6521247  45.8354092  67.5656180
  51.9957362  56.5111019  58.2204947  52.8098001  56.8025912  58.1087719
  51.9316503  55.8570882  57.6463240  52.1060101  56.4576214  58.1193785
  47.8665270  59.9832537  63.3477259  48.5039217  59.7444284  63.8929053
  48.2920342  60.1869696  62.6130420  48.0241437  59.9783547  63.3194417
  42.5577913  62.2220873  67.2311563  42.5982058  62.4935724  66.4031343
  43.1172437  62.7462781  67.6469351  42.6461259  62.3396628  67.1703451
  48.5068085  55.2034826  57.6852149  48.8913238  54.9842533  58.4368694
  48.2579706  56.0297772  57.8153225  48.5270158  55.2932973  57.8153225
  48.6736626  48.4841242  77.4014733  48.3590067  49.2540804  77.1384296
  48.3526558  47.9211498  76.8166960  48.5795545  48.5151510  77.2756083
  50.2486742  60.4604959  65.0271046  50.3225751  60.2980131  65.8812895
  51.0656249  60.6495149  64.7831527  50.3803101  60.4641702  65.1169071
  44.0092499  60.8062822  62.0565489  43.1830617  61.0524559  61.9299768
  44.0704490  60.7274903  62.9227547  43.8966666  60.8307771  62.1654433
  46.2268523  46.8731763  63.0160929  45.3590948  46.9454363  63.0818538
  46.5143727  47.6753842  63.2048904  46.1408271  47.0025910  63.0535696
  55.3501411  47.0209622  71.3472251  56.0955003  46.8319433  70.9335676
  54.9338716  47.5467860  70.7886107  55.3986386  47.0711768  71.2036824
  48.7891328  63.4239702  59.7584519  49.0789626  63.0328684  59.0343746
  49.5194809  63.6056407  60.1989794  48.9398212  63.3933516  59.7167326
  62.7263682  54.3918851  66.2977756  63.2771604  53.7586920  66.5374848
  62.7107798  54.9234244  66.9893260  62.8048879  54.3767799  66.4356614
  49.3786073  58.2257448  70.8437649  48.8797767  58.9373216  70.9222538
  50.1886297  58.5458115  70.8055812  49.4242180  58.3784297  70.8494218
  46.7297244  65.4007085  62.8244669  46.5097539  65.1104439  63.6171336
  46.5091766  64.7422040  62.2962581  46.6644838  65.2606793  62.8633577
  45.6414191  57.4880401  65.0900370  45.3527439  56.8617873  65.6246098
  46.5097539  57.4300689  65.1565051  45.7274443  57.3867946  65.1791325
  56.4292089  52.6315185  65.4082352  56.0856854  51.9105520  65.7589602
  56.5285131  52.4229036  64.5660710  56.3934131  52.4939388  65.3354032
  48.8965199  66.7736475  61.6075361  49.5489257  66.2412917  61.8366387
  48.1990808  66.4205127  61.9943235  48.8895917  66.6425998  61.6987529
  45.8446464  59.1275652  61.0142735  46.5992432  59.5088691  61.2278198
  45.2517077  59.5786796  61.4689432  45.8683178  59.2504480  61.1125614
  56.8905118  59.0940889  60.9506340  57.4563150  59.7534099  60.8664883
  56.2433021  59.4390587  61.4222742  56.8783874  59.2422830  61.0079097
  48.3053131  51.0838493  76.1399948  47.4952907  51.3896272  76.0289790
  48.7827818  51.8044075  76.2552532  48.2556610  51.2353094  76.1407019
  47.1644691  60.2984214  66.3882851  46.6425444  60.4384505  67.0734715
  47.5518711  59.5394878  66.5784968  47.1448392  60.2069737  66.5183927
  44.1535875  50.3490022  60.4577805  43.8660671  49.9791293  59.7209753
  44.8406343  50.8184878  60.1961510  44.2124772  50.3636992  60.3092881
  53.3611696  62.0379673  60.3743420  53.1198372  61.3047534  59.9670484
  53.5413029  62.5866530  59.7209753  53.3519320  62.0102064  60.2173642
  48.5911016  57.3288233  61.7864342  48.3953799  57.9362967  61.1924645
  48.8145362  56.6356177  61.3056016  48.5945657  57.3165758  61.6280423
  46.9889546  54.2142971  61.9045210  47.7112198  54.3784129  61.4449016
  46.5097539  54.9352635  61.7984550  47.0253277  54.3441200  61.8210824
  54.9483054  50.5506769  67.2841895  54.1094155  50.5768048  67.0480158
  55.0187421  51.1977505  67.8647242  54.8351447  50.6502895  67.3351012
  44.6397163  56.6201043  71.0099350  45.1518260  56.8985296  70.3608110
  44.3533506  57.3590337  71.3762163  44.6732026  56.7703397  70.9689228
  58.8240578  55.7574756  64.5703137  58.7374552  55.9130182  65.4237916
  58.3691058  56.4012832  64.1962542  58.7443834  55.8750511  64.6410244
  41.7264069  51.1271235  61.3063087  41.8280206  51.9297396  61.6344062
  42.5219956  50.9258571  61.0086167  41.8591975  51.2157134  61.3098442
  48.1580888  48.7127432  71.0700392  47.9664085  48.7282566  71.9199815
  49.0079484  48.9091106  71.0467046  48.2556610  48.7441783  71.1923686
  42.5427801  51.2418413  69.0484208  42.4013293  50.3902354  69.1728716
  42.8268365  51.2847074  68.2246414  42.5635648  51.1218163  68.9451832
  52.6966394  53.0785503  63.1928696  52.4501108  52.9981254  64.0265485
  53.0251517  52.2938971  62.9991224  52.7087637  52.9511769  63.2876219
  56.5914443  59.7868863  66.9815478  56.4528802  60.4849908  67.4864220
  55.8114441  59.6317519  66.6251659  56.4557670  59.8669029  67.0041752
  48.6563421  55.8142222  72.6051679  48.8006797  56.3943430  71.9694789
  49.0039070  56.1918519  73.3101534  48.7290882  55.9562926  72.6150674
  50.8283338  55.0132390  70.3876811  50.0806653  55.2063405  69.9825089
  50.9824864  54.1877610  70.1500932  50.7405766  54.9197502  70.2922217
  47.7291176  64.0044994  69.4712706  47.8780740  63.4447910  68.8186111
  48.5091178  64.0836995  69.8545225  47.8665270  63.9330559  69.4309655
  58.0867816  59.1447116  57.7431977  57.7074624  58.3584254  57.7361266
  57.4234061  59.6933973  57.6003621  57.9326290  59.1091940  57.7212774
  51.0685116  48.9082941  71.2772215  51.5257730  49.6406915  71.4045007
  51.1441444  48.4849406  72.0359471  51.1476085  48.9540179  71.4073291
  43.3118107  49.1548761  72.3661658  42.7760296  48.5429119  72.6822426
  43.3735871  49.7296897  73.0195325  43.2413739  49.1495688  72.5097085
  55.5412441  42.0872816  65.1466058  55.6596010  42.5449279  64.4133360
  55.3674617  41.2818077  64.8602275  55.5331612  42.0366588  64.9966991
  50.9114724  62.6960635  61.5820803  51.6764615  62.4270279  61.2603467
  50.8092814  62.2110646  62.2990866  51.0096219  62.5850200  61.6400631
  48.9467493  50.8985045  68.1214039  48.1563568  50.7176505  68.4431375
  49.3428116  50.1211997  68.1044333  48.8884370  50.7572506  68.1666587
  53.4333384  59.7272819  53.5620752  54.2006369  59.7872944  53.1526604
  52.9864693  59.1553261  53.0777071  53.4806811  59.6509395  53.4298463
  54.3311180  58.5327475  65.8473485  53.6556182  58.3012707  66.3486872
  54.3403556  57.9248658  65.2215590  54.2329684  58.4086400  65.8289637
  51.4605324  53.3745304  72.6037538  51.3964465  54.2355260  72.4757674
  51.6002511  53.0577297  71.8033089  51.4720794  53.4545471  72.4665751
  56.3327914  61.3892607  58.0783663  56.4147752  62.1959594  57.7545114
  56.8177656  61.4088567  58.8024436  56.4165072  61.5113270  58.1370561
  50.1424418  56.0677443  66.7453741  49.7186667  56.2681942  66.0092759
  49.9669273  55.2206291  66.8578040  50.0535298  55.9726225  66.6527431
  45.4306863  56.5629495  62.1781713  45.5871482  56.4976298  63.0337705
  45.7707456  57.3378047  61.9660393  45.5040097  56.6678693  62.2736307
  51.9686007  55.9387378  61.0475076  52.5101553  55.4357759  61.5113697
  52.2832566  55.8852573  60.2364562  52.0950404  55.8566799  60.9958888
  50.1372457  61.3304730  58.3315104  50.2065277  60.4719268  58.4708105
  50.9160912  61.5476611  58.0034129  50.2625307  61.2357594  58.3032262
  53.1175277  50.8323683  71.0997377  53.3317246  50.1934597  70.5460731
  52.5009176  51.2769507  70.6705239  53.0580606  50.8033827  70.9547808
  54.5279944  63.7542431  62.5451598  54.1359736  63.4509146  61.8274464
  54.6833017  64.5911521  62.3556551  54.4933534  63.8326268  62.4108095
  42.0041124  53.7464445  62.4942480  42.3840089  54.1648990  61.8302748
  41.4296489  54.3277901  62.8011324  41.9752449  53.8942304  62.4419221
  55.2814365  52.4412748  72.0380684  54.4691046  52.1338638  72.1193857
  55.7404299  51.9611748  72.6023396  55.2294749  52.3249240  72.1335278
  54.6919619  60.3192420  62.4857628  54.3334274  60.4907063  63.2621661
  54.2058330  60.7805626  61.9285627  54.5678316  60.4131391  62.5182897
  52.5090005  43.9423619  66.0884720  51.6383563  43.9162340  66.0418029
  52.7630346  43.7700811  65.2710565  52.4183565  43.9133762  65.9604856
  49.4807985  55.9991585  55.0257863  49.7700509  56.7756468  55.3001437
  49.5679783  55.4880317  55.7272362  49.5362241  56.0383504  55.1700360
  49.5339146  45.9529847  67.5458190  49.0177634  45.2610038  67.6709769
  48.9733075  46.6200624  67.4920789  49.3745659  45.9493105  67.5564256
  51.6031379  46.4922807  69.3751043  51.2163132  46.5171838  70.1564572
  51.1164316  45.9264486  68.9225559  51.4743888  46.4118558  69.4238946
  57.5781359  53.0585462  67.9990745  57.1508967  52.9711811  67.2438844
  56.9407412  53.1663237  68.5845589  57.4210966  53.0618122  67.9736186
  51.2688521  43.3789793  71.6661302  51.8981639  43.9150093  71.3882373
  51.4374384  43.2867151  72.5174868  51.3866315  43.4451155  71.7509831
  51.0702436  48.1660987  73.9387714  51.8975865  47.8946136  73.9946329
  51.0910282  48.9621829  74.2951532  51.1955286  48.2440741  74.0002897
  45.6471926  55.3124850  67.1257975  44.8059932  55.2128724  67.3336869
  45.8561934  56.0820330  67.4772295  45.5536618  55.4116893  67.2085290
  43.1247493  52.9344387  64.9542725  42.7304190  53.0087399  64.1792835
  42.5687609  53.3202333  65.5051087  42.9850305  53.0026162  64.9210385
  54.7612439  45.9125681  64.6346604  54.9662033  45.8447989  65.4803601
  54.4338863  46.7184502  64.5667782  54.7427687  46.0211621  64.7506259
  49.4588590  53.2406249  66.3755572  49.1551728  52.6862237  66.9765980
  48.7568011  53.4198459  65.8883606  49.3104800  53.1851032  66.3925278
  47.5206941  60.4555970  71.0827670  47.4127296  60.4658032  71.9489728
  47.7302723  61.2810750  70.8932624  47.5357053  60.5797045  71.1831762
  58.0146127  46.4657445  64.1149370  57.4020441  46.9527847  64.5003102
  58.1110302  45.7900936  64.6587021  57.9384025  46.4375754  64.2528228
  45.5380733  57.7068612  68.5449608  44.9468667  58.3478110  68.5152623
  46.3001757  58.1306230  68.5180907  45.5628994  57.8644451  68.5364755
  45.9341356  48.8670610  69.2117625  46.3942838  48.9409539  69.9492749
  45.9797463  49.6651864  68.8617447  46.0091912  48.9964757  69.2690382
  47.5824706  49.5337305  73.7789652  47.1910271  48.8870652  74.2145430
  47.7510569  50.1248740  74.3983908  47.5495616  49.5251573  73.9352358
  55.2970250  63.1577924  65.9781632  55.0989938  63.6468738  65.2837843
  54.6757961  63.3619165  66.5565765  55.1757814  63.2594462  65.9604855
  49.3578228  54.9262821  60.3191876  50.1020273  55.3137097  60.5574826
  49.5038924  54.0820246  60.4832364  49.4888813  54.8593294  60.3785846
  52.3456104  50.4988294  66.2185796  51.8716058  49.9730056  66.7291107
  52.7174240  49.9517767  65.6500657  52.3305993  50.3404291  66.2100943
  42.7229134  52.4959801  71.5869341  43.5854747  52.3955510  71.5006671
  42.3920917  51.9154510  71.0254914  42.8014330  52.3951427  71.4914747
  58.6092835  55.5590670  67.6292576  58.3691057  54.7197085  67.6335003
  59.0884842  55.6390836  68.3533350  58.6445018  55.4472069  67.7367379
  60.6098022  52.3392127  65.5821835  60.3707791  52.2987961  64.7442620
  60.7731923  53.1863279  65.7087556  60.5988325  52.4584212  65.4775317
  46.0830920  51.3202250  68.2479760  45.4583990  51.3320642  67.6405712
  45.7476515  51.7962425  68.8971000  45.9416412  51.3920767  68.2536328
  42.7956596  59.3802710  69.6883524  42.2656520  58.6895149  69.7378499
  43.0681689  59.3712895  68.8596232  42.7581318  59.2769842  69.5730940
  53.8276686  59.9628412  58.4121207  54.5510885  60.4286525  58.2685780
  53.3877277  60.0302022  57.6618804  53.8692378  60.0412249  58.2805988
  52.9962841  56.8225954  69.6621896  52.3819834  56.2784005  69.9570531
  53.5130126  56.3090191  69.1827712  52.9818504  56.6662363  69.6346124
  52.2359138  57.8930224  67.3966194  51.8086746  57.2679943  66.9631630
  52.2284083  57.6105146  68.2225201  52.1718280  57.7583005  67.4546022
  45.3521665  52.9295398  70.4654628  45.5115152  52.1738722  70.8706350
  45.1714559  53.4786337  71.1195366  45.3487024  52.8989211  70.6217334
  53.2941968  45.0956633  71.0205418  52.7982530  45.2920307  70.3296984
  54.0511030  45.4949301  70.8494219  53.3328793  45.1834367  70.8925554
  50.5644848  48.7698979  67.6108728  50.5887335  48.2359091  66.9221508
  50.8156322  48.2616288  68.2734319  50.6054767  48.6159883  67.6073373
  38.0752438  56.0530474  67.0451872  37.9695887  56.0077318  66.1803956
  37.3252658  56.3984255  67.3266157  37.9488041  56.0971382  66.9589202
  46.8446170  47.4969797  66.9914472  46.8844542  47.9979004  67.7049180
  46.0195835  47.5880191  66.7220396  46.7285696  47.5851614  67.0565011
  48.2660534  54.0130307  69.2888371  47.4352463  54.1804125  69.0823620
  48.2112051  53.6366258  70.0737257  48.1349949  53.9820038  69.3736900
  46.0744317  47.5039200  74.9244782  46.6997020  46.9601333  75.1974214
  45.6194797  47.0234118  74.3552573  46.0992577  47.3528681  74.8806376
  46.6396577  52.2885899  59.8178489  46.7799539  52.7858363  60.5207131
  47.1379110  51.5872193  59.9592703  46.7337658  52.2587877  59.9430068
  46.6696800  53.1553010  57.1471066  47.3041879  53.7513435  57.0820528
  46.7522411  52.8556467  57.9616936  46.7753351  53.1993918  57.2574153
  53.6434938  48.4739179  69.4839987  54.0690009  48.0211705  68.8723513
  53.0291931  47.9199250  69.7604775  53.6163583  48.3253155  69.4345012
  43.1749788  55.3520850  60.4160612  43.6842017  55.9485358  60.7971918
  43.6484060  55.0846824  59.7337032  43.3193163  55.4006666  60.3715135
  54.0880536  64.0249117  58.5719268  53.3709845  63.8509979  58.1066505
  54.7387273  63.7901689  58.0394754  54.0782386  63.9644910  58.4248485
  56.6728507  52.9013706  62.3160573  56.0019697  53.4443408  62.1873638
  57.3668257  53.3708561  62.0742267  56.6757374  53.0511977  62.2616100
  50.7215241  65.0410418  67.5472331  50.4980895  64.2829247  67.9156357
  50.2325084  65.0708439  66.8252771  50.6158690  64.9332642  67.4949072
  56.8356634  49.3569589  65.2250946  57.1884245  48.9299312  65.8996745
  55.9771436  49.2720433  65.3552022  56.7606079  49.2814330  65.3445956
  45.5340319  51.9877109  63.2833792  44.8152309  52.4041242  63.5506656
  45.9052682  52.5531348  62.7325431  45.4832251  52.1326390  63.2416599
  54.8339900  52.6204958  69.1735788  54.8137828  52.4388253  70.0270567
  54.8819101  53.4916976  69.1495372  54.8374541  52.7221496  69.2959083
  49.3693698  65.2610876  65.0009416  48.9554096  64.5985006  64.6113257
  50.0541072  65.4088735  64.4805110  49.4092069  65.1851534  64.8665913
  52.7358992  64.4200961  65.7533032  52.3375275  64.5303231  64.9853852
  52.1210211  64.6283027  66.3359592  52.5857881  64.4674529  65.7264332
  58.2680695  44.4788001  66.1535258  57.7611559  43.7717141  66.0856436
  59.0648128  44.1481190  66.2836335  58.3107934  44.3261152  66.1634253
  54.1844710  50.9854613  62.0508922  53.9558403  51.0087315  61.2087280
  54.4442787  50.1612080  62.1703933  54.1890898  50.8670693  61.9434120
  48.4663939  52.8389086  71.6534022  47.9542842  52.2310269  72.0119054
  48.2943435  53.5545679  72.1207998  48.3653576  52.8552386  71.7750246
  43.3129654  51.2826662  74.3036384  43.1432244  51.9428037  73.7584591
  42.8695603  51.4933223  75.0248873  43.2228987  51.4112644  74.3298014
  47.2389473  49.5231160  63.3463118  47.7146839  49.8848239  62.7113299
  46.7378073  50.1787627  63.6263261  47.2354832  49.6725348  63.2939859
  60.4700834  58.9952928  59.1376123  60.8534440  59.7444284  59.3674220
  59.6744948  59.2418747  58.8788112  60.4094617  59.1422622  59.1333696
  52.3433009  50.7613331  74.0936278  52.9004439  50.5327141  73.4614743
  52.0194074  51.5218997  73.8171490  52.3779419  50.8397168  73.9592775
  40.2131718  54.1873527  69.5624874  39.6658437  53.5174173  69.6805742
  41.0024096  53.8203375  69.6268341  40.2483902  54.0338514  69.5893575
  49.2816126  51.6672359  56.7136502  49.6615091  51.6851989  55.9287617
  48.5408722  52.1126348  56.5927349  49.2284964  51.7354134  56.5800070
  56.9101417  49.9754551  62.3012080  56.9095643  49.8203207  63.1596357
  56.7057597  50.8217538  62.2453466  56.8801194  50.0775171  62.4200020
  38.9718688  53.3994335  66.7170897  38.7940449  52.9470944  67.4425813
  38.6837710  54.2020496  66.9009375  38.9031641  53.4516893  66.8514400
  54.6342269  54.6552052  65.9548287  55.1295934  53.9375047  65.9152308
  53.8242044  54.3522850  65.8402774  54.5886162  54.5049699  65.9322013
  50.0800880  58.5049866  58.1045292  49.2712203  58.1816539  58.0578601
  50.5875789  57.7983088  58.0373540  50.0350547  58.3531182  58.0875586
  40.7091157  55.9322059  63.8292656  39.8436677  55.9207749  63.7175427
  40.8089973  55.7452282  64.6763795  40.5965324  55.9028120  63.9381600
  56.6994088  57.4055740  68.6425416  57.1249159  56.8830162  68.0895841
  56.3351007  58.0036577  68.1214039  56.7080690  57.4165967  68.4834426
  46.3348167  65.7019957  67.4022762  46.6494726  66.5156346  67.4100543
  46.7441581  65.3170176  68.0704921  46.4416265  65.7648660  67.5026853
  53.2872687  61.1190004  64.9726574  53.7583865  61.8330267  65.1416559
  53.6232865  60.5188754  65.5086443  53.4067802  61.1361468  65.0758949
  50.2042182  45.8917475  71.9284668  50.3370087  45.0948468  72.2565644
  50.5887335  46.4183878  72.5082944  50.2798511  45.8517391  72.0628171
  53.2774537  42.8147801  68.5265762  52.4720501  42.7045531  68.8433600
  53.1481273  42.9160257  67.6695627  53.1394670  42.8131471  68.4473802
  56.7340498  48.9793293  69.1205458  56.1503486  49.4802499  68.7083026
  57.0544792  48.4722849  68.4869782  56.6953673  48.9785128  68.9663966
  47.8630629  45.8876650  70.1762562  48.4075042  45.5467777  70.7666904
  47.9167564  46.7462111  70.3183847  47.9519748  45.9631909  70.2844435
  43.6761187  59.6493066  67.0501370  44.2806045  59.6088900  66.4215191
  43.4688500  60.4964218  67.0805426  43.7350085  59.7681068  66.9617486
  53.4904960  61.9159011  68.2663607  54.3103333  61.7721977  68.5279903
  53.2099037  62.5405210  68.8080045  53.5701703  61.9869363  68.3851547
  38.9112470  58.6327683  66.9200293  38.8136748  57.8223955  67.2290350
  39.6941339  58.6119477  66.5346561  39.0128606  58.5094774  66.9087156
  61.7167218  68.1386183  60.8728523  62.4147383  68.3174310  61.3649986
  62.0319551  67.6156522  60.2498912  61.8662555  68.0879955  60.8530533
  59.8894082  63.5078579  64.9549797  59.5597412  63.9589723  64.2853496
  59.2139083  63.4294743  65.5022804  59.7404518  63.5629715  64.9373021
  67.0970489  59.4964102  63.1999408  66.7823930  60.1867581  63.6319830
  66.5797431  59.4408885  62.4984909  66.9734960  59.5898991  63.1596357
  58.3282531  73.3931820  58.1144286  57.7439746  73.8981851  58.5210150
  57.9252626  73.1674207  57.3740878  58.1821835  73.4340068  58.0649312
  62.7859745  69.6397472  56.5913207  63.0255749  69.8475456  55.7788550
  63.1075586  68.8354981  56.7002152  62.8696903  69.5511573  56.4873760
  58.0950036  61.5690868  60.4372745  58.8496004  61.9369185  60.1989795
  57.9177570  61.9430422  61.2051925  58.1804514  61.6789056  60.5157634
  56.4507100  63.9761187  57.1350858  56.2682674  64.1933068  56.3091851
  57.3132713  64.0900200  57.1909472  56.5511690  64.0251085  57.0205345
  62.1306820  60.9787598  60.1699882  62.8592980  60.8003552  59.7238038
  62.2201712  61.8205677  60.3807060  62.2513482  61.0771476  60.1353399
  55.9969127  67.2535359  55.6473331  55.2827305  66.9673539  56.0595764
  56.4813096  67.5931985  56.2879719  55.9628491  67.2617009  55.8028966
  63.1716445  75.7565313  56.0235139  63.5867594  75.4250337  55.3319635
  62.3408375  75.5234216  55.8955276  63.1104454  75.6736569  55.9025987
  65.8649835  72.0075873  55.2096341  65.7829998  72.0778060  56.0751328
  66.5029556  72.5705617  55.0180081  65.9469673  72.1014844  55.3086290
  47.9434538  68.9714448  63.1780202  48.0294789  68.5946316  63.9593732
  48.5710335  68.5974894  62.7000161  48.0491089  68.8599930  63.2225680
  62.9689946  72.0296327  58.2204947  63.7830584  72.3211220  58.1087719
  62.9049087  71.3756189  57.6463240  63.0792685  71.9761522  58.1193785
  59.4800669  70.7220134  57.6852149  59.8645822  70.5027841  58.4368694
  59.2312289  71.5483080  57.8153225  59.5002742  70.8118281  57.8153225
  57.2001106  62.3917071  63.0160929  56.3323532  62.4639671  63.0818538
  57.4876311  63.1939150  63.2048904  57.1140854  62.5211218  63.0535696
  55.1268458  65.8675330  60.4577805  54.8393254  65.4976601  59.7209753
  55.8138927  66.3370186  60.1961510  55.1857356  65.8822300  60.3092881
  57.9622130  69.7328279  61.9045210  58.6844782  69.8969437  61.4449016
  57.4830123  70.4537943  61.7984550  57.9985861  69.8626508  61.8210824
  64.3684916  62.9677454  62.0169511  65.0711269  62.7685203  61.5389469
  64.1029105  62.1953397  62.3238354  64.4331548  62.8240420  61.9914953
  52.6996653  66.6456543  61.3063087  52.8012789  67.4482704  61.6344062
  53.4952540  66.4443879  61.0086167  52.8324559  66.7342442  61.3098442
  66.5145025  57.6058124  65.1466058  66.6328593  58.0634587  64.4133360
  66.3407201  56.8003385  64.8602275  66.5064196  57.5551896  64.9966991
  64.4065968  75.2458127  53.5620752  65.1738953  75.3058252  53.1526604
  63.9597277  74.6738569  53.0777071  64.4539395  75.1694703  53.4298463
  52.9773708  69.2649753  62.4942480  53.3572672  69.6834298  61.8302748
  52.4029072  69.8463209  62.8011324  52.9485033  69.4127612  62.4419221
  63.4822589  59.4608926  66.0884720  62.6116147  59.4347648  66.0418029
  63.7362930  59.2886119  65.2710565  63.3916149  59.4319070  65.9604856
  60.4540568  71.5176893  55.0257863  60.7433093  72.2941776  55.3001437
  60.5412367  71.0065625  55.7272362  60.5094824  71.5568812  55.1700360
  59.4887271  66.0692077  60.9400274  59.7647005  65.3510989  60.5277842
  60.0885940  66.6676997  60.7321380  59.6180536  66.0512448  60.8481035
  62.9897792  63.7405594  59.2146869  63.4441538  63.9116155  59.9394714
  63.4637837  63.1273705  58.8144645  63.1266112  63.6756480  59.2620631
  60.3310812  70.4448129  60.3191876  61.0752857  70.8322405  60.5574826
  60.4771508  69.6005554  60.4832364  60.4621397  70.3778601  60.3785846
  65.2472187  66.9110157  59.2811549  64.7195206  66.9938901  58.5917258
  65.7067895  67.6528028  59.2776194  65.2374038  67.0330819  59.1786245
  57.2405252  65.1812676  54.3052445  56.8918057  65.8332401  54.7683994
  56.7601698  65.1669789  53.5776316  57.1175496  65.2755730  54.2663536
  57.6129161  67.8071207  59.8178489  57.7532122  68.3043671  60.5207131
  58.1111694  67.1057501  59.9592703  57.7070242  67.7773185  59.9430068
  57.6429383  68.6738318  57.1471066  58.2774463  69.2698743  57.0820528
  57.7254994  68.3741775  57.9616936  57.7485934  68.7179226  57.2574153
  59.2208366  64.6052293  57.1216508  59.5424207  64.1255375  56.4675770
  59.4835310  65.4151939  56.9307320  59.3074392  64.6542191  56.9972000
  54.1482371  70.8706158  60.4160612  54.6574601  71.4670666  60.7971918
  54.6216644  70.6032132  59.7337032  54.2925747  70.9191974  60.3715135
  63.0561744  60.4639587  62.8930564  62.4130062  60.3137233  63.4615703
  62.7161151  60.2181932  62.1279669  62.9106821  60.4051709  62.8633579
  56.5072903  67.5062417  63.2833792  55.7884892  67.9226549  63.5506656
  56.8785265  68.0716656  62.7325431  56.4564835  67.6511698  63.2416599
  62.2819477  66.5460417  58.6207172  61.6884317  66.8677413  58.0691739
  62.3194755  65.7001512  58.4128278  62.1993867  66.4684745  58.5089943
  58.2122056  65.0416468  63.3463118  58.6879423  65.4033547  62.7113299
  57.7110656  65.6972935  63.6263261  58.2087415  65.1910656  63.2939859
  60.2548710  67.1857667  56.7136502  60.6347674  67.2037297  55.9287617
  59.5141306  67.6311656  56.5927349  60.2017547  67.2539442  56.5800070
  61.0533464  74.0235174  58.1045292  60.2444786  73.7001847  58.0578601
  61.5608373  73.3168396  58.0373540  61.0083131  73.8716490  58.0875586
  60.2467880  63.4119196  59.3964133  61.0683575  63.5817508  59.1545828
  59.7837531  63.5666457  58.6730431  60.2999043  63.4600929  59.2535778
  36.7371683  -0.0453930  48.1646531  36.7065688   0.8090707  48.3364800
  37.3353032  -0.3458637  48.7232674  36.8208841   0.0362567  48.2721333
  29.9371368  -0.9578279  52.9199461  29.0809264  -0.7969781  52.9708578
  29.9839022  -1.8286215  52.9404522  29.8170479  -1.0627477  52.9305527
  24.3212508   8.5784439  48.6836693  23.5695407   8.1999977  48.4552738
  24.7698519   8.6102873  47.9355503  24.2762175   8.5270046  48.5394195
  33.2465085   5.3108247  62.5259917  33.9531852   4.8160278  62.6546852
  33.4353020   5.7517328  61.7962575  33.3792990   5.3026597  62.4368963
  29.7737468   9.0009809  44.1122240  29.4388836   9.6786730  43.6766462
  30.2864338   8.6115120  43.5239111  29.8003049   9.0434387  43.9609031
  29.3141759  10.9524077  50.0533351  29.6981138  11.5210976  49.5138126
  29.2500900  10.2273588  49.5739167  29.3615186  10.9299541  49.9027214
  32.7823189   1.1013765  55.5631113  33.3279149   1.7798852  55.6225082
  32.7240065   0.9601226  54.7032694  32.8539103   1.1805767  55.4443173
  25.8997264   8.5902831  50.9499465  26.0007627   7.7803185  51.2596593
  25.3039009   8.4959778  50.3199144  25.8269803   8.4567859  50.9025703
  34.5588258   2.5298372  46.4364840  34.4427784   3.2806058  46.8656978
  35.3544144   2.2722325  46.6860927  34.6592847   2.6033219  46.5368932
  25.7398003  13.5080420  52.3514321  26.3835459  13.9493584  52.7410479
  26.0654259  12.7033847  52.2644580  25.8829832  13.4545615  52.3959798
  19.0962308   4.6123118  50.5751799  18.8612493   3.7790770  50.4684067
  19.2347949   4.8927783  49.7613000  19.0817971   4.5306621  50.4394154
  26.4418583   6.5192395  47.7234183  26.7634424   7.0597603  47.1195491
  27.0890680   5.9489167  47.8556473  26.5844638   6.5151570  47.6541218
  28.4920291  -1.4791610  47.8068570  29.1900456  -1.3003482  48.2990033
  28.8072624  -2.0021271  47.1838959  28.6415628  -1.5297838  47.7870580
  21.1221529   0.3261130  55.7179675  20.9980226   0.9123576  56.3529494
  21.7739813  -0.1678674  56.0191950  21.1995178   0.3399935  55.8565605
  28.6808227   4.9078835  47.7948361  29.1201862   4.2995936  48.2403134
  28.5312890   4.5286209  47.0233826  28.7229692   4.7617306  47.7467528
  26.1479870   3.5022847  54.9967186  26.7928872   3.0095290  54.6778135
  26.3881647   3.6447634  55.8233265  26.2790455   3.4500289  55.0716720
  28.6865961   6.3477753  54.6474079  28.9689204   5.5529159  54.4260835
  29.4152121   6.8258340  54.6679140  28.8355525   6.3012350  54.6177094
  32.2817563   3.2606016  44.7479130  32.1968858   4.1166983  44.8928699
  32.7701946   2.9850341  45.4161289  32.3406460   3.3463338  44.8681212
  33.2135996  -0.1209189  46.2476865  32.6847468   0.0950444  46.9074172
  33.7361016   0.5726949  46.1677835  33.2124449   0.0133948  46.3332465
  38.6684049   5.4537115  51.6209910  37.8381752   5.6647759  51.7843326
  38.6193302   4.6274170  51.3452193  38.5390785   5.3626721  51.6047275
  25.1035604   3.7754027  45.0484333  24.5192819   4.2804059  45.4550197
  24.7005699   3.5496414  44.3080925  24.9574908   3.8162276  44.9989359
  20.6579633   9.4908789  51.8508005  20.1747211  10.2159278  51.8267588
  21.4702951   9.7884919  51.9618163  20.7070381   9.6411142  51.8635284
  26.7293787   8.2840969  54.4557819  26.2120729   7.9248384  53.8519127
  27.4268178   7.7603144  54.4663885  26.7559368   8.1538657  54.3688078
  30.3857379   8.7335783  60.4173992  30.4740725   8.5461924  61.2652203
  30.8147091   8.0873213  60.0178839  30.4619481   8.6098791  60.4845744
  27.9527839   8.0166943  59.3991655  27.3898673   7.6039553  59.9231316
  28.7148862   7.9419849  59.8184798  27.9822287   7.9444344  59.5384655
  29.5612819   0.0219679  43.5253254  29.8008822   0.2297663  42.7128597
  29.8828660  -0.7822812  43.6342198  29.6449977  -0.0666219  43.4213807
  23.5123830  10.0064964  52.0028285  24.2144409   9.4916954  52.0601041
  23.4321313  10.3339116  52.8075160  23.6047591   9.9779191  52.1301077
  38.1638008  -1.8992484  55.4160331  37.3266429  -1.8290297  55.6507926
  38.1326239  -1.8967989  54.5434633  38.0356290  -1.8882257  55.3219879
  22.8374606   6.1971316  51.5113893  23.6763505   6.4294249  51.5587654
  22.8686375   5.3275628  51.4420928  22.9656323   6.1028263  51.5078537
  23.4627309   6.6172192  55.8127198  24.0025534   6.4743323  56.4830571
  22.7797255   7.0168942  56.1811224  23.4419462   6.6551863  55.9661620
  32.8868193   2.2963192  51.0072223  33.6425708   2.7294707  51.0461131
  32.9930518   1.6467962  51.5806859  33.0138364   2.2640676  51.0970248
  35.9248365   6.1236470  51.7574626  35.4883596   6.1273212  52.5133597
  35.5911280   6.8041969  51.3254203  35.8110985   6.2248925  51.8055458
  30.4977438   8.1644802  63.0817776  31.2817855   8.2775650  63.4473518
  30.2974033   7.3385939  63.2776462  30.5843464   8.0591522  63.1652162
  18.8664454   2.8372482  55.9661620  18.6002869   2.0211599  56.1252610
  18.8803018   2.8825638  55.0957135  18.8289176   2.7229387  55.8615102
  22.7722201  -2.3642433  42.5813378  22.0580378  -2.6504254  42.9935810
  23.2566169  -2.0245807  43.2219765  22.7381564  -2.3560783  42.7369013
  30.6547831  10.0754904  56.7284232  29.8563077   9.8354404  56.9858100
  31.1033843  10.1269297  57.4751279  30.6022443  10.0477296  56.8769156
  39.0592711   2.8417389  50.6494263  39.7209145   2.2808058  50.5490171
  38.4184123   2.3469420  50.9746954  39.0621578   2.6853798  50.6826603
  29.9469519   6.1387521  42.9575186  30.3620667   5.8072545  42.2659682
  29.1161448   5.9056423  42.8295323  29.8857527   6.0558777  42.8366033
  19.2757867   3.6231262  53.2473364  19.0933441   3.5978148  52.3945656
  20.0107536   4.0930200  53.2862273  19.3571931   3.6892624  53.1271283
  35.3457541   3.8582772  50.3906252  35.5813131   4.0027971  49.5633102
  35.4947105   4.6225180  50.7837765  35.4023345   3.9921826  50.3269855
  37.1747998   2.6984438  48.2275855  37.5056215   3.2312078  47.6215950
  37.7481086   2.7523326  48.8837806  37.3081677   2.7854007  48.2353637
  32.3879887   0.5449340  48.9099436  32.4826742   1.2838635  49.3639061
  31.7638731   0.1166816  49.3434000  32.3088917   0.5910661  49.0407583
  30.6432361   3.7235553  59.5589716  31.2171223   3.0862797  59.7138280
  30.5647165   3.7239635  58.6899374  30.7165596   3.6300664  59.4536127
  19.2428778   0.5024763  53.3972431  19.8202280   0.3661213  54.0364676
  18.5442839   0.0460547  53.6518015  19.2249799   0.4147029  53.5294720
  32.6402909   2.3898080  42.1436388  32.5583071   2.4600267  43.0091375
  33.2782629   2.9527824  41.9520128  32.7222746   2.4837051  42.2426337
  25.9996080   2.1558818  51.6110914  25.7415324   1.3230553  51.5842213
  26.0544563   2.3816431  50.7703414  25.9695858   2.0656589  51.4831051
  24.9730792  -0.2903419  52.0975809  24.3980383  -0.1311251  52.7339770
  24.5966468  -0.9268010  51.6344259  24.8333604  -0.3605606  52.1230367
  28.6404081  -1.8180070  56.9568187  28.2518513  -2.2425852  56.3020378
  27.9758779  -1.5697920  57.4645214  28.4851008  -1.8441349  56.9356055
  29.7443019   2.4118535  45.1544994  30.5583658   2.7033427  45.0427765
  29.6802160   1.7578397  44.5803287  29.8545758   2.3583729  45.0533831
  35.9652509   5.0944531  59.5674570  35.7291146   4.2632595  59.4486630
  36.6095738   5.0430138  60.1529414  36.0247180   4.9642219  59.6360463
  25.6150927   5.8840052  50.2817306  26.2524874   5.6451800  50.8269099
  26.0405999   6.0877211  49.5470467  25.7727093   5.8791062  50.2534463
  20.3063569   8.1228388  54.1651610  20.3467715   8.3943240  53.3371389
  20.8658094   8.6470297  54.5809398  20.3946915   8.2404144  54.1043498
  26.2553742   1.1042342  44.6192195  26.6398895   0.8850048  45.3708741
  26.0065362   1.9305287  44.7493272  26.2755815   1.1940488  44.7493272
  36.9888930   4.8788979  55.6302864  36.6834747   5.6117036  55.9916180
  36.2695145   4.4726909  55.3495650  36.8376272   4.9270712  55.6416001
  27.9972399   6.3612475  51.9611092  28.0711407   6.1987646  52.8152942
  28.8141905   6.5502664  51.7171574  28.1288758   6.3649217  52.0509118
  42.6890722   1.5181980  54.9571208  42.6215222   1.5377939  54.0873795
  42.6746384   2.3612307  55.1826879  42.6769478   1.6455715  54.8623685
  21.7578156   6.7070337  48.9905536  20.9316273   6.9532075  48.8639815
  21.8190147   6.6282418  49.8567594  21.6452323   6.7315286  49.0994480
  26.5376985   9.3247218  46.6924566  26.8275283   8.9336199  45.9683792
  27.2680466   9.5063923  47.1329841  26.6883869   9.2941031  46.6507373
  40.4749339   0.2926366  53.2317803  41.0257261  -0.3405565  53.4714895
  40.4593454   0.8241759  53.9233307  40.5534535   0.2775314  53.3696661
  27.1271730   4.1264964  57.7777696  26.6283424   4.8380731  57.8562585
  27.9371954   4.4465630  57.7395859  27.1727837   4.2791812  57.7834265
  24.4782900  11.3014600  49.7584715  24.2583196  11.0111955  50.5511382
  24.2577422  10.6429555  49.2302628  24.4130495  11.1614308  49.7973624
  23.3899848   3.3887917  52.0240417  23.1013096   2.7625388  52.5586144
  24.2583196   3.3308204  52.0905098  23.4760099   3.2875461  52.1131372
  34.1777745  -1.4677300  52.3422399  33.8342511  -2.1886965  52.6929649
  34.2770788  -1.6763449  51.5000757  34.1419788  -1.6053097  52.2694079
  26.6450856  12.6743990  48.5415408  27.2974914  12.1420432  48.7706434
  25.9476465  12.3212642  48.9283282  26.6381574  12.5433513  48.6327576
  23.5932121   5.0283168  47.9482782  24.3478089   5.4096207  48.1618245
  23.0002734   5.4794311  48.4029479  23.6168835   5.1511995  48.0465661
  34.6390774   4.9948404  47.8846387  35.2048807   5.6541614  47.8004930
  33.9918678   5.3398102  48.3562789  34.6269531   5.1430345  47.9419144
  24.9130348   6.1991729  53.3222898  24.3911101   6.3392021  54.0074762
  25.3004368   5.4402393  53.5125015  24.8934048   6.1077253  53.4523974
  31.1097353   7.9387188  47.3083466  30.8684028   7.2055049  46.9010531
  31.2898685   8.4874045  46.6549800  31.1004976   7.9109579  47.1513689
  26.3396673   3.2295748  48.7204389  26.1439456   3.8370483  48.1264692
  26.5631019   2.5363692  48.2396063  26.3431314   3.2173274  48.5620469
  24.7375203   0.1150486  48.8385257  25.4597855   0.2791644  48.3789063
  24.2583196   0.8360151  48.7324597  24.7738934   0.2448716  48.7550871
  32.6968711  -3.5485715  54.2181942  31.8579811  -3.5224436  53.9820205
  32.7673078  -2.9014980  54.7987289  32.5837104  -3.4489589  54.2691059
  22.3882820   2.5208558  57.9439397  22.9003917   2.7992812  57.2948157
  22.1019162   3.2597852  58.3102210  22.4217683   2.6710912  57.9029275
  36.5726235   1.6582272  51.5043184  36.4860209   1.8137698  52.3577962
  36.1176714   2.3020347  51.1302589  36.4929491   1.7758027  51.5750290
  30.4452051  -1.0206981  50.1268743  30.1986765  -1.1011230  50.9605532
  30.7737174  -1.8053514  49.9331271  30.4573294  -1.1480716  50.2216266
  34.3400099   5.6876378  53.9155524  34.2014459   6.3857424  54.4204267
  33.5600097   5.5325034  53.5591706  34.2043326   5.7676545  53.9381799
  32.6778185   1.9872753  60.1677906  32.6726223   1.1152570  60.1720333
  33.3839178   2.1860922  59.6947362  32.7823189   1.8876627  60.0984941
  26.4049078   1.7149737  59.5391726  26.5492454   2.2950945  58.9034836
  26.7524726   2.0926034  60.2441581  26.4776539   1.8570441  59.5490721
  28.5768995   0.9139906  57.3216858  27.8292309   1.1070920  56.9165136
  28.7310520   0.0885125  57.0840979  28.4891423   0.8205017  57.2262264
  25.4776833   9.9052509  56.4052753  25.6266397   9.3455425  55.7526158
  26.2576835   9.9844511  56.7885272  25.6150927   9.8338074  56.3649702
  35.8353472   5.0454632  44.6772024  35.4560281   4.2591770  44.6701313
  35.1719718   5.5941489  44.5343668  35.6811947   5.0099456  44.6552821
  28.0030134  10.0767152  57.6837244  27.9273805   9.4075962  58.2388032
  27.9319993  10.7784940  58.1977910  27.9810740  10.0812059  57.8414092
  28.6600380   8.5968151  48.5160850  29.4250272   8.3277795  48.1943514
  28.5578470   8.1118161  49.2330913  28.7581876   8.4857715  48.5740677
  26.6953150  -3.2007440  55.0554086  25.9049225  -3.3815980  55.3771421
  27.0913773  -3.9780487  55.0384380  26.6370026  -3.3419979  55.1006634
  31.1819041   5.6280335  40.4960799  31.9492026   5.6880459  40.0866651
  30.7350350   5.0560776  40.0117118  31.2292468   5.5516910  40.3638510
  32.0796837   4.4334990  52.7813532  31.4041838   4.2020223  53.2826919
  32.0889213   3.8256173  52.1555637  31.9815341   4.3093916  52.7629684
  29.2090980  -0.7247181  59.5377585  29.1450122   0.1362776  59.4097721
  29.3488168  -1.0415187  58.7373136  29.2206451  -0.6447014  59.4005797
  34.0813571   7.2900123  45.0123709  34.1633408   8.0967109  44.6885160
  34.5663313   7.3096082  45.7364483  34.1650729   7.4120785  45.0710608
  27.8910074   1.9684959  53.6793787  27.4672323   2.1689458  52.9432806
  27.7154930   1.1213807  53.7918087  27.8020955   1.8733740  53.5867478
  27.3921768  13.4835472  56.1415245  27.8817698  12.7846261  55.9590909
  26.8206000  13.1859342  56.7291302  27.3806298  13.3361695  56.2016285
  23.1792519   2.4637010  49.1121760  23.3357139   2.3983813  49.9677752
  23.5193112   3.2385563  48.9000440  23.2525754   2.5686208  49.2076354
  29.7171664   1.8394894  47.9815123  30.2587209   1.3365275  48.4453744
  30.0318223   1.7860088  47.1704608  29.8436061   1.7574315  47.9298935
  33.5888771   6.0497541  65.0942035  34.4023637   5.7782690  65.2547168
  33.4283738   5.7505081  64.2902231  33.6858720   5.9652467  64.9987441
  27.8858114   7.2312245  45.2655151  27.9550934   6.3726784  45.4048152
  28.6646569   7.4484126  44.9374176  28.0110964   7.1365109  45.2372308
  30.8660933  -3.2668802  58.0337424  31.0802903  -3.9057888  57.4800778
  30.2494833  -2.8222978  57.6045285  30.8066263  -3.2958658  57.8887855
  32.2765601   9.6549947  49.4791644  31.8845393   9.3516662  48.7614511
  32.4318673  10.4919036  49.2896598  32.2419191   9.7333783  49.3448142
  19.7526781  -0.3528039  49.4282527  20.1325746   0.0656506  48.7642794
  19.1782146   0.2285416  49.7351370  19.7238106  -0.2050181  49.3759268
  33.0300021  -1.6579737  58.9720731  32.2176703  -1.9653846  59.0533903
  33.4889956  -2.1380736  59.5363443  32.9780406  -1.7743244  59.0675325
  32.4405276   6.2199935  49.4197675  32.0819931   6.3914578  50.1961707
  31.9543987   6.6813141  48.8625674  32.3163973   6.3138906  49.4522944
  27.2293641   1.8999101  41.9597909  27.5186166   2.6763983  42.2341484
  27.3165440   1.3887832  42.6612409  27.2847898   1.9391019  42.1040407
  33.6010015   7.1103831  60.3664876  34.2389736   6.6164027  60.0327332
  32.9584107   7.0381232  59.7817103  33.6004242   7.0262840  60.2307231
  35.3267015  -1.0407023  54.9330792  34.8994624  -1.1280674  54.1778891
  34.6893068  -0.9329247  55.5185636  35.1696623  -1.0374363  54.9076233
  33.6564272   7.8023640  57.0070233  34.4456650   7.4512704  57.1272314
  33.8307870   8.6160028  56.7446866  33.7984554   7.8709497  56.9858101
  23.3957582   1.2132365  54.0598022  22.5545589   1.1136239  54.2676915
  23.6047590   1.9827846  54.4112342  23.3022275   1.3124409  54.1425336
  20.8733149  -1.1648098  51.8882772  20.4789847  -1.0905086  51.1132882
  20.3173266  -0.7790151  52.4391134  20.7335962  -1.0966323  51.8550432
  27.2074247  -0.8586235  53.3095619  26.9037385  -1.4130247  53.9106027
  26.5053668  -0.6794026  52.8223653  27.0590457  -0.9141453  53.3265325
  26.2640344  -3.5485716  47.8740321  26.5400079  -4.2666803  47.4617888
  26.8639014  -2.9500796  47.6661427  26.3933609  -3.5665345  47.7821082
  25.2692598   6.3563485  58.0167717  25.1612953   6.3665547  58.8829775
  25.4788380   7.1818266  57.8272671  25.2842709   6.4804560  58.1171808
  23.2866390   3.6076128  55.4789654  22.6954324   4.2485626  55.4492669
  24.0487414   4.0313745  55.4520954  23.3114651   3.7651966  55.4704802
  39.4056812   3.4381897  56.4766933  39.4639936   3.8868546  57.2226909
  38.7723279   3.8480710  56.0397013  39.3208107   3.5655632  56.5219481
  33.0455907   9.0585439  52.9121679  32.8475595   9.5476254  52.2177890
  32.4243618   9.2626681  53.4905812  32.9243471   9.1601977  52.8944902
  27.1063885   0.8270336  47.2531923  27.8505930   1.2144612  47.4914873
  27.2524581  -0.0172239  47.4172411  27.2374470   0.7600809  47.3125893
  30.0941761  -3.6004191  53.1525842  29.6201715  -4.1262429  53.6631153
  30.4659897  -4.1474718  52.5840704  30.0791650  -3.7588194  53.1440990
  36.3578491   1.4598185  54.5632623  36.1176714   0.6204600  54.5675049
  36.8370498   1.5398352  55.2873396  36.3930675   1.3479585  54.6707425
  32.0225260  -2.7067636  46.2151596  31.4948279  -2.6238892  45.5257305
  32.4820969  -1.9649765  46.2116241  32.0127111  -2.5846974  46.1126291
  38.3583678  -1.7600358  52.5161882  38.1193448  -1.8004524  51.6782667
  38.5217580  -0.9129206  52.6427603  38.3473982  -1.6408273  52.4115364
  34.9629708   2.6249591  58.4466927  35.6863907   2.1722118  58.2677947
  34.6979671   2.9054257  57.6639255  35.0310982   2.6000560  58.3045643
  23.8316577  -2.7790235  55.1819806  23.2069647  -2.7671843  54.5745759
  23.4962172  -2.3030060  55.8311047  23.6902069  -2.7071718  55.1876375
  20.5442252   5.2810225  56.6223571  20.0142177   4.5902664  56.6718545
  20.8167346   5.2720410  55.7936279  20.5066975   5.1777357  56.5070987
  31.5762343   5.8635927  45.3461253  32.2996542   6.3294040  45.2025827
  31.1362934   5.9309537  44.5958850  31.6178035   5.9419764  45.2146035
  30.7448498   2.7233470  56.5961942  30.1305491   2.1791520  56.8910578
  31.2615783   2.2097706  56.1167758  30.7304160   2.5669879  56.5686171
  29.9844795   3.7937740  54.3306241  29.5572403   3.1687458  53.8971676
  29.9769739   3.5112662  55.1565248  29.9203936   3.6590520  54.3886068
  15.8238095   1.9537989  53.9791919  15.7181544   1.9084834  53.1144003
  15.0738315   2.2991770  54.2606204  15.6973698   1.9978897  53.8929249
  26.0146190  -0.0862178  56.2228418  25.1838120   0.0811640  56.0163666
  25.9597708  -0.4626227  57.0077304  25.8835605  -0.1172446  56.3076946
  24.3882234  -1.8106586  46.7518536  24.5285195  -1.3134122  47.4547177
  24.8864767  -2.5120292  46.8932750  24.4823315  -1.8404607  46.8770115
  24.4182457  -0.9439475  44.0811113  25.0527536  -0.3479050  44.0160575
  24.5008067  -1.2436017  44.8956983  24.5239008  -0.8998567  44.1914199
  37.3965022   1.5876002  56.9497477  37.9882863   2.2273253  56.9815675
  37.8324017   0.8899039  57.2389544  37.5483454   1.5794353  56.9978310
  25.9961439  -5.0125500  44.0556555  26.3177281  -5.4922417  43.4015817
  26.2588383  -4.2025854  43.8647366  26.0827465  -4.9635602  43.9312047
  29.2258412   6.0093375  57.5755371  28.7183503   6.5629222  58.0196001
  28.9285058   6.0701665  56.7574145  29.1063297   6.0999686  57.5203828
  20.9235445   1.2528366  47.3500659  21.4327674   1.8492873  47.7311964
  21.3969717   0.9854339  46.6677078  21.0678820   1.3014181  47.3055182
  31.8366193   9.9256632  45.5059314  31.1195502   9.7517495  45.0406552
  32.4872930   9.6909205  44.9734800  31.8268043   9.8652425  45.3588532
  34.4214164  -1.1978779  49.2500619  33.7505354  -0.6549077  49.1213685
  35.1153914  -0.7283924  49.0082314  34.4243031  -1.0480508  49.1956147
  28.4700898  10.9417933  54.4812378  28.2466552  10.1836762  54.8496404
  27.9810741  10.9715954  53.7592817  28.3644347  10.8340157  54.4289119
  23.2825976  -2.1115376  50.2173839  22.5637965  -1.6951243  50.4846703
  23.6538339  -1.5461137  49.6665477  23.2317908  -1.9666094  50.1756646
  32.5825557  -1.4787527  56.1075835  32.5623484  -1.6604232  56.9610614
  32.6304758  -0.6075508  56.0835419  32.5860198  -1.3770989  56.2299130
  30.5271887   5.1099665  62.0324311  30.4867742   4.4649342  61.4469467
  31.3395205   5.0536283  62.3449724  30.6415040   5.0058632  61.9921261
  27.1179354  11.1618391  51.9349462  26.7039753  10.4992521  51.5453304
  27.8026729  11.3096250  51.4145157  27.1577726  11.0859049  51.8005960
  30.4844649  10.3208476  52.6873079  30.0860932  10.4310747  51.9193899
  29.8695868  10.5290543  53.2699639  30.3343538  10.3682044  52.6604378
  29.0572551  -3.0717376  45.5547219  28.4637390  -2.7500379  45.0031786
  29.0947828  -3.9176280  45.3468325  28.9746940  -3.1493048  45.4429990
  31.9330367  -3.1137871  48.9848969  31.7044060  -3.0905170  48.1427327
  32.1928443  -3.9380404  49.1043979  31.9376555  -3.2321791  48.8774167
  24.9875130  -4.5761325  50.2803165  25.4632496  -4.2144245  49.6453346
  24.4863729  -3.9204857  50.5603307  24.9840489  -4.4267136  50.2279906
  38.2186491   4.8960443  46.0716170  38.6020097   5.6451799  46.3014267
  37.4230605   5.1426263  45.8128159  38.1580273   5.0430137  46.0673743
  27.0301783  -2.4320125  43.6476549  27.4100748  -2.4140496  42.8627663
  26.2894379  -1.9866136  43.5267396  26.9770621  -2.3638351  43.5140117
  32.3827925   0.5559568  52.8888334  32.8781591  -0.1617437  52.8492354
  31.5727701   0.2530365  52.7742821  32.3371819   0.4057214  52.8662060
  27.8286537   4.4057381  45.0385339  27.0197860   4.0824055  44.9918648
  28.3361446   3.6990603  44.9713587  27.7836204   4.2538697  45.0215633
  18.4576814   1.8329574  50.7632703  17.5922334   1.8215265  50.6515474
  18.5575630   1.6459797  51.6103842  18.3450981   1.8035635  50.8721647
  34.4479744   3.3063255  55.5765463  34.8734816   2.7837677  55.0235888
  34.0836664   3.9044093  55.0554086  34.4566347   3.3173482  55.4174473
  24.0833824  11.6027473  54.3362808  24.3980383  12.4163861  54.3440590
  24.4927237  11.2177691  55.0044968  24.1901922  11.6656175  54.4366900
  31.0358344   7.0197520  51.9066620  31.5069522   7.7337782  52.0756606
  31.3718522   6.4196270  52.4426490  31.1553459   7.0368984  52.0098996
  33.1235328   8.6298833  64.0858692  33.2332294   7.8407393  64.4415440
  33.4526225   8.5404769  63.2833031  33.1887734   8.5004686  64.0201083
  31.6732290   6.8115454  58.6694313  31.1253236   6.1873337  58.4014378
  32.1345319   7.0009726  57.9538392  31.6599500   6.7474504  58.5244744
  21.4246844   5.5500581  53.9841417  22.0291702   5.5096415  53.3555238
  21.2174157   6.3971733  54.0145473  21.4835742   5.6688584  53.8957533
  31.2390616   7.8166526  55.2003654  32.0588990   7.6729492  55.4619949
  30.9584694   8.4412725  55.7420092  31.3187360   7.8876878  55.3191594
  16.6598127   4.5335199  53.8540340  16.5622405   3.7231470  54.1630397
  17.4426996   4.5126992  53.4686608  16.7614263   4.4102289  53.8427203
  40.9103952  14.5607029  52.9199461  40.0541847  14.7215527  52.9708578
  40.9571605  13.6899093  52.9404522  40.7903063  14.4557831  52.9305527
  44.2197668  20.8293555  62.5259917  44.9264435  20.3345585  62.6546852
  44.4085604  21.2702636  61.7962575  44.3525574  20.8211905  62.4368963
  43.7555773  16.6199073  55.5631113  44.3011733  17.2984160  55.6225082
  43.6972649  16.4786534  54.7032694  43.8271687  16.6991075  55.4443173
  36.7130587  29.0265728  52.3514321  37.3568043  29.4678892  52.7410479
  37.0386843  28.2219154  52.2644580  36.8562416  28.9730923  52.3959798
  30.0694892  20.1308426  50.5751799  29.8345076  19.2976078  50.4684067
  30.2080532  20.4113091  49.7613000  30.0550554  20.0491929  50.4394154
  32.3684979  12.2994156  53.4736106  31.7490011  11.7086804  53.3046121
  32.2668843  12.8905592  52.8400430  32.2622655  12.2998239  53.3541096
  39.4652875  14.0393698  47.8068570  40.1633040  14.2181826  48.2990033
  39.7805207  13.5164037  47.1838959  39.6148212  13.9887470  47.7870580
  32.0954112  15.8446438  55.7179675  31.9712809  16.4308883  56.3529494
  32.7472397  15.3506634  56.0191950  32.1727762  15.8585242  55.8565605
  39.6540810  20.4264143  47.7948361  40.0934446  19.8181244  48.2403134
  39.5045473  20.0471516  47.0233826  39.6962276  20.2802614  47.7467528
  37.1212453  19.0208155  54.9967186  37.7661456  18.5280598  54.6778135
  37.3614230  19.1632942  55.8233265  37.2523038  18.9685597  55.0716720
  39.6598545  21.8663061  54.6474079  39.9421787  21.0714467  54.4260835
  40.3884705  22.3443648  54.6679140  39.8088108  21.8197658  54.6177094
  37.6379738   9.4086095  51.8889844  37.3083068   9.8597238  51.2193543
  36.9624740   9.3302258  52.4362851  37.4890175   9.4637230  51.8713067
  44.8456146   5.3971618  50.1339455  44.5309587   6.0875096  50.5659877
  44.3283088   5.3416400  49.4324955  44.7220617   5.4906506  50.0936404
  49.6416633  20.9722423  51.6209910  48.8114336  21.1833067  51.7843326
  49.5925885  20.1459478  51.3452193  49.5123368  20.8812029  51.6047275
  36.0768188  19.2939335  45.0484333  35.4925403  19.7989367  45.4550197
  35.6738283  19.0681722  44.3080925  35.9307492  19.3347584  44.9989359
  31.6312216  25.0094096  51.8508005  31.1479795  25.7344586  51.8267588
  32.4435535  25.3070227  51.9618163  31.6802964  25.1596450  51.8635284
  37.7026370  23.8026277  54.4557819  37.1853312  23.4433692  53.8519127
  38.4000762  23.2788452  54.4663885  37.7291952  23.6723965  54.3688078
  41.3589962  24.2521091  60.4173992  41.4473308  24.0647232  61.2652203
  41.7879675  23.6058521  60.0178839  41.4352065  24.1284099  60.4845744
  38.9260422  23.5352251  59.3991655  38.3631257  23.1224861  59.9231316
  39.6881446  23.4605157  59.8184798  38.9554871  23.4629652  59.5384655
  40.5345402  15.5404987  43.5253254  40.7741406  15.7482971  42.7128597
  40.8561243  14.7362496  43.6342198  40.6182560  15.4519089  43.4213807
  35.8435692   7.4698383  47.3712792  36.5981661   7.8376700  47.1329842
  35.6663227   7.8437938  48.1391971  35.9290171   7.5796571  47.4497680
  34.4856414  25.5250272  52.0028285  35.1876993  25.0102261  52.0601041
  34.4053897  25.8524424  52.8075160  34.5780174  25.4964499  52.1301077
  49.1370591  13.6192824  55.4160331  48.2999012  13.6895011  55.6507926
  49.1058822  13.6217319  54.5434633  49.0088874  13.6303051  55.3219879
  35.5335320  15.7625859  61.1308700  35.7055824  15.6531754  61.9793981
  36.0704678  16.4080265  60.8939892  35.6380324  15.8417861  61.2213796
  34.1992757   9.8768702  44.0690905  34.0168330  10.0940583  43.2431898
  35.0618370   9.9907715  44.1249519  34.2997347   9.9258600  43.9545392
  33.8107189  21.7156624  51.5113893  34.6496089  21.9479557  51.5587654
  33.8418958  20.8460936  51.4420928  33.9388907  21.6213571  51.5078537
  34.4359892  22.1357500  55.8127198  34.9758117  21.9928631  56.4830571
  33.7529838  22.5354250  56.1811224  34.4152046  22.1737170  55.9661620
  39.8792476   6.8795113  47.1039929  40.6078637   6.7011068  46.6578085
  39.9687369   7.7213193  47.3147107  39.9999138   6.9778991  47.0693446
  43.8600777  17.8148500  51.0072223  44.6158292  18.2480015  51.0461131
  43.9663101  17.1653270  51.5806859  43.9870948  17.7825984  51.0970248
  46.8980948  21.6421777  51.7574626  46.4616180  21.6458520  52.5133597
  46.5643864  22.3227276  51.3254203  46.7843568  21.7434233  51.8055458
  41.4710022  23.6830110  63.0817776  42.2550438  23.7960958  63.4473518
  41.2706616  22.8571247  63.2776462  41.5576047  23.5776830  63.1652162
  29.8397037  18.3557790  55.9661620  29.5735452  17.5396907  56.1252610
  29.8535601  18.4010946  55.0957135  29.8021760  18.2414695  55.8615102
  46.8178431   8.6835605  54.0004054  47.4604339   8.7533710  54.5865969
  47.0701452   8.0164828  53.4983595  46.9500563   8.5961954  54.0131333
  33.7454784  13.1542875  42.5813378  33.0312961  12.8681054  42.9935810
  34.2298753  13.4939501  43.2219765  33.7114147  13.1624524  42.7369013
  34.5895644  11.8936169  58.6128627  33.8967440  11.4233148  58.8589359
  35.2055971  11.6674473  59.1870335  34.5780174  11.7903300  58.7337780
  41.6280415  25.5940212  56.7284232  40.8295661  25.3539712  56.9858100
  42.0766427  25.6454605  57.4751279  41.5755026  25.5662603  56.8769156
  50.0325294  18.3602697  50.6494263  50.6941728  17.7993366  50.5490171
  49.3916706  17.8654728  50.9746954  50.0354162  18.2039106  50.6826603
  30.2490451  19.1416570  53.2473364  30.0666024  19.1163456  52.3945656
  30.9840120  19.6115508  53.2862273  30.3304515  19.2077932  53.1271283
  46.3190125  19.3768080  50.3906252  46.5545714  19.5213279  49.5633102
  46.4679689  20.1410488  50.7837765  46.3755928  19.5107134  50.3269855
  33.3136203  15.8601573  59.7555473  34.0376175  15.8454603  60.2420367
  33.4152339  16.5696928  59.2577441  33.4354412  15.9626276  59.7534259
  40.6881152  19.3400657  64.6204420  39.8954133  19.6544169  64.8057039
  40.8030079  19.5552126  63.7825204  40.5876562  19.4184494  64.5242754
  43.3612471  16.0634648  48.9099436  43.4559325  16.8023942  49.3639061
  42.7371314  15.6352124  49.3434000  43.2821501  16.1095969  49.0407583
  41.6164945  19.2420861  59.5589716  42.1903806  18.6048105  59.7138280
  41.5379748  19.2424943  58.6899374  41.6898180  19.1485972  59.4536127
  30.2161361  16.0210070  53.3972431  30.7934864  15.8846521  54.0364676
  29.5175423  15.5645855  53.6518015  30.1982383  15.9332337  53.5294720
  36.9728663  17.6744126  51.6110914  36.7147908  16.8415861  51.5842213
  37.0277146  17.9001739  50.7703414  36.9428441  17.5841897  51.4831051
  42.0529714   9.7772577  51.7115006  41.3486040   9.2881762  51.8698926
  42.1014688   9.7895051  50.8403451  41.9559765   9.7062225  51.6054346
  35.9463376  15.2281889  52.0975809  35.3712967  15.3874057  52.7339770
  35.5699052  14.5917298  51.6344259  35.8066188  15.1579702  52.1230367
  39.6136664  13.7005238  56.9568187  39.2251097  13.2759456  56.3020378
  38.9491363  13.9487388  57.4645214  39.4583592  13.6743959  56.9356055
  49.2559933  13.4580243  49.7316017  48.9996498  12.6460184  49.5413900
  50.0989247  13.4657810  49.5046204  49.3425959  13.3392240  49.6700834
  25.6920194  14.8721963  50.1120249  25.7780446  14.4953832  50.8933779
  26.3195992  14.4982409  49.6340207  25.7976745  14.7607446  50.1565727
  43.4363026   7.3979867  54.4692171  43.8173537   6.7158038  54.8560045
  42.6326310   7.1089469  54.2867836  43.3739487   7.2546915  54.4996227
  40.7175602  17.9303842  45.1544994  41.5316241  18.2218735  45.0427765
  40.6534744  17.2763705  44.5803287  40.8278341  17.8769037  45.0533831
  46.9385093  20.6129839  59.5674570  46.7023730  19.7817903  59.4486630
  47.5828322  20.5615446  60.1529414  46.9979763  20.4827527  59.6360463
  36.5883511  21.4025360  50.2817306  37.2257458  21.1637107  50.8269099
  37.0138582  21.6062519  49.5470467  36.7459677  21.3976370  50.2534463
  31.2796153  23.6413696  54.1651610  31.3200298  23.9128547  53.3371389
  31.8390677  24.1655604  54.5809398  31.3679499  23.7589451  54.1043498
  37.3954866   9.9034065  64.3354780  37.0808307  10.6733628  64.0724342
  37.0744799   9.3404321  63.7507007  37.3013785   9.9344334  64.2096130
  47.9621513  20.3974287  55.6302864  47.6567330  21.1302344  55.9916180
  47.2427729  19.9912217  55.3495650  47.8108856  20.4456020  55.6416001
  38.9704983  21.8797783  51.9611092  39.0443991  21.7172954  52.8152942
  39.7874489  22.0687972  51.7171574  39.1021341  21.8834525  52.0509118
  53.6623305  17.0367288  54.9571208  53.5947806  17.0563247  54.0873795
  53.6478968  17.8797615  55.1826879  53.6502062  17.1641023  54.8623685
  32.7310739  22.2255645  48.9905536  31.9048857  22.4717383  48.8639815
  32.7922731  22.1467726  49.8567594  32.6184906  22.2500594  49.0994480
  34.9486763   8.2924586  49.9500976  34.0809189   8.3647186  50.0158585
  35.2361967   9.0946665  50.1388951  34.8626511   8.4218733  49.9875743
  44.0719652   8.4402446  58.2812298  44.8173244   8.2512256  57.8675723
  43.6556956   8.9660684  57.7226154  44.1204626   8.4904591  58.1376871
  51.4481923  15.8111674  53.2317803  51.9989844  15.1779743  53.4714895
  51.4326038  16.3427067  53.9233307  51.5267119  15.7960622  53.3696661
  38.1004314  19.6450271  57.7777696  37.6016007  20.3566039  57.8562585
  38.9104538  19.9650938  57.7395859  38.1460420  19.7977120  57.7834265
  34.3632431  18.9073225  52.0240417  34.0745680  18.2810696  52.5586144
  35.2315779  18.8493512  52.0905098  34.4492683  18.8060769  52.1131372
  45.1510329  14.0508008  52.3422399  44.8075095  13.3298343  52.6929649
  45.2503371  13.8421859  51.5000757  45.1152372  13.9132211  52.2694079
  45.6123358  20.5133712  47.8846387  46.1781391  21.1726922  47.8004930
  44.9651261  20.8583410  48.3562789  45.6002114  20.6615653  47.9419144
  37.0271372  12.5031316  63.0739995  36.2171147  12.8089096  62.9629837
  37.5046058  13.2236898  63.1892579  36.9774850  12.6545917  63.0747066
  35.8862931  21.7177037  53.3222898  35.3643685  21.8577329  54.0074762
  36.2736951  20.9587701  53.5125015  35.8666632  21.6262561  53.4523974
  32.8754115  11.7682846  47.3917852  32.5878911  11.3984116  46.6549800
  33.5624583  12.2377701  47.1301557  32.9343012  11.7829815  47.2432928
  37.3129257  18.7481056  48.7204389  37.1172039  19.3555790  48.1264692
  37.5363602  18.0549000  48.2396063  37.3163898  18.7358581  48.5620469
  35.7107787  15.6335794  48.8385257  36.4330439  15.7976952  48.3789063
  35.2315780  16.3545459  48.7324597  35.7471517  15.7634023  48.7550871
  43.6701294  11.9699593  54.2181942  42.8312395  11.9960872  53.9820205
  43.7405662  12.6170328  54.7987289  43.5569688  12.0695718  54.2691059
  33.3615403  18.0393866  57.9439397  33.8736500  18.3178120  57.2948157
  33.0751746  18.7783160  58.3102210  33.3950267  18.1896220  57.9029275
  42.1170573   8.8684970  48.9509558  42.8196925   8.6692718  48.4729516
  41.8514761   8.0960912  49.2578401  42.1817205   8.7247936  48.9254999
  47.5458818  17.1767579  51.5043184  47.4592793  17.3323005  52.3577962
  47.0909298  17.8205655  51.1302589  47.4662075  17.2943335  51.5750290
  30.4482310  12.5464058  48.2403133  30.5498446  13.3490220  48.5684109
  31.2438196  12.3451394  47.9426214  30.5810215  12.6349957  48.2438489
  36.8799129  10.1320255  58.0040438  36.6882326  10.1475389  58.8539862
  37.7297725  10.3283929  57.9807093  36.9774851  10.1634606  58.1263733
  31.2646042  12.6611236  55.9824255  31.1231534  11.8095177  56.1068763
  31.5486605  12.7039897  55.1586461  31.2853888  12.5410986  55.8791879
  41.4184634  14.4978327  50.1268743  41.1719348  14.4174077  50.9605532
  41.7469757  13.7131794  49.9331271  41.4305878  14.3704592  50.2216266
  45.3132683  21.2061686  53.9155524  45.1747042  21.9042732  54.4204267
  44.5332681  21.0510342  53.5591706  45.1775910  21.2861853  53.9381799
  43.6510768  17.5058061  60.1677906  43.6458807  16.6337878  60.1720333
  44.3571762  17.7046230  59.6947362  43.7555772  17.4061935  60.0984941
  37.3781661  17.2335045  59.5391726  37.5225037  17.8136253  58.9034836
  37.7257310  17.6111342  60.2441581  37.4509123  17.3755749  59.5490721
  39.5501579  16.4325213  57.3216858  38.8024893  16.6256228  56.9165136
  39.7043104  15.6070433  57.0840979  39.4624006  16.3390325  57.2262264
  36.4509416  25.4237817  56.4052753  36.5998980  24.8640733  55.7526158
  37.2309419  25.5029819  56.7885272  36.5883510  25.3523382  56.3649702
  38.9762717  25.5952460  57.6837244  38.9006388  24.9261270  58.2388032
  38.9052576  26.2970248  58.1977910  38.9543324  25.5997367  57.8414092
  39.7903356  10.3275764  58.2112262  40.2475970  11.0599739  58.3385054
  39.8659685   9.9042229  58.9699517  39.8694326  10.3733002  58.3413338
  32.0336347  10.5741584  59.3001705  31.4978537   9.9621942  59.6162473
  32.0954112  11.1489720  59.9535372  31.9631980  10.5688512  59.4437132
  44.2630682   3.5065639  52.0806105  44.3814250   3.9642103  51.3473407
  44.0892858   2.7010901  51.7942322  44.2549853   3.4559412  51.9307038
  37.6685734  12.3177868  55.0554086  36.8781809  12.1369328  55.3771421
  38.0646357  11.5404821  55.0384380  37.6102610  12.1765329  55.1006634
  43.0529420  19.9520298  52.7813532  42.3774422  19.7205531  53.2826919
  43.0621796  19.3441481  52.1555637  42.9547925  19.8279224  52.7629684
  40.1823564  14.7938127  59.5377585  40.1182705  15.6548084  59.4097721
  40.3220752  14.4770120  58.7373136  40.1939034  14.8738294  59.4005797
  38.8642658  17.4870267  53.6793787  38.4404907  17.6874766  52.9432806
  38.6887513  16.6399115  53.7918087  38.7753539  17.3919048  53.5867478
  38.3654351  29.0020780  56.1415245  38.8550282  28.3031569  55.9590909
  37.7938584  28.7044650  56.7291302  38.3538881  28.8547003  56.2016285
  34.1525103  17.9822318  49.1121760  34.3089722  17.9169121  49.9677752
  34.4925696  18.7570871  48.9000440  34.2258338  18.0871516  49.2076354
  40.6904248  17.3580202  47.9815123  41.2319793  16.8550583  48.4453744
  41.0050807  17.3045396  47.1704608  40.8168645  17.2759623  47.9298935
  44.5621355  21.5682849  65.0942035  45.3756220  21.2967998  65.2547168
  44.4016321  21.2690389  64.2902231  44.6591303  21.4837775  64.9987441
  41.8393517  12.2516506  58.0337424  42.0535486  11.6127420  57.4800778
  41.2227416  12.6962330  57.6045285  41.7798846  12.2226650  57.8887855
  30.7259364  15.1657269  49.4282527  31.1058329  15.5841813  48.7642794
  30.1514729  15.7470724  49.7351370  30.6970689  15.3135127  49.3759268
  43.4137860  21.7385243  49.4197675  43.0552514  21.9099886  50.1961707
  42.9276570  22.1998449  48.8625674  43.2896557  21.8324214  49.4522944
  41.2308246   5.3616442  53.0224766  40.3601804   5.3355163  52.9758076
  41.4848587   5.1893634  52.2050612  41.1401806   5.3326586  52.8944903
  38.2026225  17.4184409  41.9597909  38.4918750  18.1949291  42.2341484
  38.2898024  16.9073140  42.6612409  38.2580481  17.4576327  42.1040407
  41.0986112  15.2665643  63.7549433  41.5685744  15.8907759  64.1417307
  41.1447993  14.5982618  64.3142648  41.1753988  15.2600323  63.8949504
  38.2557386   7.3722670  54.4798237  37.7395875   6.6802862  54.6049816
  37.6951315   8.0393447  54.4260836  38.0963899   7.3685928  54.4904303
  40.3249620   7.9115630  56.3091089  39.9381373   7.9364662  57.0904619
  39.8382557   7.3457309  55.8565606  40.1962128   7.8311381  56.3578993
  46.2999599  14.4778285  54.9330792  45.8727207  14.3904634  54.1778891
  45.6625652  14.5856061  55.5185636  46.1429206  14.4810945  54.9076233
  39.9906761   4.7982616  58.6001349  40.6199879   5.3342916  58.3222420
  40.1592624   4.7059975  59.4514915  40.1084556   4.8643978  58.6849877
  39.7920676   9.5853810  60.8727761  40.6194105   9.3138959  60.9286375
  39.8128522  10.3814652  61.2291579  39.9173526   9.6633565  60.9342944
  44.6296856  23.3208948  57.0070233  45.4189234  22.9698012  57.1272314
  44.8040453  24.1345336  56.7446866  44.7717137  23.3894805  56.9858101
  34.3690166  16.7317673  54.0598022  33.5278173  16.6321547  54.2676915
  34.5780174  17.5013154  54.4112342  34.2754859  16.8309717  54.1425336
  31.8465733  14.3537210  51.8882772  31.4522431  14.4280222  51.1132882
  31.2905850  14.7395157  52.4391134  31.7068545  14.4218985  51.8550432
  43.4830680   7.3318504  51.5686651  43.6880273   7.2640812  52.4143648
  43.1557104   8.1377325  51.5007829  43.4645928   7.4404445  51.6846306
  38.1806831  14.6599072  53.3095619  37.8769968  14.1055061  53.9106027
  37.4786252  14.8391282  52.8223653  38.0323041  14.6043855  53.3265325
  37.2372928  11.9699592  47.8740321  37.5132662  11.2518505  47.4617888
  37.8371597  12.5684512  47.6661427  37.3666193  11.9519963  47.7821082
  36.2425182  21.8748793  58.0167717  36.1345537  21.8850855  58.8829775
  36.4520963  22.7003574  57.8272671  36.2575293  21.9989868  58.1171808
  46.7364367   7.8850268  51.0489417  46.1238681   8.3720671  51.4343148
  46.8328542   7.2093759  51.5927068  46.6602265   7.8568577  51.1868275
  40.7383448   9.6413110  46.1486916  41.1927195   9.8123670  46.8734760
  41.2123494   9.0281220  45.7484692  40.8751769   9.5763995  46.1960677
  34.2598974  19.1261436  55.4789654  33.6686907  19.7670934  55.4492669
  35.0219997  19.5499053  55.4520954  34.2847234  19.2837274  55.4704802
  34.6559597  10.2863433  56.1457672  35.1161078  10.3602363  56.8832796
  34.7015703  11.0844687  55.7957493  34.7310152  10.4157580  56.2030428
  36.3042946  10.9530128  60.7129699  35.9128512  10.3063475  61.1485477
  36.4728809  11.5441563  61.3323954  36.2713857  10.9444396  60.8692405
  50.3789395  18.9567205  56.4766933  50.4372519  19.4053854  57.2226909
  49.7455863  19.3666018  56.0397013  50.2940690  19.0840940  56.5219481
  44.0188490  24.5770747  52.9121679  43.8208179  25.0661562  52.2177890
  43.3976201  24.7811989  53.4905812  43.8976055  24.6787285  52.8944902
  38.0796468  16.3455644  47.2531923  38.8238513  16.7329920  47.4914873
  38.2257165  15.5013069  47.4172411  38.2107054  16.2786117  47.3125893
  39.9976044   8.1405903  52.2863785  39.1512089   8.3128711  52.1605134
  39.9947176   7.3355247  52.6229613  39.8723194   8.0466932  52.3174912
  41.0674344  11.9181117  53.1525842  40.5934299  11.3922879  53.6631153
  41.4392480  11.3710590  52.5840704  41.0524233  11.7597114  53.1440990
  31.4447374  13.9152624  58.5209388  32.3072987  13.8148333  58.4346718
  31.1139157  13.3347333  57.9594960  31.5232571  13.8144251  58.4254794
  47.3311075  16.9783493  54.5632623  47.0909298  16.1389908  54.5675049
  47.8103082  17.0583660  55.2873396  47.3663259  16.8664893  54.6707425
  42.9957844  12.8117672  46.2151596  42.4680863  12.8946416  45.5257305
  43.4553552  13.5535543  46.2116241  42.9859694  12.9338334  46.1126291
  49.3316262  13.7584950  52.5161882  49.0926032  13.7180784  51.6782667
  49.4950163  14.6056102  52.6427603  49.3206565  13.8777035  52.4115364
  45.9362292  18.1434899  58.4466927  46.6596491  17.6907426  58.2677947
  45.6712254  18.4239565  57.6639255  46.0043565  18.1185868  58.3045643
  34.8049160  12.7395073  55.1819806  34.1802231  12.7513465  54.5745759
  34.4694755  13.2155248  55.8311047  34.6634652  12.8113590  55.1876375
  34.9890909  11.0820191  41.2392491  34.6403713  11.7339917  41.7024041
  34.5087355  11.0677305  40.5116363  34.8661153  11.1763245  41.2003583
  31.5174836  20.7995533  56.6223571  30.9874760  20.1087972  56.6718545
  31.7899929  20.7905718  55.7936279  31.4799558  20.6962665  56.5070987
  41.7181082  18.2418778  56.5961942  41.1038075  17.6976828  56.8910578
  42.2348366  17.7283014  56.1167758  41.7036744  18.0855187  56.5686171
  40.9577379  19.3123048  54.3306241  40.5304987  18.6872766  53.8971676
  40.9502323  19.0297970  55.1565248  40.8936520  19.1775828  54.3886068
  34.0739906  14.3488221  57.3994675  34.2333392  13.5931545  57.8046397
  33.8932799  14.8979160  58.0535413  34.0705265  14.3182035  57.5557381
  42.0160209   6.5149456  57.9545464  41.5200770   6.7113131  57.2637031
  42.7729271   6.9142125  57.7834266  42.0547033   6.6027190  57.8265601
  39.2863088  10.1891802  54.5448775  39.3105576   9.6551915  53.8561555
  39.5374562   9.6809111  55.2074366  39.3273007  10.0352706  54.5413420
  26.7970678  17.4723297  53.9791919  26.6914127  17.4270142  53.1144003
  26.0470898  17.8177078  54.2606204  26.6706281  17.5164205  53.8929249
  35.5664411   8.9162621  53.9254519  35.6062782   9.4171827  54.6389227
  34.7414075   9.0073014  53.6560442  35.4503937   9.0044437  53.9905057
  37.7494023  18.4823360  62.0274814  36.8989654  18.6195075  62.1632459
  37.9122151  17.7487139  62.4722516  37.6477887  18.3937462  62.1130413
  36.9878774  15.4323130  56.2228418  36.1570704  15.5996948  56.0163666
  36.9330291  15.0559081  57.0077304  36.8568189  15.4012862  56.3076946
  34.7962557   8.9232023  61.8584829  35.4215261   8.3794156  62.1314261
  34.3413037   8.4426941  61.2892619  34.8210818   8.7721505  61.8146423
  35.3614818  13.7078722  46.7518536  35.5017779  14.2051186  47.4547177
  35.8597351  13.0065016  46.8932750  35.4555899  13.6780701  46.8770115
  35.3915040  14.5745833  44.0811113  36.0260120  15.1706258  44.0160575
  35.4740651  14.2749291  44.8956983  35.4971591  14.6186741  44.1914199
  48.3697606  17.1061310  56.9497477  48.9615446  17.7458561  56.9815675
  48.8056600  16.4084347  57.2389544  48.5216037  17.0979661  56.9978310
  36.9694023  10.5059808  44.0556555  37.2909864  10.0262891  43.4015817
  37.2320967  11.3159454  43.8647366  37.0560048  10.5549706  43.9312047
  40.1990996  21.5278683  57.5755371  39.6916087  22.0814529  58.0196001
  39.9017642  21.5886973  56.7574145  40.0795881  21.6184994  57.5203828
  42.3653178   9.8932002  56.4180034  42.7908250   9.4404529  55.8063560
  41.7510171   9.3392073  56.6944821  42.3381823   9.7445978  56.3685059
  31.8968028  16.7713674  47.3500659  32.4060257  17.3678181  47.7311964
  32.3702300  16.5039647  46.6677078  32.0411404  16.8199489  47.3055182
  40.8047401   6.3647102  49.8270611  40.1615719   6.2144748  50.3955749
  40.4646808   6.1189447  49.0619715  40.6592478   6.3059225  49.7973626
  45.3946747  14.3206529  49.2500619  44.7237937  14.8636231  49.1213685
  46.0886498  14.7901384  49.0082314  45.3975615  14.4704800  49.1956147
  39.4433481  26.4603241  54.4812378  39.2199136  25.7022070  54.8496404
  38.9543324  26.4901262  53.7592817  39.3376930  26.3525465  54.4289119
  45.5574875  10.7762413  52.1590993  45.9102485  10.3492135  52.8336791
  44.6989676  10.6913256  52.2892069  45.4824319  10.7007153  52.2786003
  34.2558560  13.4069932  50.2173839  33.5370549  13.8234065  50.4846703
  34.6270922  13.9724171  49.6665477  34.2050492  13.5519214  50.1756646
  43.5558141  14.0397781  56.1075835  43.5356068  13.8581076  56.9610614
  43.6037341  14.9109800  56.0835419  43.5592782  14.1414319  56.2299130
  41.5004470  20.6284973  62.0324311  41.4600325  19.9834650  61.4469467
  42.3127789  20.5721590  62.3449724  41.6147624  20.5243940  61.9921261
  41.4577232  25.8393784  52.6873079  41.0593515  25.9496055  51.9193899
  40.8428452  26.0475851  53.2699639  41.3076121  25.8867352  52.6604378
  40.0305134  12.4467932  45.5547219  39.4369973  12.7684929  45.0031786
  40.0680412  11.6009028  45.3468325  39.9479523  12.3692260  45.4429990
  46.9898935   5.8980824  53.0875305  46.4829800   5.1909964  53.0196483
  47.7866369   5.5674013  53.2176382  47.0326174   5.7453976  53.0974300
  42.9062951  12.4047437  48.9848969  42.6776644  12.4280138  48.1427327
  43.1661027  11.5804904  49.1043979  42.9109139  12.2863517  48.8774167
  37.1882179  14.2581910  58.5874069  36.6761082  13.6503093  58.9459101
  37.0161675  14.9738502  59.0548045  37.0871816  14.2745209  58.7090293
  32.0347894  12.7019485  61.2376431  31.8650484  13.3620860  60.6924638
  31.5913844  12.9126046  61.9588920  31.9447227  12.8305467  61.2638060
  35.9607713  10.9423983  50.2803165  36.4365080  11.3041063  49.6453346
  35.4596313  11.5980450  50.5603307  35.9573072  11.0918172  50.2279906
  41.0651250  12.1806154  61.0276325  41.6222680  11.9519964  60.3954790
  40.7412315  12.9411820  60.7511537  41.0997660  12.2589991  60.8932822
  28.9349958  15.6066351  56.4964921  28.3876678  14.9366996  56.6145789
  29.7242337  15.2396198  56.5608388  28.9702142  15.4531337  56.5233621
  38.7834367  15.2673808  61.9928332  39.5345694  15.5825484  62.3067886
  38.9756943  15.0652979  61.1662254  38.9225781  15.2841189  61.9171728
  38.0034366  13.0865183  43.6476549  38.3833331  13.1044812  42.8627663
  37.2626962  13.5319172  43.5267396  37.9503204  13.1546957  43.5140117
  45.6319657  11.3947374  49.2352127  45.6313883  11.2396030  50.0936404
  45.4275837  12.2410361  49.1793513  45.6019435  11.4967995  49.3540067
  27.6936928  14.8187158  53.6510944  27.5158689  14.3663767  54.3765859
  27.4055950  15.6213320  53.8349421  27.6249881  14.8709716  53.7854447
  43.3560509  16.0744876  52.8888334  43.8514174  15.3567871  52.8492354
  42.5460285  15.7715673  52.7742821  43.3104402  15.9242522  52.8662060
  29.4309398  17.3514882  50.7632703  28.5654917  17.3400573  50.6515474
  29.5308214  17.1645105  51.6103842  29.3183565  17.3220943  50.8721647
  45.4212328  18.8248563  55.5765463  45.8467399  18.3022985  55.0235888
  45.0569248  19.4229401  55.0554086  45.4298930  18.8358790  55.4174473
  35.0566408  27.1212781  54.3362808  35.3712967  27.9349169  54.3440590
  35.4659821  26.7362999  55.0044968  35.1634506  27.1841483  54.4366900
  42.0090927  22.5382827  51.9066620  42.4802105  23.2523090  52.0756606
  42.3451106  21.9381578  52.4426490  42.1286042  22.5554292  52.0098996
  44.0967912  24.1484141  64.0858692  44.2064877  23.3592701  64.4415440
  44.4258808  24.0590077  63.2833031  44.1620318  24.0189994  64.0201083
  38.9260422   7.3110298  58.8624715  39.0588328   6.5141291  59.1905691
  39.3105575   7.8376701  59.4422991  39.0016751   7.2710215  58.9968218
  42.6464874  22.3300762  58.6694313  42.0985820  21.7058645  58.4014378
  43.1077902  22.5195034  57.9538392  42.6332083  22.2659812  58.5244744
  41.9992777   4.2340624  55.4605808  41.1938741   4.1238354  55.7773647
  41.8699513   4.3353080  54.6035674  41.8612910   4.2324294  55.3813849
  45.4558738  10.3986116  56.0545505  44.8721727  10.8995323  55.6423073
  45.7763032   9.8915672  55.4209829  45.4171913  10.3977951  55.9004012
  37.9953537   9.3126711  46.3304180  38.8169231   9.4825024  46.0885875
  37.5323188   9.4673972  45.6070478  38.0484699   9.3608444  46.1875824
  36.5848869   7.3069473  57.1102609  37.1293282   6.9660600  57.7006951
  36.6385805   8.1654935  57.2523893  36.6737988   7.3824732  57.2184482
  32.3979428  21.0685889  53.9841417  33.0024285  21.0281723  53.3555238
  32.1906740  21.9157041  54.0145473  32.4568325  21.1873892  53.8957533
  42.2123200  23.3351834  55.2003654  43.0321574  23.1914800  55.4619949
  41.9317278  23.9598033  55.7420092  42.2919943  23.4062186  55.3191594
  27.6330710  20.0520507  53.8540340  27.5354988  19.2416778  54.1630397
  28.4159580  20.0312300  53.4686608  27.7346847  19.9287597  53.8427203
  58.6836850  30.9916686  48.1646531  58.6530855  31.8461323  48.3364800
  59.2818199  30.6911979  48.7232674  58.7674008  31.0733183  48.2721333
  51.8836535  30.0792337  52.9199461  51.0274431  30.2400835  52.9708578
  51.9304189  29.2084401  52.9404522  51.7635647  29.9743139  52.9305527
  55.1930252  36.3478863  62.5259917  55.8997019  35.8530893  62.6546852
  55.3818187  36.7887944  61.7962575  55.3258157  36.3397213  62.4368963
  54.7288356  32.1384381  55.5631113  55.2744316  32.8169468  55.6225082
  54.6705232  31.9971842  54.7032694  54.8004271  32.2176383  55.4443173
  43.3417563  27.8179464  53.4736106  42.7222594  27.2272111  53.3046121
  43.2401426  28.4090899  52.8400430  43.2355238  27.8183547  53.3541096
  50.4385458  29.5579006  47.8068570  51.1365623  29.7367134  48.2990033
  50.7537791  29.0349345  47.1838959  50.5880796  29.5072778  47.7870580
  43.0686696  31.3631746  55.7179675  42.9445393  31.9494191  56.3529494
  43.7204980  30.8691942  56.0191950  43.1460345  31.3770550  55.8565605
  48.6112322  24.9271403  51.8889844  48.2815652  25.3782546  51.2193543
  47.9357324  24.8487566  52.4362851  48.4622758  24.9822538  51.8713067
  55.8188730  20.9156926  50.1339455  55.5042171  21.6060404  50.5659877
  55.3015671  20.8601708  49.4324955  55.6953200  21.0091814  50.0936404
  60.6149216  36.4907731  51.6209910  59.7846920  36.7018375  51.7843326
  60.5658469  35.6644786  51.3452193  60.4855952  36.3997337  51.6047275
  60.1103175  29.1378132  55.4160331  59.2731596  29.2080319  55.6507926
  60.0791406  29.1402626  54.5434633  59.9821457  29.1488359  55.3219879
  46.5067904  31.2811167  61.1308700  46.6788408  31.1717062  61.9793981
  47.0437261  31.9265573  60.8939892  46.6112908  31.3603169  61.2213796
  57.8713532  37.1607085  51.7574626  57.4348764  37.1643828  52.5133597
  57.5376447  37.8412584  51.3254203  57.7576152  37.2619541  51.8055458
  52.4442605  39.2015418  63.0817776  53.2283022  39.3146266  63.4473518
  52.2439200  38.3756555  63.2776462  52.5308631  39.0962138  63.1652162
  57.7911015  24.2020913  54.0004054  58.4336923  24.2719018  54.5865969
  58.0434035  23.5350136  53.4983595  57.9233147  24.1147262  54.0131333
  45.5628227  27.4121477  58.6128627  44.8700024  26.9418456  58.8589359
  46.1788554  27.1859781  59.1870335  45.5512757  27.3088608  58.7337780
  61.0057878  33.8788005  50.6494263  61.6674312  33.3178674  50.5490171
  60.3649290  33.3840036  50.9746954  61.0086745  33.7224414  50.6826603
  57.2922709  34.8953388  50.3906252  57.5278298  35.0398587  49.5633102
  57.4412272  35.6595796  50.7837765  57.3488512  35.0292442  50.3269855
  44.2868786  31.3786881  59.7555473  45.0108758  31.3639911  60.2420367
  44.3884923  32.0882236  59.2577441  44.4086995  31.4811584  59.7534259
  59.1213165  33.7355054  48.2275855  59.4521382  34.2682694  47.6215950
  59.6946253  33.7893941  48.8837806  59.2546844  33.8224622  48.2353637
  51.6613736  34.8585965  64.6204420  50.8686716  35.1729477  64.8057039
  51.7762663  35.0737434  63.7825204  51.5609146  34.9369802  64.5242754
  52.5897528  34.7606169  59.5589716  53.1636390  34.1233413  59.7138280
  52.5112332  34.7610251  58.6899374  52.6630763  34.6671280  59.4536127
  53.0262297  25.2957885  51.7115006  52.3218624  24.8067070  51.8698926
  53.0747271  25.3080359  50.8403451  52.9292349  25.2247533  51.6054346
  50.5869248  29.2190546  56.9568187  50.1983680  28.7944764  56.3020378
  49.9223946  29.4672695  57.4645214  50.4316176  29.1929267  56.9356055
  60.2292517  28.9765550  49.7316017  59.9729082  28.1645492  49.5413900
  61.0721831  28.9843118  49.5046204  60.3158542  28.8577548  49.6700834
  54.4095609  22.9165175  54.4692171  54.7906121  22.2343346  54.8560045
  53.6058894  22.6274777  54.2867836  54.3472071  22.7732223  54.4996227
  57.9117676  36.1315147  59.5674570  57.6756314  35.3003211  59.4486630
  58.5560905  36.0800754  60.1529414  57.9712347  36.0012834  59.6360463
  48.3687450  25.4219373  64.3354780  48.0540891  26.1918936  64.0724342
  48.0477382  24.8589629  63.7507007  48.2746369  25.4529641  64.2096130
  58.9354097  35.9159595  55.6302864  58.6299914  36.6487652  55.9916180
  58.2160312  35.5097525  55.3495650  58.7841439  35.9641328  55.6416001
  64.6355889  32.5552596  54.9571208  64.5680389  32.5748555  54.0873795
  64.6211551  33.3982923  55.1826879  64.6234645  32.6826331  54.8623685
  45.9219347  23.8109894  49.9500976  45.0541772  23.8832494  50.0158585
  46.2094551  24.6131973  50.1388951  45.8359095  23.9404041  49.9875743
  55.0452235  23.9587754  58.2812298  55.7905827  23.7697564  57.8675723
  54.6289540  24.4845992  57.7226154  55.0937210  24.0089899  58.1376871
  62.4214506  31.3296982  53.2317803  62.9722428  30.6965051  53.4714895
  62.4058622  31.8612375  53.9233307  62.4999703  31.3145930  53.3696661
  49.0736897  35.1635579  57.7777696  48.5748591  35.8751347  57.8562585
  49.8837121  35.4836246  57.7395859  49.1193004  35.3162428  57.7834265
  56.1242912  29.5693316  52.3422399  55.7807678  28.8483651  52.6929649
  56.2235955  29.3607167  51.5000757  56.0884955  29.4317519  52.2694079
  48.0003955  28.0216624  63.0739995  47.1903731  28.3274404  62.9629837
  48.4778642  28.7422206  63.1892579  47.9507434  28.1731225  63.0747066
  54.6433878  27.4884901  54.2181942  53.8044979  27.5146179  53.9820205
  54.7138245  28.1355636  54.7987289  54.5302271  27.5881026  54.2691059
  44.3347987  33.5579174  57.9439397  44.8469084  33.8363427  57.2948157
  44.0484330  34.2968468  58.3102210  44.3682850  33.7081528  57.9029275
  53.0903156  24.3870278  48.9509558  53.7929509  24.1878026  48.4729516
  52.8247345  23.6146220  49.2578401  53.1549788  24.2433244  48.9254999
  58.5191402  32.6952887  51.5043184  58.4325376  32.8508313  52.3577962
  58.0641882  33.3390963  51.1302589  58.4394658  32.8128642  51.5750290
  47.8531712  25.6505563  58.0040438  47.6614909  25.6660697  58.8539862
  48.7030308  25.8469237  57.9807093  47.9507434  25.6819914  58.1263733
  42.2378625  28.1796544  55.9824255  42.0964117  27.3280485  56.1068763
  42.5219189  28.2225205  55.1586461  42.2586472  28.0596294  55.8791879
  52.3917218  30.0163634  50.1268743  52.1451932  29.9359385  50.9605532
  52.7202341  29.2317102  49.9331271  52.4038461  29.8889900  50.2216266
  56.2865267  36.7246994  53.9155524  56.1479626  37.4228040  54.4204267
  55.5065264  36.5695650  53.5591706  56.1508493  36.8047160  53.9381799
  54.6243352  33.0243369  60.1677906  54.6191390  32.1523186  60.1720333
  55.3304346  33.2231538  59.6947362  54.7288356  32.9247243  60.0984941
  48.3514245  32.7520353  59.5391726  48.4957621  33.3321561  58.9034836
  48.6989894  33.1296650  60.2441581  48.4241706  32.8941057  59.5490721
  50.5234162  31.9510521  57.3216858  49.7757476  32.1441536  56.9165136
  50.6775688  31.1255741  57.0840979  50.4356590  31.8575633  57.2262264
  50.7635939  25.8461072  58.2112262  51.2208554  26.5785046  58.3385054
  50.8392268  25.4227537  58.9699517  50.8426909  25.8918310  58.3413338
  43.0068931  26.0926892  59.3001705  42.4711120  25.4807250  59.6162473
  43.0686695  26.6675028  59.9535372  42.9364563  26.0873820  59.4437132
  55.2363265  19.0250947  52.0806105  55.3546833  19.4827411  51.3473407
  55.0625441  18.2196209  51.7942322  55.2282436  18.9744719  51.9307038
  48.6418317  27.8363176  55.0554086  47.8514392  27.6554636  55.3771421
  49.0378940  27.0590129  55.0384380  48.5835194  27.6950637  55.1006634
  51.1556148  30.3123435  59.5377585  51.0915289  31.1733392  59.4097721
  51.2953335  29.9955428  58.7373136  51.1671618  30.3923602  59.4005797
  55.5353939  37.0868157  65.0942035  56.3488804  36.8153306  65.2547168
  55.3748905  36.7875697  64.2902231  55.6323887  37.0023083  64.9987441
  52.8126101  27.7701814  58.0337424  53.0268070  27.1312728  57.4800778
  52.1960000  28.2147638  57.6045285  52.7531430  27.7411958  57.8887855
  54.9765189  29.3790879  58.9720731  54.1641870  29.0716770  59.0533903
  55.4355123  28.8989879  59.5363443  54.9245573  29.2627372  59.0675325
  52.2040829  20.8801750  53.0224766  51.3334387  20.8540471  52.9758076
  52.4581170  20.7078942  52.2050612  52.1134389  20.8511893  52.8944903
  52.0718696  30.7850951  63.7549433  52.5418327  31.4093067  64.1417307
  52.1180576  30.1167926  64.3142648  52.1486572  30.7785631  63.8949504
  49.2289970  22.8907978  54.4798237  48.7128458  22.1988170  54.6049816
  48.6683899  23.5578755  54.4260836  49.0696483  22.8871236  54.4904303
  51.2982203  23.4300938  56.3091089  50.9113956  23.4549970  57.0904619
  50.8115140  22.8642617  55.8565606  51.1694712  23.3496689  56.3578993
  55.5475183  38.1474447  60.3664876  56.1854903  37.6534643  60.0327332
  54.9049274  38.0751848  59.7817103  55.5469409  38.0633456  60.2307231
  57.2732183  29.9963593  54.9330792  56.8459791  29.9089942  54.1778891
  56.6358236  30.1041369  55.5185636  57.1161790  29.9996253  54.9076233
  50.9639345  20.3167924  58.6001349  51.5932463  20.8528224  58.3222420
  51.1325208  20.2245283  59.4514915  51.0817139  20.3829286  58.6849877
  50.7653260  25.1039118  60.8727761  51.5926689  24.8324267  60.9286375
  50.7861106  25.8999960  61.2291579  50.8906110  25.1818873  60.9342944
  55.6029439  38.8394255  57.0070233  56.3921817  38.4883320  57.1272314
  55.7773037  39.6530644  56.7446866  55.7449721  38.9080113  56.9858101
  54.4563263  22.8503812  51.5686651  54.6612857  22.7826120  52.4143648
  54.1289687  23.6562633  51.5007829  54.4378511  22.9589753  51.6846306
  49.1539414  30.1784380  53.3095619  48.8502552  29.6240369  53.9106027
  48.4518835  30.3576590  52.8223653  49.0055624  30.1229163  53.3265325
  57.7096951  23.4035576  51.0489417  57.0971265  23.8905979  51.4343148
  57.8061126  22.7279067  51.5927068  57.6334849  23.3753885  51.1868275
  51.7116032  25.1598418  46.1486916  52.1659779  25.3308978  46.8734760
  52.1856078  24.5466528  45.7484692  51.8484352  25.0949303  46.1960677
  45.6292180  25.8048741  56.1457672  46.0893662  25.8787671  56.8832796
  45.6748287  26.6029995  55.7957493  45.7042736  25.9342888  56.2030428
  47.2775530  26.4715436  60.7129699  46.8861095  25.8248783  61.1485477
  47.4461393  27.0626871  61.3323954  47.2446440  26.4629704  60.8692405
  61.3521979  34.4752513  56.4766933  61.4105103  34.9239162  57.2226909
  60.7188447  34.8851326  56.0397013  61.2673274  34.6026248  56.5219481
  54.9921074  40.0956055  52.9121679  54.7940762  40.5846870  52.2177890
  54.3708785  40.2997297  53.4905812  54.8708638  40.1972593  52.8944902
  50.9708627  23.6591211  52.2863785  50.1244673  23.8314019  52.1605134
  50.9679760  22.8540555  52.6229613  50.8455777  23.5652240  52.3174912
  52.0406928  27.4366425  53.1525842  51.5666882  26.9108187  53.6631153
  52.4125064  26.8895898  52.5840704  52.0256817  27.2782422  53.1440990
  42.4179958  29.4337932  58.5209388  43.2805571  29.3333641  58.4346718
  42.0871741  28.8532641  57.9594960  42.4965154  29.3329559  58.4254794
  58.3043658  32.4968801  54.5632623  58.0641881  31.6575216  54.5675049
  58.7835666  32.5768968  55.2873396  58.3395842  32.3850201  54.6707425
  53.9690428  28.3302980  46.2151596  53.4413446  28.4131724  45.5257305
  54.4286136  29.0720851  46.2116241  53.9592278  28.4523642  46.1126291
  60.3048845  29.2770258  52.5161882  60.0658615  29.2366092  51.6782667
  60.4682747  30.1241410  52.6427603  60.2939149  29.3962343  52.4115364
  56.9094876  33.6620207  58.4466927  57.6329074  33.2092734  58.2677947
  56.6444838  33.9424873  57.6639255  56.9776149  33.6371176  58.3045643
  45.7781744  28.2580381  55.1819806  45.1534814  28.2698773  54.5745759
  45.4427339  28.7340556  55.8311047  45.6367236  28.3298898  55.1876375
  52.6913665  33.7604086  56.5961942  52.0770658  33.2162136  56.8910578
  53.2080950  33.2468322  56.1167758  52.6769328  33.6040495  56.5686171
  45.0472489  29.8673529  57.3994675  45.2065976  29.1116853  57.8046397
  44.8665383  30.4164468  58.0535413  45.0437848  29.8367342  57.5557381
  52.9892792  22.0334764  57.9545464  52.4933354  22.2298438  57.2637031
  53.7461854  22.4327433  57.7834266  53.0279617  22.1212498  57.8265601
  50.2595672  25.7077110  54.5448775  50.2838159  25.1737222  53.8561555
  50.5107146  25.1994419  55.2074366  50.3005591  25.5538014  54.5413420
  46.5396994  24.4347928  53.9254519  46.5795366  24.9357135  54.6389227
  45.7146659  24.5258322  53.6560442  46.4236520  24.5229745  53.9905057
  48.7226607  34.0008668  62.0274814  47.8722238  34.1380383  62.1632459
  48.8854735  33.2672447  62.4722516  48.6210471  33.9122770  62.1130413
  47.9611358  30.9508438  56.2228418  47.1303287  31.1182256  56.0163666
  47.9062875  30.5744389  57.0077304  47.8300772  30.9198170  56.3076946
  45.7695141  24.4417331  61.8584829  46.3947844  23.8979464  62.1314261
  45.3145621  23.9612249  61.2892619  45.7943401  24.2906812  61.8146423
  59.3430190  32.6246618  56.9497477  59.9348030  33.2643869  56.9815675
  59.7789184  31.9269655  57.2389544  59.4948621  32.6164969  56.9978310
  51.1723579  37.0463991  57.5755371  50.6648670  37.5999837  58.0196001
  50.8750226  37.1072280  56.7574145  51.0528464  37.1370302  57.5203828
  53.3385762  25.4117310  56.4180034  53.7640833  24.9589837  55.8063560
  52.7242755  24.8577381  56.6944821  53.3114407  25.2631286  56.3685059
  51.7779984  21.8832410  49.8270611  51.1348302  21.7330056  50.3955749
  51.4379391  21.6374755  49.0619715  51.6325062  21.8244532  49.7973626
  56.3679331  29.8391837  49.2500619  55.6970521  30.3821539  49.1213685
  57.0619081  30.3086692  49.0082314  56.3708198  29.9890108  49.1956147
  56.5307458  26.2947720  52.1590993  56.8835068  25.8677443  52.8336791
  55.6722260  26.2098564  52.2892069  56.4556903  26.2192461  52.2786003
  54.5290724  29.5583089  56.1075835  54.5088652  29.3766384  56.9610614
  54.5769925  30.4295108  56.0835419  54.5325365  29.6599627  56.2299130
  52.4737054  36.1470281  62.0324311  52.4332909  35.5019958  61.4469467
  53.2860372  36.0906898  62.3449724  52.5880208  36.0429248  61.9921261
  51.0037718  27.9653240  45.5547219  50.4102557  28.2870237  45.0031786
  51.0412995  27.1194335  45.3468325  50.9212107  27.8877568  45.4429990
  57.9631518  21.4166132  53.0875305  57.4562383  20.7095272  53.0196483
  58.7598952  21.0859321  53.2176382  58.0058758  21.2639284  53.0974300
  53.8795534  27.9232745  48.9848969  53.6509227  27.9465446  48.1427327
  54.1393611  27.0990212  49.1043979  53.8841722  27.8048824  48.8774167
  48.1614763  29.7767218  58.5874069  47.6493666  29.1688401  58.9459101
  47.9894259  30.4923810  59.0548045  48.0604400  29.7930517  58.7090293
  43.0080477  28.2204793  61.2376431  42.8383068  28.8806168  60.6924638
  42.5646427  28.4311354  61.9588920  42.9179811  28.3490775  61.2638060
  46.9340297  26.4609291  50.2803165  47.4097663  26.8226371  49.6453346
  46.4328896  27.1165758  50.5603307  46.9305656  26.6103480  50.2279906
  60.1651658  35.9331059  46.0716170  60.5485264  36.6822415  46.3014267
  59.3695772  36.1796879  45.8128159  60.1045441  36.0800753  46.0673743
  52.0383833  27.6991462  61.0276325  52.5955263  27.4705272  60.3954790
  51.7144898  28.4597128  60.7511537  52.0730243  27.7775299  60.8932822
  39.9082542  31.1251658  56.4964921  39.3609261  30.4552304  56.6145789
  40.6974920  30.7581506  56.5608388  39.9434726  30.9716645  56.5233621
  49.7566950  30.7859116  61.9928332  50.5078277  31.1010792  62.3067886
  49.9489527  30.5838286  61.1662254  49.8958365  30.8026497  61.9171728
  56.6052241  26.9132682  49.2352127  56.6046467  26.7581338  50.0936404
  56.4008421  27.7595669  49.1793513  56.5752018  27.0153303  49.3540067
  38.6669511  30.3372466  53.6510944  38.4891273  29.8849075  54.3765859
  38.3788534  31.1398628  53.8349421  38.5982465  30.3895024  53.7854447
  54.3293093  31.5930184  52.8888334  54.8246758  30.8753179  52.8492354
  53.5192868  31.2900981  52.7742821  54.2836986  31.4427830  52.8662060
  56.3944911  34.3433871  55.5765463  56.8199983  33.8208293  55.0235888
  56.0301831  34.9414709  55.0554086  56.4031514  34.3544098  55.4174473
  55.0700495  39.6669449  64.0858692  55.1797461  38.8778009  64.4415440
  55.3991392  39.5775385  63.2833031  55.1352901  39.5375302  64.0201083
  49.8993006  22.8295606  58.8624715  50.0320911  22.0326599  59.1905691
  50.2838159  23.3562009  59.4422991  49.9749335  22.7895523  58.9968218
  53.6197457  37.8486070  58.6694313  53.0718403  37.2243953  58.4014378
  54.0810486  38.0380342  57.9538392  53.6064667  37.7845120  58.5244744
  52.9725361  19.7525932  55.4605808  52.1671325  19.6423662  55.7773647
  52.8432096  19.8538388  54.6035674  52.8345494  19.7509602  55.3813849
  56.4291322  25.9171424  56.0545505  55.8454310  26.4180631  55.6423073
  56.7495616  25.4100980  55.4209829  56.3904497  25.9163259  55.9004012
  47.5581453  22.8254781  57.1102609  48.1025866  22.4845908  57.7006951
  47.6118388  23.6840243  57.2523893  47.6470572  22.9010040  57.2184482
  53.1855784  38.8537142  55.2003654  54.0054157  38.7100108  55.4619949
  52.9049861  39.4783341  55.7420092  53.2652527  38.9247494  55.3191594
  69.6569434  46.5101994  48.1646531  69.6263438  47.3646631  48.3364800
  70.2550783  46.2097287  48.7232674  69.7406592  46.5918490  48.2721333
  62.8569119  45.5977645  52.9199461  62.0007014  45.7586143  52.9708578
  62.9036772  44.7269709  52.9404522  62.7368230  45.4928447  52.9305527
  57.2410258  55.1340363  48.6836693  56.4893158  54.7555901  48.4552738
  57.6896270  55.1658796  47.9355503  57.1959925  55.0825970  48.5394195
  66.1662835  51.8664171  62.5259917  66.8729603  51.3716201  62.6546852
  66.3550771  52.3073252  61.7962575  66.2990741  51.8582521  62.4368963
  62.2339510  57.5080001  50.0533351  62.6178889  58.0766900  49.5138126
  62.1698651  56.7829511  49.5739167  62.2812937  57.4855464  49.9027214
  65.7020940  47.6569689  55.5631113  66.2476900  48.3354775  55.6225082
  65.6437816  47.5157150  54.7032694  65.7736854  47.7361691  55.4443173
  58.8195015  55.1458755  50.9499465  58.9205378  54.3359109  51.2596593
  58.2236760  55.0515701  50.3199144  58.7467553  55.0123783  50.9025703
  67.4786008  49.0854296  46.4364840  67.3625534  49.8361982  46.8656978
  68.2741895  48.8278249  46.6860927  67.5790598  49.1589143  46.5368932
  58.6595754  60.0636344  52.3514321  59.3033210  60.5049508  52.7410479
  58.9852010  59.2589770  52.2644580  58.8027583  60.0101539  52.3959798
  59.3616334  53.0748319  47.7234183  59.6832175  53.6153526  47.1195491
  60.0088430  52.5045090  47.8556473  59.5042389  53.0707494  47.6541218
  61.6005977  51.4634759  47.7948361  62.0399613  50.8551859  48.2403134
  61.4510640  51.0842132  47.0233826  61.6427443  51.3173230  47.7467528
  59.0677620  50.0578771  54.9967186  59.7126623  49.5651214  54.6778135
  59.3079397  50.2003557  55.8233265  59.1988205  50.0056213  55.0716720
  61.6063712  52.9033677  54.6474079  61.8886955  52.1085082  54.4260835
  62.3349872  53.3814264  54.6679140  61.7553275  52.8568274  54.6177094
  59.5844906  40.4456711  51.8889844  59.2548236  40.8967854  51.2193543
  58.9089907  40.3672874  52.4362851  59.4355342  40.5007846  51.8713067
  65.2015314  49.8161940  44.7479130  65.1166609  50.6722907  44.8928699
  65.6899697  49.5406264  45.4161289  65.2604211  49.9019262  44.8681212
  66.7921313  36.4342233  50.1339455  66.4774754  37.1245712  50.5659877
  66.2748255  36.3787016  49.4324955  66.6685784  36.5277122  50.0936404
  66.1333747  46.4346734  46.2476865  65.6045219  46.6506368  46.9074172
  66.6558767  47.1282873  46.1677835  66.1322200  46.5689871  46.3332465
  71.5881800  52.0093039  51.6209910  70.7579503  52.2203683  51.7843326
  71.5391052  51.1830093  51.3452193  71.4588535  51.9182645  51.6047275
  53.5777384  56.0464712  51.8508005  53.0944962  56.7715202  51.8267588
  54.3900702  56.3440842  51.9618163  53.6268131  56.1967066  51.8635284
  59.6491538  54.8396893  54.4557819  59.1318479  54.4804308  53.8519127
  60.3465929  54.3159067  54.4663885  59.6757119  54.7094581  54.3688078
  63.3055130  55.2891707  60.4173992  63.3938475  55.1017848  61.2652203
  63.7344842  54.6429137  60.0178839  63.3817232  55.1654715  60.4845744
  60.8725589  54.5722867  59.3991655  60.3096424  54.1595477  59.9231316
  61.6346613  54.4975773  59.8184798  60.9020038  54.5000268  59.5384655
  56.4321581  56.5620888  52.0028285  57.1342160  56.0472877  52.0601041
  56.3519064  56.8895040  52.8075160  56.5245341  56.5335114  52.1301077
  71.0835758  44.6563440  55.4160331  70.2464179  44.7265627  55.6507926
  71.0523989  44.6587934  54.5434633  70.9554041  44.6673667  55.3219879
  57.4800487  46.7996475  61.1308700  57.6520991  46.6902370  61.9793981
  58.0169845  47.4450881  60.8939892  57.5845491  46.8788477  61.2213796
  56.3825059  53.1728115  55.8127198  56.9223284  53.0299246  56.4830571
  55.6995006  53.5724866  56.1811224  56.3617213  53.2107786  55.9661620
  61.8257643  37.9165729  47.1039929  62.5543804  37.7381684  46.6578085
  61.9152536  38.7583808  47.3147107  61.9464306  38.0149607  47.0693446
  65.8065944  48.8519116  51.0072223  66.5623459  49.2850630  51.0461131
  65.9128269  48.2023886  51.5806859  65.9336115  48.8196600  51.0970248
  68.8446115  52.6792393  51.7574626  68.4081347  52.6829136  52.5133597
  68.5109031  53.3597892  51.3254203  68.7308735  52.7804849  51.8055458
  63.4175189  54.7200726  63.0817776  64.2015606  54.8331574  63.4473518
  63.2171783  53.8941863  63.2776462  63.5041214  54.6147446  63.1652162
  68.7643598  39.7206221  54.0004054  69.4069507  39.7904326  54.5865969
  69.0166619  39.0535444  53.4983595  68.8965730  39.6332570  54.0131333
  63.5745582  56.6310828  56.7284232  62.7760828  56.3910328  56.9858100
  64.0231594  56.6825221  57.4751279  63.5220193  56.6033219  56.8769156
  71.9790461  49.3973313  50.6494263  72.6406896  48.8363982  50.5490171
  71.3381873  48.9025344  50.9746954  71.9819329  49.2409722  50.6826603
  62.8667269  52.6943445  42.9575186  63.2818418  52.3628468  42.2659682
  62.0359199  52.4612347  42.8295323  62.8055278  52.6114701  42.8366033
  68.2655292  50.4138696  50.3906252  68.5010881  50.5583894  49.5633102
  68.4144856  51.1781104  50.7837765  68.3221095  50.5477750  50.3269855
  70.0945749  49.2540362  48.2275855  70.4253966  49.7868002  47.6215950
  70.6678837  49.3079249  48.8837806  70.2279428  49.3409930  48.2353637
  62.6346319  50.3771273  64.6204420  61.8419300  50.6914785  64.8057039
  62.7495246  50.5922742  63.7825204  62.5341730  50.4555110  64.5242754
  65.3077638  47.1005264  48.9099436  65.4024492  47.8394558  49.3639061
  64.6836482  46.6722740  49.3434000  65.2286668  47.1466585  49.0407583
  63.5630112  50.2791477  59.5589716  64.1368974  49.6418721  59.7138280
  63.4844916  50.2795559  58.6899374  63.6363347  50.1856588  59.4536127
  65.5600659  48.9454004  42.1436388  65.4780822  49.0156191  43.0091375
  66.1980380  49.5083748  41.9520128  65.6420497  49.0392975  42.2426337
  58.9193831  48.7114742  51.6110914  58.6613075  47.8786477  51.5842213
  58.9742313  48.9372355  50.7703414  58.8893608  48.6212513  51.4831051
  63.9994881  40.8143193  51.7115006  63.2951207  40.3252378  51.8698926
  64.0479855  40.8265667  50.8403451  63.9024932  40.7432841  51.6054346
  61.5601831  44.7375854  56.9568187  61.1716264  44.3130071  56.3020378
  60.8956530  44.9858003  57.4645214  61.4048759  44.7114575  56.9356055
  71.2025100  44.4950858  49.7316017  70.9461665  43.6830800  49.5413900
  72.0454414  44.5028426  49.5046204  71.2891126  44.3762856  49.6700834
  65.3828193  38.4350482  54.4692171  65.7638705  37.7528654  54.8560045
  64.5791477  38.1460085  54.2867836  65.3204655  38.2917531  54.4996227
  68.8850260  51.6500454  59.5674570  68.6488897  50.8188519  59.4486630
  69.5293489  51.5986062  60.1529414  68.9444930  51.5198142  59.6360463
  58.5348678  52.4395976  50.2817306  59.1722625  52.2007723  50.8269099
  58.9603749  52.6433135  49.5470467  58.6924844  52.4346986  50.2534463
  53.2261320  54.6784312  54.1651610  53.2665465  54.9499163  53.3371389
  53.7855844  55.2026220  54.5809398  53.3144666  54.7960067  54.1043498
  59.3420033  40.9404681  64.3354780  59.0273474  41.7104243  64.0724342
  59.0209966  40.3774937  63.7507007  59.2478952  40.9714949  64.2096130
  69.9086680  51.4344903  55.6302864  69.6032497  52.1672960  55.9916180
  69.1892896  51.0282833  55.3495650  69.7574023  51.4826636  55.6416001
  60.9170150  52.9168398  51.9611092  60.9909158  52.7543570  52.8152942
  61.7339656  53.1058588  51.7171574  61.0486508  52.9205141  52.0509118
  75.6088473  48.0737904  54.9571208  75.5412973  48.0933863  54.0873795
  75.5944135  48.9168231  55.1826879  75.5967229  48.2011639  54.8623685
  66.0184819  39.4773062  58.2812298  66.7638411  39.2882872  57.8675723
  65.6022124  40.0031300  57.7226154  66.0669793  39.5275207  58.1376871
  59.4574735  55.8803141  46.6924566  59.7473034  55.4892123  45.9683792
  60.1878216  56.0619846  47.1329841  59.6081620  55.8496955  46.6507373
  73.3947090  46.8482290  53.2317803  73.9455011  46.2150359  53.4714895
  73.3791205  47.3797683  53.9233307  73.4732286  46.8331238  53.3696661
  60.0469481  50.6820887  57.7777696  59.5481174  51.3936655  57.8562585
  60.8569705  51.0021554  57.7395859  60.0925587  50.8347736  57.7834265
  57.3980651  57.8570524  49.7584715  57.1780946  57.5667879  50.5511382
  57.1775173  57.1985479  49.2302628  57.3328245  57.7170232  49.7973624
  67.0975496  45.0878624  52.3422399  66.7540262  44.3668959  52.6929649
  67.1968539  44.8792475  51.5000757  67.0617539  44.9502827  52.2694079
  59.5648607  59.2299914  48.5415408  60.2172665  58.6976356  48.7706434
  58.8674216  58.8768566  48.9283282  59.5579325  59.0989437  48.6327576
  67.5588525  51.5504328  47.8846387  68.1246558  52.2097538  47.8004930
  66.9116429  51.8954026  48.3562789  67.5467282  51.6986269  47.9419144
  58.9736539  43.5401932  63.0739995  58.1636314  43.8459711  62.9629837
  59.4511225  44.2607514  63.1892579  58.9240017  43.6916533  63.0747066
  57.8328098  52.7547653  53.3222898  57.3108852  52.8947944  54.0074762
  58.2202119  51.9958317  53.5125015  57.8131799  52.6633177  53.4523974
  64.0295103  54.4943112  47.3083466  63.7881779  53.7610973  46.9010531
  64.2096436  55.0429969  46.6549800  64.0202727  54.4665503  47.1513689
  59.2594424  49.7851672  48.7204389  59.0637207  50.3926406  48.1264692
  59.4828769  49.0919616  48.2396063  59.2629065  49.7729197  48.5620469
  65.6166461  43.0070209  54.2181942  64.7777562  43.0331487  53.9820205
  65.6870829  43.6540944  54.7987289  65.5034855  43.1066334  54.2691059
  64.0635740  39.9055586  48.9509558  64.7662093  39.7063334  48.4729516
  63.7979928  39.1331528  49.2578401  64.1282372  39.7618552  48.9254999
  69.4923985  48.2138195  51.5043184  69.4057960  48.3693621  52.3577962
  69.0374465  48.8576271  51.1302589  69.4127242  48.3313950  51.5750290
  58.8264296  41.1690871  58.0040438  58.6347493  41.1846005  58.8539862
  59.6762892  41.3654545  57.9807093  58.9240018  41.2005222  58.1263733
  63.3649801  45.5348942  50.1268743  63.1184516  45.4544693  50.9605532
  63.6934924  44.7502410  49.9331271  63.3771045  45.4075208  50.2216266
  67.2597850  52.2432302  53.9155524  67.1212209  52.9413348  54.4204267
  66.4797848  52.0880958  53.5591706  67.1241077  52.3232468  53.9381799
  65.5975935  48.5428677  60.1677906  65.5923974  47.6708494  60.1720333
  66.3036929  48.7416846  59.6947362  65.7020939  48.4432551  60.0984941
  59.3246829  48.2705661  59.5391726  59.4690204  48.8506869  58.9034836
  59.6722477  48.6481958  60.2441581  59.3974290  48.4126365  59.5490721
  61.4966746  47.4695829  57.3216858  60.7490060  47.6626844  56.9165136
  61.6508271  46.6441049  57.0840979  61.4089174  47.3760941  57.2262264
  58.3974584  56.4608433  56.4052753  58.5464147  55.9011349  55.7526158
  59.1774586  56.5400434  56.7885272  58.5348677  56.3893998  56.3649702
  68.7551223  51.6010555  44.6772024  68.3758032  50.8147693  44.6701313
  68.0917468  52.1497413  44.5343668  68.6009698  51.5655379  44.6552821
  60.9227884  56.6323076  57.6837244  60.8471555  55.9631886  58.2388032
  60.8517743  57.3340864  58.1977910  60.9008491  56.6367983  57.8414092
  61.7368523  41.3646380  58.2112262  62.1941137  42.0970354  58.3385054
  61.8124852  40.9412845  58.9699517  61.8159493  41.4103618  58.3413338
  66.2095849  34.5436255  52.0806105  66.3279417  35.0012719  51.3473407
  66.0358025  33.7381516  51.7942322  66.2015020  34.4930027  51.9307038
  61.5798131  55.1524075  48.5160850  62.3448022  54.8833718  48.1943514
  61.4776221  54.6674085  49.2330913  61.6779627  55.0413639  48.5740677
  59.6150901  43.3548484  55.0554086  58.8246976  43.1739944  55.3771421
  60.0111524  42.5775437  55.0384380  59.5567777  43.2135945  55.1006634
  64.1016792  52.1836258  40.4960799  64.8689777  52.2436383  40.0866651
  63.6548101  51.6116700  40.0117118  64.1490219  52.1072834  40.3638510
  64.9994587  50.9890914  52.7813532  64.3239589  50.7576146  53.2826919
  65.0086963  50.3812097  52.1555637  64.9013092  50.8649839  52.7629684
  62.1288731  45.8308743  59.5377585  62.0647872  46.6918700  59.4097721
  62.2685919  45.5140736  58.7373136  62.1404201  45.9108910  59.4005797
  67.0011322  53.8456047  45.0123709  67.0831159  54.6523033  44.6885160
  67.4861064  53.8652006  45.7364483  67.0848480  53.9676709  45.0710608
  60.8107825  48.5240882  53.6793787  60.3870074  48.7245382  52.9432806
  60.6352680  47.6769730  53.7918087  60.7218706  48.4289664  53.5867478
  60.3119519  60.0391395  56.1415245  60.8015449  59.3402185  55.9590909
  59.7403751  59.7415265  56.7291302  60.3004049  59.8917619  56.2016285
  66.5086522  52.6053465  65.0942035  67.3221387  52.3338614  65.2547168
  66.3481488  52.3061005  64.2902231  66.6056471  52.5208391  64.9987441
  60.8055864  53.7868169  45.2655151  60.8748685  52.9282707  45.4048152
  61.5844320  54.0040050  44.9374176  60.9308714  53.6921033  45.2372308
  63.7858684  43.2887122  58.0337424  64.0000654  42.6498036  57.4800778
  63.1692583  43.7332946  57.6045285  63.7264013  43.2597266  57.8887855
  65.1963352  56.2105870  49.4791644  64.8043144  55.9072585  48.7614511
  65.3516424  57.0474960  49.2896598  65.1616942  56.2889707  49.3448142
  65.9497772  44.8976187  58.9720731  65.1374454  44.5902078  59.0533903
  66.4087707  44.4175187  59.5363443  65.8978157  44.7812680  59.0675325
  65.3603027  52.7755859  49.4197675  65.0017681  52.9470502  50.1961707
  64.8741738  53.2369065  48.8625674  65.2361724  52.8694830  49.4522944
  63.1773413  36.3987058  53.0224766  62.3066971  36.3725779  52.9758076
  63.4313754  36.2264250  52.2050612  63.0866973  36.3697201  52.8944903
  63.0451280  46.3036259  63.7549433  63.5150911  46.9278375  64.1417307
  63.0913160  45.6353234  64.3142648  63.1219155  46.2970939  63.8949504
  60.2022553  38.4093286  54.4798237  59.6861042  37.7173478  54.6049816
  59.6416482  39.0764063  54.4260836  60.0429066  38.4056544  54.4904303
  62.2714787  38.9486246  56.3091089  61.8846540  38.9735278  57.0904619
  61.7847724  38.3827925  55.8565606  62.1427296  38.8681997  56.3578993
  66.5207766  53.6659755  60.3664876  67.1587487  53.1719951  60.0327332
  65.8781858  53.5937156  59.7817103  66.5201993  53.5818764  60.2307231
  68.2464766  45.5148901  54.9330792  67.8192374  45.4275250  54.1778891
  67.6090819  45.6226677  55.5185636  68.0894373  45.5181561  54.9076233
  61.9371928  35.8353232  58.6001349  62.5665046  36.3713532  58.3222420
  62.1057791  35.7430591  59.4514915  62.0549723  35.9014594  58.6849877
  61.7385843  40.6224426  60.8727761  62.5659273  40.3509575  60.9286375
  61.7593689  41.4185268  61.2291579  61.8638693  40.7004181  60.9342944
  66.5762023  54.3579563  57.0070233  67.3654401  54.0068628  57.1272314
  66.7505621  55.1715952  56.7446866  66.7182304  54.4265421  56.9858101
  56.3155333  47.7688289  54.0598022  55.4743340  47.6692163  54.2676915
  56.5245341  48.5383769  54.4112342  56.2220026  47.8680332  54.1425336
  65.4295847  38.3689120  51.5686651  65.6345440  38.3011428  52.4143648
  65.1022271  39.1747941  51.5007829  65.4111095  38.4775061  51.6846306
  60.1271998  45.6969688  53.3095619  59.8235136  45.1425677  53.9106027
  59.4251419  45.8761898  52.8223653  59.9788208  45.6414471  53.3265325
  58.1890349  52.9119409  58.0167717  58.0810704  52.9221471  58.8829775
  58.3986130  53.7374189  57.8272671  58.2040460  53.0360484  58.1171808
  68.6829535  38.9220884  51.0489417  68.0703848  39.4091286  51.4343148
  68.7793709  38.2464375  51.5927068  68.6067432  38.8939193  51.1868275
  56.2064141  50.1632051  55.4789654  55.6152074  50.8041550  55.4492669
  56.9685165  50.5869669  55.4520954  56.2312402  50.3207890  55.4704802
  56.6024764  41.3234049  56.1457672  57.0626245  41.3972979  56.8832796
  56.6480871  42.1215303  55.7957493  56.6775319  41.4528196  56.2030428
  58.2508114  41.9900744  60.7129699  57.8593679  41.3434091  61.1485477
  58.4193976  42.5812179  61.3323954  58.2179024  41.9815012  60.8692405
  72.3254563  49.9937821  56.4766933  72.3837686  50.4424470  57.2226909
  71.6921030  50.4036634  56.0397013  72.2405858  50.1211556  56.5219481
  65.9653657  55.6141363  52.9121679  65.7673346  56.1032177  52.2177890
  65.3441368  55.8182604  53.4905812  65.8441222  55.7157901  52.8944902
  61.9441211  39.1776519  52.2863785  61.0977256  39.3499327  52.1605134
  61.9412344  38.3725862  52.6229613  61.8188361  39.0837548  52.3174912
  63.0139511  42.9551733  53.1525842  62.5399466  42.4293495  53.6631153
  63.3857647  42.4081206  52.5840704  62.9989400  42.7967730  53.1440990
  69.2776242  48.0154109  54.5632623  69.0374465  47.1760524  54.5675049
  69.7568249  48.0954276  55.2873396  69.3128426  47.9035508  54.6707425
  64.9423011  43.8488288  46.2151596  64.4146030  43.9317032  45.5257305
  65.4018719  44.5906159  46.2116241  64.9324862  43.9708950  46.1126291
  71.2781429  44.7955566  52.5161882  71.0391199  44.7551400  51.6782667
  71.4415330  45.6426718  52.6427603  71.2671733  44.9147651  52.4115364
  67.8827459  49.1805515  58.4466927  68.6061658  48.7278042  58.2677947
  67.6177421  49.4610181  57.6639255  67.9508732  49.1556484  58.3045643
  64.4960094  52.4191851  45.3461253  65.2194292  52.8849964  45.2025827
  64.0560685  52.4865461  44.5958850  64.5375786  52.4975688  45.2146035
  63.6646249  49.2789394  56.5961942  63.0503242  48.7347444  56.8910578
  64.1813534  48.7653630  56.1167758  63.6501911  49.1225803  56.5686171
  62.9042546  50.3493664  54.3306241  62.4770154  49.7243382  53.8971676
  62.8967490  50.0668585  55.1565248  62.8401687  50.2146444  54.3886068
  63.9625376  37.5520072  57.9545464  63.4665937  37.7483746  57.2637031
  64.7194438  37.9512740  57.7834266  64.0012201  37.6397806  57.8265601
  61.2328256  41.2262418  54.5448775  61.2570743  40.6922530  53.8561555
  61.4839729  40.7179727  55.2074366  61.2738174  41.0723322  54.5413420
  57.5129578  39.9533236  53.9254519  57.5527949  40.4542443  54.6389227
  56.6879242  40.0443630  53.6560442  57.3969104  40.0415053  53.9905057
  59.6959191  49.5193976  62.0274814  58.8454821  49.6565691  62.1632459
  59.8587318  48.7857755  62.4722516  59.5943054  49.4308078  62.1130413
  58.9343941  46.4693746  56.2228418  58.1035871  46.6367564  56.0163666
  58.8795458  46.0929697  57.0077304  58.8033356  46.4383477  56.3076946
  56.7427724  39.9602639  61.8584829  57.3680428  39.4164772  62.1314261
  56.2878204  39.4797557  61.2892619  56.7675985  39.8092120  61.8146423
  70.3162773  48.1431926  56.9497477  70.9080613  48.7829177  56.9815675
  70.7521768  47.4454963  57.2389544  70.4681204  48.1350276  56.9978310
  62.1456163  52.5649298  57.5755371  61.6381254  53.1185145  58.0196001
  61.8482809  52.6257588  56.7574145  62.0261048  52.6555610  57.5203828
  64.3118345  40.9302618  56.4180034  64.7373417  40.4775145  55.8063560
  63.6975338  40.3762689  56.6944821  64.2846991  40.7816594  56.3685059
  64.7563943  56.4812556  45.5059314  64.0393253  56.3073418  45.0406552
  65.4070681  56.2465128  44.9734800  64.7465794  56.4208349  45.3588532
  62.7512568  37.4017718  49.8270611  62.1080886  37.2515364  50.3955749
  62.4111975  37.1560063  49.0619715  62.6057645  37.3429840  49.7973626
  67.3411914  45.3577145  49.2500619  66.6703104  45.9006847  49.1213685
  68.0351665  45.8272000  49.0082314  67.3440782  45.5075416  49.1956147
  61.3898648  57.4973857  54.4812378  61.1664303  56.7392686  54.8496404
  60.9008492  57.5271878  53.7592817  61.2842097  57.3896081  54.4289119
  67.5040042  41.8133028  52.1590993  67.8567652  41.3862751  52.8336791
  66.6454843  41.7283872  52.2892069  67.4289487  41.7377769  52.2786003
  65.5023308  45.0768397  56.1075835  65.4821235  44.8951692  56.9610614
  65.5502508  45.9480415  56.0835419  65.5057949  45.1784935  56.2299130
  63.4469638  51.6655589  62.0324311  63.4065492  51.0205266  61.4469467
  64.2592956  51.6092206  62.3449724  63.5612791  51.5614556  61.9921261
  60.0377105  57.7174315  51.9349462  59.6237504  57.0548445  51.5453304
  60.7224479  57.8652174  51.4145157  60.0775477  57.6414973  51.8005960
  68.9364102  36.9351440  53.0875305  68.4294967  36.2280580  53.0196483
  69.7331536  36.6044629  53.2176382  68.9791341  36.7824592  53.0974300
  64.8528118  43.4418052  48.9848969  64.6241811  43.4650754  48.1427327
  65.1126194  42.6175519  49.1043979  64.8574306  43.3234132  48.8774167
  59.1347346  45.2952525  58.5874069  58.6226249  44.6873708  58.9459101
  58.9626843  46.0109118  59.0548045  59.0336983  45.3115825  58.7090293
  53.9813061  43.7390101  61.2376431  53.8115651  44.3991476  60.6924638
  53.5379011  43.9496662  61.9588920  53.8912395  43.8676083  61.2638060
  71.1384242  51.4516367  46.0716170  71.5217848  52.2007723  46.3014267
  70.3428355  51.6982187  45.8128159  71.0778024  51.5986061  46.0673743
  63.0116417  43.2176770  61.0276325  63.5687847  42.9890580  60.3954790
  62.6877482  43.9782436  60.7511537  63.0462827  43.2960607  60.8932822
  60.7299534  46.3044423  61.9928332  61.4810861  46.6196100  62.3067886
  60.9222110  46.1023594  61.1662254  60.8690948  46.3211805  61.9171728
  67.5784824  42.4317990  49.2352127  67.5779051  42.2766646  50.0936404
  67.3741004  43.2780977  49.1793513  67.5484602  42.5338610  49.3540067
  65.3025676  47.1115492  52.8888334  65.7979341  46.3938487  52.8492354
  64.4925452  46.8086289  52.7742821  65.2569569  46.9613138  52.8662060
  67.3677495  49.8619179  55.5765463  67.7932567  49.3393601  55.0235888
  67.0034415  50.4600016  55.0554086  67.3764098  49.8729406  55.4174473
  57.0031575  58.1583397  54.3362808  57.3178134  58.9719785  54.3440590
  57.4124988  57.7733615  55.0044968  57.1099673  58.2212099  54.4366900
  63.9556094  53.5753443  51.9066620  64.4267273  54.2893706  52.0756606
  64.2916273  52.9752193  52.4426490  64.0751210  53.5924908  52.0098996
  66.0433079  55.1854757  64.0858692  66.1530045  54.3963317  64.4415440
  66.3723976  55.0960693  63.2833031  66.1085485  55.0560610  64.0201083
  60.8725589  38.3480914  58.8624715  61.0053495  37.5511907  59.1905691
  61.2570742  38.8747317  59.4422991  60.9481918  38.3080831  58.9968218
  64.5930041  53.3671377  58.6694313  64.0450987  52.7429261  58.4014378
  65.0543070  53.5565649  57.9538392  64.5797250  53.3030428  58.5244744
  63.9457945  35.2711240  55.4605808  63.1403908  35.1608970  55.7773647
  63.8164680  35.3723696  54.6035674  63.8078077  35.2694910  55.3813849
  67.4023905  41.4356732  56.0545505  66.8186894  41.9365938  55.6423073
  67.7228199  40.9286288  55.4209829  67.3637080  41.4348567  55.9004012
  54.3444595  52.1056505  53.9841417  54.9489452  52.0652339  53.3555238
  54.1371907  52.9527657  54.0145473  54.4033492  52.2244508  53.8957533
  73.8301702  61.1162953  52.9199461  72.9739598  61.2771451  52.9708578
  73.8769356  60.2455017  52.9404522  73.7100814  61.0113755  52.9305527
  68.2142842  70.6525671  48.6836693  67.4625742  70.2741209  48.4552738
  68.6628854  70.6844104  47.9355503  68.1692509  70.6011278  48.5394195
  76.6753523  63.1754997  55.5631113  77.2209483  63.8540083  55.6225082
  76.6170400  63.0342458  54.7032694  76.7469438  63.2546998  55.4443173
  69.7927598  70.6644063  50.9499465  69.8937961  69.8544417  51.2596593
  69.1969343  70.5701009  50.3199144  69.7200137  70.5309091  50.9025703
  62.9892642  66.6864349  50.5751799  62.7542827  65.8532002  50.4684067
  63.1278283  66.9669015  49.7613000  62.9748305  66.6047853  50.4394154
  65.2882730  58.8550080  53.4736106  64.6687762  58.2642727  53.3046121
  65.1866594  59.4461515  52.8400430  65.1820405  58.8554163  53.3541096
  70.3348918  68.5933627  47.7234183  70.6564759  69.1338834  47.1195491
  70.9821014  68.0230398  47.8556473  70.4774973  68.5892802  47.6541218
  72.3850626  60.5949622  47.8068570  73.0830790  60.7737749  48.2990033
  72.7002958  60.0719961  47.1838959  72.5345963  60.5443394  47.7870580
  65.0151863  62.4002362  55.7179675  64.8910560  62.9864807  56.3529494
  65.6670147  61.9062557  56.0191950  65.0925512  62.4141166  55.8565605
  72.5738561  66.9820067  47.7948361  73.0132196  66.3737167  48.2403134
  72.4243224  66.6027440  47.0233826  72.6160027  66.8358538  47.7467528
  70.0410204  65.5764079  54.9967186  70.6859206  65.0836522  54.6778135
  70.2811981  65.7188865  55.8233265  70.1720789  65.5241521  55.0716720
  72.5796295  68.4218985  54.6474079  72.8619538  67.6270390  54.4260835
  73.3082456  68.8999572  54.6679140  72.7285859  68.3753582  54.6177094
  70.5577489  55.9642019  51.8889844  70.2280819  56.4153162  51.2193543
  69.8822491  55.8858182  52.4362851  70.4087925  56.0193154  51.8713067
  76.1747898  65.3347248  44.7479130  76.0899193  66.1908215  44.8928699
  76.6632281  65.0591572  45.4161289  76.2336795  65.4204570  44.8681212
  77.7653897  51.9527541  50.1339455  77.4507338  52.6431020  50.5659877
  77.2480839  51.8972324  49.4324955  77.6418367  52.0462430  50.0936404
  77.1066331  61.9532042  46.2476865  76.5777802  62.1691676  46.9074172
  77.6291351  62.6468181  46.1677835  77.1054784  62.0875179  46.3332465
  68.9965939  65.8495259  45.0484333  68.4123154  66.3545291  45.4550197
  68.5936034  65.6237646  44.3080925  68.8505242  65.8903507  44.9989359
  64.5509967  71.5650020  51.8508005  64.0677545  72.2900510  51.8267588
  65.3633285  71.8626150  51.9618163  64.6000715  71.7152374  51.8635284
  70.6224121  70.3582201  54.4557819  70.1051063  69.9989616  53.8519127
  71.3198512  69.8344375  54.4663885  70.6489702  70.2279889  54.3688078
  73.4543153  62.0960911  43.5253254  73.6939157  62.3038895  42.7128597
  73.7758994  61.2918420  43.6342198  73.5380311  62.0075012  43.4213807
  68.7633443  54.0254307  47.3712792  69.5179411  54.3932624  47.1329842
  68.5860978  54.3993861  48.1391971  68.8487922  54.1352495  47.4497680
  67.4054164  72.0806196  52.0028285  68.1074744  71.5658185  52.0601041
  67.3251647  72.4080348  52.8075160  67.4977925  72.0520422  52.1301077
  68.4533071  62.3181783  61.1308700  68.6253575  62.2087678  61.9793981
  68.9902428  62.9636189  60.8939892  68.5578075  62.3973785  61.2213796
  67.1190508  56.4324626  44.0690905  66.9366081  56.6496507  43.2431898
  67.9816121  56.5463639  44.1249519  67.2195097  56.4814524  43.9545392
  66.7304940  68.2712548  51.5113893  67.5693839  68.5035481  51.5587654
  66.7616709  67.4016860  51.4420928  66.8586657  68.1769495  51.5078537
  67.3557643  68.6913423  55.8127198  67.8955868  68.5484554  56.4830571
  66.6727589  69.0910174  56.1811224  67.3349797  68.7293094  55.9661620
  72.7990227  53.4351037  47.1039929  73.5276388  53.2566992  46.6578085
  72.8885120  54.2769116  47.3147107  72.9196889  53.5334915  47.0693446
  76.7798528  64.3704424  51.0072223  77.5356043  64.8035938  51.0461131
  76.8860852  63.7209194  51.5806859  76.9068698  64.3381908  51.0970248
  62.7594788  64.9113714  55.9661620  62.4933203  64.0952831  56.1252610
  62.7733352  64.9566870  55.0957135  62.7219510  64.7970619  55.8615102
  66.6652535  59.7098799  42.5813378  65.9510712  59.4236978  42.9935810
  67.1496504  60.0495424  43.2219765  66.6311898  59.7180448  42.7369013
  67.5093394  58.4492092  58.6128627  66.8165191  57.9789072  58.8589359
  68.1253722  58.2230397  59.1870335  67.4977924  58.3459224  58.7337780
  73.8399853  68.2128753  42.9575186  74.2551001  67.8813776  42.2659682
  73.0091782  67.9797655  42.8295323  73.7787862  68.1300008  42.8366033
  63.1688202  65.6972494  53.2473364  62.9863775  65.6719380  52.3945656
  63.9037871  66.1671431  53.2862273  63.2502265  65.7633856  53.1271283
  66.2333953  62.4157496  59.7555473  66.9573926  62.4010527  60.2420367
  66.3350090  63.1252852  59.2577441  66.3552162  62.5182200  59.7534259
  76.2810222  62.6190572  48.9099436  76.3757076  63.3579866  49.3639061
  75.6569065  62.1908048  49.3434000  76.2019252  62.6651893  49.0407583
  63.1359112  62.5765994  53.3972431  63.7132615  62.4402445  54.0364676
  62.4373174  62.1201778  53.6518015  63.1180133  62.4888260  53.5294720
  76.5333243  64.4639312  42.1436388  76.4513405  64.5341499  43.0091375
  77.1712963  65.0269056  41.9520128  76.6153080  64.5578283  42.2426337
  69.8926414  64.2300050  51.6110914  69.6345658  63.3971785  51.5842213
  69.9474897  64.4557663  50.7703414  69.8626192  64.1397821  51.4831051
  74.9727464  56.3328501  51.7115006  74.2683791  55.8437686  51.8698926
  75.0212439  56.3450975  50.8403451  74.8757516  56.2618149  51.6054346
  68.8661126  61.7837812  52.0975809  68.2910718  61.9429981  52.7339770
  68.4896803  61.1473221  51.6344259  68.7263939  61.7135625  52.1230367
  72.5334415  60.2561162  56.9568187  72.1448848  59.8315379  56.3020378
  71.8689113  60.5043311  57.4645214  72.3781343  60.2299883  56.9356055
  58.6117945  61.4277887  50.1120249  58.6978197  61.0509755  50.8933779
  59.2393743  61.0538333  49.6340207  58.7174496  61.3163369  50.1565727
  76.3560776  53.9535790  54.4692171  76.7371288  53.2713961  54.8560045
  75.5524061  53.6645392  54.2867836  76.2937238  53.8102839  54.4996227
  73.6373353  64.4859766  45.1544994  74.4513992  64.7774659  45.0427765
  73.5732494  63.8319629  44.5803287  73.7476092  64.4324961  45.0533831
  69.5081261  67.9581284  50.2817306  70.1455208  67.7193031  50.8269099
  69.9336333  68.1618443  49.5470467  69.6657428  67.9532294  50.2534463
  64.1993904  70.1969620  54.1651610  64.2398049  70.4684471  53.3371389
  64.7588428  70.7211528  54.5809398  64.2877250  70.3145375  54.1043498
  70.1484076  63.1783573  44.6192195  70.5329229  62.9591280  45.3708741
  69.8995697  64.0046519  44.7493272  70.1686149  63.2681720  44.7493272
  70.3152617  56.4589989  64.3354780  70.0006058  57.2289551  64.0724342
  69.9942549  55.8960245  63.7507007  70.2211536  56.4900257  64.2096130
  71.8902733  68.4353706  51.9611092  71.9641742  68.2728878  52.8152942
  72.7072240  68.6243896  51.7171574  72.0219092  68.4390449  52.0509118
  65.6508490  68.7811569  48.9905536  64.8246608  69.0273306  48.8639815
  65.7120481  68.7023650  49.8567594  65.5382657  68.8056518  49.0994480
  67.8684514  54.8480510  49.9500976  67.0006939  54.9203110  50.0158585
  68.1559718  55.6502589  50.1388951  67.7824262  54.9774657  49.9875743
  76.9917403  54.9958370  58.2812298  77.7370995  54.8068180  57.8675723
  76.5754707  55.5216607  57.7226154  77.0402377  55.0460515  58.1376871
  70.4307319  71.3988449  46.6924566  70.7205617  71.0077431  45.9683792
  71.1610800  71.5805154  47.1329841  70.5814203  71.3682263  46.6507373
  71.0202064  66.2006195  57.7777696  70.5213758  66.9121963  57.8562585
  71.8302289  66.5206862  57.7395859  71.0658171  66.3533044  57.7834265
  68.3713235  73.3755832  49.7584715  68.1513530  73.0853187  50.5511382
  68.1507757  72.7170787  49.2302628  68.3060829  73.2355540  49.7973624
  67.2830182  65.4629148  52.0240417  66.9943430  64.8366620  52.5586144
  68.1513530  65.4049436  52.0905098  67.3690434  65.3616693  52.1131372
  78.0708080  60.6063932  52.3422399  77.7272846  59.8854267  52.6929649
  78.1701122  60.3977783  51.5000757  78.0350122  60.4688135  52.2694079
  67.4862455  67.1024399  47.9482782  68.2408423  67.4837438  48.1618245
  66.8933068  67.5535543  48.4029479  67.5099169  67.2253227  48.0465661
  69.9469122  59.0587240  63.0739995  69.1368898  59.3645019  62.9629837
  70.4243809  59.7792822  63.1892579  69.8972601  59.2101841  63.0747066
  68.8060682  68.2732961  53.3222898  68.2841435  68.4133252  54.0074762
  69.1934702  67.5143625  53.5125015  68.7864383  68.1818485  53.4523974
  65.7951866  58.3238769  47.3917852  65.5076662  57.9540040  46.6549800
  66.4822334  58.7933625  47.1301557  65.8540763  58.3385739  47.2432928
  70.2327007  65.3036980  48.7204389  70.0369790  65.9111714  48.1264692
  70.4561353  64.6104924  48.2396063  70.2361648  65.2914505  48.5620469
  68.6305537  62.1891718  48.8385257  69.3528189  62.3532876  48.3789063
  68.1513530  62.9101382  48.7324597  68.6669268  62.3189947  48.7550871
  76.5899045  58.5255516  54.2181942  75.7510146  58.5516795  53.9820205
  76.6603412  59.1726252  54.7987289  76.4767439  58.6251642  54.2691059
  66.2813154  64.5949790  57.9439397  66.7934251  64.8734043  57.2948157
  65.9949497  65.3339084  58.3102210  66.3148017  64.7452144  57.9029275
  75.0368323  55.4240893  48.9509558  75.7394676  55.2248642  48.4729516
  74.7712512  54.6516836  49.2578401  75.1014956  55.2803859  48.9254999
  63.3680060  59.1019982  48.2403133  63.4696197  59.9046143  48.5684109
  64.1635947  58.9007318  47.9426214  63.5007966  59.1905881  48.2438489
  69.7996880  56.6876179  58.0040438  69.6080077  56.7031313  58.8539862
  70.6495476  56.8839853  57.9807093  69.8972601  56.7190530  58.1263733
  64.1843793  59.2167160  55.9824255  64.0429284  58.3651101  56.1068763
  64.4684356  59.2595821  55.1586461  64.2051639  59.0966910  55.8791879
  74.3382385  61.0534250  50.1268743  74.0917099  60.9730001  50.9605532
  74.6667508  60.2687718  49.9331271  74.3503628  60.9260516  50.2216266
  70.2979412  63.7890969  59.5391726  70.4422788  64.3692177  58.9034836
  70.6455061  64.1667266  60.2441581  70.3706874  63.9311673  59.5490721
  72.4699330  62.9881137  57.3216858  71.7222644  63.1812152  56.9165136
  72.6240855  62.1626357  57.0840979  72.3821757  62.8946249  57.2262264
  72.7101107  56.8831688  58.2112262  73.1673721  57.6155662  58.3385054
  72.7857435  56.4598153  58.9699517  72.7892076  56.9288926  58.3413338
  64.9534098  57.1297508  59.3001705  64.4176287  56.5177866  59.6162473
  65.0151863  57.7045644  59.9535372  64.8829730  57.1244435  59.4437132
  77.1828433  50.0621563  52.0806105  77.3012001  50.5198026  51.3473407
  77.0090608  49.2566824  51.7942322  77.1747604  50.0115335  51.9307038
  72.5530715  70.6709382  48.5160850  73.3180606  70.4019026  48.1943514
  72.4508805  70.1859393  49.2330913  72.6512210  70.5598947  48.5740677
  70.5883485  58.8733792  55.0554086  69.7979559  58.6925252  55.3771421
  70.9844107  58.0960744  55.0384380  70.5300361  58.7321253  55.1006634
  75.0749375  67.7021566  40.4960799  75.8422360  67.7621691  40.0866651
  74.6280684  67.1302008  40.0117118  75.1222803  67.6258142  40.3638510
  75.9727171  66.5076222  52.7813532  75.2972173  66.2761454  53.2826919
  75.9819547  65.8997405  52.1555637  75.8745675  66.3835147  52.7629684
  73.1021315  61.3494051  59.5377585  73.0380456  62.2104007  59.4097721
  73.2418503  61.0326044  58.7373136  73.1136785  61.4294218  59.4005797
  71.7840409  64.0426190  53.6793787  71.3602658  64.2430689  52.9432806
  71.6085264  63.1955038  53.7918087  71.6951289  63.9474972  53.5867478
  67.0722854  64.5378242  49.1121760  67.2287473  64.4725045  49.9677752
  67.4123447  65.3126794  48.9000440  67.1456089  64.6427440  49.2076354
  73.6101998  63.9136125  47.9815123  74.1517544  63.4106506  48.4453744
  73.9248557  63.8601320  47.1704608  73.7366395  63.8315546  47.9298935
  71.7788448  69.3053477  45.2655151  71.8481268  68.4468015  45.4048152
  72.5576903  69.5225358  44.9374176  71.9041298  69.2106341  45.2372308
  74.7591268  58.8072430  58.0337424  74.9733237  58.1683344  57.4800778
  74.1425167  59.2518254  57.6045285  74.6996597  58.7782574  57.8887855
  63.6457115  61.7213192  49.4282527  64.0256080  62.1397737  48.7642794
  63.0712480  62.3026648  49.7351370  63.6168440  61.8691051  49.3759268
  76.9230356  60.4161495  58.9720731  76.1107037  60.1087385  59.0533903
  77.3820290  59.9360495  59.5363443  76.8710740  60.2997987  59.0675325
  76.3335610  68.2941167  49.4197675  75.9750265  68.4655810  50.1961707
  75.8474321  68.7554373  48.8625674  76.2094307  68.3880138  49.4522944
  74.1505996  51.9172366  53.0224766  73.2799554  51.8911087  52.9758076
  74.4046338  51.7449558  52.2050612  74.0599556  51.8882509  52.8944903
  71.1223976  63.9740332  41.9597909  71.4116501  64.7505215  42.2341484
  71.2095775  63.4629064  42.6612409  71.1778232  64.0132251  42.1040407
  71.1755137  53.9278594  54.4798237  70.6593625  53.2358785  54.6049816
  70.6149066  54.5949371  54.4260836  71.0161650  53.9241852  54.4904303
  73.2447370  54.4671554  56.3091089  72.8579123  54.4920586  57.0904619
  72.7580308  53.9013233  55.8565606  73.1159879  54.3867305  56.3578993
  72.9104512  51.3538540  58.6001349  73.5397630  51.8898840  58.3222420
  73.0790375  51.2615898  59.4514915  73.0282307  51.4199902  58.6849877
  72.7118427  56.1409734  60.8727761  73.5391856  55.8694883  60.9286375
  72.7326273  56.9370576  61.2291579  72.8371277  56.2189488  60.9342944
  67.2887917  63.2873597  54.0598022  66.4475923  63.1877471  54.2676915
  67.4977925  64.0569077  54.4112342  67.1952609  63.3865640  54.1425336
  64.7663484  60.9093134  51.8882772  64.3720181  60.9836146  51.1132882
  64.2103601  61.2951080  52.4391134  64.6266296  60.9774909  51.8550432
  76.4028430  53.8874428  51.5686651  76.6078024  53.8196736  52.4143648
  76.0754854  54.6933249  51.5007829  76.3843678  53.9960368  51.6846306
  71.1004582  61.2154996  53.3095619  70.7967719  60.6610984  53.9106027
  70.3984002  61.3947206  52.8223653  70.9520791  61.1599779  53.3265325
  70.1570679  58.5255516  47.8740321  70.4330413  57.8074429  47.4617888
  70.7569348  59.1240436  47.6661427  70.2863943  58.5075887  47.7821082
  69.1622933  68.4304717  58.0167717  69.0543287  68.4406779  58.8829775
  69.3718714  69.2559497  57.8272671  69.1773044  68.5545792  58.1171808
  73.6581199  56.1969033  46.1486916  74.1124946  56.3679594  46.8734760
  74.1321245  55.5837144  45.7484692  73.7949519  56.1319919  46.1960677
  67.1796725  65.6817359  55.4789654  66.5884658  66.3226858  55.4492669
  67.9417748  66.1054977  55.4520954  67.2044985  65.8393198  55.4704802
  67.5757347  56.8419357  56.1457672  68.0358829  56.9158287  56.8832796
  67.6213454  57.6400611  55.7957493  67.6507903  56.9713504  56.2030428
  69.2240697  57.5086052  60.7129699  68.8326262  56.8619399  61.1485477
  69.3926560  58.0997487  61.3323954  69.1911607  57.5000320  60.8692405
  70.9994219  62.9011568  47.2531923  71.7436264  63.2885844  47.4914873
  71.1454915  62.0568993  47.4172411  71.1304804  62.8342041  47.3125893
  72.9173795  54.6961827  52.2863785  72.0709840  54.8684634  52.1605134
  72.9144927  53.8911170  52.6229613  72.7920945  54.6022856  52.3174912
  73.9872095  58.4737041  53.1525842  73.5132049  57.9478803  53.6631153
  74.3590231  57.9266514  52.5840704  73.9721984  58.3153038  53.1440990
  64.3645125  60.4708548  58.5209388  65.2270738  60.3704257  58.4346718
  64.0336908  59.8903257  57.9594960  64.4430322  60.3700174  58.4254794
  75.9155595  59.3673596  46.2151596  75.3878613  59.4502340  45.5257305
  76.3751303  60.1091467  46.2116241  75.9057445  59.4894258  46.1126291
  67.7246911  59.2950997  55.1819806  67.0999981  59.3069389  54.5745759
  67.3892506  59.7711172  55.8311047  67.5832403  59.3669514  55.1876375
  67.9088660  57.6376115  41.2392491  67.5601464  58.2895840  41.7024041
  67.4285106  57.6233228  40.5116363  67.7858904  57.7319169  41.2003583
  64.4372587  67.3551457  56.6223571  63.9072511  66.6643896  56.6718545
  64.7097680  67.3461642  55.7936279  64.3997309  67.2518589  56.5070987
  75.4692677  67.9377159  45.3461253  76.1926876  68.4035272  45.2025827
  75.0293268  68.0050769  44.5958850  75.5108369  68.0160996  45.2146035
  74.6378832  64.7974701  56.5961942  74.0235825  64.2532752  56.8910578
  75.1546117  64.2838938  56.1167758  74.6234495  64.6411111  56.5686171
  73.8775129  65.8678971  54.3306241  73.4502737  65.2428690  53.8971676
  73.8700074  65.5853893  55.1565248  73.8134271  65.7331752  54.3886068
  66.9937657  60.9044145  57.3994675  67.1531143  60.1487469  57.8046397
  66.8130550  61.4535084  58.0535413  66.9903015  60.8737958  57.5557381
  74.9357959  53.0705380  57.9545464  74.4398521  53.2669054  57.2637031
  75.6927022  53.4698048  57.7834266  74.9744784  53.1583114  57.8265601
  72.2060839  56.7447726  54.5448775  72.2303326  56.2107838  53.8561555
  72.4572313  56.2365035  55.2074366  72.2470758  56.5908630  54.5413420
  59.7168429  64.0279221  53.9791919  59.6111878  63.9826065  53.1144003
  58.9668649  64.3733002  54.2606204  59.5904032  64.0720129  53.8929249
  68.4862161  55.4718544  53.9254519  68.5260533  55.9727751  54.6389227
  67.6611826  55.5628938  53.6560442  68.3701687  55.5600361  53.9905057
  69.9076525  61.9879054  56.2228418  69.0768454  62.1552872  56.0163666
  69.8528042  61.6115005  57.0077304  69.7765940  61.9568785  56.3076946
  67.7160308  55.4787947  61.8584829  68.3413011  54.9350080  62.1314261
  67.2610788  54.9982865  61.2892619  67.7408569  55.3277428  61.8146423
  68.2812569  60.2634646  46.7518536  68.4215530  60.7607110  47.4547177
  68.7795101  59.5620940  46.8932750  68.3753649  60.2336624  46.8770115
  68.3112791  61.1301757  44.0811113  68.9457870  61.7262182  44.0160575
  68.3938402  60.8305214  44.8956983  68.4169342  61.1742665  44.1914199
  69.8891774  57.0615732  44.0556555  70.2107615  56.5818815  43.4015817
  70.1518718  57.8715378  43.8647366  69.9757799  57.1105630  43.9312047
  75.2850929  56.4487926  56.4180034  75.7106000  55.9960452  55.8063560
  74.6707922  55.8947997  56.6944821  75.2579574  56.3001902  56.3685059
  64.8165779  63.3269597  47.3500659  65.3258008  63.9234105  47.7311964
  65.2900051  63.0595571  46.6677078  64.9609154  63.3755413  47.3055182
  73.7245152  52.9203026  49.8270611  73.0813470  52.7700672  50.3955749
  73.3844559  52.6745371  49.0619715  73.5790229  52.8615148  49.7973626
  67.1756311  59.9625856  50.2173839  66.4568300  60.3789989  50.4846703
  67.5468673  60.5280095  49.6665477  67.1248242  60.1075137  50.1756646
  76.4755891  60.5953705  56.1075835  76.4553819  60.4137000  56.9610614
  76.5235092  61.4665723  56.0835419  76.4790532  60.6970243  56.2299130
  72.9502885  59.0023856  45.5547219  72.3567724  59.3240852  45.0031786
  72.9878163  58.1564951  45.3468325  72.8677274  58.9248184  45.4429990
  75.8260701  58.9603360  48.9848969  75.5974395  58.9836062  48.1427327
  76.0858778  58.1360827  49.1043979  75.8306890  58.8419440  48.8774167
  70.1079930  60.8137833  58.5874069  69.5958833  60.2059016  58.9459101
  69.9359426  61.5294426  59.0548045  70.0069567  60.8301133  58.7090293
  64.9545645  59.2575409  61.2376431  64.7848235  59.9176784  60.6924638
  64.5111595  59.4681970  61.9588920  64.8644978  59.3861391  61.2638060
  68.8805464  57.4979907  50.2803165  69.3562830  57.8596987  49.6453346
  68.3794064  58.1536374  50.5603307  68.8770823  57.6474095  50.2279906
  73.9849000  58.7362078  61.0276325  74.5420430  58.5075888  60.3954790
  73.6610065  59.4967744  60.7511537  74.0195410  58.8145915  60.8932822
  61.8547709  62.1622274  56.4964921  61.3074429  61.4922920  56.6145789
  62.6440087  61.7952122  56.5608388  61.8899893  62.0087261  56.5233621
  70.9232117  59.6421106  43.6476549  71.3031082  59.6600736  42.8627663
  70.1824713  60.0875095  43.5267396  70.8700955  59.7102881  43.5140117
  78.5517408  57.9503298  49.2352127  78.5511634  57.7951954  50.0936404
  78.3473588  58.7966285  49.1793513  78.5217186  58.0523918  49.3540067
  60.6134679  61.3743082  53.6510944  60.4356440  60.9219691  54.3765859
  60.3253701  62.1769244  53.8349421  60.5447632  61.4265640  53.7854447
  76.2758260  62.6300799  52.8888334  76.7711925  61.9123795  52.8492354
  75.4658035  62.3271597  52.7742821  76.2302153  62.4798446  52.8662060
  71.7216871  66.4798613  45.0385339  70.9128194  66.1565286  44.9918648
  72.2291780  65.7731835  44.9713587  71.6766538  66.3279929  45.0215633
  62.3507148  63.9070806  50.7632703  61.4852668  63.8956496  50.6515474
  62.4505964  63.7201029  51.6103842  62.2381315  63.8776867  50.8721647
  67.9764158  73.6768704  54.3362808  68.2910717  74.4905093  54.3440590
  68.3857572  73.2918923  55.0044968  68.0832256  73.7397407  54.4366900
  74.9288678  69.0938751  51.9066620  75.3999856  69.8079014  52.0756606
  75.2648857  68.4937501  52.4426490  75.0483793  69.1110216  52.0098996
  71.8458173  53.8666222  58.8624715  71.9786079  53.0697215  59.1905691
  72.2303326  54.3932625  59.4422991  71.9214502  53.8266139  58.9968218
  74.9190528  50.7896548  55.4605808  74.1136492  50.6794278  55.7773647
  74.7897264  50.8909004  54.6035674  74.7810661  50.7880218  55.3813849
  78.3756489  56.9542040  56.0545505  77.7919478  57.4551246  55.6423073
  78.6960783  56.4471596  55.4209829  78.3369664  56.9533875  55.9004012
  70.9151288  55.8682635  46.3304180  71.7366982  56.0380948  46.0885875
  70.4520939  56.0229896  45.6070478  70.9682450  55.9164368  46.1875824
  69.5046620  53.8625397  57.1102609  70.0491033  53.5216524  57.7006951
  69.5583555  54.7210858  57.2523893  69.5935739  53.9380656  57.2184482
  65.3177179  67.6241813  53.9841417  65.9222036  67.5837647  53.3555238
  65.1104491  68.4712965  54.0145473  65.3766076  67.7429815  53.8957533
  60.5528461  66.6076430  53.8540340  60.4552739  65.7972702  54.1630397
  61.3357331  66.5868224  53.4686608  60.6544597  66.4843521  53.8427203
  34.9895915   1.0347878  35.6176739  34.2378815   0.6563416  35.3892784
  35.4381927   1.0666312  34.8695550  34.9445582   0.9833485  35.4734242
  40.4420875   1.4573248  31.0462286  40.1072244   2.1350169  30.6106509
  40.9547746   1.0678559  30.4579158  40.4686456   1.4997826  30.8949078
  39.9825166   3.4087516  36.9873398  40.3664546   3.9774415  36.4478173
  39.9184308   2.6837027  36.5079214  40.0298594   3.3862980  36.8367261
  36.5680671   1.0466270  37.8839512  36.6691034   0.2366624  38.1936640
  35.9722417   0.9523217  37.2539190  36.4953210   0.9131298  37.8365750
  36.4081411   5.9643859  39.2854368  37.0518866   6.4057024  39.6750526
  36.7337667   5.1597286  39.1984627  36.5513240   5.9109054  39.3299845
  29.7645716  -2.9313443  37.5091846  29.5295900  -3.7645791  37.4024114
  29.9031356  -2.6508777  36.6953046  29.7501378  -3.0129940  37.3734200
  37.1101991  -1.0244166  34.6574230  37.4317832  -0.4838958  34.0535538
  37.7574087  -1.5947394  34.7896519  37.2528046  -1.0284991  34.5881265
  31.3263040   1.9472228  38.7848052  30.8430619   2.6722717  38.7607635
  32.1386359   2.2448358  38.8958209  31.3753788   2.0974581  38.7975331
  37.3977194   0.7404408  41.3897866  36.8804136   0.3811823  40.7859174
  38.0951586   0.2166583  41.4003932  37.4242776   0.6102096  41.3028125
  41.0540786   1.1899222  47.3514039  41.1424132   1.0025363  48.1992249
  41.4830499   0.5436652  46.9518886  41.1302889   1.0662230  47.4185791
  38.6211246   0.4730382  46.3331701  38.0582081   0.0602992  46.8571363
  39.3832270   0.3983288  46.7524845  38.6505695   0.4007783  46.4724702
  34.1807238   2.4628404  38.9368331  34.8827817   1.9480393  38.9941088
  34.1004721   2.7902555  39.7415207  34.2730998   2.4342630  39.0641124
  33.5058013  -1.3465244  38.4453940  34.3446912  -1.1142312  38.4927701
  33.5369782  -2.2160933  38.3760975  33.6339731  -1.4408298  38.4418584
  34.1310716  -0.9264369  42.7467245  34.6708941  -1.0693238  43.4170617
  33.4480662  -0.5267618  43.1151271  34.1102870  -0.8884698  42.9001667
  41.1660846   0.6208241  50.0157823  41.9501262   0.7339089  50.3813565
  40.9657440  -0.2050621  50.2116509  41.2526871   0.5154961  50.0992209
  41.3231239   2.5318343  43.6624278  40.5246485   2.2917844  43.9198147
  41.7717251   2.5832736  44.4091326  41.2705850   2.5040735  43.8109203
  29.9441275  -3.9205299  40.1813411  29.7616848  -3.9458413  39.3285703
  30.6790944  -3.4506361  40.2202320  30.0255339  -3.8543937  40.0611329
  36.2834335  -1.6596509  37.2157353  36.9208282  -1.8984761  37.7609146
  36.7089406  -1.4559350  36.4810513  36.4410501  -1.6645499  37.1874510
  30.9746977   0.5791828  41.0991657  31.0151122   0.8506679  40.2711436
  31.5341501   1.1033736  41.5149445  31.0630323   0.6967583  41.0383545
  38.6655807  -1.1824086  38.8951139  38.7394815  -1.3448914  39.7492989
  39.4825313  -0.9933897  38.6511621  38.7972165  -1.1787344  38.9849165
  32.4261563  -0.8366223  35.9245583  31.5999681  -0.5904486  35.7979861
  32.4873554  -0.9154143  36.7907641  32.3135730  -0.8121274  36.0334527
  37.2060392   1.7810657  33.6264613  37.4958691   1.3899638  32.9023839
  37.9363873   1.9627362  34.0669888  37.3567276   1.7504471  33.5847420
  35.1466308   3.7578039  36.6924762  34.9266603   3.4675394  37.4851429
  34.9260830   3.0992994  36.1642675  35.0813902   3.6177748  36.7313671
  37.3134264   5.1307429  35.4755455  37.9658322   4.5983871  35.7046481
  36.6159872   4.7776081  35.8623329  37.3064982   4.9996952  35.5667622
  34.2615528  -2.5153393  34.8822829  35.0161496  -2.1340354  35.0958292
  33.6686141  -2.0642250  35.3369525  34.2852242  -2.3924566  34.9805707
  35.5813755  -1.3444832  40.2562944  35.0594509  -1.2044540  40.9414809
  35.9687775  -2.1034168  40.4465062  35.5617456  -1.4359308  40.3864021
  41.7780760   0.3950627  34.2423513  41.5367436  -0.3381512  33.8350578
  41.9582093   0.9437484  33.5889846  41.7688384   0.3673018  34.0853736
  36.1460240   2.3615948  43.3392800  36.2949804   1.8018864  42.6866204
  36.9260243   2.4407950  43.7225319  36.2834334   2.2901514  43.2989749
  38.6713541   2.5330591  44.6177291  38.5957212   1.8639402  45.1728079
  38.6003400   3.2348379  45.1317957  38.6494148   2.5375498  44.7754139
  39.3283788   1.0531590  35.4500897  40.0933679   0.7841234  35.1283561
  39.2261878   0.5681600  36.1670959  39.4265283   0.9421155  35.5080724
  38.0605175   5.9398911  43.0755292  38.5501106   5.2409700  42.8930956
  37.4889408   5.6422781  43.6631349  38.0489705   5.7925134  43.1356332
  38.5541521  -0.3124316  32.1995198  38.6234342  -1.1709777  32.3388198
  39.3329976  -0.0952435  31.8714223  38.6794371  -0.4071452  32.1712355
  42.9449009   2.1113386  36.4131691  42.5528801   1.8080101  35.6954557
  43.1002081   2.9482476  36.2236645  42.9102599   2.1897222  36.2788188
  35.9376006  -1.1873076  44.9507764  35.8296361  -1.1771014  45.8169822
  36.1471787  -0.3618295  44.7612717  35.9526117  -1.0632001  45.0511855
  43.7139314   1.5148878  39.8461726  43.5159003   2.0039693  39.1517937
  43.0927025   1.7190120  40.4245859  43.5926878   1.6165417  39.8284949
  31.2125660  -2.2626336  43.5563618  30.6825584  -2.9533897  43.6058592
  31.4850753  -2.2716150  42.7276326  31.1750382  -2.3659204  43.4411033
  26.4921502  -5.5898572  40.9131966  26.3864951  -5.6351727  40.0484050
  25.7421722  -5.2444791  41.1946251  26.3657105  -5.5457663  40.8269296
  39.8941820  -1.5343186  44.5095418  39.3866911  -0.9807339  44.9536048
  39.5968466  -1.4734896  43.6914192  39.7746705  -1.4436875  44.4543874
  42.5049600   2.3820072  32.4399361  41.7878910   2.2080934  31.9746599
  43.1556338   2.1472644  31.9074847  42.4951451   2.3215864  32.2928579
  39.1384305   3.3981372  41.4152425  38.9149959   2.6400201  41.7836451
  38.6494148   3.4279393  40.6932864  39.0327754   3.2903597  41.3629166
  37.7862762   3.6181830  38.8689509  37.3723161   2.9555960  38.4793351
  38.4710136   3.7659689  38.3485203  37.8261134   3.5422488  38.7346006
  41.1528056   2.7771915  39.6213126  40.7544339   2.8874186  38.8533946
  40.5379276   2.9853982  40.2039686  41.0026945   2.8245483  39.5944425
  34.7517232   4.0590912  41.2702855  35.0663791   4.8727300  41.2780637
  35.1610645   3.6741131  41.9385014  34.8585330   4.1219614  41.3706947
  43.7918736   1.0862272  51.0198739  43.9015701   0.2970833  51.3755486
  44.1209632   0.9968208  50.2173077  43.8571142   0.9568125  50.9541130
  32.0930252  -1.9935980  40.9181464  32.6975109  -2.0340146  40.2895284
  31.8857564  -1.1464828  40.9485519  32.1519149  -1.8747977  40.8297580
  41.9074024   0.2729965  42.1343701  42.7272398   0.1292932  42.3959996
  41.6268102   0.8976164  42.6760139  41.9870767   0.3440318  42.2531640
  27.3281534  -3.0101362  40.7880387  27.2305812  -3.8205091  41.0970443
  28.1110404  -3.0309569  40.4026655  27.4297671  -3.1334272  40.7767250
  58.3787674   7.9294817  35.0986577  58.3481679   8.7839454  35.2704847
  58.9769023   7.6290110  35.6572721  58.4624832   8.0111314  35.2061380
  51.5787359   7.0170468  39.8539508  50.7225255   7.1778966  39.9048625
  51.6255013   6.1462532  39.8744569  51.4586471   6.9121270  39.8645574
  54.8881076  13.2856994  49.4599964  55.5947843  12.7909025  49.5886898
  55.0769011  13.7266075  48.7302622  55.0208981  13.2775344  49.3709009
  51.4153459  16.9758556  31.0462286  51.0804827  17.6535477  30.6106509
  51.9280329  16.5863867  30.4579158  51.4419040  17.0183134  30.8949078
  50.9557750  18.9272824  36.9873398  51.3397129  19.4959723  36.4478173
  50.8916891  18.2022335  36.5079214  51.0031177  18.9048288  36.8367261
  54.4239180   9.0762512  42.4971159  54.9695140   9.7547599  42.5565129
  54.3656056   8.9349973  41.6372741  54.4955094   9.1554514  42.3783220
  56.2004249  10.5047119  33.3704887  56.0843775  11.2554805  33.7997025
  56.9960135  10.2471073  33.6200974  56.3008838  10.5781966  33.4708979
  40.7378299  12.5871865  37.5091846  40.5028484  11.7539517  37.4024114
  40.8763940  12.8676530  36.6953046  40.7233962  12.5055368  37.3734200
  43.0368387   4.7557595  40.4076153  42.4173418   4.1650243  40.2386168
  42.9352250   5.3469031  39.7740476  42.9306062   4.7561678  40.2881143
  50.1336282   6.4957137  34.7408616  50.8316447   6.6745265  35.2330080
  50.4488615   5.9727477  34.1179006  50.2831620   6.4450909  34.7210626
  42.7637520   8.3009877  42.6519722  42.6396217   8.8872323  43.2869541
  43.4155804   7.8070073  42.9531997  42.8411169   8.3148682  42.7905651
  47.7895861  11.4771594  41.9307233  48.4344863  10.9844037  41.6118182
  48.0297638  11.6196381  42.7573312  47.9206446  11.4249036  42.0056766
  50.3281952  14.3226500  41.5814126  50.6105195  13.5277906  41.3600882
  51.0568113  14.8007087  41.6019187  50.4771516  14.2761097  41.5517141
  48.3063146   1.8649534  38.8229891  47.9766476   2.3160677  38.1533590
  47.6308148   1.7865697  39.3702897  48.1573582   1.9200669  38.8053114
  53.9233554  11.2354763  31.6819177  53.8384849  12.0915730  31.8268746
  54.4117938  10.9599088  32.3501336  53.9822452  11.3212085  31.8021259
  54.8551988   7.8539558  33.1816912  54.3263459   8.0699191  33.8414218
  55.3777007   8.5475696  33.1017881  54.8540441   7.9882695  33.2672511
  60.3100040  13.4285862  38.5549957  59.4797744  13.6396506  38.7183373
  60.2609293  12.6022917  38.2792240  60.1806776  13.3375468  38.5387322
  46.7451595  11.7502774  31.9824380  46.1608811  12.2552806  32.3890244
  46.3421691  11.5245161  31.2420972  46.5990899  11.7911023  31.9329405
  52.0273370  16.7084530  47.3514039  52.1156716  16.5210671  48.1992249
  52.4563083  16.0621960  46.9518886  52.1035472  16.5847538  47.4185791
  51.2028810   7.9968427  30.4593301  51.4424813   8.2046410  29.6468644
  51.5244651   7.1925935  30.5682245  51.2865968   7.9082528  30.3553854
  59.8053999   6.0756263  42.3500378  58.9682420   6.1458450  42.5847972
  59.7742230   6.0780758  41.4774680  59.6772281   6.0866490  42.2559926
  46.2018728   8.2189298  48.0648747  46.3739231   8.1095193  48.9134028
  46.7388085   8.8643704  47.8279939  46.3063732   8.2981300  48.1553843
  44.8676165   2.3332141  31.0030952  44.6851738   2.5504022  30.1771944
  45.7301778   2.4471154  31.0589566  44.9680754   2.3822039  30.8885439
  54.5284185  10.2711939  37.9412269  55.2841700  10.7043454  37.9801178
  54.6346509   9.6216709  38.5146905  54.6554355  10.2389423  38.0310295
  57.5664356  14.0985217  38.6914672  57.1299588  14.1021959  39.4473644
  57.2327271  14.7790716  38.2594250  57.4526976  14.1997672  38.7395505
  52.1393429  16.1393549  50.0157823  52.9233846  16.2524397  50.3813565
  51.9390024  15.3134686  50.2116509  52.2259455  16.0340269  50.0992209
  40.5080445  10.8121229  42.9001667  40.2418860   9.9960346  43.0592657
  40.5219009  10.8574385  42.0297182  40.4705167  10.6978134  42.7955149
  44.4138192   5.6106314  29.5153425  43.6996369   5.3244493  29.9275857
  44.8982160   5.9502940  30.1559812  44.3797555   5.6187964  29.6709060
  45.2579051   4.3499608  45.5468674  44.5650848   3.8796587  45.7929406
  45.8739378   4.1237912  46.1210381  45.2463581   4.2466740  45.6677827
  60.7008702  10.8166136  37.5834310  61.3625136  10.2556805  37.4830218
  60.0600114  10.3218167  37.9087001  60.7037569  10.6602545  37.6166650
  51.5885510  14.1136268  29.8915233  52.0036658  13.7821292  29.1999729
  50.7577439  13.8805170  29.7635370  51.5273518  14.0307524  29.7706080
  40.9173858  11.5980009  40.1813411  40.7349432  11.5726895  39.3285703
  41.6523527  12.0678947  40.2202320  40.9987922  11.6641371  40.0611329
  56.9873533  11.8331519  37.3246298  57.2229122  11.9776718  36.4973149
  57.1363096  12.5973927  37.7177812  57.0439336  11.9670573  37.2609902
  43.9819610   8.3165012  46.6895520  44.7059582   8.3018042  47.1760414
  44.0835747   9.0260367  46.1917488  44.1037819   8.4189715  46.6874306
  58.8163989  10.6733185  35.1615902  59.1472206  11.2060825  34.5555997
  59.3897077  10.7272073  35.8177853  58.9497668  10.7602754  35.1693684
  51.3564559  11.7964096  51.5544467  50.5637540  12.1107608  51.7397086
  51.4713487  12.0115565  50.7165251  51.2559970  11.8747933  51.4582801
  54.0295878   8.5198087  35.8439482  54.1242733   9.2587382  36.2979108
  53.4054722   8.0915563  36.2774047  53.9504909   8.5659408  35.9747630
  52.2848352  11.6984300  46.4929763  52.8587214  11.0611544  46.6478327
  52.2063156  11.6988383  45.6239421  52.3581587  11.6049412  46.3876174
  40.8844769   8.4773510  40.3312477  41.4618271   8.3409960  40.9704723
  40.1858830   8.0209294  40.5858062  40.8665790   8.3895776  40.4634767
  54.2818900  10.3646827  29.0776434  54.1999062  10.4349014  29.9431421
  54.9198620  10.9276571  28.8860175  54.3638737  10.4585798  29.1766384
  47.6412071  10.1307565  38.5450961  47.3831315   9.2979300  38.5182260
  47.6960554  10.3565178  37.7043461  47.6111849  10.0405336  38.4171097
  46.6146783   7.6845328  39.0315855  46.0396374   7.8437496  39.6679816
  46.2382459   7.0480737  38.5684306  46.4749595   7.6143141  39.0570414
  50.2820072   6.1568677  43.8908234  49.8934504   5.7322895  43.2360425
  49.6174770   6.4050827  44.3985260  50.1266999   6.1307398  43.8696102
  36.3603602   7.3285402  37.0460296  36.4463854   6.9517271  37.8273826
  36.9879399   6.9545848  36.5680254  36.4660153   7.2170885  37.0905773
  51.3859010  10.3867282  32.0885041  52.1999649  10.6782174  31.9767812
  51.3218151   9.7327144  31.5143334  51.4961749  10.3332476  31.9873878
  57.6068500  13.0693278  46.5014616  57.3707137  12.2381342  46.3826677
  58.2511729  13.0178885  47.0869461  57.6663171  12.9390966  46.5700510
  47.8969733   9.0791089  31.5532242  48.2814886   8.8598796  32.3048787
  47.6481354   9.9054034  31.6833319  47.9171806   9.1689235  31.6833319
  48.0638274   2.3597504  51.2694827  47.7491715   3.1297067  51.0064389
  47.7428206   1.7967760  50.6847053  47.9697193   2.3907773  51.1436176
  58.6304921  12.8537726  42.5642911  58.3250738  13.5865783  42.9256227
  57.9111136  12.4475656  42.2835697  58.4792263  12.9019459  42.5756048
  64.3306713   9.4930727  41.8911255  64.2631213   9.5126686  41.0213842
  64.3162375  10.3361054  42.1166926  64.3185469   9.6204462  41.7963732
  43.3994147  14.6819084  35.9245583  42.5732265  14.9280822  35.7979861
  43.4606138  14.6031165  36.7907641  43.2868314  14.7064033  36.0334527
  45.6170171   0.7488025  36.8841023  44.7492596   0.8210625  36.9498632
  45.9045375   1.5510104  37.0728998  45.5309919   0.8782173  36.9215789
  62.1165330   8.2675113  40.1657850  62.6673252   7.6343182  40.4054942
  62.1009446   8.7990506  40.8573354  62.1950527   8.2524061  40.3036708
  48.7687721  12.1013711  44.7117743  48.2699415  12.8129478  44.7902631
  49.5787945  12.4214377  44.6735905  48.8143828  12.2540559  44.7174312
  45.0315839  11.3636664  38.9580464  44.7429087  10.7374135  39.4926191
  45.8999187  11.3056951  39.0245144  45.1176091  11.2624208  39.0471418
  55.8193736   6.5071447  39.2762446  55.4758502   5.7861782  39.6269695
  55.9186779   6.2985298  38.4340804  55.7835779   6.3695650  39.2034126
  56.2806766  12.9697151  34.8186434  56.8464798  13.6290361  34.7344977
  55.6334669  13.3146849  35.2902836  56.2685522  13.1179092  34.8759190
  47.6954779   4.9594755  50.0080041  46.8854555   5.2652535  49.8969884
  48.1729466   5.6800337  50.1232625  47.6458258   5.1109356  50.0087112
  43.5437523   4.2246285  34.3257899  43.2562318   3.8547555  33.5889846
  44.2307991   4.6941140  34.0641604  43.6026420   4.2393254  34.1772975
  52.7513344  15.9135935  34.2423513  52.5100020  15.1803796  33.8350578
  52.9314677  16.4622792  33.5889846  52.7420968  15.8858326  34.0853736
  46.3791194   8.0899233  35.7725304  47.1013846   8.2540391  35.3129110
  45.8999187   8.8108898  35.6664644  46.4154925   8.2197463  35.6890918
  54.3384702   4.4263032  41.1521989  53.4995802   4.4524311  40.9160252
  54.4089069   5.0733767  41.7327335  54.2253095   4.5259158  41.2031106
  44.0298811  10.4957305  44.8779444  44.5419908  10.7741559  44.2288203
  43.7435154  11.2346599  45.2442257  44.0633674  10.6459659  44.8369322
  58.2142226   9.6331019  38.4383230  58.1276200   9.7886445  39.2918009
  57.7592706  10.2769094  38.0642636  58.1345482   9.7506774  38.5090337
  41.1165717   5.0027497  35.1743180  41.2181854   5.8053659  35.5024156
  41.9121604   4.8014833  34.8766261  41.2493623   5.0913396  35.1778535
  47.5482536   2.5883694  44.9380485  47.3565733   2.6038828  45.7879909
  48.3981132   2.7847368  44.9147140  47.6458258   2.6198045  45.0603780
  41.9329449   5.1174675  42.9164302  41.7914941   4.2658616  43.0408810
  42.2170013   5.1603336  42.0926508  41.9537295   4.9974425  42.8131926
  52.0868042   6.9541766  37.0608790  51.8402756   6.8737517  37.8945579
  52.4153165   6.1695233  36.8671317  52.0989285   6.8268031  37.1556313
  55.9816091  13.6625125  40.8495571  55.8430450  14.3606171  41.3544314
  55.2016088  13.5073781  40.4931753  55.8459317  13.7425292  40.8721845
  54.3194176   9.9621500  47.1017953  54.3142214   9.0901317  47.1060379
  55.0255170  10.1609669  46.6287409  54.4239180   9.8625375  47.0324988
  48.0465069   9.6898484  46.4731773  48.1908445  10.2699692  45.8374883
  48.3940718  10.0674781  47.1781628  48.1192530   9.8319188  46.4830768
  50.2184986   8.8888653  44.2556905  49.4708300   9.0819667  43.8505183
  50.3726512   8.0633872  44.0181026  50.1307414   8.7953764  44.1602310
  57.4769463  13.0203379  31.6112070  57.0976272  12.2340517  31.6041360
  56.8135709  13.5690236  31.4683715  57.3227938  12.9848203  31.5892867
  50.4586763   2.7839203  45.1452308  50.9159378   3.5163178  45.2725101
  50.5343092   2.3605669  45.9039564  50.5377733   2.8296441  45.2753385
  42.7019755   3.0305023  46.2341752  42.1661944   2.4185381  46.5502519
  42.7637519   3.6053159  46.8875419  42.6315387   3.0251951  46.3777179
  48.3369141   4.7741307  41.9894132  47.5465216   4.5932767  42.3111468
  48.7329764   3.9968260  41.9724427  48.2786018   4.6328768  42.0346681
  52.8235032  13.6029082  27.4300846  53.5908017  13.6629207  27.0206698
  52.3766341  13.0309523  26.9457165  52.8708459  13.5265657  27.2978556
  53.7212828  12.4083737  39.7153578  53.0457829  12.1768970  40.2166965
  53.7305204  11.8004920  39.0895683  53.6231332  12.2842663  39.6969731
  50.8506972   7.2501566  46.4717631  50.7866113   8.1111523  46.3437768
  50.9904159   6.9333560  45.6713183  50.8622442   7.3301733  46.3345844
  55.7229562  15.2648870  31.9463756  55.8049400  16.0715856  31.6225207
  56.2079304  15.2844829  32.6704530  55.8066720  15.3869532  32.0050655
  49.5326065   9.9433706  40.6133834  49.1088315  10.1438205  39.8772853
  49.3570921   9.0962554  40.7258134  49.4436946   9.8482487  40.5207524
  44.8208510  10.4385757  36.0461807  44.9773130  10.3732560  36.9017799
  45.1609104  11.2134310  35.8340486  44.8941745  10.5434955  36.1416401
  51.3587655   9.8143641  34.9155170  51.9003201   9.3114022  35.3793791
  51.6734214   9.7608835  34.1044655  51.4852052   9.7323062  34.8638982
  55.2304762  14.0246288  52.0282082  56.0439628  13.7531437  52.1887215
  55.0699729  13.7253828  51.2242278  55.3274711  13.9401214  51.9327488
  52.5076924   4.7079945  44.9677470  52.7218894   4.0690859  44.4140824
  51.8910824   5.1525769  44.5385332  52.4482254   4.6790089  44.8227902
  53.9181592  17.6298694  36.4131691  53.5261384  17.3265409  35.6954557
  54.0734665  18.4667783  36.2236645  53.8835182  17.7082530  36.2788188
  41.3942772   7.6220708  36.3622574  41.7741737   8.0405253  35.6982841
  40.8198137   8.2034163  36.6691417  41.3654097   7.7698566  36.3099315
  54.6716012   6.3169010  45.9060778  53.8592694   6.0094901  45.9873950
  55.1305947   5.8368011  46.4703490  54.6196397   6.2005503  46.0015372
  54.0821267  14.1948682  36.3537722  53.7235922  14.3663325  37.1301754
  53.5959978  14.6561888  35.7965720  53.9579964  14.2887653  36.3862991
  48.8709633   9.8747848  28.8937956  49.1602157  10.6512730  29.1681531
  48.9581431   9.3636579  29.5952456  48.9263889   9.9139766  29.0380454
  51.7669520   7.7229082  50.6889480  52.2369151   8.3471198  51.0757354
  51.8131400   7.0546057  51.2482695  51.8437396   7.7163762  50.8289551
  55.2426006  15.0852578  47.3004923  55.8805727  14.5912774  46.9667379
  54.6000098  15.0129979  46.7157150  55.2420233  15.0011587  47.1647278
  56.9683007   6.9341724  41.8670838  56.5410615   6.8468073  41.1118938
  56.3309060   7.0419500  42.4525682  56.8112614   6.9374384  41.8416280
  55.2980263  15.7772387  43.9410279  56.0872641  15.4261451  44.0612361
  55.4723861  16.5908775  43.6786913  55.4400545  15.8458244  43.9198147
  45.0373573   9.1881112  40.9938068  44.1961580   9.0884987  41.2016962
  45.2463581   9.9576593  41.3452389  44.9438266   9.2873156  41.0765383
  42.5149140   6.8100649  38.8222819  42.1205838   6.8843661  38.0472929
  41.9589257   7.1958596  39.3731181  42.3751953   6.8782424  38.7890479
  48.8490238   7.1162512  40.2435666  48.5453376   6.5618500  40.8446074
  48.1469659   7.2954722  39.7563700  48.7006448   7.0607294  40.2605371
  47.9056335   4.4263031  34.8080368  48.1816070   3.7081944  34.3957935
  48.5055005   5.0247951  34.6001474  48.0349600   4.4083402  34.7161129
  44.9282381  11.5824875  42.4129701  44.3370315  12.2234373  42.3832716
  45.6903405  12.0062492  42.3861001  44.9530642  11.7400713  42.4044848
  45.3243004   2.7426872  43.0797719  45.7844486   2.8165802  43.8172843
  45.3699111   3.5408126  42.7297540  45.3993559   2.8721019  43.1370475
  46.9726354   3.4093567  47.6469746  46.5811919   2.7626914  48.0825524
  47.1412217   4.0005003  48.2664001  46.9397264   3.4007835  47.8032452
  61.0472803  11.4130644  43.4106979  61.1055927  11.8617293  44.1566956
  60.4139271  11.8229457  42.9737059  60.9624098  11.5404379  43.4559528
  54.6871898  17.0334186  39.8461726  54.4891586  17.5225001  39.1517937
  54.0659609  17.2375428  40.4245859  54.5659462  17.1350724  39.8284949
  48.7479876   8.8019083  34.1871970  49.4921921   9.1893359  34.4254920
  48.8940572   7.9576508  34.3512458  48.8790461   8.7349556  34.2465940
  51.7357752   4.3744556  40.0865889  51.2617706   3.8486318  40.5971200
  52.1075888   3.8274029  39.5180751  51.7207641   4.2160553  40.0781036
  42.1130782   6.3716063  45.4549435  42.9756395   6.2711772  45.3686765
  41.7822565   5.7910772  44.8935007  42.1915978   6.2707690  45.3594841
  57.9994482   9.4346932  41.4972670  57.7592705   8.5953347  41.5015096
  58.4786490   9.5147099  42.2213443  58.0346666   9.3228332  41.6047472
  53.6641251   5.2681111  33.1491643  53.1364270   5.3509855  32.4597352
  54.1236960   6.0098982  33.1456288  53.6543102   5.3901773  33.0466338
  59.9999669   6.2148389  39.4501929  59.7609439   6.1744223  38.6122714
  60.1633571   7.0619541  39.5767650  59.9889973   6.3340474  39.3455411
  56.6045700  10.5998339  45.3806974  57.3279898  10.1470865  45.2017994
  56.3395662  10.8803004  44.5979302  56.6726973  10.5749307  45.2385689
  45.4732568   5.1958512  42.1159853  44.8485638   5.2076904  41.5085806
  45.1378163   5.6718687  42.7651093  45.3318060   5.2677029  42.1216422
  45.6574317   3.5383631  28.1732538  45.3087121   4.1903356  28.6364088
  45.1770762   3.5240744  27.4456409  45.5344561   3.6326684  28.1343630
  42.1858243  13.2558972  43.5563618  41.6558168  12.5651411  43.6058592
  42.4583337  13.2469158  42.7276326  42.1482966  13.1526104  43.4411033
  53.2178334  13.8384675  32.2801300  53.9412533  14.3042788  32.1365873
  52.7778925  13.9058284  31.5298897  53.2594026  13.9168511  32.1486082
  52.3864489  10.6982217  43.5301989  51.7721482  10.1540267  43.8250624
  52.9031774  10.1846453  43.0507805  52.3720151  10.5418626  43.5026218
  51.6260786  11.7686487  41.2646288  51.1988394  11.1436205  40.8311723
  51.6185731  11.4861409  42.0905295  51.5619927  11.6339267  41.3226115
  44.7423313   6.8051660  44.3334722  44.9016800   6.0494984  44.7386444
  44.5616207   7.3542599  44.9875459  44.7388672   6.7745474  44.4897428
  49.9546496   2.6455241  41.4788822  49.9788983   2.1115354  40.7901602
  50.2057969   2.1372550  42.1414412  49.9956415   2.4916145  41.4753466
  37.4654086   9.9286736  40.9131966  37.3597535   9.8833581  40.0484050
  36.7154306  10.2740517  41.1946251  37.3389689   9.9727644  40.8269296
  46.2347818   1.3726060  40.8594566  46.2746190   1.8735266  41.5729273
  45.4097483   1.4636453  40.5900489  46.1187344   1.4607876  40.9245104
  48.4177431  10.9386800  48.9614861  47.5673062  11.0758514  49.0972506
  48.5805559  10.2050578  49.4062562  48.3161295  10.8500901  49.0470460
  47.6562182   7.8886569  43.1568465  46.8254111   8.0560387  42.9503713
  47.6013699   7.5122520  43.9417350  47.5251596   7.8576301  43.2416993
  45.4645965   1.3795462  48.7924876  46.0898668   0.8357595  49.0654308
  45.0096445   0.8990380  48.2232666  45.4894225   1.2284944  48.7486470
  46.0298225   6.1642161  33.6858583  46.1701186   6.6614625  34.3887224
  46.5280758   5.4628455  33.8272796  46.1239306   6.1344140  33.8110162
  46.0598448   7.0309272  31.0151160  46.6943527   7.6269697  30.9500621
  46.1424059   6.7312730  31.8297030  46.1654999   7.0750180  31.1254246
  59.0381014   9.5624749  43.8837524  59.6298854  10.2022000  43.9155722
  59.4740008   8.8647786  44.1729591  59.1899445   9.5543100  43.9318356
  47.6377431   2.9623247  30.9896602  47.9593272   2.4826330  30.3355864
  47.9004374   3.7722893  30.7987413  47.7243456   3.0113145  30.8652094
  50.8674403  13.9842122  44.5095418  50.3599494  14.5377969  44.9536048
  50.5701050  14.0450412  43.6914192  50.7479288  14.0748433  44.4543874
  42.5651436   9.2277113  34.2840706  43.0743665   9.8241620  34.6652011
  43.0385708   8.9603086  33.6017125  42.7094811   9.2762928  34.2395228
  53.4782184  17.9005379  32.4399361  52.7611493  17.7266242  31.9746599
  54.1288921  17.6657952  31.9074847  53.4684034  17.8401172  32.2928579
  56.0630155   6.7769968  36.1840666  55.3921345   7.3199670  36.0553732
  56.7569905   7.2464823  35.9422361  56.0659022   6.9268239  36.1296194
  44.9241967   5.8633371  37.1513886  44.2053956   6.2797504  37.4186750
  45.2954330   6.4287610  36.6005524  44.8733899   6.0082653  37.1096693
  54.2241548   6.4961220  43.0415882  54.2039475   6.3144515  43.8950661
  54.2720749   7.3673239  43.0175465  54.2276189   6.5977758  43.1639176
  52.1687878  13.0848412  48.9664358  52.1283733  12.4398089  48.3809514
  52.9811196  13.0285030  49.2789770  52.2831032  12.9807379  48.9261307
  52.1260640  18.2957223  39.6213126  51.7276923  18.4059494  38.8533946
  51.5111859  18.5039290  40.2039686  51.9759529  18.3430791  39.5944425
  50.6988542   4.9031371  32.4887265  50.1053381   5.2248368  31.9371833
  50.7363819   4.0572467  32.2808372  50.6162931   4.8255699  32.3770037
  53.5746358   4.8610876  35.9189016  53.3460051   4.8843577  35.0767374
  53.8344434   4.0368343  36.0384026  53.5792546   4.7426956  35.8114213
  47.8565587   6.7145349  45.5214116  47.3444490   6.1066532  45.8799147
  47.6845083   7.4301941  45.9888092  47.7555224   6.7308648  45.6430340
  42.7031301   5.1582924  48.1716478  42.5333892   5.8184299  47.6264684
  42.2597251   5.3689485  48.8928967  42.6130635   5.2868906  48.1978107
  46.6291121   3.3987422  37.2143211  47.1048487   3.7604502  36.5793393
  46.1279720   4.0543890  37.4943354  46.6256480   3.5481611  37.1619952
  59.8602482  12.8709190  33.0056216  60.2436088  13.6200546  33.2354313
  59.0646596  13.1175010  32.7468205  59.7996265  13.0178884  33.0013790
  51.7334657   4.6369593  47.9616371  52.2906087   4.4083403  47.3294837
  51.4095722   5.3975259  47.6851584  51.7681067   4.7153430  47.8272869
  39.6033366   8.0629790  43.4304968  39.0560085   7.3930435  43.5485836
  40.3925744   7.6959637  43.4948435  39.6385550   7.9094776  43.4573668
  49.4517774   7.7237247  48.9268379  50.2029101   8.0388924  49.2407933
  49.6440351   7.5216418  48.1002300  49.5909188   7.7404628  48.8511774
  48.6717774   5.5428622  30.5816595  49.0516739   5.5608251  29.7967710
  47.9310370   5.9882611  30.4607443  48.6186612   5.6110396  30.4480164
  38.3620335   7.2750597  40.5850991  38.1842097   6.8227206  41.3105906
  38.0739358   8.0776759  40.7689468  38.2933289   7.3273155  40.7194493
  54.0243917   8.5308315  39.8228381  54.5197582   7.8131310  39.7832401
  53.2143692   8.2279112  39.7082868  53.9787810   8.3805961  39.8002107
  49.4702528  12.3806128  31.9725385  48.6613851  12.0572802  31.9258695
  49.9777437  11.6739350  31.9053634  49.4252195  12.2287444  31.9555680
  40.0992805   9.8078321  37.6972750  39.2338325   9.7964012  37.5855521
  40.1991621   9.6208544  38.5443889  39.9866972   9.7784382  37.8061694
  56.0895735  11.2812002  42.5105510  56.5150807  10.7586424  41.9575935
  55.7252655  11.8792840  41.9894133  56.0982338  11.2922229  42.3514519
  52.6774335  14.9946267  38.8406667  53.1485513  15.7086529  39.0096652
  53.0134513  14.3945017  39.3766537  52.7969450  15.0117731  38.9439043
  54.7651319  16.6047580  51.0198739  54.8748285  15.8156141  51.3755486
  55.0942216  16.5153516  50.2173077  54.8303725  16.4753433  50.9541130
  53.3148281  14.7864201  45.6034360  52.7669227  14.1622084  45.3354425
  53.7761310  14.9758473  44.8878439  53.3015491  14.7223251  45.4584791
  48.6636945   1.7690150  33.2644227  49.4852639   1.9388463  33.0225922
  48.2006596   1.9237411  32.5410524  48.7168107   1.8171883  33.1215871
  43.0662835  13.5249328  40.9181464  43.6707693  13.4845162  40.2895284
  42.8590148  14.3720480  40.9485519  43.1251733  13.6437331  40.8297580
  52.8806607  15.7915273  42.1343701  53.7004981  15.6478239  42.3959996
  52.6000685  16.4161472  42.6760139  52.9603351  15.8625625  42.2531640
  38.3014118  12.5083946  40.7880387  38.2038396  11.6980217  41.0970443
  39.0842987  12.4875739  40.4026655  38.4030254  12.3851036  40.7767250
  69.3520258  23.4480125  35.0986577  69.3214262  24.3024762  35.2704847
  69.9501607  23.1475418  35.6572721  69.4357416  23.5296622  35.2061380
  62.5519943  22.5355776  39.8539508  61.6957838  22.6964274  39.9048625
  62.5987596  21.6647840  39.8744569  62.4319054  22.4306578  39.8645574
  65.8613659  28.8042302  49.4599964  66.5680426  28.3094332  49.5886898
  66.0501595  29.2451383  48.7302622  65.9941565  28.7960652  49.3709009
  62.3886042  32.4943863  31.0462286  62.0537411  33.1720785  30.6106509
  62.9012913  32.1049175  30.4579158  62.4151623  32.5368442  30.8949078
  61.9290334  34.4458132  36.9873398  62.3129713  35.0145031  36.4478173
  61.8649475  33.7207643  36.5079214  61.9763761  34.4233596  36.8367261
  65.3971764  24.5947820  42.4971159  65.9427724  25.2732907  42.5565129
  65.3388640  24.4535281  41.6372741  65.4687678  24.6739822  42.3783220
  58.5145839  32.0836886  37.8839512  58.6156201  31.2737240  38.1936640
  57.9187584  31.9893833  37.2539190  58.4418377  31.9501914  37.8365750
  67.1736832  26.0232427  33.3704887  67.0576358  26.7740113  33.7997025
  67.9692719  25.7656380  33.6200974  67.2741422  26.0967274  33.4708979
  54.0100970  20.2742903  40.4076153  53.3906002  19.6835551  40.2386168
  53.9084834  20.8654339  39.7740476  53.9038646  20.2746986  40.2881143
  59.0567158  30.0126450  34.6574230  59.3782999  30.5531657  34.0535538
  59.7039254  29.4423222  34.7896519  59.1993213  30.0085625  34.5881265
  61.1068866  22.0142445  34.7408616  61.8049031  22.1930573  35.2330080
  61.4221198  21.4912784  34.1179006  61.2564203  21.9636217  34.7210626
  53.7370103  23.8195185  42.6519722  53.6128800  24.4057631  43.2869541
  54.3888388  23.3255381  42.9531997  53.8143753  23.8333989  42.7905651
  61.2956801  28.4012890  34.7288408  61.7350437  27.7929991  35.1743181
  61.1461464  28.0220263  33.9573873  61.3378267  28.2551361  34.6807575
  58.7628444  26.9956902  41.9307233  59.4077447  26.5029345  41.6118182
  59.0030221  27.1381689  42.7573312  58.8939029  26.9434344  42.0056766
  61.3014536  29.8411808  41.5814126  61.5837779  29.0463214  41.3600882
  62.0300696  30.3192395  41.6019187  61.4504099  29.7946405  41.5517141
  59.2795730  17.3834842  38.8229891  58.9499060  17.8345985  38.1533590
  58.6040731  17.3051005  39.3702897  59.1306166  17.4385977  38.8053114
  64.8966138  26.7540071  31.6819177  64.8117433  27.6101038  31.8268746
  65.3850521  26.4784396  32.3501336  64.9555035  26.8397393  31.8021259
  66.4872137  13.3720365  37.0679502  66.1725578  14.0623843  37.4999924
  65.9699079  13.3165147  36.3665002  66.3636608  13.4655253  37.0276451
  65.8284571  23.3724866  33.1816912  65.2996043  23.5884499  33.8414218
  66.3509591  24.0661004  33.1017881  65.8273024  23.5068003  33.2672511
  71.2832624  28.9471170  38.5549957  70.4530327  29.1581814  38.7183373
  71.2341876  28.1208225  38.2792240  71.1539359  28.8560776  38.5387322
  57.7184179  27.2688082  31.9824380  57.1341394  27.7738114  32.3890244
  57.3154274  27.0430469  31.2420972  57.5723483  27.3096331  31.9329405
  59.3442362  31.7775024  41.3897866  58.8269303  31.4182439  40.7859174
  60.0416753  31.2537199  41.4003932  59.3707943  31.6472712  41.3028125
  63.0005954  32.2269838  47.3514039  63.0889299  32.0395979  48.1992249
  63.4295666  31.5807268  46.9518886  63.0768056  32.1032846  47.4185791
  60.5676413  31.5100998  46.3331701  60.0047248  31.0973608  46.8571363
  61.3297437  31.4353904  46.7524845  60.5970862  31.4378399  46.4724702
  62.1761393  23.5153734  30.4593301  62.4157397  23.7231718  29.6468644
  62.4977234  22.7111243  30.5682245  62.2598551  23.4267836  30.3553854
  57.4851684  15.4447130  34.3052839  58.2397652  15.8125447  34.0669889
  57.3079218  15.8186685  35.0732018  57.5706162  15.5545318  34.3837727
  70.7786582  21.5941571  42.3500378  69.9415003  21.6643758  42.5847972
  70.7474813  21.5966066  41.4774680  70.6504865  21.6051798  42.2559926
  57.1751311  23.7374606  48.0648747  57.3471815  23.6280501  48.9134028
  57.7120669  24.3829012  47.8279939  57.2796315  23.8166608  48.1553843
  55.8408748  17.8517449  31.0030952  55.6584321  18.0689330  30.1771944
  56.7034361  17.9656462  31.0589566  55.9413338  17.9007347  30.8885439
  56.0775883  30.1106247  42.7467245  56.6174108  29.9677378  43.4170617
  55.3945830  30.5102997  43.1151271  56.0568037  30.1485918  42.9001667
  61.5208467  14.8543860  34.0379975  62.2494628  14.6759815  33.5918132
  61.6103360  15.6961940  34.2487154  61.6415129  14.9527738  34.0033493
  65.5016768  25.7897247  37.9412269  66.2574283  26.2228762  37.9801178
  65.6079093  25.1402017  38.5146905  65.6286939  25.7574731  38.0310295
  68.5396939  29.6170524  38.6914672  68.1032171  29.6207267  39.4473644
  68.2059855  30.2976023  38.2594250  68.4259559  29.7182980  38.7395505
  63.1126013  31.6578857  50.0157823  63.8966429  31.7709705  50.3813565
  62.9122607  30.8319994  50.2116509  63.1992038  31.5525577  50.0992209
  51.4813028  26.3306537  42.9001667  51.2151444  25.5145654  43.0592657
  51.4951592  26.3759693  42.0297182  51.4437751  26.2163442  42.7955149
  68.4594422  16.6584352  40.9344100  69.1020331  16.7282457  41.5206016
  68.7117443  15.9913575  40.4323642  68.5916554  16.5710701  40.9471380
  55.3870775  21.1291622  29.5153425  54.6728952  20.8429801  29.9275857
  55.8714744  21.4688248  30.1559812  55.3530139  21.1373271  29.6709060
  56.2311635  19.8684916  45.5468674  55.5383431  19.3981895  45.7929406
  56.8471962  19.6423220  46.1210381  56.2196165  19.7652048  45.6677827
  63.2696406  33.5688959  43.6624278  62.4711652  33.3288459  43.9198147
  63.7182418  33.6203352  44.4091326  63.2171017  33.5411351  43.8109203
  71.6741285  26.3351444  37.5834310  72.3357720  25.7742113  37.4830218
  71.0332697  25.8403475  37.9087001  71.6770153  26.1787853  37.6166650
  62.5618093  29.6321576  29.8915233  62.9769242  29.3006600  29.1999729
  61.7310023  29.3990478  29.7635370  62.5006102  29.5492832  29.7706080
  67.9606116  27.3516827  37.3246298  68.1961705  27.4962026  36.4973149
  68.1095680  28.1159235  37.7177812  68.0171919  27.4855881  37.2609902
  69.7896573  26.1918493  35.1615902  70.1204790  26.7246133  34.5555997
  70.3629661  26.2457380  35.8177853  69.9230252  26.2788062  35.1693684
  62.3297143  27.3149404  51.5544467  61.5370124  27.6292916  51.7397086
  62.4446070  27.5300873  50.7165251  62.2292554  27.3933241  51.4582801
  65.0028462  24.0383395  35.8439482  65.0975316  24.7772690  36.2979108
  64.3787306  23.6100871  36.2774047  64.9237492  24.0844716  35.9747630
  63.2580936  27.2169608  46.4929763  63.8319798  26.5796852  46.6478327
  63.1795740  27.2173690  45.6239421  63.3314171  27.1234719  46.3876174
  65.2551483  25.8832135  29.0776434  65.1731646  25.9534322  29.9431421
  65.8931204  26.4461879  28.8860175  65.3371321  25.9771106  29.1766384
  58.6144654  25.6492873  38.5450961  58.3563899  24.8164608  38.5182260
  58.6693137  25.8750486  37.7043461  58.5844432  25.5590644  38.4171097
  63.6945705  17.7521324  38.6455053  62.9902031  17.2630509  38.8038972
  63.7430679  17.7643798  37.7743498  63.5975756  17.6810972  38.5394393
  57.5879367  23.2030636  39.0315855  57.0128958  23.3622804  39.6679816
  57.2115043  22.5666045  38.5684306  57.4482179  23.1328449  39.0570414
  61.2552655  21.6753985  43.8908234  60.8667088  21.2508203  43.2360425
  60.5907354  21.9236135  44.3985260  61.0999583  21.6492706  43.8696102
  70.8975924  21.4328990  36.6656064  70.6412489  20.6208931  36.4753947
  71.7405238  21.4406557  36.4386251  70.9841950  21.3140987  36.6040881
  65.0779017  15.3728614  41.4032218  65.4589529  14.6906785  41.7900092
  64.2742301  15.0838216  41.2207883  65.0155479  15.2295662  41.4336274
  62.3591594  25.9052589  32.0885041  63.1732232  26.1967482  31.9767812
  62.2950735  25.2512452  31.5143334  62.4694333  25.8517784  31.9873878
  68.5801084  28.5878586  46.5014616  68.3439721  27.7566650  46.3826677
  69.2244313  28.5364193  47.0869461  68.6395754  28.4576274  46.5700510
  58.2299502  29.3774107  37.2157353  58.8673449  29.1385854  37.7609146
  58.6554573  29.5811266  36.4810513  58.3875668  29.3725117  37.1874510
  58.8702317  24.5976397  31.5532242  59.2547470  24.3784103  32.3048787
  58.6213937  25.4239342  31.6833319  58.8904389  24.6874543  31.6833319
  59.0370857  17.8782812  51.2694827  58.7224298  18.6482375  51.0064389
  58.7160790  17.3153068  50.6847053  58.9429776  17.9093081  51.1436176
  69.6037504  28.3723034  42.5642911  69.2983321  29.1051091  42.9256227
  68.8843720  27.9660964  42.2835697  69.4524847  28.4204767  42.5756048
  60.6120974  29.8546530  38.8951139  60.6859982  29.6921701  39.7492989
  61.4290480  30.0436719  38.6511621  60.7437332  29.8583272  38.9849165
  75.3039296  25.0116035  41.8911255  75.2363797  25.0311994  41.0213842
  75.2894959  25.8546362  42.1166926  75.2918053  25.1389770  41.7963732
  56.5902754  16.2673333  36.8841023  55.7225180  16.3395933  36.9498632
  56.8777958  17.0695412  37.0728998  56.5042502  16.3967480  36.9215789
  65.7135643  16.4151193  45.2152345  66.4589235  16.2261003  44.8015770
  65.2972948  16.9409431  44.6566201  65.7620617  16.4653338  45.0716918
  59.1525559  32.8181273  33.6264613  59.4423858  32.4270254  32.9023839
  59.8829040  32.9997978  34.0669888  59.3032444  32.7875086  33.5847420
  73.0897914  23.7860421  40.1657850  73.6405835  23.1528490  40.4054942
  73.0742029  24.3175814  40.8573354  73.1683110  23.7709369  40.3036708
  59.7420305  27.6199019  44.7117743  59.2431998  28.3314786  44.7902631
  60.5520529  27.9399685  44.6735905  59.7876411  27.7725867  44.7174312
  56.0048422  26.8821972  38.9580464  55.7161671  26.2559443  39.4926191
  56.8731770  26.8242259  39.0245144  56.0908674  26.7809516  39.0471418
  66.7926320  22.0256755  39.2762446  66.4491086  21.3047090  39.6269695
  66.8919363  21.8170606  38.4340804  66.7568363  21.8880958  39.2034126
  59.2599431  36.1678045  35.4755455  59.9123489  35.6354487  35.7046481
  58.5625039  35.8146697  35.8623329  59.2530149  36.0367568  35.5667622
  56.2080696  28.5217223  34.8822829  56.9626664  28.9030262  35.0958292
  55.6151308  28.9728366  35.3369525  56.2317409  28.6446050  34.9805707
  67.2539349  28.4882459  34.8186434  67.8197382  29.1475669  34.7344977
  66.6067253  28.8332157  35.2902836  67.2418106  28.6364400  34.8759190
  58.6687363  20.4780063  50.0080041  57.8587138  20.7837843  49.8969884
  59.1462049  21.1985645  50.1232625  58.6190841  20.6294664  50.0087112
  57.5278922  29.6925784  40.2562944  57.0059676  29.8326076  40.9414809
  57.9152943  28.9336448  40.4465062  57.5082623  29.6011308  40.3864021
  54.5170106  19.7431593  34.3257899  54.2294902  19.3732863  33.5889846
  55.2040574  20.2126448  34.0641604  54.5759004  19.7578562  34.1772975
  63.7245927  31.4321243  34.2423513  63.4832603  30.6989104  33.8350578
  63.9047260  31.9808100  33.5889846  63.7153551  31.4043634  34.0853736
  58.9545248  26.7229803  35.6544435  58.7588030  27.3304538  35.0604738
  59.1779593  26.0297747  35.1736109  58.9579889  26.7107328  35.4960516
  57.3523778  23.6084541  35.7725304  58.0746430  23.7725699  35.3129110
  56.8731771  24.3294206  35.6664644  57.3887509  23.7382770  35.6890918
  65.3117285  19.9448340  41.1521989  64.4728386  19.9709619  40.9160252
  65.3821653  20.5919075  41.7327335  65.1985679  20.0444466  41.2031106
  55.0031395  26.0142613  44.8779444  55.5152491  26.2926867  44.2288203
  54.7167737  26.7531907  45.2442257  55.0366258  26.1644967  44.8369322
  63.7586564  16.8433717  35.8849605  64.4612917  16.6441465  35.4069563
  63.4930752  16.0709659  36.1918448  63.8233196  16.6996683  35.8595046
  69.1874809  25.1516326  38.4383230  69.1008784  25.3071753  39.2918009
  68.7325289  25.7954402  38.0642636  69.1078066  25.2692082  38.5090337
  52.0898301  20.5212805  35.1743180  52.1914437  21.3238967  35.5024156
  52.8854188  20.3200141  34.8766261  52.2226206  20.6098704  35.1778535
  58.5215120  18.1069002  44.9380485  58.3298317  18.1224136  45.7879909
  59.3713716  18.3032676  44.9147140  58.6190842  18.1383353  45.0603780
  52.9062033  20.6359983  42.9164302  52.7647525  19.7843924  43.0408810
  53.1902596  20.6788644  42.0926508  52.9269879  20.5159733  42.8131926
  63.0600625  22.4727074  37.0608790  62.8135340  22.3922824  37.8945579
  63.3885748  21.6880541  36.8671317  63.0721869  22.3453339  37.1556313
  66.9548674  29.1810433  40.8495571  66.8163033  29.8791479  41.3544314
  66.1748672  29.0259089  40.4931753  66.8191901  29.2610600  40.8721845
  65.2926759  25.4806808  47.1017953  65.2874798  24.6086625  47.1060379
  65.9987753  25.6794977  46.6287409  65.3971763  25.3810682  47.0324988
  59.0197653  25.2083792  46.4731773  59.1641028  25.7885000  45.8374883
  59.3673301  25.5860089  47.1781628  59.0925114  25.3504496  46.4830768
  61.1917570  24.4073961  44.2556905  60.4440884  24.6004975  43.8505183
  61.3459095  23.5819180  44.0181026  61.1039998  24.3139072  44.1602310
  58.0925408  33.3986564  43.3392800  58.2414971  32.8389480  42.6866204
  58.8725410  33.4778566  43.7225319  58.2299501  33.3272129  43.2989749
  68.4502047  28.5388687  31.6112070  68.0708856  27.7525825  31.6041360
  67.7868292  29.0875544  31.4683715  68.2960522  28.5033511  31.5892867
  60.6178708  33.5701207  44.6177291  60.5422379  32.9010017  45.1728079
  60.5468567  34.2718995  45.1317957  60.5959315  33.5746114  44.7754139
  61.4319347  18.3024511  45.1452308  61.8891961  19.0348486  45.2725101
  61.5075676  17.8790977  45.9039564  61.5110317  18.3481749  45.2753385
  53.6752338  18.5490331  46.2341752  53.1394528  17.9370689  46.5502519
  53.7370103  19.1238467  46.8875419  53.6047971  18.5437259  46.3777179
  65.9046673  11.4814386  39.0146151  66.0230241  11.9390850  38.2813454
  65.7308849  10.6759648  38.7282369  65.8965844  11.4308159  38.8647085
  61.2748955  32.0902206  35.4500897  62.0398846  31.8211849  35.1283561
  61.1727045  31.6052216  36.1670959  61.3730451  31.9791770  35.5080724
  59.3101725  20.2926615  41.9894132  58.5197800  20.1118075  42.3111468
  59.7062348  19.5153568  41.9724427  59.2518601  20.1514076  42.0346681
  63.7967616  29.1214389  27.4300846  64.5640601  29.1814514  27.0206698
  63.3498925  28.5494831  26.9457165  63.8441043  29.0450965  27.2978556
  64.6945411  27.9269045  39.7153578  64.0190413  27.6954278  40.2166965
  64.7037787  27.3190228  39.0895683  64.5963916  27.8027971  39.6969731
  61.8239555  22.7686874  46.4717631  61.7598696  23.6296831  46.3437768
  61.9636743  22.4518868  45.6713183  61.8355025  22.8487041  46.3345844
  66.6962146  30.7834178  31.9463756  66.7781983  31.5901164  31.6225207
  67.1811888  30.8030137  32.6704530  66.7799304  30.9054840  32.0050655
  60.5058649  25.4619014  40.6133834  60.0820898  25.6623513  39.8772853
  60.3303504  24.6147862  40.7258134  60.4169530  25.3667795  40.5207524
  55.7941094  25.9571065  36.0461807  55.9505713  25.8917868  36.9017799
  56.1341687  26.7319618  35.8340486  55.8674329  26.0620263  36.1416401
  62.3320239  25.3328949  34.9155170  62.8735784  24.8299330  35.3793791
  62.6466798  25.2794143  34.1044655  62.4584636  25.2508370  34.8638982
  66.2037346  29.5431596  52.0282082  67.0172211  29.2716745  52.1887215
  66.0432312  29.2439136  51.2242278  66.3007295  29.4586522  51.9327488
  60.5006688  30.7246300  32.1995198  60.5699509  29.8660839  32.3388198
  61.2795144  30.9418181  31.8714223  60.6259538  30.6299164  32.1712355
  63.4809508  20.2265253  44.9677470  63.6951478  19.5876167  44.4140824
  62.8643407  20.6711077  44.5385332  63.4214837  20.1975397  44.8227902
  64.8914176  33.1484001  36.4131691  64.4993968  32.8450717  35.6954557
  65.0467248  33.9853091  36.2236645  64.8567766  33.2267838  36.2788188
  52.3675356  23.1406016  36.3622574  52.7474320  23.5590560  35.6982841
  51.7930720  23.7219471  36.6691417  52.3386680  23.2883874  36.3099315
  65.6448596  21.8354318  45.9060778  64.8325278  21.5280209  45.9873950
  66.1038531  21.3553318  46.4703490  65.5928981  21.7190811  46.0015372
  65.0553851  29.7133990  36.3537722  64.6968505  29.8848633  37.1301754
  64.5692561  30.1747196  35.7965720  64.9312548  29.8072961  36.3862991
  62.8724237  13.3365189  39.9564813  62.0017795  13.3103910  39.9098123
  63.1264578  13.1642381  39.1390659  62.7817797  13.3075333  39.8284950
  59.8442216  25.3933156  28.8937956  60.1334741  26.1698038  29.1681531
  59.9314015  24.8821887  29.5952456  59.8996472  25.4325074  29.0380454
  62.7402104  23.2414390  50.6889480  63.2101735  23.8656506  51.0757354
  62.7863984  22.5731365  51.2482695  62.8169979  23.2349070  50.8289551
  59.8973377  15.3471417  41.4138284  59.3811866  14.6551609  41.5389863
  59.3367306  16.0142194  41.3600882  59.7379890  15.3434675  41.4244350
  61.9665611  15.8864377  43.2431136  61.5797364  15.9113409  44.0244666
  61.4798548  15.3206056  42.7905653  61.8378120  15.8060128  43.2919040
  66.2158590  30.6037886  47.3004923  66.8538311  30.1098082  46.9667379
  65.5732682  30.5315287  46.7157150  66.2152817  30.5196895  47.1647278
  67.9415590  22.4527032  41.8670838  67.5143198  22.3653381  41.1118938
  67.3041643  22.5604808  42.4525682  67.7845197  22.4559692  41.8416280
  61.6322752  12.7731363  45.5341396  62.2615870  13.3091663  45.2562466
  61.8008615  12.6808722  46.3854962  61.7500547  12.8392725  45.6189924
  61.4336667  17.5602557  47.8067808  62.2610097  17.2887706  47.8626422
  61.4544513  18.3563399  48.1631626  61.5589517  17.6382312  47.8682991
  66.2712847  31.2957695  43.9410279  67.0605225  30.9446759  44.0612361
  66.4456444  32.1094083  43.6786913  66.4133128  31.3643552  43.9198147
  56.0106157  24.7066420  40.9938068  55.1694164  24.6070294  41.2016962
  56.2196165  25.4761901  41.3452389  55.9170850  24.8058464  41.0765383
  53.4881724  22.3285957  38.8222819  53.0938422  22.4028969  38.0472929
  52.9321841  22.7143904  39.3731181  53.3484536  22.3967732  38.7890479
  65.1246671  15.3067251  38.5026698  65.3296264  15.2389559  39.3483695
  64.7973095  16.1126072  38.4347875  65.1061919  15.4153192  38.6186353
  59.8222822  22.6347819  40.2435666  59.5185959  22.0803808  40.8446074
  59.1202243  22.8140029  39.7563700  59.6739032  22.5792602  40.2605371
  58.8788919  19.9448339  34.8080368  59.1548653  19.2267252  34.3957935
  59.4787588  20.5433259  34.6001474  59.0082184  19.9268710  34.7161129
  57.8841173  29.8497540  44.9507764  57.7761528  29.8599602  45.8169822
  58.0936954  30.6752321  44.7612717  57.8991284  29.9738615  45.0511855
  68.3780359  15.8599016  37.9829463  67.7654672  16.3469418  38.3683195
  68.4744533  15.1842506  38.5267115  68.3018256  15.8317324  38.1208322
  62.3799440  17.6161857  33.0826963  62.8343186  17.7872417  33.8074807
  62.8539485  17.0029967  32.6824738  62.5167760  17.5512742  33.1300724
  55.9014965  27.1010183  42.4129701  55.3102898  27.7419681  42.3832716
  56.6635988  27.5247800  42.3861001  55.9263226  27.2586021  42.4044848
  56.2975588  18.2612180  43.0797719  56.7577069  18.3351110  43.8172843
  56.3431694  19.0593434  42.7297540  56.3726143  18.3906327  43.1370475
  57.9458937  18.9278875  47.6469746  57.5544503  18.2812222  48.0825524
  58.1144800  19.5190310  48.2664001  57.9129848  18.9193143  47.8032452
  72.0205386  26.9315952  43.4106979  72.0788510  27.3802601  44.1566956
  71.3871854  27.3414765  42.9737059  71.9356682  27.0589687  43.4559528
  65.6604481  32.5519494  39.8461726  65.4624170  33.0410309  39.1517937
  65.0392192  32.7560736  40.4245859  65.5392046  32.6536032  39.8284949
  59.7212460  24.3204391  34.1871970  60.4654504  24.7078667  34.4254920
  59.8673156  23.4761816  34.3512458  59.8523045  24.2534864  34.2465940
  61.6392035  16.1154650  39.2203831  60.7928080  16.2877458  39.0945181
  61.6363167  15.3103994  39.5569660  61.5139185  16.0215679  39.2514958
  62.7090335  19.8929864  40.0865889  62.2350290  19.3671626  40.5971200
  63.0808471  19.3459337  39.5180751  62.6940224  19.7345861  40.0781036
  53.0863366  21.8901371  45.4549435  53.9488979  21.7897080  45.3686765
  52.7555149  21.3096080  44.8935007  53.1648562  21.7892998  45.3594841
  68.9727066  24.9532240  41.4972670  68.7325289  24.1138655  41.5015096
  69.4519073  25.0332407  42.2213443  69.0079250  24.8413640  41.6047472
  64.6373835  20.7866419  33.1491643  64.1096854  20.8695163  32.4597352
  65.0969543  21.5284290  33.1456288  64.6275686  20.9087081  33.0466338
  70.9732253  21.7333697  39.4501929  70.7342023  21.6929531  38.6122714
  71.1366154  22.5804849  39.5767650  70.9622556  21.8525782  39.3455411
  67.5778283  26.1183646  45.3806974  68.3012482  25.6656173  45.2017994
  67.3128245  26.3988312  44.5979302  67.6459556  26.0934615  45.2385689
  56.4465152  20.7143820  42.1159853  55.8218222  20.7262212  41.5085806
  56.1110746  21.1903995  42.7651093  56.3050643  20.7862337  42.1216422
  56.6306900  19.0568938  28.1732538  56.2819705  19.7088664  28.6364088
  56.1503346  19.0426052  27.4456409  56.5077144  19.1511992  28.1343630
  53.1590827  28.7744280  43.5563618  52.6290752  28.0836719  43.6058592
  53.4315920  28.7654465  42.7276326  53.1215549  28.6711412  43.4411033
  64.1910918  29.3569982  32.2801300  64.9145116  29.8228095  32.1365873
  63.7511509  29.4243592  31.5298897  64.2326610  29.4353819  32.1486082
  63.3597073  26.2167525  43.5301989  62.7454066  25.6725575  43.8250624
  63.8764358  25.7031761  43.0507805  63.3452735  26.0603934  43.5026218
  62.5993370  27.2871795  41.2646288  62.1720978  26.6621513  40.8311723
  62.5918314  27.0046717  42.0905295  62.5352511  27.1524575  41.3226115
  55.7155897  22.3236968  44.3334722  55.8749384  21.5680292  44.7386444
  55.5348790  22.8727907  44.9875459  55.7121256  22.2930782  44.4897428
  63.6576200  14.4898203  44.8885511  63.1616761  14.6861878  44.1977078
  64.4145262  14.8890872  44.7174313  63.6963025  14.5775937  44.7605648
  60.9279079  18.1640549  41.4788822  60.9521567  17.6300662  40.7901602
  61.1790553  17.6557858  42.1414412  60.9688998  18.0101453  41.4753466
  57.2080402  16.8911368  40.8594566  57.2478773  17.3920574  41.5729273
  56.3830066  16.9821761  40.5900489  57.0919928  16.9793184  40.9245104
  59.3910015  26.4572108  48.9614861  58.5405645  26.5943822  49.0972506
  59.5538142  25.7235886  49.4062562  59.2893878  26.3686209  49.0470460
  58.6294765  23.4071877  43.1568465  57.7986695  23.5745695  42.9503713
  58.5746282  23.0307828  43.9417350  58.4984180  23.3761609  43.2416993
  56.4378548  16.8980770  48.7924876  57.0631252  16.3542903  49.0654308
  55.9829028  16.4175688  48.2232666  56.4626809  16.7470252  48.7486470
  57.0030809  21.6827469  33.6858583  57.1433770  22.1799933  34.3887224
  57.5013342  20.9813763  33.8272796  57.0971890  21.6529448  33.8110162
  57.0331031  22.5494580  31.0151160  57.6676111  23.1455005  30.9500621
  57.1156642  22.2498038  31.8297030  57.1387582  22.5935488  31.1254246
  70.0113597  25.0810057  43.8837524  70.6031437  25.7207308  43.9155722
  70.4472592  24.3833094  44.1729591  70.1632028  25.0728408  43.9318356
  58.6110014  18.4808555  30.9896602  58.9325855  18.0011638  30.3355864
  58.8736958  19.2908201  30.7987413  58.6976040  18.5298453  30.8652094
  61.8406987  29.5027430  44.5095418  61.3332078  30.0563277  44.9536048
  61.5433633  29.5635720  43.6914192  61.7211872  29.5933741  44.4543874
  64.0069169  17.8680749  43.3520081  64.4324241  17.4153276  42.7403607
  63.3926162  17.3140820  43.6284868  63.9797815  17.7194726  43.3025106
  53.5384019  24.7462421  34.2840706  54.0476249  25.3426928  34.6652011
  54.0118291  24.4788394  33.6017125  53.6827395  24.7948236  34.2395228
  64.4514767  33.4190687  32.4399361  63.7344077  33.2451550  31.9746599
  65.1021505  33.1843260  31.9074847  64.4416618  33.3586480  32.2928579
  62.4463392  14.3395849  36.7610658  61.8031710  14.1893495  37.3295796
  62.1062799  14.0938194  35.9959762  62.3008469  14.2807972  36.7313673
  67.0362738  22.2955276  36.1840666  66.3653928  22.8384978  36.0553732
  67.7302489  22.7650131  35.9422361  67.0391606  22.4453547  36.1296194
  61.0849472  34.4351988  41.4152425  60.8615127  33.6770817  41.7836451
  60.5959315  34.4650009  40.6932864  60.9792921  34.3274212  41.3629166
  67.1990866  18.7511160  39.0931039  67.5518476  18.3240882  39.7676838
  66.3405667  18.6662003  39.2232116  67.1240311  18.6755900  39.2126050
  55.8974551  21.3818679  37.1513886  55.1786540  21.7982812  37.4186750
  56.2686913  21.9472918  36.6005524  55.8466483  21.5267961  37.1096693
  65.1974132  22.0146528  43.0415882  65.1772059  21.8329823  43.8950661
  65.2453332  22.8858547  43.0175465  65.2008773  22.1163066  43.1639176
  63.1420462  28.6033720  48.9664358  63.1016316  27.9583397  48.3809514
  63.9543780  28.5470338  49.2789770  63.2563615  28.4992687  48.9261307
  59.7327929  34.6552446  38.8689509  59.3188328  33.9926576  38.4793351
  60.4175303  34.8030305  38.3485203  59.7726301  34.5793104  38.7346006
  63.0993223  33.8142531  39.6213126  62.7009506  33.9244802  38.8533946
  62.4844443  34.0224598  40.2039686  62.9492113  33.8616099  39.5944425
  61.6721125  20.4216679  32.4887265  61.0785965  20.7433676  31.9371833
  61.7096403  19.5757775  32.2808372  61.5895514  20.3441007  32.3770037
  68.6314926  13.8729571  40.0215352  68.1245791  13.1658711  39.9536529
  69.4282360  13.5422760  40.1516429  68.6742165  13.7202723  40.0314347
  64.5478942  20.3796184  35.9189016  64.3192635  20.4028885  35.0767374
  64.8077018  19.5553651  36.0384026  64.5525130  20.2612264  35.8114213
  58.8298170  22.2330657  45.5214116  58.3177073  21.6251840  45.8799147
  58.6577666  22.9487249  45.9888092  58.7287807  22.2493956  45.6430340
  53.6763885  20.6768232  48.1716478  53.5066475  21.3369607  47.6264684
  53.2329835  20.8874793  48.8928967  53.5863219  20.8054214  48.1978107
  57.6023704  18.9172730  37.2143211  58.0781071  19.2789810  36.5793393
  57.1012304  19.5729198  37.4943354  57.5989063  19.0666919  37.1619952
  70.8335066  28.3894498  33.0056216  71.2168672  29.1385854  33.2354313
  70.0379179  28.6360318  32.7468205  70.7728848  28.5364192  33.0013790
  62.7067241  20.1554901  47.9616371  63.2638671  19.9268711  47.3294837
  62.3828306  20.9160567  47.6851584  62.7413651  20.2338738  47.8272869
  60.4250358  23.2422555  48.9268379  61.1761685  23.5574231  49.2407933
  60.6172934  23.0401726  48.1002300  60.5641772  23.2589936  48.8511774
  59.6450358  21.0613930  30.5816595  60.0249322  21.0793559  29.7967710
  58.9042954  21.5067919  30.4607443  59.5919195  21.1295704  30.4480164
  67.2735648  19.3696121  36.1692174  67.2729874  19.2144777  37.0276450
  67.0691828  20.2159108  36.1133560  67.2435426  19.4716742  36.2880113
  64.9976500  24.0493623  39.8228381  65.4930165  23.3316618  39.7832401
  64.1876276  23.7464420  39.7082868  64.9520393  23.8991269  39.8002107
  60.4435112  27.8991436  31.9725385  59.6346434  27.5758110  31.9258695
  60.9510020  27.1924658  31.9053634  60.3984778  27.7472752  31.9555680
  67.0628319  26.7997310  42.5105510  67.4883390  26.2771732  41.9575935
  66.6985239  27.3978148  41.9894133  67.0714922  26.8107537  42.3514519
  65.7383903  32.1232888  51.0198739  65.8480868  31.3341448  51.3755486
  66.0674800  32.0338824  50.2173077  65.8036309  31.9938741  50.9541130
  60.5676413  15.2859045  45.7964762  60.7004319  14.4890038  46.1245737
  60.9521566  15.8125448  46.3763038  60.6432742  15.2458962  45.9308265
  64.2880865  30.3049509  45.6034360  63.7401811  29.6807392  45.3354425
  64.7493893  30.4943781  44.8878439  64.2748074  30.2408559  45.4584791
  67.0974729  18.3734863  42.9885552  66.5137718  18.8744070  42.5763119
  67.4179023  17.8664419  42.3549875  67.0587904  18.3726698  42.8344059
  59.6369528  17.2875458  33.2644227  60.4585223  17.4573771  33.0225922
  59.1739179  17.4422719  32.5410524  59.6900690  17.3357191  33.1215871
  58.2264860  15.2818220  44.0442656  58.7709273  14.9409347  44.6346997
  58.2801796  16.1403682  44.1863940  58.3153980  15.3573479  44.1524529
  54.0395419  29.0434636  40.9181464  54.6440276  29.0030470  40.2895284
  53.8322731  29.8905788  40.9485519  54.0984316  29.1622639  40.8297580
  63.8539191  31.3100581  42.1343701  64.6737565  31.1663547  42.3959996
  63.5733269  31.9346780  42.6760139  63.9335934  31.3810933  42.2531640
  73.5252526  38.0541084  39.8539508  72.6690422  38.2149582  39.9048625
  73.5720180  37.1833148  39.8744569  73.4051638  37.9491886  39.8645574
  67.9093666  47.5903802  35.6176739  67.1576565  47.2119340  35.3892784
  68.3579678  47.6222236  34.8695550  67.8643333  47.5389409  35.4734242
  76.8346243  44.3227610  49.4599964  77.5413010  43.8279640  49.5886898
  77.0234178  44.7636691  48.7302622  76.9674148  44.3145960  49.3709009
  73.3618626  48.0129171  31.0462286  73.0269994  48.6906093  30.6106509
  73.8745496  47.6234483  30.4579158  73.3884207  48.0553750  30.8949078
  72.9022917  49.9643440  36.9873398  73.2862296  50.5330339  36.4478173
  72.8382058  49.2392950  36.5079214  72.9496344  49.9418904  36.8367261
  76.3704347  40.1133128  42.4971159  76.9160307  40.7918215  42.5565129
  76.3121224  39.9720589  41.6372741  76.4420262  40.1925130  42.3783220
  69.4878422  47.6022194  37.8839512  69.5888785  46.7922548  38.1936640
  68.8920167  47.5079140  37.2539190  69.4150961  47.4687222  37.8365750
  69.3279162  52.5199783  39.2854368  69.9716617  52.9612947  39.6750526
  69.6535417  51.7153209  39.1984627  69.4710990  52.4664978  39.3299845
  64.9833554  35.7928211  40.4076153  64.3638586  35.2020858  40.2386168
  64.8817417  36.3839646  39.7740476  64.8771229  35.7932294  40.2881143
  70.0299741  45.5311758  34.6574230  70.3515583  46.0716965  34.0535538
  70.6771838  44.9608529  34.7896519  70.1725797  45.5270933  34.5881265
  72.0801450  37.5327753  34.7408616  72.7781614  37.7115881  35.2330080
  72.3953782  37.0098092  34.1179006  72.2296787  37.4821525  34.7210626
  72.2689385  43.9198198  34.7288408  72.7083020  43.3115299  35.1743181
  72.1194048  43.5405571  33.9573873  72.3110851  43.7736669  34.6807575
  69.7361028  42.5142210  41.9307233  70.3810030  42.0214653  41.6118182
  69.9762805  42.6566997  42.7573312  69.8671613  42.4619652  42.0056766
  72.2747119  45.3597116  41.5814126  72.5570362  44.5648522  41.3600882
  73.0033280  45.8377703  41.6019187  72.4236683  45.3131713  41.5517141
  70.2528313  32.9020150  38.8229891  69.9231643  33.3531293  38.1533590
  69.5773315  32.8236313  39.3702897  70.1038749  32.9571285  38.8053114
  75.8698721  42.2725379  31.6819177  75.7850017  43.1286346  31.8268746
  76.3583105  41.9969703  32.3501336  75.9287619  42.3582701  31.8021259
  77.4604721  28.8905673  37.0679502  77.1458162  29.5809151  37.4999924
  76.9431663  28.8350455  36.3665002  77.3369191  28.9840561  37.0276451
  76.8017155  38.8910174  33.1816912  76.2728626  39.1069807  33.8414218
  77.3242175  39.5846312  33.1017881  76.8005608  39.0253310  33.2672511
  68.6916762  42.7873390  31.9824380  68.1073978  43.2923422  32.3890244
  68.2886858  42.5615777  31.2420972  68.5456066  42.8281639  31.9329405
  64.2460791  48.5028151  38.7848052  63.7628369  49.2278641  38.7607635
  65.0584109  48.8004281  38.8958209  64.2951539  48.6530505  38.7975331
  70.3174945  47.2960332  41.3897866  69.8001887  46.9367747  40.7859174
  71.0149336  46.7722507  41.4003932  70.3440526  47.1658020  41.3028125
  73.9738537  47.7455146  47.3514039  74.0621883  47.5581287  48.1992249
  74.4028250  47.0992576  46.9518886  74.0500639  47.6218154  47.4185791
  71.5408997  47.0286306  46.3331701  70.9779832  46.6158916  46.8571363
  72.3030020  46.9539212  46.7524845  71.5703446  46.9563707  46.4724702
  73.1493977  39.0339042  30.4593301  73.3889981  39.2417026  29.6468644
  73.4709818  38.2296551  30.5682245  73.2331135  38.9453144  30.3553854
  68.4584267  30.9632438  34.3052839  69.2130235  31.3310755  34.0669889
  68.2811802  31.3371992  35.0732018  68.5438746  31.0730626  34.3837727
  67.1004988  49.0184327  38.9368331  67.8025568  48.5036316  38.9941088
  67.0202471  49.3458479  39.7415207  67.1928749  48.9898554  39.0641124
  68.1483895  39.2559914  48.0648747  68.3204399  39.1465809  48.9134028
  68.6853252  39.9014320  47.8279939  68.2528899  39.3351916  48.1553843
  66.8141332  33.3702757  31.0030952  66.6316905  33.5874638  30.1771944
  67.6766945  33.4841770  31.0589566  66.9145921  33.4192655  30.8885439
  67.0508467  45.6291555  42.7467245  67.5906692  45.4862686  43.4170617
  66.3678413  46.0288305  43.1151271  67.0300621  45.6671225  42.9001667
  72.4941051  30.3729168  34.0379975  73.2227211  30.1945123  33.5918132
  72.5835944  31.2147248  34.2487154  72.6147713  30.4713046  34.0033493
  76.4749352  41.3082555  37.9412269  77.2306867  41.7414070  37.9801178
  76.5811676  40.6587325  38.5146905  76.6019522  41.2760039  38.0310295
  74.0858596  47.1764165  50.0157823  74.8699013  47.2895013  50.3813565
  73.8855191  46.3505302  50.2116509  74.1724622  47.0710885  50.0992209
  66.3603359  36.6476930  29.5153425  65.6461536  36.3615109  29.9275857
  66.8447328  36.9873556  30.1559812  66.3262722  36.6558579  29.6709060
  67.2044218  35.3870224  45.5468674  66.5116015  34.9167203  45.7929406
  67.8204546  35.1608528  46.1210381  67.1928748  35.2837355  45.6677827
  74.2428990  49.0874267  43.6624278  73.4444235  48.8473767  43.9198147
  74.6915001  49.1388660  44.4091326  74.1903601  49.0596658  43.8109203
  73.5350677  45.1506884  29.8915233  73.9501825  44.8191908  29.1999729
  72.7042606  44.9175786  29.7635370  73.4738685  45.0678140  29.7706080
  65.9284777  39.3535628  46.6895520  66.6524750  39.3388658  47.1760414
  66.0300914  40.0630983  46.1917488  66.0502986  39.4560331  46.6874306
  73.3029727  42.8334712  51.5544467  72.5102707  43.1478224  51.7397086
  73.4178654  43.0486181  50.7165251  73.2025137  42.9118549  51.4582801
  75.9761046  39.5568703  35.8439482  76.0707900  40.2957997  36.2979108
  75.3519889  39.1286179  36.2774047  75.8970076  39.6030024  35.9747630
  74.2313519  42.7354916  46.4929763  74.8052381  42.0982160  46.6478327
  74.1528323  42.7358998  45.6239421  74.3046754  42.6420027  46.3876174
  76.2284067  41.4017443  29.0776434  76.1464229  41.4719630  29.9431421
  76.8663787  41.9647187  28.8860175  76.3103904  41.4956414  29.1766384
  69.5877238  41.1678181  38.5450961  69.3296482  40.3349916  38.5182260
  69.6425721  41.3935794  37.7043461  69.5577016  41.0775952  38.4171097
  74.6678288  33.2706632  38.6455053  73.9634615  32.7815817  38.8038972
  74.7163263  33.2829106  37.7743498  74.5708340  33.1996280  38.5394393
  68.5611950  38.7215944  39.0315855  67.9861541  38.8808112  39.6679816
  68.1847626  38.0851353  38.5684306  68.4214763  38.6513756  39.0570414
  72.2285239  37.1939293  43.8908234  71.8399672  36.7693511  43.2360425
  71.5639937  37.4421442  44.3985260  72.0732167  37.1678014  43.8696102
  76.0511600  30.8913922  41.4032218  76.4322112  30.2092093  41.7900092
  75.2474885  30.6023524  41.2207883  75.9888062  30.7480970  41.4336274
  73.3324177  41.4237897  32.0885041  74.1464816  41.7152790  31.9767812
  73.2683318  40.7697760  31.5143334  73.4426916  41.3703092  31.9873878
  69.2032085  44.8959415  37.2157353  69.8406032  44.6571162  37.7609146
  69.6287157  45.0996574  36.4810513  69.3608252  44.8910425  37.1874510
  69.8434900  40.1161705  31.5532242  70.2280053  39.8969411  32.3048787
  69.5946521  40.9424650  31.6833319  69.8636973  40.2059851  31.6833319
  70.0103441  33.3968120  51.2694827  69.6956882  34.1667683  51.0064389
  69.6893373  32.8338376  50.6847053  69.9162360  33.4278389  51.1436176
  71.5853557  45.3731837  38.8951139  71.6592566  45.2107009  39.7492989
  72.4023064  45.5622027  38.6511621  71.7169916  45.3768580  38.9849165
  67.5635338  31.7858641  36.8841023  66.6957763  31.8581241  36.9498632
  67.8510542  32.5880720  37.0728998  67.4775086  31.9152788  36.9215789
  76.6868226  31.9336501  45.2152345  77.4321819  31.7446311  44.8015770
  76.2705531  32.4594739  44.6566201  76.7353201  31.9838646  45.0716918
  70.1258143  48.3366581  33.6264613  70.4156441  47.9455562  32.9023839
  70.8561624  48.5183285  34.0669888  70.2765027  48.3060394  33.5847420
  70.7152888  43.1384326  44.7117743  70.2164582  43.8500094  44.7902631
  71.5253112  43.4584993  44.6735905  70.7608995  43.2911175  44.7174312
  68.0664059  50.3133963  36.6924762  67.8464354  50.0231318  37.4851429
  67.8458581  49.6548918  36.1642675  68.0011653  50.1733671  36.7313671
  77.7658904  37.5442063  39.2762446  77.4223669  36.8232398  39.6269695
  77.8651946  37.3355914  38.4340804  77.7300946  37.4066266  39.2034126
  70.2332014  51.6863353  35.4755455  70.8856072  51.1539795  35.7046481
  69.5357623  51.3332005  35.8623329  70.2262732  51.5552876  35.5667622
  69.6419946  35.9965371  50.0080041  68.8319722  36.3023151  49.8969884
  70.1194633  36.7170953  50.1232625  69.5923425  36.1479972  50.0087112
  68.5011506  45.2111092  40.2562944  67.9792259  45.3511384  40.9414809
  68.8885526  44.4521756  40.4465062  68.4815207  45.1196616  40.3864021
  65.4902690  35.2616901  34.3257899  65.2027486  34.8918171  33.5889846
  66.1773158  35.7311756  34.0641604  65.5491587  35.2763870  34.1772975
  74.6978511  46.9506551  34.2423513  74.4565187  46.2174412  33.8350578
  74.8779844  47.4993408  33.5889846  74.6886135  46.9228942  34.0853736
  69.9277831  42.2415111  35.6544435  69.7320614  42.8489845  35.0604738
  70.1512177  41.5483055  35.1736109  69.9312472  42.2292636  35.4960516
  68.3256361  39.1269849  35.7725304  69.0479013  39.2911007  35.3129110
  67.8464354  39.8479514  35.6664644  68.3620092  39.2568078  35.6890918
  76.2849869  35.4633648  41.1521989  75.4460970  35.4894927  40.9160252
  76.3554236  36.1104383  41.7327335  76.1718262  35.5629773  41.2031106
  65.9763978  41.5327921  44.8779444  66.4885075  41.8112175  44.2288203
  65.6900321  42.2717215  45.2442257  66.0098841  41.6830275  44.8369322
  74.7319147  32.3619025  35.8849605  75.4345500  32.1626773  35.4069563
  74.4663336  31.5894967  36.1918448  74.7965780  32.2181991  35.8595046
  63.0630884  36.0398113  35.1743180  63.1647021  36.8424274  35.5024156
  63.8586771  35.8385449  34.8766261  63.1958790  36.1284012  35.1778535
  69.4947703  33.6254310  44.9380485  69.3030901  33.6409444  45.7879909
  70.3446299  33.8217984  44.9147140  69.5923425  33.6568661  45.0603780
  63.8794616  36.1545291  42.9164302  63.7380108  35.3029232  43.0408810
  64.1635180  36.1973952  42.0926508  63.9002463  36.0345041  42.8131926
  74.0333209  37.9912381  37.0608790  73.7867923  37.9108132  37.8945579
  74.3618332  37.2065849  36.8671317  74.0454452  37.8638647  37.1556313
  77.9281258  44.6995741  40.8495571  77.7895617  45.3976787  41.3544314
  77.1481256  44.5444397  40.4931753  77.7924485  44.7795907  40.8721845
  76.2659343  40.9992116  47.1017953  76.2607381  40.1271933  47.1060379
  76.9720337  41.1980285  46.6287409  76.3704347  40.8995990  47.0324988
  69.9930236  40.7269100  46.4731773  70.1373612  41.3070308  45.8374883
  70.3405885  41.1045397  47.1781628  70.0657698  40.8689804  46.4830768
  72.1650153  39.9259268  44.2556905  71.4173468  40.1190283  43.8505183
  72.3191679  39.1004488  44.0181026  72.0772581  39.8324380  44.1602310
  69.0657991  48.9171872  43.3392800  69.2147555  48.3574788  42.6866204
  69.8457993  48.9963874  43.7225319  69.2032085  48.8457437  43.2989749
  71.5911292  49.0886515  44.6177291  71.5154963  48.4195325  45.1728079
  71.5201151  49.7904303  45.1317957  71.5691899  49.0931422  44.7754139
  72.4051931  33.8209819  45.1452308  72.8624545  34.5533793  45.2725101
  72.4808259  33.3976284  45.9039564  72.4842900  33.8667057  45.2753385
  64.6484922  34.0675639  46.2341752  64.1127111  33.4555997  46.5502519
  64.7102686  34.6423775  46.8875419  64.5780554  34.0622567  46.3777179
  76.8779256  26.9999694  39.0146151  76.9962825  27.4576158  38.2813454
  76.7041432  26.1944956  38.7282369  76.8698427  26.9493466  38.8647085
  72.2481539  47.6087514  35.4500897  73.0131430  47.3397157  35.1283561
  72.1459629  47.1237524  36.1670959  72.3463034  47.4977078  35.5080724
  70.2834308  35.8111923  41.9894132  69.4930383  35.6303383  42.3111468
  70.6794931  35.0338876  41.9724427  70.2251185  35.6699384  42.0346681
  74.7700199  44.6399697  27.4300846  75.5373184  44.6999822  27.0206698
  74.3231508  44.0680139  26.9457165  74.8173626  44.5636273  27.2978556
  75.6677995  43.4454353  39.7153578  74.9922997  43.2139585  40.2166965
  75.6770371  42.8375536  39.0895683  75.5696499  43.3213278  39.6969731
  72.7972139  38.2872182  46.4717631  72.7331280  39.1482139  46.3437768
  72.9369326  37.9704175  45.6713183  72.8087609  38.3672349  46.3345844
  77.6694729  46.3019486  31.9463756  77.7514567  47.1086472  31.6225207
  78.1544472  46.3215445  32.6704530  77.7531887  46.4240148  32.0050655
  71.4791233  40.9804322  40.6133834  71.0553482  41.1808821  39.8772853
  71.3036088  40.1333170  40.7258134  71.3902113  40.8853103  40.5207524
  70.9802926  52.4954835  43.0755292  71.4698856  51.7965624  42.8930956
  70.4087158  52.1978705  43.6631349  70.9687456  52.3481058  43.1356332
  66.7673678  41.4756373  36.0461807  66.9238297  41.4103176  36.9017799
  67.1074271  42.2504926  35.8340486  66.8406912  41.5805571  36.1416401
  73.3052822  40.8514257  34.9155170  73.8468368  40.3484638  35.3793791
  73.6199381  40.7979451  34.1044655  73.4317219  40.7693678  34.8638982
  77.1769930  45.0616904  52.0282082  77.9904795  44.7902053  52.1887215
  77.0164896  44.7624444  51.2242278  77.2739878  44.9771830  51.9327488
  71.4739272  46.2431608  32.1995198  71.5432092  45.3846147  32.3388198
  72.2527727  46.4603489  31.8714223  71.5992122  46.1484472  32.1712355
  74.4542092  35.7450561  44.9677470  74.6684061  35.1061475  44.4140824
  73.8375991  36.1896385  44.5385332  74.3947421  35.7160705  44.8227902
  75.8646759  48.6669309  36.4131691  75.4726551  48.3636025  35.6954557
  76.0199832  49.5038399  36.2236645  75.8300349  48.7453146  36.2788188
  63.3407939  38.6591323  36.3622574  63.7206904  39.0775868  35.6982841
  62.7663304  39.2404779  36.6691417  63.3119264  38.8069182  36.3099315
  76.6181180  37.3539626  45.9060778  75.8057861  37.0465517  45.9873950
  77.0771114  36.8738626  46.4703490  76.5661564  37.2376119  46.0015372
  76.0286434  45.2319298  36.3537722  75.6701089  45.4033941  37.1301754
  75.5425145  45.6932504  35.7965720  75.9045131  45.3258269  36.3862991
  70.8174800  40.9118464  28.8937956  71.1067324  41.6883346  29.1681531
  70.9046599  40.4007195  29.5952456  70.8729056  40.9510382  29.0380454
  73.7134687  38.7599698  50.6889480  74.1834318  39.3841814  51.0757354
  73.7596567  38.0916673  51.2482695  73.7902563  38.7534378  50.8289551
  70.8705961  30.8656725  41.4138284  70.3544449  30.1736917  41.5389863
  70.3099890  31.5327502  41.3600882  70.7112474  30.8619983  41.4244350
  72.9398194  31.4049685  43.2431136  72.5529947  31.4298717  44.0244666
  72.4531131  30.8391364  42.7905653  72.8110703  31.3245436  43.2919040
  77.1891174  46.1223194  47.3004923  77.8270894  45.6283390  46.9667379
  76.5465265  46.0500595  46.7157150  77.1885400  46.0382203  47.1647278
  72.6055336  28.2916671  45.5341396  73.2348454  28.8276971  45.2562466
  72.7741199  28.1994030  46.3854962  72.7233130  28.3578033  45.6189924
  72.4069251  33.0787865  47.8067808  73.2342680  32.8073014  47.8626422
  72.4277097  33.8748707  48.1631626  72.5322101  33.1567620  47.8682991
  77.2445430  46.8143002  43.9410279  78.0337808  46.4632067  44.0612361
  77.4189028  47.6279391  43.6786913  77.3865712  46.8828860  43.9198147
  66.9838741  40.2251728  40.9938068  66.1426747  40.1255602  41.2016962
  67.1928749  40.9947209  41.3452389  66.8903433  40.3243772  41.0765383
  64.4614308  37.8471265  38.8222819  64.0671005  37.9214277  38.0472929
  63.9054424  38.2329212  39.3731181  64.3217120  37.9153040  38.7890479
  76.0979254  30.8252559  38.5026698  76.3028848  30.7574867  39.3483695
  75.7705678  31.6311380  38.4347875  76.0794502  30.9338500  38.6186353
  70.7955405  38.1533127  40.2435666  70.4918543  37.5989116  40.8446074
  70.0934826  38.3325337  39.7563700  70.6471615  38.0977910  40.2605371
  69.8521503  35.4633647  34.8080368  70.1281237  34.7452560  34.3957935
  70.4520172  36.0618567  34.6001474  69.9814767  35.4454018  34.7161129
  68.8573757  45.3682848  44.9507764  68.7494111  45.3784910  45.8169822
  69.0669538  46.1937629  44.7612717  68.8723868  45.4923923  45.0511855
  73.3532023  33.1347165  33.0826963  73.8075770  33.3057725  33.8074807
  73.8272069  32.5215275  32.6824738  73.4900343  33.0698050  33.1300724
  67.2708171  33.7797488  43.0797719  67.7309653  33.8536418  43.8172843
  67.3164278  34.5778742  42.7297540  67.3458727  33.9091635  43.1370475
  68.9191521  34.4464183  47.6469746  68.5277086  33.7997530  48.0825524
  69.0877384  35.0375618  48.2664001  68.8862431  34.4378451  47.8032452
  76.6337065  48.0704802  39.8461726  76.4356753  48.5595617  39.1517937
  76.0124776  48.2746044  40.4245859  76.5124629  48.1721340  39.8284949
  70.6945043  39.8389699  34.1871970  71.4387088  40.2263975  34.4254920
  70.8405739  38.9947124  34.3512458  70.8255628  39.7720172  34.2465940
  72.6124619  31.6339958  39.2203831  71.7660664  31.8062766  39.0945181
  72.6095751  30.8289302  39.5569660  72.4871768  31.5400987  39.2514958
  73.6822919  35.4115172  40.0865889  73.2082873  34.8856934  40.5971200
  74.0541055  34.8644645  39.5180751  73.6672808  35.2531169  40.0781036
  64.0595949  37.4086679  45.4549435  64.9221562  37.3082388  45.3686765
  63.7287732  36.8281388  44.8935007  64.1381145  37.3078306  45.3594841
  75.6106419  36.3051727  33.1491643  75.0829437  36.3880471  32.4597352
  76.0702127  37.0469598  33.1456288  75.6008269  36.4272389  33.0466338
  67.4197735  36.2329128  42.1159853  66.7950805  36.2447520  41.5085806
  67.0843330  36.7089303  42.7651093  67.2783227  36.3047645  42.1216422
  67.6039484  34.5754246  28.1732538  67.2552288  35.2273972  28.6364088
  67.1235930  34.5611359  27.4456409  67.4809728  34.6697300  28.1343630
  75.1643501  44.8755290  32.2801300  75.8877700  45.3413403  32.1365873
  74.7244092  44.9428900  31.5298897  75.2059193  44.9539127  32.1486082
  74.3329656  41.7352833  43.5301989  73.7186649  41.1910883  43.8250624
  74.8496941  41.2217069  43.0507805  74.3185319  41.5789242  43.5026218
  73.5725953  42.8057103  41.2646288  73.1453561  42.1806821  40.8311723
  73.5650898  42.5232025  42.0905295  73.5085095  42.6709883  41.3226115
  66.6888480  37.8422276  44.3334722  66.8481967  37.0865600  44.7386444
  66.5081374  38.3913215  44.9875459  66.6853839  37.8116090  44.4897428
  74.6308783  30.0083511  44.8885511  74.1349345  30.2047186  44.1977078
  75.3877845  30.4076180  44.7174313  74.6695608  30.0961245  44.7605648
  71.9011663  33.6825857  41.4788822  71.9254150  33.1485970  40.7901602
  72.1523137  33.1743166  42.1414412  71.9421582  33.5286761  41.4753466
  68.1812985  32.4096675  40.8594566  68.2211357  32.9105882  41.5729273
  67.3562650  32.5007069  40.5900489  68.0652511  32.4978492  40.9245104
  70.3642598  41.9757415  48.9614861  69.5138229  42.1129130  49.0972506
  70.5270726  41.2421194  49.4062562  70.2626462  41.8871517  49.0470460
  69.6027349  38.9257185  43.1568465  68.7719278  39.0931003  42.9503713
  69.5478866  38.5493136  43.9417350  69.4716764  38.8946917  43.2416993
  67.4111132  32.4166078  48.7924876  68.0363835  31.8728211  49.0654308
  66.9561612  31.9360996  48.2232666  67.4359393  32.2655560  48.7486470
  67.9763392  37.2012777  33.6858583  68.1166354  37.6985241  34.3887224
  68.4745925  36.4999071  33.8272796  68.0704473  37.1714756  33.8110162
  68.0063615  38.0679888  31.0151160  68.6408694  38.6640313  30.9500621
  68.0889226  37.7683345  31.8297030  68.1120166  38.1120796  31.1254246
  69.5842598  33.9993863  30.9896602  69.9058439  33.5196946  30.3355864
  69.8469541  34.8093509  30.7987413  69.6708623  34.0483761  30.8652094
  72.8139571  45.0212738  44.5095418  72.3064662  45.5748584  44.9536048
  72.5166217  45.0821027  43.6914192  72.6944455  45.1119049  44.4543874
  74.9801753  33.3866057  43.3520081  75.4056824  32.9338584  42.7403607
  74.3658746  32.8326128  43.6284868  74.9530398  33.2380033  43.3025106
  75.4247351  48.9375995  32.4399361  74.7076661  48.7636858  31.9746599
  76.0754088  48.7028568  31.9074847  75.4149201  48.8771788  32.2928579
  73.4195976  29.8581157  36.7610658  72.7764294  29.7078803  37.3295796
  73.0795383  29.6123502  35.9959762  73.2741053  29.7993279  36.7313673
  78.0095322  37.8140584  36.1840666  77.3386512  38.3570286  36.0553732
  78.7035072  38.2835439  35.9422361  78.0124190  37.9638855  36.1296194
  72.0582056  49.9537296  41.4152425  71.8347710  49.1956125  41.7836451
  71.5691899  49.9835317  40.6932864  71.9525505  49.8459520  41.3629166
  78.1723449  34.2696467  39.0931039  78.5251060  33.8426190  39.7676838
  77.3138251  34.1847311  39.2232116  78.0972894  34.1941208  39.2126050
  66.8707134  36.9003987  37.1513886  66.1519124  37.3168120  37.4186750
  67.2419497  37.4658226  36.6005524  66.8199066  37.0453269  37.1096693
  76.1706715  37.5331836  43.0415882  76.1504643  37.3515131  43.8950661
  76.2185916  38.4043855  43.0175465  76.1741356  37.6348374  43.1639176
  74.1153045  44.1219028  48.9664358  74.0748900  43.4768705  48.3809514
  74.9276363  44.0655645  49.2789770  74.2296199  44.0177995  48.9261307
  70.7060513  50.1737754  38.8689509  70.2920911  49.5111884  38.4793351
  71.3907887  50.3215613  38.3485203  70.7458884  50.0978412  38.7346006
  74.0725807  49.3327839  39.6213126  73.6742090  49.4430110  38.8533946
  73.4577026  49.5409906  40.2039686  73.9224696  49.3801407  39.5944425
  72.6453709  35.9401987  32.4887265  72.0518548  36.2618984  31.9371833
  72.6828987  35.0943082  32.2808372  72.5628098  35.8626315  32.3770037
  75.5211525  35.8981492  35.9189016  75.2925218  35.9214193  35.0767374
  75.7809602  35.0738959  36.0384026  75.5257713  35.7797572  35.8114213
  69.8030754  37.7515965  45.5214116  69.2909657  37.1437148  45.8799147
  69.6310250  38.4672557  45.9888092  69.7020391  37.7679264  45.6430340
  64.6496469  36.1953540  48.1716478  64.4799059  36.8554915  47.6264684
  64.2062418  36.4060101  48.8928967  64.5595802  36.3239522  48.1978107
  68.5756288  34.4358038  37.2143211  69.0513654  34.7975118  36.5793393
  68.0744888  35.0914505  37.4943354  68.5721647  34.5852227  37.1619952
  73.6799824  35.6740209  47.9616371  74.2371254  35.4454019  47.3294837
  73.3560889  36.4345875  47.6851584  73.7146234  35.7524046  47.8272869
  71.3982941  38.7607863  48.9268379  72.1494268  39.0759539  49.2407933
  71.5905518  38.5587033  48.1002300  71.5374356  38.7775244  48.8511774
  70.6182941  36.5799238  30.5816595  70.9981906  36.5978867  29.7967710
  69.8775537  37.0253226  30.4607443  70.5651779  36.6481012  30.4480164
  78.2468232  34.8881429  36.1692174  78.2462458  34.7330085  37.0276450
  78.0424412  35.7344416  36.1133560  78.2168009  34.9902050  36.2880113
  75.9709084  39.5678931  39.8228381  76.4662749  38.8501926  39.7832401
  75.1608859  39.2649728  39.7082868  75.9252977  39.4176577  39.8002107
  71.4167695  43.4176744  31.9725385  70.6079018  43.0943417  31.9258695
  71.9242604  42.7109966  31.9053634  71.3717362  43.2658060  31.9555680
  78.0360903  42.3182618  42.5105510  78.4615974  41.7957040  41.9575935
  77.6717822  42.9163456  41.9894133  78.0447505  42.3292845  42.3514519
  67.6714982  50.6146836  41.2702855  67.9861541  51.4283224  41.2780637
  68.0808396  50.2297054  41.9385014  67.7783080  50.6775538  41.3706947
  74.6239502  46.0316882  38.8406667  75.0950680  46.7457145  39.0096652
  74.9599680  45.4315633  39.3766537  74.7434617  46.0488347  38.9439043
  76.7116487  47.6418196  51.0198739  76.8213452  46.8526756  51.3755486
  77.0407383  47.5524132  50.2173077  76.7768892  47.5124049  50.9541130
  71.5408997  30.8044353  45.7964762  71.6736903  30.0075346  46.1245737
  71.9254150  31.3310756  46.3763038  71.6165326  30.7644270  45.9308265
  75.2613448  45.8234817  45.6034360  74.7134394  45.1992700  45.3354425
  75.7226477  46.0129089  44.8878439  75.2480658  45.7593867  45.4584791
  74.6141352  27.7274679  42.3945855  73.8087316  27.6172409  42.7113694
  74.4848088  27.8287135  41.5375721  74.4761485  27.7258349  42.3153896
  78.0707313  33.8920171  42.9885552  77.4870301  34.3929378  42.5763119
  78.3911607  33.3849727  42.3549875  78.0320488  33.8912006  42.8344059
  70.6102112  32.8060766  33.2644227  71.4317806  32.9759079  33.0225922
  70.1471763  32.9608027  32.5410524  70.6633274  32.8542499  33.1215871
  69.1997444  30.8003528  44.0442656  69.7441857  30.4594655  44.6346997
  69.2534379  31.6588990  44.1863940  69.2886563  30.8758787  44.1524529
  74.8271775  46.8285889  42.1343701  75.6470148  46.6848855  42.3959996
  74.5465852  47.4532088  42.6760139  74.9068518  46.8996241  42.2531640
  73.6576050  59.1427789  37.5091846  73.4226234  58.3095441  37.4024114
  73.7961691  59.4232454  36.6953046  73.6431712  59.0611292  37.3734200
  75.9566137  51.3113519  40.4076153  75.3371169  50.7206166  40.2386168
  75.8550001  51.9024954  39.7740476  75.8503813  51.3117602  40.2881143
  75.6835270  54.8565801  42.6519722  75.5593967  55.4428246  43.2869541
  76.3353555  54.3625997  42.9531997  75.7608920  54.8704605  42.7905651
  75.2193375  64.0213459  38.7848052  74.7360953  64.7463949  38.7607635
  76.0316693  64.3189589  38.8958209  75.2684122  64.1715813  38.7975331
  77.7873915  48.8888065  31.0030952  77.6049489  49.1059946  30.1771944
  78.6499528  49.0027078  31.0589566  77.8878505  48.9377963  30.8885439
  77.3988347  60.7275987  38.4453940  78.2377247  60.9598920  38.4927701
  77.4300117  59.8580299  38.3760975  77.5270065  60.6332934  38.4418584
  78.0241050  61.1476862  42.7467245  78.5639275  61.0047993  43.4170617
  77.3410997  61.5473613  43.1151271  78.0033204  61.1856533  42.9001667
  73.4278195  57.3677153  42.9001667  73.1616611  56.5516270  43.0592657
  73.4416760  57.4130309  42.0297182  73.3902918  57.2534058  42.7955149
  77.3335942  52.1662238  29.5153425  76.6194120  51.8800417  29.9275857
  77.8179911  52.5058863  30.1559812  77.2995306  52.1743887  29.6709060
  73.8371609  58.1535933  40.1813411  73.6547182  58.1282819  39.3285703
  74.5721278  58.6234870  40.2202320  73.9185673  58.2197295  40.0611329
  76.9017361  54.8720936  46.6895520  77.6257333  54.8573966  47.1760414
  77.0033497  55.5816291  46.1917488  77.0235570  54.9745639  46.6874306
  73.8042519  55.0329433  40.3312477  74.3816022  54.8965884  40.9704723
  73.1056581  54.5765217  40.5858062  73.7863541  54.9451700  40.4634767
  69.2801353  53.8841326  37.0460296  69.3661604  53.5073195  37.8273826
  69.9077150  53.5101772  36.5680254  69.3857904  53.7726808  37.0905773
  74.8677311  62.6533059  41.0991657  74.9081457  62.9247910  40.2711436
  75.4271835  63.1774967  41.5149445  74.9560657  62.7708814  41.0383545
  76.3191898  61.2375008  35.9245583  75.4930015  61.4836745  35.7979861
  76.3803889  61.1587089  36.7907641  76.2066065  61.2619957  36.0334527
  76.4635273  50.7802209  34.3257899  76.1760069  50.4103479  33.5889846
  77.1505742  51.2497064  34.0641604  76.5224171  50.7949178  34.1772975
  76.9496562  57.0513229  44.8779444  77.4617659  57.3297482  44.2288203
  76.6632904  57.7902523  45.2442257  76.9831425  57.2015583  44.8369322
  74.0363468  51.5583421  35.1743180  74.1379604  52.3609582  35.5024156
  74.8319355  51.3570757  34.8766261  74.1691374  51.6469320  35.1778535
  74.8527200  51.6730599  42.9164302  74.7112692  50.8214540  43.0408810
  75.1367763  51.7159260  42.0926508  74.8735046  51.5530349  42.8131926
  75.6217505  49.5860947  46.2341752  75.0859695  48.9741305  46.5502519
  75.6835270  50.1609083  46.8875419  75.5513138  49.5807875  46.3777179
  77.7406261  56.9941681  36.0461807  77.8970880  56.9288484  36.9017799
  78.0806854  57.7690233  35.8340486  77.8139496  57.0990879  36.1416401
  74.3140523  54.1776631  36.3622574  74.6939488  54.5961176  35.6982841
  73.7395887  54.7590087  36.6691417  74.2851848  54.3254490  36.3099315
  77.9571324  55.7437036  40.9938068  77.1159331  55.6440910  41.2016962
  78.1661332  56.5132516  41.3452389  77.8636017  55.8429079  41.0765383
  75.4346891  53.3656573  38.8222819  75.0403589  53.4399585  38.0472929
  74.8787008  53.7514519  39.3731181  75.2949704  53.4338348  38.7890479
  77.8480132  58.1380798  42.4129701  77.2568065  58.7790297  42.3832716
  78.6101156  58.5618416  42.3861001  77.8728393  58.2956637  42.4044848
  78.2440755  49.2982796  43.0797719  78.7042236  49.3721726  43.8172843
  78.2896862  50.0964050  42.7297540  78.3191310  49.4276943  43.1370475
  75.0328533  52.9271987  45.4549435  75.8954146  52.8267696  45.3686765
  74.7020316  52.3466696  44.8935007  75.1113729  52.8263614  45.3594841
  78.3930319  51.7514436  42.1159853  77.7683389  51.7632828  41.5085806
  78.0575914  52.2274611  42.7651093  78.2515810  51.8232953  42.1216422
  78.5772067  50.0939554  28.1732538  78.2284872  50.7459280  28.6364088
  78.0968513  50.0796667  27.4456409  78.4542311  50.1882608  28.1343630
  75.1055994  59.8114896  43.5563618  74.5755919  59.1207335  43.6058592
  75.3781088  59.8025081  42.7276326  75.0680717  59.7082028  43.4411033
  77.6621064  53.3607584  44.3334722  77.8214551  52.6050908  44.7386444
  77.4813958  53.9098523  44.9875459  77.6586423  53.3301397  44.4897428
  70.3851836  56.4842660  40.9131966  70.2795286  56.4389504  40.0484050
  69.6352056  56.8296441  41.1946251  70.2587439  56.5283568  40.8269296
  75.4849186  55.7833037  34.2840706  75.9941416  56.3797544  34.6652011
  75.9583459  55.5159010  33.6017125  75.6292562  55.8318852  34.2395228
  75.6229052  51.7138848  48.1716478  75.4531642  52.3740223  47.6264684
  75.1795002  51.9245409  48.8928967  75.5328386  51.8424830  48.1978107
  72.5231117  54.6185713  43.4304968  71.9757836  53.9486359  43.5485836
  73.3123495  54.2515561  43.4948435  72.5583300  54.4650700  43.4573668
  71.2818086  53.8306521  40.5850991  71.1039847  53.3783130  41.3105906
  70.9937108  54.6332683  40.7689468  71.2131039  53.8829079  40.7194493
  73.0190556  56.3634245  37.6972750  72.1536075  56.3519935  37.5855521
  73.1189372  56.1764468  38.5443889  72.9064723  56.3340306  37.8061694
  75.9860586  60.0805252  40.9181464  76.5905443  60.0401086  40.2895284
  75.7787899  60.9276404  40.9485519  76.0449483  60.1993255  40.8297580
  71.2211868  59.0639870  40.7880387  71.1236146  58.2536141  41.0970443
  72.0040738  59.0431663  40.4026655  71.3228005  58.9406960  40.7767250
  56.6311906   9.0096625  22.5516786  55.8794806   8.6312164  22.3232831
  57.0797918   9.0415059  21.8035596  56.5861573   8.9582232  22.4074288
  62.0836866   9.4321995  17.9802333  61.7488235  10.1098916  17.5446555
  62.5963737   9.0427306  17.3919205  62.1102447   9.4746573  17.8289125
  61.6241157  11.3836263  23.9213445  62.0080537  11.9523162  23.3818220
  61.5600299  10.6585774  23.4419261  61.6714585  11.3611727  23.7707307
  58.2096662   9.0215017  24.8179559  58.3107025   8.2115371  25.1276686
  57.6138408   8.9271964  24.1879237  58.1369201   8.8880045  24.7705797
  58.0497402  13.9392606  26.2194415  58.6934858  14.3805771  26.6090573
  58.3753658  13.1346033  26.1324673  58.1929231  13.8857801  26.2639892
  51.4061707   5.0435304  24.4431892  51.1711891   4.2102956  24.3364161
  51.5447348   5.3239970  23.6293093  51.3917369   4.9618807  24.3074247
  58.7517982   6.9504581  21.5914276  59.0733823   7.4909789  20.9875584
  59.3990078   6.3801353  21.7236566  58.8944037   6.9463757  21.5221312
  60.9965360   6.7789939  28.5154173  61.2788602   5.9841345  28.2940928
  61.7251520   7.2570526  28.5359234  61.1454923   6.7324536  28.4857188
  52.9679031   9.9220975  25.7188098  52.4846610  10.6471464  25.6947682
  53.7802350  10.2197105  25.8298256  53.0169779  10.0723328  25.7315378
  59.0393186   8.7153155  28.3237913  58.5220127   8.3560570  27.7199221
  59.7367577   8.1915330  28.3343979  59.0658767   8.5850843  28.2368172
  62.6956778   9.1647969  34.2854086  62.7840123   8.9774110  35.1332296
  63.1246490   8.5185399  33.8858933  62.7718880   9.0410977  34.3525837
  60.2627237   8.4479129  33.2671748  59.6998072   8.0351739  33.7911409
  61.0248261   8.3732035  33.6864891  60.2921686   8.3756530  33.4064749
  55.8223229  10.4377151  25.8708378  56.5243808   9.9229140  25.9281135
  55.7420712  10.7651302  26.6755253  55.9146989  10.4091377  25.9981171
  55.1474004   6.6283503  25.3793986  55.9862904   6.8606435  25.4267748
  55.1785773   5.7587814  25.3101022  55.2755722   6.5340449  25.3758631
  55.7726707   7.0484378  29.6807292  56.3124932   6.9055509  30.3510664
  55.0896653   7.4481129  30.0491318  55.7518861   7.0864049  29.8341714
  62.8076837   8.5956988  36.9497870  63.5917253   8.7087836  37.3153612
  62.6073431   7.7698126  37.1456555  62.8942862   8.4903708  37.0332256
  51.1763852   3.2684669  29.8341713  50.9102267   2.4523785  29.9932704
  51.1902416   3.3137824  28.9637229  51.1388575   3.1541573  29.7295195
  62.9647230  10.5067091  30.5964325  62.1662476  10.2666591  30.8538194
  63.4133242  10.5581483  31.3431373  62.9121841  10.4789482  30.7449249
  51.5857266   4.0543448  27.1153458  51.4032839   4.0290334  26.2625750
  52.3206935   4.5242386  27.1542366  51.6671330   4.1204810  26.9951376
  57.9250326   6.3152238  24.1497400  58.5624273   6.0763986  24.6949193
  58.3505397   6.5189397  23.4150560  58.0826492   6.3103248  24.1214557
  52.6162968   8.5540575  28.0331703  52.6567113   8.8255426  27.2051483
  53.1757492   9.0782483  28.4489491  52.7046314   8.6716330  27.9723592
  60.3071798   6.7924661  25.8291186  60.3810806   6.6299833  26.6833036
  61.1241304   6.9814850  25.5851668  60.4388156   6.7961403  25.9189212
  54.0677554   7.1382524  22.8585629  53.2415672   7.3844261  22.7319908
  54.1289546   7.0594604  23.7247688  53.9551721   7.1627473  22.9674574
  58.8476383   9.7559404  20.5604659  59.1374682   9.3648385  19.8363886
  59.5779864   9.9376109  21.0009935  58.9983268   9.7253218  20.5187466
  56.7882299  11.7326786  23.6264809  56.5682594  11.4424141  24.4191476
  56.5676821  11.0741741  23.0982721  56.7229893  11.5926495  23.6653718
  58.9550255  13.1056176  22.4095501  59.6074313  12.5732618  22.6386528
  58.2575863  12.7524828  22.7963376  58.9480973  12.9745699  22.5007669
  55.9031520   5.4595354  21.8162876  56.6577488   5.8408393  22.0298338
  55.3102132   5.9106497  22.2709572  55.9268233   5.5824181  21.9145754
  57.2229746   6.6303915  27.1902991  56.7010500   6.7704207  27.8754856
  57.6103766   5.8714579  27.3805109  57.2033447   6.5389439  27.3204068
  63.4196751   8.3699374  21.1763560  63.1783427   7.6367235  20.7690625
  63.5998084   8.9186231  20.5229893  63.4104375   8.3421766  21.0193783
  57.7876232  10.3364695  30.2732847  57.9365795   9.7767611  29.6206251
  58.5676234  10.4156697  30.6565365  57.9250325  10.2650261  30.2329796
  60.3129532  10.5079338  31.5517338  60.2373203   9.8388149  32.1068126
  60.2419391  11.2097126  32.0658004  60.2910139  10.5124245  31.7094186
  60.9699779   9.0280337  22.3840943  61.7349670   8.7589981  22.0623608
  60.8677869   8.5430347  23.1011006  61.0681275   8.9169902  22.4420771
  59.7021166  13.9147658  30.0095338  60.1917097  13.2158447  29.8271003
  59.1305399  13.6171528  30.5971396  59.6905696  13.7673881  30.0696379
  60.1957512   7.6624431  19.1335245  60.2650333   6.8038970  19.2728245
  60.9745967   7.8796312  18.8054269  60.3210362   7.5677295  19.1052402
  64.5865000  10.0862133  23.3471738  64.1944792   9.7828848  22.6294604
  64.7418072  10.9231223  23.1576692  64.5518590  10.1645969  23.2128235
  65.9663671   8.2335826  30.8750326  66.7556049   7.8824890  30.9952408
  66.1407268   9.0472214  30.6126960  66.1083952   8.3021683  30.8538194
  57.5791997   6.7875671  31.8847810  57.4712352   6.7977733  32.7509868
  57.7887778   7.6130452  31.6952764  57.5942108   6.9116746  31.9851902
  55.5965789   4.0388314  29.3469748  55.0053722   4.6797812  29.3172763
  56.3586812   4.4625931  29.3201048  55.6214049   4.1964152  29.3384895
  65.3555305   9.4897625  26.7801772  65.1574994   9.9788440  26.0857984
  64.7343016   9.6938867  27.3585906  65.2342870   9.5914164  26.7624996
  52.8541651   5.7122411  30.4903664  52.3241576   5.0214850  30.5398639
  53.1266744   5.7032597  29.6616373  52.8166373   5.6089543  30.3751080
  48.1337493   2.3850175  27.8472013  48.0280942   2.3397020  26.9824097
  47.3837713   2.7303956  28.1286298  48.0073096   2.4291084  27.7609342
  61.5357811   6.4405561  31.4435465  61.0282902   6.9941408  31.8876095
  61.2384457   6.5013851  30.6254239  61.4162696   6.5311872  31.3883921
  64.1465591  10.3568819  19.3739408  63.4294901  10.1829681  18.9086645
  64.7972329  10.1221391  18.8414894  64.1367442  10.2964611  19.2268626
  60.7800296  11.3730119  28.3492471  60.5565951  10.6148948  28.7176498
  60.2910139  11.4028140  27.6272911  60.6743745  11.2652344  28.2969212
  59.4278753  11.5930577  25.8029556  59.0139152  10.9304707  25.4133398
  60.1126127  11.7408436  25.2825250  59.4677125  11.5171235  25.6686053
  62.7944047  10.7520662  26.5553173  62.3960330  10.8622933  25.7873993
  62.1795267  10.9602729  27.1379732  62.6442936  10.7994230  26.5284472
  56.3933223  12.0339659  28.2042902  56.7079782  12.8476047  28.2120684
  56.8026636  11.6489878  28.8725061  56.5001321  12.0968361  28.3046994
  63.3457742   7.4509706  25.7746714  63.8168921   8.1649968  25.9436699
  63.6817921   6.8508456  26.3106583  63.4652857   7.4681170  25.8779090
  65.4334727   9.0611019  37.9538786  65.5431692   8.2719580  38.3095533
  65.7625624   8.9716955  37.1513124  65.4987133   8.9316872  37.8881177
  53.7346243   5.9812767  27.8521510  54.3391100   5.9408601  27.2235331
  53.5273555   6.8283919  27.8825566  53.7935140   6.1000770  27.7637627
  63.5490015   8.2478713  29.0683748  64.3688389   8.1041679  29.3300043
  63.2684093   8.8724911  29.6100186  63.6286758   8.3189065  29.1871687
  48.9697525   4.9647385  27.7220434  48.8721803   4.1543656  28.0310490
  49.7526395   4.9439178  27.3366702  49.0713662   4.8414475  27.7107296
  73.2203350  14.9919215  26.7879555  72.3641246  15.1527713  26.8388671
  73.2671004  14.1211279  26.8084616  73.1002462  14.8870017  26.7985621
  67.6044490  24.5281933  22.5516786  66.8527389  24.1497471  22.3232831
  68.0530502  24.5600367  21.8035596  67.5594157  24.4767540  22.4074288
  76.5297067  21.2605741  36.3940011  77.2363834  20.7657772  36.5226945
  76.7185002  21.7014822  35.6642669  76.6624972  21.2524091  36.3049056
  73.0569450  24.9507303  17.9802333  72.7220818  25.6284224  17.5446555
  73.5696320  24.5612614  17.3919205  73.0835031  24.9931881  17.8289125
  72.5973741  26.9021571  23.9213445  72.9813120  27.4708470  23.3818220
  72.5332882  26.1771082  23.4419261  72.6447168  26.8797035  23.7707307
  76.0655171  17.0511259  29.4311206  76.6111131  17.7296346  29.4905176
  76.0072048  16.9098720  28.5712788  76.1371086  17.1303261  29.3123267
  69.1829246  24.5400325  24.8179559  69.2839609  23.7300679  25.1276686
  68.5870991  24.4457272  24.1879237  69.1101785  24.4065353  24.7705797
  77.8420240  18.4795866  20.3044934  77.7259766  19.2303552  20.7337072
  78.6376127  18.2219820  20.5541021  77.9424829  18.5530713  20.4049026
  69.0229986  29.4577914  26.2194415  69.6667441  29.8991078  26.6090573
  69.3486241  28.6531341  26.1324673  69.1661814  29.4043109  26.2639892
  62.3794290  20.5620612  24.4431892  62.1444475  19.7288264  24.3364161
  62.5179931  20.8425278  23.6293093  62.3649953  20.4804115  24.3074247
  64.6784378  12.7306342  27.3416200  64.0589409  12.1398990  27.1726215
  64.5768241  13.3217778  26.7080523  64.5722053  12.7310425  27.2221190
  69.7250565  22.4689889  21.5914276  70.0466406  23.0095097  20.9875584
  70.3722662  21.8986661  21.7236566  69.8676621  22.4649064  21.5221312
  71.7752273  14.4705884  21.6748663  72.4732438  14.6494012  22.1670126
  72.0904606  13.9476224  21.0519052  71.9247611  14.4199656  21.6550673
  64.4053511  16.2758624  29.5859769  64.2812208  16.8621070  30.2209588
  65.0571795  15.7818820  29.8872044  64.4827160  16.2897429  29.7245698
  71.9640209  20.8576329  21.6628455  72.4033844  20.2493430  22.1083227
  71.8144872  20.4783703  20.8913920  72.0061675  20.7114800  21.6147622
  69.4311852  19.4520341  28.8647280  70.0760854  18.9592784  28.5458229
  69.6713629  19.5945128  29.6913358  69.5622437  19.3997783  28.9396813
  71.9697943  22.2975247  28.5154173  72.2521186  21.5026653  28.2940928
  72.6984104  22.7755834  28.5359234  72.1187507  22.2509844  28.4857188
  69.9479137   9.8398281  25.7569938  69.6182467  10.2909424  25.0873636
  69.2724139   9.7614444  26.3042944  69.7989573   9.8949416  25.7393161
  75.5649545  19.2103511  18.6159224  75.4800840  20.0664477  18.7608793
  76.0533929  18.9347835  19.2841383  75.6238443  19.2960832  18.7361305
  76.4967979  15.8288305  20.1156959  75.9679450  16.0447938  20.7754265
  77.0192999  16.5224443  20.0357928  76.4956432  15.9631442  20.2012558
  68.3867586  19.7251521  18.9164427  67.8024802  20.2301553  19.3230291
  67.9837682  19.4993908  18.1761019  68.2406890  19.7659770  18.8669452
  63.9411615  25.4406283  25.7188098  63.4579193  26.1656772  25.6947682
  64.7534933  25.7382413  25.8298256  63.9902363  25.5908636  25.7315378
  70.0125769  24.2338463  28.3237913  69.4952711  23.8745878  27.7199221
  70.7100160  23.7100638  28.3343979  70.0391350  24.1036151  28.2368172
  73.6689361  24.6833277  34.2854086  73.7572707  24.4959418  35.1332296
  74.0979074  24.0370707  33.8858933  73.7451463  24.5596285  34.3525837
  71.2359821  23.9664437  33.2671748  70.6730656  23.5537047  33.7911409
  71.9980844  23.8917343  33.6864891  71.2654269  23.8941838  33.4064749
  66.7955812  25.9562459  25.8708378  67.4976392  25.4414448  25.9281135
  66.7153295  26.2836610  26.6755253  66.8879573  25.9276685  25.9981171
  67.8434719  16.1938045  34.9988793  68.0155223  16.0843940  35.8474075
  68.3804076  16.8392451  34.7619986  67.9479723  16.2730047  35.0893890
  66.5092156  10.3080888  17.9370998  66.3267729  10.5252769  17.1111991
  67.3717769  10.4219901  17.9929613  66.6096745  10.3570786  17.8225485
  66.1206588  22.1468811  25.3793986  66.9595487  22.3791743  25.4267748
  66.1518357  21.2773122  25.3101022  66.2488305  22.0525757  25.3758631
  66.7459291  22.5669686  29.6807292  67.2857516  22.4240817  30.3510664
  66.0629237  22.9666436  30.0491318  66.7251445  22.6049357  29.8341714
  76.1700176  18.2460686  24.8752316  76.9257691  18.6792201  24.9141225
  76.2762500  17.5965456  25.4486952  76.2970346  18.2138170  24.9650342
  73.7809420  24.1142296  36.9497870  74.5649837  24.2273144  37.3153612
  73.5806015  23.2883433  37.1456555  73.8675446  24.0089016  37.0332256
  62.1496436  18.7869977  29.8341713  61.8834851  17.9709093  29.9932704
  62.1635000  18.8323132  28.9637229  62.1121158  18.6726881  29.7295195
  66.0554183  13.5855061  16.4493472  65.3412360  13.2993240  16.8615904
  66.5398151  13.9251687  17.0899859  66.0213546  13.5936711  16.6049106
  66.8995042  12.3248355  32.4808721  66.2066839  11.8545334  32.7269453
  67.5155370  12.0986659  33.0550428  66.8879572  12.2215487  32.6017874
  73.9379814  26.0252398  30.5964325  73.1395059  25.7851899  30.8538194
  74.3865825  26.0766791  31.3431373  73.8854425  25.9974790  30.7449249
  73.2301501  22.0885015  16.8255280  73.6452649  21.7570039  16.1339775
  72.3993430  21.8553917  16.6975416  73.1689509  22.0056271  16.7046127
  62.5589849  19.5728756  27.1153458  62.3765423  19.5475642  26.2625750
  63.2939518  20.0427694  27.1542366  62.6403913  19.6390118  26.9951376
  65.6235601  16.2913759  33.6235566  66.3475573  16.2766789  34.1100461
  65.7251738  17.0009114  33.1257535  65.7453810  16.3938462  33.6214353
  72.9980551  19.7712843  38.4884513  72.2053531  20.0856355  38.6737133
  73.1129478  19.9864312  37.6505298  72.8975961  19.8496680  38.3922848
  75.6711870  16.4946835  22.7779529  75.7658724  17.2336129  23.2319155
  75.0470713  16.0664310  23.2114094  75.5920900  16.5408155  22.9087677
  73.9264343  19.6733047  33.4269810  74.5003205  19.0360291  33.5818374
  73.8479147  19.6737130  32.5579468  73.9997578  19.5798159  33.3216221
  62.5260760  16.4522257  27.2652524  63.1034262  16.3158707  27.9044770
  61.8274822  15.9958041  27.5198109  62.5081781  16.3644523  27.3974814
  69.2828062  18.1056312  25.4791007  69.0247306  17.2728047  25.4522307
  69.3376545  18.3313925  24.6383508  69.2527840  18.0154084  25.3511144
  68.2562774  15.6594075  25.9655902  67.6812365  15.8186243  26.6019863
  67.8798450  15.0229484  25.5024353  68.1165586  15.5891888  25.9910461
  71.9236063  14.1317424  30.8248281  71.5350496  13.7071642  30.1700472
  71.2590761  14.3799574  31.3325307  71.7682991  14.1056145  30.8036149
  58.0019593  15.3034149  23.9800343  58.0879845  14.9266018  24.7613873
  58.6295390  14.9294595  23.5020301  58.1076144  15.1919632  24.0245820
  73.0275001  18.3616029  19.0225088  73.8415640  18.6530921  18.9107859
  72.9634142  17.7075891  18.4483381  73.1377740  18.3081223  18.9213925
  68.8982909  21.8337546  24.1497400  69.5356856  21.5949294  24.6949193
  69.3237981  22.0374705  23.4150560  69.0559076  21.8288556  24.1214557
  63.5895552  24.0725883  28.0331703  63.6299697  24.3440734  27.2051483
  64.1490076  24.5967791  28.4489491  63.6778898  24.1901638  27.9723592
  69.5385724  17.0539836  18.4872289  69.9230877  16.8347543  19.2388834
  69.2897345  17.8802781  18.6173365  69.5587797  17.1437982  18.6173366
  69.7054265  10.3346251  38.2034873  69.3907706  11.1045814  37.9404436
  69.3844197   9.7716507  37.6187100  69.6113184  10.3656520  38.0776223
  71.2804381  22.3109969  25.8291186  71.3543390  22.1485141  26.6833036
  72.0973888  22.5000158  25.5851668  71.4120740  22.3146711  25.9189212
  65.0410138  22.6567831  22.8585629  64.2148256  22.9029569  22.7319908
  65.1022129  22.5779912  23.7247688  64.9284305  22.6812780  22.9674574
  67.2586162   8.7236772  23.8181070  66.3908587   8.7959372  23.8838679
  67.5461366   9.5258851  24.0069045  67.1725910   8.8530920  23.8555836
  69.8208967  25.2744712  20.5604659  70.1107265  24.8833693  19.8363886
  70.5512448  25.4561417  21.0009935  69.9715851  25.2438525  20.5187466
  70.4103712  20.0762458  31.6457790  69.9115406  20.7878225  31.7242678
  71.2203936  20.3963124  31.6075952  70.4559819  20.2289306  31.6514358
  67.7614883  27.2512094  23.6264809  67.5415178  26.9609449  24.4191476
  67.5409405  26.5927049  23.0982721  67.6962477  27.1111803  23.6653718
  66.6731830  19.3385411  25.8920511  66.3845078  18.7122882  26.4266238
  67.5415178  19.2805698  25.9585191  66.7592082  19.2372955  25.9811465
  77.4609728  14.4820194  26.2102493  77.1174493  13.7610529  26.5609742
  77.5602770  14.2734045  25.3680851  77.4251770  14.3444397  26.1374173
  69.9282838  28.6241484  22.4095501  70.5806896  28.0917926  22.6386528
  69.2308447  28.2710136  22.7963376  69.9213556  28.4931007  22.5007669
  66.8764103  20.9780662  21.8162876  67.6310071  21.3593701  22.0298338
  66.2834716  21.4291805  22.2709572  66.9000817  21.1009489  21.9145754
  77.9222757  20.9445898  21.7526481  78.4880789  21.6039108  21.6685024
  77.2750660  21.2895596  22.2242883  77.9101513  21.0927839  21.8099237
  69.3370770  12.9343502  36.9420088  68.5270546  13.2401282  36.8309930
  69.8145457  13.6549084  37.0572672  69.2874249  13.0858103  36.9427159
  68.1962330  22.1489223  27.1902991  67.6743083  22.2889515  27.8754856
  68.5836350  21.3899887  27.3805109  68.1766031  22.0574747  27.3204068
  65.1853514  12.1995032  21.2597946  64.8978309  11.8296302  20.5229893
  65.8723982  12.6689887  20.9981651  65.2442411  12.2142001  21.1113022
  74.3929335  23.8884682  21.1763560  74.1516011  23.1552543  20.7690625
  74.5730668  24.4371539  20.5229893  74.3836959  23.8607073  21.0193783
  69.6228655  19.1793242  22.5884482  69.4271438  19.7867977  21.9944785
  69.8463001  18.4861186  22.1076156  69.6263296  19.1670768  22.4300563
  68.0207185  16.0647980  22.7065351  68.7429837  16.2289138  22.2469157
  67.5415178  16.7857645  22.6004690  68.0570916  16.1946210  22.6230965
  75.9800693  12.4011779  28.0862036  75.1411794  12.4273058  27.8500299
  76.0505060  13.0482514  28.6667382  75.8669086  12.5007905  28.1371152
  65.6714802  18.4706052  31.8119490  66.1835899  18.7490306  31.1628250
  65.3851145  19.2095346  32.1782303  65.7049665  18.6208406  31.7709368
  62.7581708  12.9776244  22.1083227  62.8597845  13.7802406  22.4364202
  63.5537595  12.7763580  21.8106307  62.8909614  13.0662143  22.1118582
  69.1898527  10.5632441  31.8720532  68.9981724  10.5787575  32.7219956
  70.0397123  10.7596115  31.8487187  69.2874249  10.5946792  31.9943827
  63.5745440  13.0923422  29.8504348  63.4330932  12.2407363  29.9748856
  63.8586004  13.1352083  29.0266555  63.5953287  12.9723172  29.7471973
  73.7284033  14.9290513  23.9948837  73.4818747  14.8486264  24.8285626
  74.0569156  14.1443981  23.8011364  73.7405276  14.8016778  24.0896360
  77.6232082  21.6373872  27.7835618  77.4846441  22.3354918  28.2884360
  76.8432080  21.4822528  27.4271800  77.4875308  21.7174039  27.8061892
  75.9610167  17.9370247  34.0358000  75.9558205  17.0650064  34.0400426
  76.6671161  18.1358417  33.5627455  76.0655171  17.8374122  33.9665035
  69.6881060  17.6647231  33.4071820  69.8324436  18.2448439  32.7714930
  70.0356709  18.0423528  34.1121674  69.7608521  17.8067935  33.4170815
  71.8600977  16.8637400  31.1896951  71.1124291  17.0568414  30.7845230
  72.0142503  16.0382619  30.9521073  71.7723405  16.7702511  31.0942357
  68.7608815  25.8550003  30.2732847  68.9098379  25.2952919  29.6206251
  69.5408817  25.9342005  30.6565365  68.8982909  25.7835569  30.2329796
  71.2862116  26.0264646  31.5517338  71.2105787  25.3573457  32.1068126
  71.2151975  26.7282434  32.0658004  71.2642723  26.0309553  31.7094186
  72.1002754  10.7587950  32.0792355  72.5575369  11.4911925  32.2065147
  72.1759083  10.3354416  32.8379611  72.1793724  10.8045188  32.2093432
  64.3435746  11.0053770  33.1681799  63.8077935  10.3934128  33.4842566
  64.4053510  11.5801906  33.8215466  64.2731378  11.0000698  33.3117226
  71.9432363  24.5465645  22.3840943  72.7082254  24.2775289  22.0623608
  71.8410453  24.0615655  23.1011006  72.0413858  24.4355209  22.4420771
  69.9785132  12.7490054  28.9234179  69.1881207  12.5681514  29.2451515
  70.3745755  11.9717007  28.9064474  69.9202009  12.6077515  28.9686728
  75.3628819  20.3832484  26.6493625  74.6873821  20.1517717  27.1507012
  75.3721195  19.7753667  26.0235730  75.2647323  20.2591410  26.6309777
  72.4922963  15.2250313  33.4057678  72.4282104  16.0860270  33.2777815
  72.6320150  14.9082307  32.6053229  72.5038433  15.3050480  33.2685891
  77.3645553  23.2397617  18.8803803  77.4465391  24.0464603  18.5565254
  77.8495295  23.2593576  19.6044577  77.4482711  23.3618279  18.9390702
  71.1742057  17.9182453  27.5473881  70.7504306  18.1186952  26.8112899
  70.9986912  17.0711301  27.6598181  71.0852937  17.8231234  27.4547571
  70.6753750  29.4332966  30.0095338  71.1649680  28.7343755  29.8271003
  70.1037982  29.1356836  30.5971396  70.6638280  29.2859189  30.0696379
  66.4624502  18.4134504  22.9801854  66.6189121  18.3481307  23.8357846
  66.8025095  19.1883057  22.7680533  66.5357736  18.5183702  23.0756448
  73.0003646  17.7892388  21.8495217  73.5419192  17.2862769  22.3133837
  73.3150205  17.7357582  21.0384702  73.1268043  17.7071809  21.7979029
  76.8720754  21.9995035  38.9622129  77.6855619  21.7280184  39.1227261
  76.7115720  21.7002575  38.1582325  76.9690702  21.9149961  38.8667535
  71.1690096  23.1809739  19.1335245  71.2382916  22.3224278  19.2728245
  71.9478551  23.3981620  18.8054269  71.2942946  23.0862603  19.1052402
  74.1492916  12.6828692  31.9017517  74.3634885  12.0439606  31.3480871
  73.5326815  13.1274516  31.4725379  74.0898245  12.6538836  31.7567948
  75.5597583  25.6047441  23.3471738  75.1677375  25.3014156  22.6294604
  75.7150656  26.4416531  23.1576692  75.5251173  25.6831277  23.2128235
  63.0358763  15.5969455  23.2962621  63.4157728  16.0154000  22.6322888
  62.4614128  16.1782910  23.6031464  63.0070088  15.7447313  23.2439362
  76.3132004  14.2917757  32.8400824  75.5008685  13.9843648  32.9213997
  76.7721938  13.8116758  33.4043537  76.2612388  14.1754250  32.9355418
  75.7237258  22.1697429  23.2877769  75.3651913  22.3412072  24.0641801
  75.2375969  22.6310635  22.7305767  75.5995955  22.2636400  23.3203038
  70.5125624  17.8496595  15.8278003  70.8018148  18.6261477  16.1021577
  70.5997422  17.3385326  16.5292502  70.5679880  17.8888513  15.9720501
  73.4085511  15.6977829  37.6229527  73.8785142  16.3219945  38.0097401
  73.4547391  15.0294804  38.1822741  73.4853387  15.6912509  37.7629598
  76.8841998  23.0601325  34.2344970  77.5221718  22.5661521  33.9007426
  76.2416089  22.9878726  33.6497196  76.8836224  22.9760334  34.0987325
  78.6098998  14.9090471  28.8010885  78.1826606  14.8216820  28.0458985
  77.9725051  15.0168247  29.3865729  78.4528605  14.9123131  28.7756327
  76.9396254  23.7521134  30.8750326  77.7288632  23.4010198  30.9952408
  77.1139852  24.5657522  30.6126960  77.0816536  23.8206991  30.8538194
  66.6789565  17.1629859  27.9278115  65.8377571  17.0633734  28.1357009
  66.8879573  17.9325340  28.2792436  66.5854257  17.2621903  28.0105430
  64.1565132  14.7849396  25.7562866  63.7621829  14.8592408  24.9812975
  63.6005248  15.1707343  26.3071228  64.0167944  14.8531171  25.7230526
  70.4906229  15.0911259  27.1775713  70.1869367  14.5367247  27.7786120
  69.7885650  15.2703469  26.6903747  70.3422439  15.0356041  27.1945418
  69.5472327  12.4011778  21.7420415  69.8232061  11.6830691  21.3297982
  70.1470996  12.9996698  21.5341521  69.6765591  12.3832149  21.6501176
  68.5524580  22.3060979  31.8847810  68.4444935  22.3163041  32.7509868
  68.7620362  23.1315760  31.6952764  68.5674692  22.4302054  31.9851902
  66.5698372  19.5573622  29.3469748  65.9786306  20.1983120  29.3172763
  67.3319396  19.9811239  29.3201048  66.5946633  19.7149460  29.3384895
  66.9658995  10.7175619  30.0137766  67.4260477  10.7914549  30.7512889
  67.0115102  11.5156873  29.6637587  67.0409551  10.8469767  30.0710522
  68.6142345  11.3842314  34.5809793  68.2227910  10.7375661  35.0165571
  68.7828208  11.9753750  35.2004048  68.5813255  11.3756582  34.7372499
  76.3287889  25.0082933  26.7801772  76.1307577  25.4973748  26.0857984
  75.7075600  25.2124175  27.3585906  76.2075453  25.1099472  26.7624996
  70.3895867  16.7767830  21.1212017  71.1337912  17.1642106  21.3594967
  70.5356563  15.9325255  21.2852505  70.5206452  16.7098303  21.1805986
  73.3773743  12.3493303  27.0205936  72.9033697  11.8235065  27.5311247
  73.7491879  11.8022776  26.4520798  73.3623632  12.1909300  27.0121083
  63.7546773  14.3464810  32.3889482  64.6172386  14.2460519  32.3026812
  63.4238556  13.7659519  31.8275054  63.8331969  14.2456437  32.2934888
  67.1148559  13.1707259  29.0499900  66.4901629  13.1825651  28.4425853
  66.7794154  13.6467434  29.6991140  66.9734051  13.2425776  29.0556469
  67.2990308  11.5132378  15.1072585  66.9503112  12.1652103  15.5704134
  66.8186754  11.4989491  14.3796456  67.1760552  11.6075431  15.0683676
  63.8274235  21.2307719  30.4903664  63.2974159  20.5400158  30.5398639
  64.0999328  21.2217905  29.6616373  63.7898957  21.1274851  30.3751080
  74.8594325  21.8133422  19.2141347  75.5828524  22.2791535  19.0705920
  74.4194916  21.8807031  18.4638944  74.9010017  21.8917258  19.0826128
  74.0280480  18.6730964  30.4642036  73.4137473  18.1289014  30.7590671
  74.5447765  18.1595200  29.9847852  74.0136143  18.5167373  30.4366264
  73.2676777  19.7435234  28.1986335  72.8404385  19.1184952  27.7651770
  73.2601722  19.4610156  29.0245342  73.2035918  19.6088014  28.2566162
  66.3839304  14.7800407  31.2674769  66.5432791  14.0243731  31.6726490
  66.2032198  15.3291346  31.9215506  66.3804663  14.7494221  31.4237475
  71.5962487  10.6203988  28.4128869  71.6204974  10.0864101  27.7241649
  71.8473961  10.1121297  29.0754459  71.6372406  10.4664892  28.4093513
  59.1070077  17.9035483  27.8472013  59.0013526  17.8582328  26.9824097
  58.3570297  18.2489264  28.1286298  58.9805680  17.9476392  27.7609342
  67.8763809   9.3474807  27.7934613  67.9162181   9.8484013  28.5069320
  67.0513474   9.4385200  27.5240536  67.7603335   9.4356623  27.8585151
  70.0593422  18.9135547  35.8954907  69.2089053  19.0507261  36.0312552
  70.2221550  18.1799325  36.3402609  69.9577286  18.8249648  35.9810507
  69.2978173  15.8635316  30.0908512  68.4670102  16.0309134  29.8843760
  69.2429690  15.4871267  30.8757397  69.1667587  15.8325048  30.1757040
  67.1061956   9.3544209  35.7264923  67.7314659   8.8106342  35.9994355
  66.6512436   8.8739127  35.1572713  67.1310216   9.2033691  35.6826516
  67.6714216  14.1390908  20.6198630  67.8117177  14.6363372  21.3227271
  68.1696749  13.4377202  20.7612843  67.7655297  14.1092887  20.7450209
  67.7014439  15.0058019  17.9491206  68.3359518  15.6018444  17.8840668
  67.7840050  14.7061477  18.7637077  67.8070990  15.0498927  18.0594293
  69.2793422  10.9371994  17.9236648  69.6009263  10.4575077  17.2695911
  69.5420365  11.7471640  17.7327460  69.3659447  10.9861892  17.7992140
  72.5090394  21.9590869  31.4435465  72.0015486  22.5126716  31.8876095
  72.2117041  22.0199159  30.6254239  72.3895279  22.0497180  31.3883921
  64.2067427  17.2025860  21.2180752  64.7159656  17.7990367  21.5992058
  64.6801699  16.9351833  20.5357172  64.3510802  17.2511675  21.1735275
  75.1198175  25.8754126  19.3739408  74.4027484  25.7014989  18.9086645
  75.7704912  25.6406699  18.8414894  75.1100025  25.8149919  19.2268626
  77.7046146  14.7518715  23.1180713  77.0337336  15.2948417  22.9893779
  78.3985896  15.2213570  22.8762408  77.7075013  14.9016986  23.0636241
  71.7532880  26.8915427  28.3492471  71.5298534  26.1334256  28.7176498
  71.2642723  26.9213448  27.6272911  71.6476329  26.7837652  28.2969212
  66.5657958  13.8382118  24.0853933  65.8469948  14.2546251  24.3526796
  66.9370321  14.4036357  23.5345571  66.5149890  13.9831400  24.0436740
  75.8657539  14.4709967  29.9755929  75.8455467  14.2893262  30.8290707
  75.9136740  15.3421986  29.9515512  75.8692180  14.5726505  30.0979223
  73.8103869  21.0597159  35.9004405  73.7699724  20.4146836  35.3149561
  74.6227187  21.0033777  36.2129817  73.9247023  20.9556126  35.8601354
  70.4011337  27.1115885  25.8029556  69.9871735  26.4490015  25.4133398
  71.0858711  27.2593744  25.2825250  70.4409708  27.0356543  25.6686053
  73.7676631  26.2705970  26.5553173  73.3692914  26.3808241  25.7873993
  73.1527850  26.4788037  27.1379732  73.6175520  26.3179538  26.5284472
  72.3404533  12.8780118  19.4227312  71.7469372  13.1997115  18.8711879
  72.3779810  12.0321214  19.2148418  72.2578922  12.8004446  19.3110084
  75.2162349  12.8359623  22.8529063  74.9876042  12.8592324  22.0107421
  75.4760426  12.0117090  22.9724073  75.2208537  12.7175703  22.7454260
  69.4981578  14.6894096  32.4554163  68.9860481  14.0815279  32.8139194
  69.3261074  15.4050688  32.9228139  69.3971215  14.7057395  32.5770386
  64.3447293  13.1331671  35.1056525  64.1749883  13.7933046  34.5604731
  63.9013242  13.3438232  35.8269014  64.2546626  13.2617653  35.1318154
  68.2707112  11.3736169  24.1483258  68.7464478  11.7353249  23.5133439
  67.7695712  12.0292637  24.4283401  68.2672471  11.5230358  24.0959999
  73.3750648  12.6118340  34.8956418  73.9322078  12.3832150  34.2634884
  73.0511713  13.3724006  34.6191631  73.4097058  12.6902177  34.7612915
  61.2449357  16.0378537  30.3645014  60.6976076  15.3679182  30.4825883
  62.0341735  15.6708385  30.4288482  61.2801541  15.8843523  30.3913715
  71.0933765  15.6985994  35.8608425  71.8445092  16.0137671  36.1747980
  71.2856342  15.4965165  35.0342347  71.2325180  15.7153376  35.7851821
  70.3133765  13.5177369  17.5156642  70.6932730  13.5356998  16.7307757
  69.5726361  13.9631358  17.3947489  70.2602603  13.5859143  17.3820210
  60.0036327  15.2499344  27.5191037  59.8258088  14.7975953  28.2445953
  59.7155349  16.0525506  27.7029515  59.9349280  15.3021902  27.6534540
  75.6659908  16.5057062  26.7568428  76.1613573  15.7880057  26.7172448
  74.8559683  16.2027860  26.6422915  75.6203801  16.3554708  26.7342154
  71.1118519  20.3554875  18.9065432  70.3029842  20.0321549  18.8598742
  71.6193428  19.6488097  18.8393681  71.0668186  20.2036191  18.8895727
  61.7408796  17.7827068  24.6312796  60.8754316  17.7712759  24.5195568
  61.8407612  17.5957291  25.4783936  61.6282963  17.7533129  24.7401741
  77.7311726  19.2560749  29.4445556  78.1566798  18.7335171  28.8915982
  77.3668646  19.8541587  28.9234179  77.7398329  19.2670976  29.2854566
  67.3665806  27.5524967  28.2042902  67.6812365  28.3661355  28.2120684
  67.7759220  27.1675186  28.8725061  67.4733904  27.6153669  28.3046994
  74.3190326  22.9695014  25.7746714  74.7901504  23.6835276  25.9436699
  74.6550504  22.3693764  26.3106583  74.4385441  22.9866478  25.8779090
  76.4067310  24.5796327  37.9538786  76.5164276  23.7904888  38.3095533
  76.7358207  24.4902263  37.1513124  76.4719716  24.4502180  37.8881177
  74.9564272  22.7612948  32.5374407  74.4085218  22.1370831  32.2694472
  75.4177301  22.9507220  31.8218486  74.9431482  22.6971998  32.3924838
  70.3052936   9.7438897  20.1984274  71.1268630   9.9137210  19.9565969
  69.8422587   9.8986158  19.4750571  70.3584098   9.7920630  20.0555918
  64.7078826  21.4998075  27.8521510  65.3123684  21.4593909  27.2235331
  64.5006139  22.3469227  27.8825566  64.7667724  21.6186078  27.7637627
  74.5222599  23.7664020  29.0683748  75.3420972  23.6226986  29.3300043
  74.2416676  24.3910219  29.6100186  74.6019342  23.8374372  29.1871687
  59.9430109  20.4832693  27.7220434  59.8454387  19.6728964  28.0310490
  60.7258978  20.4624486  27.3366702  60.0446245  20.3599783  27.7107296
  73.3526874  36.0805920  24.4431892  73.1177058  35.2473572  24.3364161
  73.4912515  36.3610585  23.6293093  73.3382536  35.9989423  24.3074247
  75.6516961  28.2491650  27.3416200  75.0321993  27.6584298  27.1726215
  75.5500825  28.8403086  26.7080523  75.5454637  28.2495733  27.2221190
  75.3786094  31.7943932  29.5859769  75.2544791  32.3806378  30.2209588
  76.0304379  31.3004128  29.8872044  75.4559744  31.8082736  29.7245698
  74.9144199  40.9591591  25.7188098  74.4311777  41.6842080  25.6947682
  75.7267517  41.2567721  25.8298256  74.9634946  41.1093944  25.7315378
  77.7688396  41.4747766  25.8708378  78.4708975  40.9599756  25.9281135
  77.6885879  41.8021918  26.6755253  77.8612156  41.4461993  25.9981171
  77.4824739  25.8266196  17.9370998  77.3000313  26.0438077  17.1111991
  78.3450352  25.9405209  17.9929613  77.5829329  25.8756094  17.8225485
  77.0939171  37.6654118  25.3793986  77.9328071  37.8977051  25.4267748
  77.1250940  36.7958430  25.3101022  77.2220889  37.5711065  25.3758631
  77.7191874  38.0854994  29.6807292  78.2590099  37.9426125  30.3510664
  77.0361821  38.4851744  30.0491318  77.6984028  38.1234665  29.8341714
  73.1229019  34.3055284  29.8341713  72.8567435  33.4894401  29.9932704
  73.1367584  34.3508440  28.9637229  73.0853742  34.1912189  29.7295195
  77.0286766  29.1040369  16.4493472  76.3144943  28.8178548  16.8615904
  77.5130735  29.4436995  17.0899859  76.9946130  29.1122019  16.6049106
  77.8727626  27.8433663  32.4808721  77.1799423  27.3730642  32.7269453
  78.4887953  27.6171967  33.0550428  77.8612156  27.7400795  32.6017874
  73.5322433  35.0914064  27.1153458  73.3498006  35.0660950  26.2625750
  74.2672102  35.5613002  27.1542366  73.6136497  35.1575426  26.9951376
  76.5968185  31.8099067  33.6235566  77.3208157  31.7952097  34.1100461
  76.6984321  32.5194422  33.1257535  76.7186394  31.9123770  33.6214353
  73.4993343  31.9707565  27.2652524  74.0766846  31.8344015  27.9044770
  72.8007405  31.5143349  27.5198109  73.4814365  31.8829831  27.3974814
  68.9752177  30.8219457  23.9800343  69.0612428  30.4451326  24.7613873
  69.6027974  30.4479903  23.5020301  69.0808728  30.7104940  24.0245820
  74.5628135  39.5911190  28.0331703  74.6032281  39.8626042  27.2051483
  75.1222659  40.1153099  28.4489491  74.6511481  39.7086946  27.9723592
  76.0142722  38.1753139  22.8585629  75.1880839  38.4214877  22.7319908
  76.0754713  38.0965220  23.7247688  75.9016888  38.1998088  22.9674574
  78.2318745  24.2422080  23.8181070  77.3641171  24.3144680  23.8838679
  78.5193950  25.0444159  24.0069045  78.1458493  24.3716228  23.8555836
  78.7347466  42.7697402  23.6264809  78.5147762  42.4794757  24.4191476
  78.5141988  42.1112357  23.0982721  78.6695060  42.6297110  23.6653718
  77.6464413  34.8570719  25.8920511  77.3577662  34.2308190  26.4266238
  78.5147761  34.7991006  25.9585191  77.7324665  34.7558263  25.9811465
  77.8496687  36.4965970  21.8162876  78.6042655  36.8779009  22.0298338
  77.2567299  36.9477113  22.2709572  77.8733400  36.6194797  21.9145754
  76.1586097  27.7180340  21.2597946  75.8710893  27.3481610  20.5229893
  76.8456566  28.1875195  20.9981651  76.2174995  27.7327309  21.1113022
  76.6447386  33.9891360  31.8119490  77.1568483  34.2675614  31.1628250
  76.3583728  34.7280654  32.1782303  76.6782249  34.1393714  31.7709368
  73.7314292  28.4961552  22.1083227  73.8330428  29.2987714  22.4364202
  74.5270179  28.2948888  21.8106307  73.8642198  28.5847451  22.1118582
  74.5478024  28.6108730  29.8504348  74.4063516  27.7592671  29.9748856
  74.8318587  28.6537391  29.0266555  74.5685870  28.4908480  29.7471973
  75.3168329  26.5239078  33.1681799  74.7810519  25.9119436  33.4842566
  75.3786094  27.0987214  33.8215466  75.2463962  26.5186006  33.3117226
  77.4357085  33.9319812  22.9801854  77.5921704  33.8666615  23.8357846
  77.7757678  34.7068365  22.7680533  77.5090320  34.0369010  23.0756448
  74.0091347  31.1154763  23.2962621  74.3890311  31.5339308  22.6322888
  73.4346711  31.6968218  23.6031464  73.9802671  31.2632621  23.2439362
  77.6522148  32.6815167  27.9278115  76.8110155  32.5819041  28.1357009
  77.8612156  33.4510648  28.2792436  77.5586841  32.7807211  28.0105430
  75.1297715  30.3034704  25.7562866  74.7354413  30.3777716  24.9812975
  74.5737832  30.6892651  26.3071228  74.9900527  30.3716479  25.7230526
  77.5430956  35.0758930  29.3469748  76.9518889  35.7168428  29.3172763
  78.3051980  35.4996547  29.3201048  77.5679217  35.2334768  29.3384895
  77.9391579  26.2360927  30.0137766  78.3993060  26.3099857  30.7512889
  77.9847686  27.0342181  29.6637587  78.0142134  26.3655074  30.0710522
  74.7279357  29.8650118  32.3889482  75.5904970  29.7645827  32.3026812
  74.3971140  29.2844827  31.8275054  74.8064553  29.7641745  32.2934888
  78.0881143  28.6892567  29.0499900  77.4634213  28.7010959  28.4425853
  77.7526737  29.1652742  29.6991140  77.9466634  28.7611084  29.0556469
  78.2722891  27.0317686  15.1072585  77.9235696  27.6837411  15.5704134
  77.7919337  27.0174799  14.3796456  78.1493135  27.1260739  15.0683676
  74.8006818  36.7493027  30.4903664  74.2706743  36.0585466  30.5398639
  75.0731911  36.7403212  29.6616373  74.7631540  36.6460159  30.3751080
  77.3571888  30.2985715  31.2674769  77.5165375  29.5429039  31.6726490
  77.1764782  30.8476654  31.9215506  77.3537247  30.2679529  31.4237475
  70.0802660  33.4220791  27.8472013  69.9746109  33.3767636  26.9824097
  69.3302880  33.7674572  28.1286298  69.9538263  33.4661699  27.7609342
  78.0794539  24.8729517  35.7264923  78.7047243  24.3291650  35.9994355
  77.6245019  24.3924435  35.1572713  78.1042800  24.7218999  35.6826516
  75.1800010  32.7211168  21.2180752  75.6892240  33.3175675  21.5992058
  75.6534283  32.4537141  20.5357172  75.3243386  32.7696983  21.1735275
  77.5390542  29.3567426  24.0853933  76.8202531  29.7731559  24.3526796
  77.9102904  29.9221665  23.5345571  77.4882474  29.5016708  24.0436740
  75.3179876  28.6516979  35.1056525  75.1482466  29.3118354  34.5604731
  74.8745826  28.8623540  35.8269014  75.2279210  28.7802961  35.1318154
  72.2181941  31.5563845  30.3645014  71.6708660  30.8864490  30.4825883
  73.0074319  31.1893692  30.4288482  72.2534124  31.4028831  30.3913715
  70.9768910  30.7684652  27.5191037  70.7990671  30.3161261  28.2445953
  70.6887932  31.5710814  27.7029515  70.9081863  30.8207210  27.6534540
  72.7141380  33.3012376  24.6312796  71.8486899  33.2898067  24.5195568
  72.8140196  33.1142599  25.4783936  72.6015547  33.2718437  24.7401741
  75.6811410  37.0183383  27.8521510  76.2856267  36.9779217  27.2235331
  75.4738723  37.8654535  27.8825566  75.7400307  37.1371386  27.7637627
  70.9162692  36.0018001  27.7220434  70.8186970  35.1914272  28.0310490
  71.6991562  35.9809794  27.3366702  71.0178829  35.8785091  27.7107296
   4.5088642  22.7434594  60.9571844   4.4782646  23.5979231  61.1290114
   5.1069991  22.4429887  61.5157988   4.5925800  22.8251091  61.0646646
   2.3305216  25.3186896  59.2290154   2.2144742  26.0694582  59.6582292
   3.1261103  25.0610850  59.4786241   2.4309806  25.3921743  59.3294246
   0.9852955  22.6679335  59.0402179   0.4564427  22.8838968  59.6999485
   1.5077975  23.3615473  58.9603148   0.9841408  22.8022472  59.1257778
   6.4401008  28.2425639  64.4135223   5.6098711  28.4536283  64.5768640
   6.3910260  27.4162694  64.1377507   6.3107743  28.1515245  64.3972589
   3.6965323  28.9124994  64.5499939   3.2600555  28.9161736  65.3058911
   3.3628239  29.5930493  64.1179517   3.5827943  29.0137449  64.5980772
   6.8309669  25.6305913  63.4419576   7.4926103  25.0696582  63.3415485
   6.1901081  25.1357944  63.7672268   6.8338537  25.4742322  63.4751917
   3.1174500  26.6471296  63.1831565   3.3530089  26.7916495  62.3558416
   3.2664064  27.4113704  63.5763079   3.1740303  26.7810350  63.1195169
   4.9464957  25.4872962  61.0201169   5.2773174  26.0200602  60.4141264
   5.5198045  25.5411850  61.6763120   5.0798636  25.5742531  61.0278951
   2.4107733  27.7836928  60.6771701   2.9765766  28.4430138  60.5930244
   1.7635636  28.1286626  61.1488103   2.3986489  27.9318869  60.7344457
   3.6070431  27.8343156  57.4697337   3.2277240  27.0480294  57.4626627
   2.9436676  28.3830013  57.3268981   3.4528906  27.7987980  57.4478134
   1.8530530  30.0788647  57.8049023   1.9350367  30.8855633  57.4810474
   2.3380272  30.0984606  58.5289797   1.9367688  30.2009309  57.8635922
   5.9903450  27.6848967  58.8641483   6.3737056  28.4340323  59.0939580
   5.1947563  27.9314787  58.6053472   5.9297232  27.8318661  58.8599057
  15.4821225  38.2619902  60.9571844  15.4515230  39.1164539  61.1290114
  16.0802574  37.9615195  61.5157988  15.5658383  38.3436399  61.0646646
   8.6820910  37.3495553  65.7124775   7.8258806  37.5104051  65.7633891
   8.7288564  36.4787617  65.7329836   8.5620022  37.2446355  65.7230841
   3.0662050  46.8858271  61.4762006   2.3144949  46.5073809  61.2478051
   3.5148062  46.9176705  60.7280816   3.0211717  46.8343878  61.3319508
  11.9914627  43.6182079  75.3185231  12.6981394  43.1234109  75.4472165
  12.1802562  44.0591160  74.5887889  12.1242532  43.6100429  75.2294276
   8.5187010  47.3083640  56.9047553   8.1838378  47.9860562  56.4691775
   9.0313880  46.9188952  56.3164425   8.5452591  47.3508219  56.7534345
   8.0591301  49.2597909  62.8458665   8.4430680  49.8284808  62.3063440
   7.9950442  48.5347420  62.3664481   8.1064728  49.2373373  62.6952527
  11.5272731  39.4087597  68.3556426  12.0728691  40.0872684  68.4150396
  11.4689608  39.2675058  67.4958008  11.5988646  39.4879599  68.2368487
   4.6446806  46.8976663  63.7424779   4.7457169  46.0877017  64.0521906
   4.0488551  46.8033610  63.1124457   4.5719345  46.7641691  63.6951017
  13.3037800  40.8372204  59.2290154  13.1877326  41.5879890  59.6582292
  14.0993687  40.5796157  59.4786241  13.4042389  40.9107051  59.3294246
   4.4847546  51.8154252  65.1439635   5.1285001  52.2567416  65.5335793
   4.8103801  51.0107678  65.0569893   4.6279374  51.7619447  65.1885112
   5.1868125  44.8266227  60.5159496   5.5083966  45.3671434  59.9120804
   5.8340222  44.2562999  60.6481786   5.3294181  44.8225402  60.4466532
   7.2369833  36.8282222  60.5993883   7.9349998  37.0070350  61.0915346
   7.5522166  36.3052561  59.9764272   7.3865171  36.7775994  60.5795893
   7.4257769  43.2152667  60.5873675   7.8651404  42.6069768  61.0328447
   7.2762432  42.8360040  59.8159140   7.4679235  43.0691138  60.5392842
   4.8929412  41.8096679  67.7892500   5.5378414  41.3169122  67.4703449
   5.1331189  41.9521466  68.6158578   5.0239997  41.7574121  67.8642033
   7.4315503  44.6551585  67.4399393   7.7138746  43.8602991  67.2186149
   8.1601664  45.1332172  67.4604454   7.5805067  44.6086182  67.4102408
   5.4096697  32.1974619  64.6815158   5.0800027  32.6485762  64.0118856
   4.7341699  32.1190782  65.2288164   5.2607133  32.2525754  64.6638381
  11.0267105  41.5679848  57.5404444  10.9418400  42.4240815  57.6854013
  11.5151489  41.2924172  58.2086603  11.0856003  41.6537170  57.6606525
  12.6173105  28.1860142  62.9264768  12.3026546  28.8763620  63.3585191
  12.1000046  28.1304924  62.2250269  12.4937575  28.2795030  62.8861718
  11.9585539  38.1864643  59.0402179  11.4297010  38.4024276  59.6999485
  12.4810559  38.8800781  58.9603148  11.9573992  38.3207779  59.1257778
  17.4133592  43.7610947  64.4135223  16.5831295  43.9721591  64.5768640
  17.3642844  42.9348002  64.1377507  17.2840327  43.6700553  64.3972589
   3.8485146  42.0827859  57.8409647   3.2642362  42.5877891  58.2475511
   3.4455242  41.8570246  57.1006239   3.7024450  42.1236108  57.7914672
   5.4743329  46.5914801  67.2483133   4.9570271  46.2322216  66.6444441
   6.1717720  46.0676976  67.2589199   5.5008910  46.4612489  67.1613392
   9.1306921  47.0409615  73.2099306   9.2190267  46.8535756  74.0577516
   9.5596634  46.3947045  72.8104153   9.2069023  46.9172623  73.2771057
   8.3062361  38.3293511  56.3178568   8.5458365  38.5371495  55.5053911
   8.6278202  37.5251020  56.4267512   8.3899519  38.2407613  56.2139121
   3.6152651  30.2586907  60.1638105   4.3698619  30.6265224  59.9255156
   3.4380186  30.6326462  60.9317285   3.7007129  30.3685095  60.2422994
   2.2573372  48.3138796  64.7953598   2.9593952  47.7990785  64.8526355
   2.1770855  48.6412948  65.6000473   2.3497133  48.2853023  64.9226391
  16.9087550  36.4081348  68.2085645  16.0715971  36.4783535  68.4433239
  16.8775781  36.4105843  67.3359947  16.7805832  36.4191575  68.1145193
   1.9709716  32.6657226  56.8616218   1.7885289  32.8829107  56.0357211
   2.8335329  32.7796239  56.9174833   2.0714305  32.7147124  56.7470705
   1.5824148  44.5045148  64.3039206   2.4213047  44.7368081  64.3512968
   1.6135917  43.6349460  64.2346242   1.7105865  44.4102095  64.3003851
   2.2076851  44.9246024  68.6052512   2.7475076  44.7817155  69.2755884
   1.5246797  45.3242774  68.9736538   2.1869005  44.9625695  68.7586934
   7.6509435  29.6683637  59.8965242   8.3795595  29.4899592  59.4503399
   7.7404328  30.5101717  60.1072420   7.7716097  29.7667515  59.8618760
  11.6317736  40.6037024  63.7997536  12.3875251  41.0368539  63.8386445
  11.7380060  39.9541794  64.3732172  11.7587906  40.5714508  63.8895562
  14.6697907  44.4310301  64.5499939  14.2333139  44.4347044  65.3058911
  14.3360822  45.1115800  64.1179517  14.5560527  44.5322757  64.5980772
  14.5895390  31.4724129  66.7929367  15.2321298  31.5422234  67.3791282
  14.8418410  30.8053352  66.2908909  14.7217522  31.3850478  66.8056646
   1.5171743  35.9431399  55.3738692   0.8029920  35.6569578  55.7861124
   2.0015711  36.2828025  56.0145079   1.4831106  35.9513048  55.5294326
   9.3997374  48.3828736  69.5209545   8.6012619  48.1428236  69.7783414
   9.8483385  48.4343129  70.2676593   9.3471985  48.3551128  69.6694469
  17.8042253  41.1491221  63.4419576  18.4658687  40.5881890  63.3415485
  17.1633665  40.6543252  63.7672268  17.8071120  40.9927630  63.4751917
   8.6919061  44.4461353  55.7500500   9.1070209  44.1146377  55.0584995
   7.8610990  44.2130255  55.6220636   8.6307069  44.3632609  55.6291347
  14.0907084  42.1656604  63.1831565  14.3262673  42.3101803  62.3558416
  14.2396647  42.9299012  63.5763079  14.1472887  42.2995658  63.1195169
  15.9197540  41.0058270  61.0201169  16.2505757  41.5385910  60.4141264
  16.4930629  41.0597157  61.6763120  16.0531220  41.0927839  61.0278951
  11.1329430  38.8523172  61.7024749  11.2276284  39.5912466  62.1564375
  10.5088273  38.4240648  62.1359314  11.0538460  38.8984493  61.8332897
   9.3881903  42.0309385  72.3515030   9.9620765  41.3936629  72.5063594
   9.3096707  42.0313467  71.4824688   9.4615138  41.9374496  72.2461441
  11.3852451  40.6971912  54.9361701  11.3032613  40.7674099  55.8016688
  12.0232171  41.2601656  54.7445442  11.4672288  40.7910883  55.0351651
   4.7445622  40.4632650  64.4036227   4.4864866  39.6304385  64.3767527
   4.7994105  40.6890263  63.5628728   4.7145400  40.3730421  64.2756364
   9.8246672  32.5661101  64.5040320   9.1202999  32.0770286  64.6624239
   9.8731646  32.5783575  63.6328765   9.7276724  32.4950749  64.3979660
   3.7180334  38.0170413  64.8901122   3.1429925  38.1762581  65.5265083
   3.3416010  37.3805822  64.4269573   3.5783146  37.9468226  64.9155681
   7.3853623  36.4893762  69.7493501   6.9968056  36.0647980  69.0945692
   6.7208321  36.7375912  70.2570527   7.2300551  36.4632483  69.7281369
  17.0276892  36.2468767  62.5241331  16.7713457  35.4348708  62.3339213
  17.8706206  36.2546334  62.2971518  17.1142917  36.1280764  62.4626148
  11.2079984  30.1868391  67.2617485  11.5890496  29.5046562  67.6485359
  10.4043269  29.8977993  67.0793149  11.1456446  30.0435439  67.2921541
   8.4892561  40.7192366  57.9470308   9.3033200  41.0107259  57.8353079
   8.4251702  40.0652229  57.3728601   8.5995300  40.6657561  57.8459145
  14.7102051  43.4018363  72.3599883  14.4740689  42.5706427  72.2411944
  15.3545280  43.3503970  72.9454727  14.7696722  43.2716051  72.4285777
   4.3600469  44.1913884  63.0742620   4.9974416  43.9525631  63.6194413
   4.7855541  44.3951043  62.3395780   4.5176636  44.1864894  63.0459777
   5.0003284  39.4116174  57.4117509   5.3848437  39.1923880  58.1634054
   4.7514905  40.2379119  57.5418585   5.0205357  39.5014320  57.5418586
  15.7338472  43.1862811  68.4228178  15.4284289  43.9190868  68.7841493
  15.0144687  42.7800741  68.1420964  15.5825814  43.2344544  68.4341315
   6.7421941  44.6686307  64.7536406   6.8160950  44.5061478  65.6078256
   7.5591448  44.8576496  64.5096888   6.8738300  44.6723049  64.8434432
  21.4340264  39.8255812  67.7496522  21.3664764  39.8451771  66.8799109
  21.4195926  40.6686139  67.9752193  21.4219020  39.9529547  67.6548999
   2.7203722  31.0813110  62.7426290   1.8526147  31.1535710  62.8083899
   3.0078926  31.8835189  62.9314265   2.6343470  31.2107257  62.7801056
  11.8436610  31.2290970  71.0737611  12.5890202  31.0400780  70.6601037
  11.4273915  31.7549208  70.5151468  11.8921585  31.2793115  70.9302185
   5.2826527  47.6321050  59.4849879   5.5724825  47.2410031  58.7609106
   6.0130008  47.8137755  59.9255155   5.4333411  47.6014863  59.4432686
  19.2198881  38.6000198  66.0243116  19.7706803  37.9668267  66.2640209
  19.2042997  39.1315591  66.7158621  19.2984078  38.5849146  66.1621975
   5.8721272  42.4338796  70.5703010   5.3732966  43.1454563  70.6487898
   6.6821496  42.7539462  70.5321172   5.9177379  42.5865644  70.5759578
   3.2232443  49.6088432  62.5510029   3.0032738  49.3185787  63.3436696
   3.0026965  48.9503387  62.0227941   3.1580037  49.4688140  62.5898938
   2.1349390  41.6961749  64.8165731   1.8462638  41.0699220  65.3511458
   3.0032738  41.6382036  64.8830411   2.2209642  41.5949293  64.9056685
  12.9227288  36.8396532  65.1347713  12.5792053  36.1186867  65.4854962
  13.0220330  36.6310383  64.2926071  12.8869330  36.7020735  65.0619393
   5.3900398  50.9817822  61.3340721   6.0424456  50.4494264  61.5631748
   4.6926007  50.6286474  61.7208596   5.3831116  50.8507345  61.4252889
   2.3381663  43.3357000  60.7408096   3.0927631  43.7170039  60.9543558
   1.7452276  43.7868143  61.1954792   2.3618377  43.4585827  60.8390974
  13.3840317  43.3022236  60.6771701  13.9498349  43.9615446  60.5930244
  12.7368220  43.6471934  61.1488103  13.3719073  43.4504177  60.7344457
   3.6579890  44.5065561  66.1148211   3.1360643  44.6465853  66.8000076
   4.0453910  43.7476225  66.3050329   3.6383591  44.4151085  66.2449288
   9.8546895  46.2461020  60.1008780   9.6133571  45.5128881  59.6935845
  10.0348228  46.7947877  59.4475113   9.8454519  46.2183411  59.9439003
   5.0846215  41.5369580  61.5129702   4.8888998  42.1444314  60.9190005
   5.3080561  40.8437524  61.0321376   5.0880856  41.5247105  61.3545783
   3.4824745  38.4224318  61.6310571   4.2047397  38.5865476  61.1714377
   3.0032738  39.1433983  61.5249910   3.5188476  38.5522547  61.5476185
  11.4418253  34.7588117  67.0107256  10.6029354  34.7849396  66.7745519
  11.5122620  35.4058852  67.5912602  11.3286646  34.8584243  67.0616372
   9.8887531  31.6573494  61.7434871  10.5913884  31.4581242  61.2654830
   9.6231720  30.8849436  62.0503715   9.9534164  31.5136460  61.7180313
  15.3175777  39.9656103  64.2968497  15.2309751  40.1211530  65.1503276
  14.8626257  40.6094179  63.9227902  15.2379033  40.0831859  64.3675604
   9.1901593  37.2866851  62.9194057   8.9436307  37.2062601  63.7530846
   9.5186716  36.5020318  62.7256584   9.2022836  37.1593116  63.0141580
  13.0849642  43.9950210  66.7080838  12.9464001  44.6931256  67.2129580
  12.3049640  43.8398866  66.3517020  12.9492869  44.0750377  66.7307112
  11.4227727  40.2946585  72.9603220  11.4175765  39.4226402  72.9645646
  12.1288721  40.4934754  72.4872675  11.5272731  40.1950459  72.8910255
   5.1498620  40.0223569  72.3317040   5.2941996  40.6024777  71.6960150
   5.4974269  40.3999866  73.0366894   5.2226081  40.1644273  72.3416035
   7.3218537  39.2213738  70.1142171   6.5741851  39.4144752  69.7090450
   7.4760063  38.3958957  69.8766293   7.2340965  39.1278849  70.0187577
   4.2226375  48.2126341  69.1978067   4.3715939  47.6529257  68.5451471
   5.0026377  48.2918343  69.5810586   4.3600469  48.1411906  69.1575016
  14.5803014  43.3528464  57.4697337  14.2009823  42.5665602  57.4626627
  13.9169260  43.9015321  57.3268981  14.4261489  43.3173288  57.4478134
   6.7479676  48.3840984  70.4762558   6.6723347  47.7149794  71.0313346
   6.6769535  49.0858772  70.9903224   6.7260283  48.3885891  70.6339406
  12.0347640  26.2954163  64.8731418  12.1531209  26.7530627  64.1398721
  11.8609816  25.4899425  64.5867636  12.0266811  26.2447936  64.7232352
   7.4049923  46.9041983  61.3086164   8.1699814  46.6351626  60.9868828
   7.3028013  46.4191993  62.0256226   7.5031418  46.7931547  61.3665991
   5.4402692  35.1066392  67.8479399   4.6498767  34.9257852  68.1696735
   5.8363315  34.3293345  67.8309694   5.3819569  34.9653853  67.8931948
   9.9268583  43.9354166  53.2886113  10.6941568  43.9954291  52.8791965
   9.4799892  43.3634608  52.8042431   9.9742010  43.8590742  53.1563823
  10.8246379  42.7408822  65.5738845  10.1491381  42.5094055  66.0752232
  10.8338755  42.1330005  64.9480950  10.7264883  42.6167748  65.5554997
   7.9540523  37.5826651  72.3302898   7.8899664  38.4436608  72.2023035
   8.0937710  37.2658644  71.5298449   7.9655993  37.6626818  72.1931111
  12.8263113  45.5973955  57.8049023  12.9082951  46.4040941  57.4810474
  13.3112855  45.6169914  58.5289797  12.9100271  45.7194617  57.8635922
   6.6359617  40.2758791  66.4719101   6.2121866  40.4763290  65.7358119
   6.4604472  39.4287639  66.5843401   6.5470497  40.1807572  66.3792791
   1.9242062  40.7710842  61.9047074   2.0806681  40.7057645  62.7603066
   2.2642655  41.5459395  61.6925753   1.9975296  40.8760040  62.0001668
   8.4621206  40.1468726  60.7740437   9.0036752  39.6439107  61.2379057
   8.7767765  40.0933920  59.9629922   8.5885603  40.0648147  60.7224249
  12.3338314  44.3571373  77.8867349  13.1473179  44.0856522  78.0472481
  12.1733280  44.0578913  77.0827545  12.4308262  44.2726299  77.7912755
   6.6307656  45.5386077  58.0580465   6.7000476  44.6800616  58.1973465
   7.4096111  45.7557958  57.7299489   6.7560506  45.4438941  58.0297622
   9.6110476  35.0405030  70.8262737   9.8252445  34.4015944  70.2726091
   8.9944375  35.4850854  70.3970599   9.5515805  35.0115174  70.6813168
  11.0215143  47.9623778  62.2716958  10.6294935  47.6590494  61.5539824
  11.1768216  48.7992868  62.0821912  10.9868733  48.0407615  62.1373455
  11.7749564  36.6494095  71.7646044  10.9626245  36.3419986  71.8459217
  12.2339498  36.1693095  72.3288757  11.7229948  36.5330588  71.8600638
  11.1854818  44.5273767  62.2122989  10.8269473  44.6988410  62.9887021
  10.6993529  44.9886973  61.6550987  11.0613515  44.6212738  62.2448258
   9.0025204  28.1504966  65.8150080   8.1318762  28.1243687  65.7683390
   9.2565545  27.9782158  64.9975926   8.9118764  28.1215110  65.6870217
   5.9743184  40.2072933  54.7523223   6.2635708  40.9837815  55.0266797
   6.0614982  39.6961664  55.4537722   6.0297440  40.2464851  54.8965721
   6.0274345  30.1611194  67.2723550   5.5112833  29.4691386  67.3975129
   5.4668274  30.8281971  67.2186149   5.8680858  30.1574452  67.2829616
  12.3459558  45.4177663  73.1590190  12.9839278  44.9237859  72.8252646
  11.7033649  45.3455064  72.5742416  12.3453784  45.3336672  73.0232545
  14.0716558  37.2666809  67.7256105  13.6444166  37.1793158  66.9704205
  13.4342611  37.3744585  68.3110949  13.9146165  37.2699469  67.7001547
  12.4013814  46.1097472  69.7995546  13.1906192  45.7586536  69.9197628
  12.5757412  46.9233860  69.5372180  12.5434096  46.1783329  69.7783414
   2.1407125  39.5206197  66.8523335   1.2995131  39.4210071  67.0602229
   2.3497133  40.2901678  67.2037656   2.0471817  39.6198241  66.9350650
  11.2547638  30.1207028  64.3611965  11.4597232  30.0529336  65.2068962
  10.9274062  30.9265849  64.2933142  11.2362886  30.2292969  64.4771620
   5.9523789  37.4487596  66.1020933   5.6486927  36.8943585  66.7031340
   5.2503210  37.6279806  65.6148967   5.8039999  37.3932379  66.1190638
   5.0089887  34.7588116  60.6665635   5.2849621  34.0407029  60.2543202
   5.6088556  35.3573036  60.4586741   5.1383151  34.7408487  60.5746396
  14.5081326  30.6738793  63.8414730  13.8955640  31.1609195  64.2268462
  14.6045501  29.9982283  64.3852381  14.4319224  30.6457101  63.9793588
   8.5100407  32.4301634  58.9412230   8.9644154  32.6012194  59.6660074
   8.9840453  31.8169744  58.5410005   8.6468727  32.3652519  58.9885991
   2.0315932  41.9149960  68.2714968   1.4403866  42.5559458  68.2417983
   2.7936956  42.3387577  68.2446268   2.0564193  42.0725798  68.2630115
  18.1506354  41.7455729  69.2692246  18.2089478  42.1942378  70.0152223
  17.5172822  42.1554542  68.8322326  18.0657649  41.8729464  69.3144795
  11.7905449  47.3659271  65.7046992  11.5925137  47.8550086  65.0103204
  11.1693160  47.5700513  66.2831126  11.6693013  47.4675809  65.6870216
   5.8513427  39.1344168  60.0457237   6.5955472  39.5218444  60.2840187
   5.9974123  38.2901593  60.2097725   5.9824012  39.0674641  60.1051206
   7.7693003  30.9294427  65.0789098   6.9229048  31.1017235  64.9530448
   7.7664135  30.1243771  65.4154927   7.6440152  30.8355456  65.1100225
   8.8391303  34.7069641  65.9451156   8.3651257  34.1811403  66.4556467
   9.2109439  34.1599114  65.3766018   8.8241192  34.5485638  65.9366303
  15.1028033  39.7672017  67.3557937  14.8626256  38.9278432  67.3600363
  15.5820041  39.8472184  68.0798710  15.1380217  39.6553417  67.4632739
  10.7674803  35.6006196  59.0076910  10.2397821  35.6834940  58.3182619
  11.2270511  36.3424067  59.0041555  10.7576653  35.7226858  58.9051605
  17.1033221  36.5473474  65.3087196  16.8642990  36.5069308  64.4707980
  17.2667122  37.3944626  65.4352917  17.0923524  36.6665559  65.2040678
  13.7079251  40.9323423  71.2392241  14.4313450  40.4795950  71.0603261
  13.4429213  41.2128089  70.4564569  13.7760524  40.9074392  71.0970956
   2.5766119  35.5283597  67.9745120   1.9519189  35.5401989  67.3671073
   2.2411714  36.0043772  68.6236360   2.4351611  35.6002114  67.9801689
   2.7607868  33.8708715  54.0317805   2.4120672  34.5228441  54.4949354
   2.2804314  33.8565829  53.3041676   2.6378112  33.9651769  53.9928896
  10.3211885  44.1709759  58.1386567  11.0446084  44.6367872  57.9951140
   9.8812476  44.2383369  57.3884164  10.3627577  44.2493596  58.0071348
   9.4898040  41.0307302  69.3887256   8.8755033  40.4865352  69.6835891
  10.0065325  40.5171538  68.9093072   9.4753703  40.8743711  69.3611484
   8.7294337  42.1011572  67.1231555   8.3021945  41.4761290  66.6896990
   8.7219282  41.8186494  67.9490562   8.6653478  41.9664352  67.1811382
   7.0580047  32.9780326  67.3374089   7.0822534  32.4440439  66.6486869
   7.3091521  32.4697635  67.9999679   7.0989966  32.8241230  67.3338733
   3.3381369  31.7051145  66.7179833   3.3779741  32.2060351  67.4314540
   2.5131034  31.7961538  66.4485756   3.2220895  31.7932961  66.7830371
   4.7595733  38.2211654  69.0153732   3.9287662  38.3885472  68.8088980
   4.7047250  37.8447605  69.8002617   4.6285147  38.1901386  69.1002260
   3.1331776  36.4967246  59.5443850   3.2734738  36.9939710  60.2472491
   3.6314309  35.7953540  59.6858063   3.2272857  36.4669225  59.6695429
   3.1631999  37.3634357  56.8736426   3.7977078  37.9594782  56.8085888
   3.2457610  37.0637815  57.6882297   3.2688550  37.4075265  56.9839513
  16.1414565  39.8949834  69.7422791  16.7332405  40.5347085  69.7740989
  16.5773559  39.1972871  70.0314857  16.2932996  39.8868185  69.7903623
   4.7410982  33.2948332  56.8481868   5.0626823  32.8151415  56.1941131
   5.0037925  34.1047978  56.6572680   4.8277007  33.3438230  56.7237360
   7.9707954  44.3167207  70.3680685   7.4633046  44.8703054  70.8121315
   7.6734601  44.3775497  69.5499459   7.8512839  44.4073518  70.3129141
  10.1370137  32.6820526  69.2105348  10.5625208  32.2293053  68.5988874
   9.5227130  32.1280597  69.4870135  10.1098782  32.5334503  69.1610373
  10.5815735  48.2330464  58.2984628   9.8645044  48.0591327  57.8331865
  11.2322472  47.9983037  57.7660114  10.5717585  48.1726257  58.1513846
   8.5764360  29.1535626  62.6195925   7.9332677  29.0033272  63.1881063
   8.2363766  28.9077971  61.8545029   8.4309437  29.0947749  62.5898940
  13.1663706  37.1095053  62.0425933  12.4954896  37.6524755  61.9138999
  13.8603456  37.5789908  61.8007628  13.1692573  37.2593324  61.9881461
   7.2150440  49.2491765  67.2737691   6.9916094  48.4910594  67.6421718
   6.7260283  49.2789786  66.5518131   7.1093889  49.1413989  67.2214432
  13.3291833  33.5650937  64.9516306  13.6819444  33.1380659  65.6262105
  12.4706635  33.4801780  65.0817383  13.2541278  33.4895677  65.0711317
   2.0275518  36.1958456  63.0099153   1.3087508  36.6122589  63.2772016
   2.3987881  36.7612695  62.4590791   1.9767450  36.3407738  62.9681960
  11.3275099  36.8286305  68.9001149  11.3073027  36.6469600  69.7535927
  11.3754300  37.6998324  68.8760732  11.3309740  36.9302843  69.0224443
   9.2721429  43.4173497  74.8249625   9.2317284  42.7723174  74.2394781
  10.0844747  43.3610115  75.1375037   9.3864583  43.3132464  74.7846574
   5.8628897  49.4692223  64.7274776   5.4489295  48.8066353  64.3378618
   6.5476271  49.6170082  64.2070470   5.9027268  49.3932881  64.5931273
   9.2294191  48.6282308  65.4798393   8.8310474  48.7384579  64.7119213
   8.6145410  48.8364375  66.0624952   9.0793080  48.6755876  65.4529692
   7.8022093  35.2356456  58.3472532   7.2086932  35.5573453  57.7957099
   7.8397370  34.3897552  58.1393638   7.7196482  35.1580784  58.2355304
  14.7615894  28.6869348  65.8800619  14.2546758  27.9798488  65.8121796
  15.5583327  28.3562537  66.0101695  14.8043133  28.5342500  65.8899614
  10.6779909  35.1935961  61.7774283  10.4493602  35.2168662  60.9352641
  10.9377986  34.3693428  61.8969293  10.6826097  35.0752041  61.6699480
   3.7324672  33.7312507  63.0728478   4.2082038  34.0929587  62.4378659
   3.2313272  34.3868975  63.3528621   3.7290031  33.8806696  63.0205219
  16.9636033  43.2034275  58.8641483  17.3469639  43.9525631  59.0939580
  16.1680147  43.4500095  58.6053472  16.9029816  43.3503969  58.8599057
   5.7751325  35.8753707  56.4401862   6.1550290  35.8933336  55.6552977
   5.0343921  36.3207696  56.3192710   5.7220163  35.9435481  56.3065430
  13.4036616  34.1835898  62.0277441  13.4030842  34.0284554  62.8861717
  13.1992796  35.0298885  61.9718826  13.3736393  34.2856519  62.1465380
  11.1277468  38.8633400  65.6813648  11.6231133  38.1456395  65.6417668
  10.3177243  38.5604197  65.5668135  11.0821361  38.7131046  65.6587374
   6.5736079  42.7131213  57.8310652   5.7647402  42.3897887  57.7843962
   7.0810988  42.0064435  57.7638901   6.5285746  42.5612529  57.8140947
  13.1929286  41.6137087  68.3690777  13.6184358  41.0911509  67.8161202
  12.8286206  42.2117925  67.8479399  13.2015889  41.6247314  68.2099786
   2.8283366  49.9101305  67.1288122   3.1429925  50.7237693  67.1365904
   3.2376780  49.5251523  67.7970281   2.9351464  49.9730007  67.2292214
   9.7807886  45.3271351  64.6991934  10.2519064  46.0411614  64.8681919
  10.1168064  44.7270102  65.2351803   9.9003001  45.3442816  64.8024310
  10.4181832  45.1189286  71.4619627   9.8702778  44.4947169  71.1939692
  10.8794861  45.3083558  70.7463706  10.4049042  45.0548336  71.3170058
  13.2275697  33.1874640  68.8470819  12.6438685  33.6883847  68.4348386
  13.5479991  32.6804196  68.2135142  13.1888872  33.1866475  68.6929326
   5.7670496  32.1015235  59.1229494   6.5886190  32.2713548  58.8811189
   5.3040147  32.2562496  58.3995791   5.8201658  32.1496968  58.9801138
   9.9840159  46.1240358  67.9928968  10.8038532  45.9803324  68.2545263
   9.7034236  46.7486557  68.5345406  10.0636902  46.1950710  68.1116907
  26.4553809  53.7805210  60.9571844  26.4247813  54.6349847  61.1290114
  27.0535158  53.4800503  61.5157988  26.5390967  53.8621707  61.0646646
  19.6553494  52.8680861  65.7124775  18.7991389  53.0289359  65.7633891
  19.7021147  51.9972925  65.7329836  19.5352605  52.7631663  65.7230841
  14.0394633  62.4043579  61.4762006  13.2877533  62.0259117  61.2478051
  14.4880645  62.4362013  60.7280816  13.9944300  62.3529186  61.3319508
  22.9647210  59.1367387  75.3185231  23.6713978  58.6419417  75.4472165
  23.1535146  59.5776468  74.5887889  23.0975116  59.1285737  75.2294276
  19.4919593  62.8268948  56.9047553  19.1570962  63.5045870  56.4691775
  20.0046464  62.4374260  56.3164425  19.5185174  62.8693527  56.7534345
  19.0323885  64.7783217  62.8458665  19.4163264  65.3470116  62.3063440
  18.9683026  64.0532727  62.3664481  19.0797312  64.7558681  62.6952527
  22.5005315  54.9272905  68.3556426  23.0461275  55.6057992  68.4150396
  22.4422191  54.7860366  67.4958008  22.5721229  55.0064907  68.2368487
  15.6179390  62.4161971  63.7424779  15.7189753  61.6062325  64.0521906
  15.0221135  62.3218917  63.1124457  15.5451928  62.2826999  63.6951017
  24.2770383  56.3557512  59.2290154  24.1609909  57.1065198  59.6582292
  25.0726270  56.0981465  59.4786241  24.3774973  56.4292359  59.3294246
  15.4580129  67.3339560  65.1439635  16.1017585  67.7752724  65.5335793
  15.7836385  66.5292986  65.0569893  15.6011958  67.2804755  65.1885112
   8.8144434  58.4382258  63.3677112   8.5794618  57.6049910  63.2609381
   8.9530075  58.7186923  62.5538313   8.8000096  58.3565761  63.2319467
  11.1134521  50.6067988  66.2661420  10.4939553  50.0160635  66.0971435
  11.0118385  51.1979423  65.6325743  11.0072197  50.6072071  66.1466410
  16.1600709  60.3451535  60.5159496  16.4816550  60.8856742  59.9120804
  16.8072805  59.7748306  60.6481786  16.3026764  60.3410710  60.4466532
  18.2102417  52.3467530  60.5993883  18.9082582  52.5255658  61.0915346
  18.5254750  51.8237869  59.9764272  18.3597754  52.2961302  60.5795893
  10.8403654  54.1520270  68.5104989  10.7162351  54.7382715  69.1454808
  11.4921939  53.6580466  68.8117264  10.9177304  54.1659074  68.6490918
  18.3990352  58.7337975  60.5873675  18.8383988  58.1255076  61.0328447
  18.2495015  58.3545348  59.8159140  18.4411818  58.5876446  60.5392842
  15.8661995  57.3281987  67.7892500  16.5110998  56.8354430  67.4703449
  16.1063772  57.4706773  68.6158578  15.9972581  57.2759429  67.8642033
  18.4048087  60.1736893  67.4399393  18.6871330  59.3788298  67.2186149
  19.1334247  60.6517480  67.4604454  18.5537650  60.1271490  67.4102408
  16.3829281  47.7159927  64.6815158  16.0532611  48.1671070  64.0118856
  15.7074282  47.6376090  65.2288164  16.2339717  47.7711062  64.6638381
  21.9999689  57.0865156  57.5404444  21.9150984  57.9426123  57.6854013
  22.4884072  56.8109480  58.2086603  22.0588586  57.1722478  57.6606525
  23.5905688  43.7045450  62.9264768  23.2759129  44.3948928  63.3585191
  23.0732630  43.6490232  62.2250269  23.4670159  43.7980338  62.8861718
  22.9318122  53.7049951  59.0402179  22.4029594  53.9209584  59.6999485
  23.4543142  54.3986089  58.9603148  22.9306575  53.8393087  59.1257778
  28.3866175  59.2796255  64.4135223  27.5563878  59.4906899  64.5768640
  28.3375427  58.4533310  64.1377507  28.2572911  59.1885861  64.3972589
  14.8217730  57.6013167  57.8409647  14.2374945  58.1063199  58.2475511
  14.4187825  57.3755554  57.1006239  14.6757034  57.6421416  57.7914672
  10.3761759  63.3167928  64.6433318   9.8929337  64.0418418  64.6192902
  11.1885077  63.6144058  64.7543476  10.4252506  63.4670282  64.6560598
  16.4475913  62.1100109  67.2483133  15.9302854  61.7507524  66.6444441
  17.1450304  61.5862284  67.2589199  16.4741494  61.9797797  67.1613392
  20.1039505  62.5594923  73.2099306  20.1922850  62.3721064  74.0577516
  20.5329217  61.9132353  72.8104153  20.1801607  62.4357931  73.2771057
  19.2794944  53.8478819  56.3178568  19.5190948  54.0556803  55.5053911
  19.6010785  53.0436328  56.4267512  19.3632102  53.7592921  56.2139121
  14.5885235  45.7772215  60.1638105  15.3431203  46.1450532  59.9255156
  14.4112769  46.1511769  60.9317285  14.6739713  45.8870403  60.2422994
  13.2305956  63.8324104  64.7953598  13.9326535  63.3176093  64.8526355
  13.1503439  64.1598256  65.6000473  13.3229716  63.8038331  64.9226391
  27.8820133  51.9266656  68.2085645  27.0448554  51.9968843  68.4433239
  27.8508364  51.9291150  67.3359947  27.7538416  51.9376883  68.1145193
  14.2784862  54.0699691  73.9234013  14.4505366  53.9605586  74.7719295
  14.8154220  54.7154097  73.6865206  14.3829866  54.1491693  74.0139110
  12.9442299  48.1842534  56.8616218  12.7617873  48.4014415  56.0357211
  13.8067912  48.2981547  56.9174833  13.0446889  48.2332432  56.7470705
  12.5556731  60.0230456  64.3039206  13.3945631  60.2553389  64.3512968
  12.5868500  59.1534768  64.2346242  12.6838449  59.9287403  64.3003851
  13.1809434  60.4431332  68.6052512  13.7207659  60.3002463  69.2755884
  12.4979381  60.8428082  68.9736538  13.1601588  60.4811002  68.7586934
  18.6242019  45.1868945  59.8965242  19.3528179  45.0084900  59.4503399
  18.7136911  46.0287025  60.1072420  18.7448681  45.2852823  59.8618760
  22.6050319  56.1222332  63.7997536  23.3607834  56.5553847  63.8386445
  22.7112644  55.4727102  64.3732172  22.7320490  56.0899816  63.8895562
  25.6430490  59.9495609  64.5499939  25.2065722  59.9532352  65.3058911
  25.3093406  60.6301108  64.1179517  25.5293110  60.0508065  64.5980772
  25.5627973  46.9909437  66.7929367  26.2053882  47.0607542  67.3791282
  25.8150994  46.3238660  66.2908909  25.6950105  46.9035786  66.8056646
  12.4904326  51.4616707  55.3738692  11.7762503  51.1754886  55.7861124
  12.9748295  51.8013333  56.0145079  12.4563690  51.4698356  55.5294326
  13.3345186  50.2010001  71.4053941  12.6416983  49.7306980  71.6514673
  13.9505513  49.9748305  71.9795648  13.3229716  50.0977132  71.5263094
  20.3729957  63.9014044  69.5209545  19.5745203  63.6613544  69.7783414
  20.8215969  63.9528437  70.2676593  20.3204569  63.8736435  69.6694469
  28.7774837  56.6676529  63.4419576  29.4391271  56.1067198  63.3415485
  28.1366249  56.1728560  63.7672268  28.7803704  56.5112938  63.4751917
  19.6651644  59.9646661  55.7500500  20.0802793  59.6331685  55.0584995
  18.8343574  59.7315563  55.6220636  19.6039653  59.8817917  55.6291347
   8.9939993  57.4490402  66.0398678   8.8115566  57.4237288  65.1870970
   9.7289662  57.9189340  66.0787586   9.0754057  57.5151764  65.9196596
  25.0639667  57.6841912  63.1831565  25.2995256  57.8287111  62.3558416
  25.2129231  58.4484320  63.5763079  25.1205471  57.8180966  63.1195169
  12.0585745  54.1675405  72.5480786  12.7825717  54.1528435  73.0345681
  12.1601881  54.8770760  72.0502755  12.1803954  54.2700108  72.5459573
  26.8930124  56.5243578  61.0201169  27.2238341  57.0571218  60.4141264
  27.4663212  56.5782465  61.6763120  27.0263803  56.6113146  61.0278951
  22.1062013  54.3708480  61.7024749  22.2008867  55.1097774  62.1564375
  21.4820857  53.9425956  62.1359314  22.0271043  54.4169801  61.8332897
  20.3614487  57.5494693  72.3515030  20.9353349  56.9121937  72.5063594
  20.2829291  57.5498775  71.4824688  20.4347722  57.4559804  72.2461441
   8.9610903  54.3283902  66.1897744   9.5384406  54.1920353  66.8289990
   8.2624965  53.8719687  66.4443329   8.9431925  54.2406169  66.3220034
  22.3585034  56.2157220  54.9361701  22.2765197  56.2859407  55.8016688
  22.9964755  56.7786964  54.7445442  22.4404872  56.3096191  55.0351651
  15.7178206  55.9817958  64.4036227  15.4597450  55.1489693  64.3767527
  15.7726688  56.2075571  63.5628728  15.6877983  55.8915729  64.2756364
  20.7979256  48.0846409  64.5040320  20.0935582  47.5955594  64.6624239
  20.8464230  48.0968883  63.6328765  20.7009307  48.0136057  64.3979660
  14.6912918  53.5355721  64.8901122  14.1162509  53.6947889  65.5265083
  14.3148594  52.8991130  64.4269573  14.5515730  53.4653533  64.9155681
  18.3586206  52.0079070  69.7493501  17.9700639  51.5833288  69.0945692
  17.6940905  52.2561219  70.2570527  18.2033134  51.9817791  69.7281369
  28.0009475  51.7654074  62.5241331  27.7446040  50.9534016  62.3339213
  28.8438789  51.7731642  62.2971518  28.0875501  51.6466072  62.4626148
   4.4369737  53.1795795  62.9045563   4.5229988  52.8027664  63.6859093
   5.0645534  52.8056241  62.4265521   4.5426288  53.0681277  62.9491040
  22.1812568  45.7053699  67.2617485  22.5623080  45.0231870  67.6485359
  21.3775852  45.4163301  67.0793149  22.1189030  45.5620747  67.2921541
  19.4625145  56.2377674  57.9470308  20.2765783  56.5292567  57.8353079
  19.3984286  55.5837537  57.3728601  19.5727884  56.1842869  57.8459145
  25.6834635  58.9203671  72.3599883  25.4473272  58.0891735  72.2411944
  26.3277864  58.8689278  72.9454727  25.7429306  58.7901358  72.4285777
  15.3333053  59.7099192  63.0742620  15.9707000  59.4710939  63.6194413
  15.7588124  59.9136351  62.3395780  15.4909219  59.7050202  63.0459777
  15.9735868  54.9301482  57.4117509  16.3581021  54.7109188  58.1634054
  15.7247488  55.7564427  57.5418585  15.9937940  55.0199628  57.5418586
  16.1404408  48.2107897  77.1280093  15.8257849  48.9807460  76.8649656
  15.8194341  47.6478153  76.5432320  16.0463327  48.2418166  77.0021443
  26.7071055  58.7048119  68.4228178  26.4016872  59.4376176  68.7841493
  25.9877271  58.2986049  68.1420964  26.5558398  58.7529852  68.4341315
  17.7154525  60.1871614  64.7536406  17.7893533  60.0246786  65.6078256
  18.5324031  60.3761804  64.5096888  17.8470883  60.1908357  64.8434432
  32.4072848  55.3441120  67.7496522  32.3397348  55.3637079  66.8799109
  32.3928510  56.1871447  67.9752193  32.3951604  55.4714855  67.6548999
  11.4760282  60.5329477  61.7830849  10.6498399  60.7791214  61.6565128
  11.5372273  60.4541558  62.6492908  11.3634448  60.5574426  61.8919794
  13.6936305  46.5998418  62.7426290  12.8258731  46.6721018  62.8083899
  13.9811510  47.4020497  62.9314265  13.6076053  46.7292565  62.7801056
  22.8169194  46.7476278  71.0737611  23.5622786  46.5586088  70.6601037
  22.4006499  47.2734516  70.5151468  22.8654168  46.7978423  70.9302185
  16.2559111  63.1506358  59.4849879  16.5457409  62.7595339  58.7609106
  16.9862591  63.3323062  59.9255155  16.4065995  63.1200171  59.4432686
  30.1931465  54.1185506  66.0243116  30.7439386  53.4853575  66.2640209
  30.1775580  54.6500899  66.7158621  30.2716661  54.1034454  66.1621975
  16.8453856  57.9524103  70.5703010  16.3465549  58.6639871  70.6487898
  17.6554080  58.2724770  70.5321172  16.8909962  58.1050952  70.5759578
  14.1965026  65.1273740  62.5510029  13.9765322  64.8371095  63.3436696
  13.9759548  64.4688695  62.0227941  14.1312620  64.9873448  62.5898938
  13.1081973  57.2147056  64.8165731  12.8195222  56.5884528  65.3511458
  13.9765321  57.1567344  64.8830411  13.1942225  57.1134601  64.9056685
  23.8959871  52.3581840  65.1347713  23.5524637  51.6372175  65.4854962
  23.9952914  52.1495691  64.2926071  23.8601914  52.2206043  65.0619393
  16.3632982  66.5003130  61.3340721  17.0157040  65.9679572  61.5631748
  15.6658591  66.1471782  61.7208596  16.3563700  66.3692653  61.4252889
  13.3114247  58.8542308  60.7408096  14.0660215  59.2355347  60.9543558
  12.7184859  59.3053451  61.1954792  13.3350960  58.9771135  60.8390974
  24.3572900  58.8207544  60.6771701  24.9230933  59.4800754  60.5930244
  23.7100804  59.1657242  61.1488103  24.3451657  58.9689485  60.7344457
  15.7720914  50.8105148  75.8665308  14.9620689  51.1162928  75.7555150
  16.2495600  51.5310730  75.9817892  15.7224392  50.9619749  75.8672379
  14.6312473  60.0250869  66.1148211  14.1093227  60.1651161  66.8000076
  15.0186494  59.2661533  66.3050329  14.6116174  59.9336393  66.2449288
  11.6203657  50.0756678  60.1843166  11.3328453  49.7057948  59.4475113
  12.3074126  50.5451533  59.9226871  11.6792555  50.0903647  60.0358242
  20.8279478  61.7646328  60.1008780  20.5866154  61.0314189  59.6935845
  21.0080811  62.3133185  59.4475113  20.8187102  61.7368719  59.9439003
  16.0578799  57.0554888  61.5129702  15.8621582  57.6629622  60.9190005
  16.2813144  56.3622832  61.0321376  16.0613440  57.0432413  61.3545783
  14.4557329  53.9409626  61.6310571  15.1779981  54.1050784  61.1714377
  13.9765322  54.6619291  61.5249910  14.4921060  54.0707855  61.5476185
  22.4150837  50.2773425  67.0107256  21.5761937  50.3034703  66.7745519
  22.4855204  50.9244160  67.5912602  22.3019230  50.3769550  67.0616372
  20.8620115  47.1758802  61.7434871  21.5646468  46.9766550  61.2654830
  20.5964304  46.4034744  62.0503715  20.9266747  47.0321768  61.7180313
  26.2908360  55.4841411  64.2968497  26.2042335  55.6396837  65.1503276
  25.8358840  56.1279487  63.9227902  26.2111617  55.6017166  64.3675604
   9.1931852  50.8537890  61.0328447   9.2947988  51.6564051  61.3609422
   9.9887739  50.6525226  60.7351528   9.3259758  50.9423789  61.0363802
  15.6248671  48.4394087  70.7965752  15.4331868  48.4549221  71.6465176
  16.4747267  48.6357761  70.7732407  15.7224393  48.4708438  70.9189047
  10.0095584  50.9685068  68.7749569   9.8681076  50.1169009  68.8994076
  10.2936147  51.0113729  67.9511775  10.0303430  50.8484818  68.6717193
  20.1634176  52.8052158  62.9194057  19.9168891  52.7247909  63.7530846
  20.4919299  52.0205626  62.7256584  20.1755420  52.6778424  63.0141580
  24.0582225  59.5135518  66.7080838  23.9196585  60.2116564  67.2129580
  23.2782223  59.3584174  66.3517020  23.9225452  59.5935684  66.7307112
  22.3960310  55.8131893  72.9603220  22.3908349  54.9411710  72.9645646
  23.1021304  56.0120062  72.4872675  22.5005314  55.7135767  72.8910255
  16.1231204  55.5408877  72.3317040  16.2674579  56.1210085  71.6960150
  16.4706852  55.9185174  73.0366894  16.1958665  55.6829581  72.3416035
  18.2951121  54.7399045  70.1142171  17.5474435  54.9330060  69.7090450
  18.4492646  53.9144265  69.8766293  18.2073549  54.6464157  70.0187577
  15.1958959  63.7311649  69.1978067  15.3448522  63.1714565  68.5451471
  15.9758961  63.8103651  69.5810586  15.3333052  63.6597214  69.1575016
  25.5535598  58.8713772  57.4697337  25.1742407  58.0850910  57.4626627
  24.8901843  59.4200629  57.3268981  25.3994073  58.8358596  57.4478134
  17.7212259  63.9026292  70.4762558  17.6455930  63.2335102  71.0313346
  17.6502118  64.6044080  70.9903224  17.6992866  63.9071199  70.6339406
  18.5352898  48.6349596  71.0037575  18.9925512  49.3673570  71.1310367
  18.6109227  48.2116061  71.7624831  18.6143868  48.6806834  71.1338652
  10.7785889  48.8815416  72.0927019  10.2428079  48.2695774  72.4087786
  10.8403654  49.4563552  72.7460686  10.7081522  48.8762344  72.2362446
  23.0080224  41.8139471  64.8731418  23.1263792  42.2715935  64.1398721
  22.8342400  41.0084733  64.5867636  22.9999395  41.7633243  64.7232352
  18.3782506  62.4227291  61.3086164  19.1432397  62.1536934  60.9868828
  18.2760596  61.9377301  62.0256226  18.4764002  62.3116855  61.3665991
  16.4135276  50.6251700  67.8479399  15.6231351  50.4443160  68.1696735
  16.8095899  49.8478653  67.8309694  16.3552152  50.4839161  67.8931948
  20.9001167  59.4539474  53.2886113  21.6674152  59.5139599  52.8791965
  20.4532476  58.8819916  52.8042431  20.9474594  59.3776050  53.1563823
  21.7978962  58.2594130  65.5738845  21.1223964  58.0279362  66.0752232
  21.8071338  57.6515313  64.9480950  21.6997467  58.1353055  65.5554997
  18.9273106  53.1011959  72.3302898  18.8632247  53.9621916  72.2023035
  19.0670294  52.7843952  71.5298449  18.9388576  53.1812126  72.1931111
  23.7995697  61.1159263  57.8049023  23.8815534  61.9226249  57.4810474
  24.2845439  61.1355222  58.5289797  23.8832855  61.2379925  57.8635922
  17.6092200  55.7944099  66.4719101  17.1854449  55.9948598  65.7358119
  17.4337055  54.9472947  66.5843401  17.5203081  55.6992880  66.3792791
  12.8974645  56.2896150  61.9047074  13.0539264  56.2242953  62.7603066
  13.2375238  57.0644703  61.6925753  12.9707880  56.3945348  62.0001668
  19.4353790  55.6654034  60.7740437  19.9769335  55.1624415  61.2379057
  19.7500349  55.6119228  59.9629922  19.5618187  55.5833454  60.7224249
  23.3070897  59.8756681  77.8867349  24.1205762  59.6041830  78.0472481
  23.1465863  59.5764221  77.0827545  23.4040846  59.7911607  77.7912755
  17.6040239  61.0571385  58.0580465  17.6733060  60.1985924  58.1973465
  18.3828695  61.2743266  57.7299489  17.7293090  60.9624249  58.0297622
  20.5843059  50.5590338  70.8262737  20.7985029  49.9201252  70.2726091
  19.9676958  51.0036162  70.3970599  20.5248388  50.5300482  70.6813168
  21.9947727  63.4809086  62.2716958  21.6027519  63.1775802  61.5539824
  22.1500799  64.3178176  62.0821912  21.9601317  63.5592923  62.1373455
   9.4708907  53.4731100  62.2207841   9.8507871  53.8915645  61.5568108
   8.8964271  54.0544556  62.5276684   9.4420231  53.6208959  62.1684582
  22.7482147  52.1679403  71.7646044  21.9358829  51.8605294  71.8459217
  23.2072082  51.6878403  72.3288757  22.6962532  52.0515896  71.8600638
  22.1587402  60.0459075  62.2122989  21.8002057  60.2173718  62.9887021
  21.6726113  60.5072281  61.6550987  22.0346099  60.1398046  62.2448258
  19.9757788  43.6690274  65.8150080  19.1051346  43.6428995  65.7683390
  20.2298129  43.4967466  64.9975926  19.8851348  43.6400417  65.6870217
  16.9475767  55.7258241  54.7523223  17.2368292  56.5023123  55.0266797
  17.0347566  55.2146972  55.4537722  17.0030023  55.7650159  54.8965721
  19.8435655  53.5739475  76.5474747  20.3135286  54.1981591  76.9342621
  19.8897535  52.9056450  77.1067961  19.9203530  53.5674155  76.6874818
  17.0006928  45.6796502  67.2723550  16.4845417  44.9876694  67.3975129
  16.4400857  46.3467279  67.2186149  16.8413442  45.6759760  67.2829616
  19.0699162  46.2189462  69.1016403  18.6830915  46.2438494  69.8829933
  18.5832099  45.6531141  68.6490920  18.9411671  46.1385213  69.1504307
  23.3192141  60.9362971  73.1590190  23.9571862  60.4423167  72.8252646
  22.6766233  60.8640372  72.5742416  23.3186368  60.8521980  73.0232545
  25.0449141  52.7852117  67.7256105  24.6176749  52.6978466  66.9704205
  24.4075194  52.8929893  68.3110949  24.8878748  52.7884777  67.7001547
  18.7356303  43.1056448  71.3926663  19.3649421  43.6416748  71.1147733
  18.9042166  43.0133807  72.2440229  18.8534098  43.1717810  71.4775191
  18.5370218  47.8927642  73.6653075  19.3643648  47.6212791  73.7211689
  18.5578064  48.6888484  74.0216893  18.6623068  47.9707397  73.7268257
  23.3746398  61.6282779  69.7995546  24.1638776  61.2771844  69.9197628
  23.5489996  62.4419168  69.5372180  23.5166679  61.6968637  69.7783414
  13.1139708  55.0391505  66.8523335  12.2727715  54.9395379  67.0602229
  13.3229716  55.8086985  67.2037656  13.0204401  55.1383549  66.9350650
  10.5915275  52.6611042  64.6808086  10.1971973  52.7354054  63.9058195
  10.0355392  53.0468989  65.2316448  10.4518087  52.7292817  64.6475746
  22.2280222  45.6392336  64.3611965  22.4329815  45.5714644  65.2068962
  21.9006646  46.4451157  64.2933142  22.2095470  45.7478277  64.4771620
  16.9256373  52.9672904  66.1020933  16.6219511  52.4128893  66.7031340
  16.2235794  53.1465114  65.6148967  16.7772583  52.9117687  66.1190638
  15.9822470  50.2773424  60.6665635  16.2582204  49.5592337  60.2543202
  16.5821139  50.8758344  60.4586741  16.1115735  50.2593795  60.5746396
  25.4813910  46.1924100  63.8414730  24.8688223  46.6794503  64.2268462
  25.5778085  45.5167591  64.3852381  25.4051807  46.1642409  63.9793588
  19.4832991  47.9486942  58.9412230  19.9376737  48.1197502  59.6660074
  19.9573036  47.3355052  58.5410005  19.6201311  47.8837827  58.9885991
  13.0048516  57.4335268  68.2714968  12.4136449  58.0744766  68.2417983
  13.7669540  57.8572885  68.2446268  13.0296777  57.5911106  68.2630115
  13.4009139  48.5937265  68.9382986  13.8610620  48.6676195  69.6758109
  13.4465246  49.3918519  68.5882807  13.4759694  48.7231412  68.9955742
  15.0492489  49.2603960  73.5055013  14.6578054  48.6137307  73.9410791
  15.2178351  49.8515395  74.1249268  15.0163399  49.2518228  73.6617719
  29.1238938  57.2641037  69.2692246  29.1822061  57.7127686  70.0152223
  28.4905405  57.6739850  68.8322326  29.0390233  57.3914772  69.3144795
  22.7638032  62.8844579  65.7046992  22.5657721  63.3735394  65.0103204
  22.1425743  63.0885821  66.2831126  22.6425597  62.9861117  65.6870216
  16.8246011  54.6529476  60.0457237  17.5688056  55.0403752  60.2840187
  16.9706707  53.8086901  60.2097725  16.9556596  54.5859949  60.1051206
  18.7425586  46.4479735  65.0789098  17.8961631  46.6202543  64.9530448
  18.7396719  45.6429079  65.4154927  18.6172736  46.3540764  65.1100225
  19.8123886  50.2254949  65.9451156  19.3383841  49.6996711  66.4556467
  20.1842022  49.6784422  65.3766018  19.7973775  50.0670946  65.9366303
  10.1896917  52.2226456  71.3134702  11.0522530  52.1222165  71.2272032
   9.8588700  51.6421165  70.7520274  10.2682113  52.1218083  71.2180108
  26.0760617  55.2857325  67.3557937  25.8358840  54.4463740  67.3600363
  26.5552624  55.3657492  68.0798710  26.1112801  55.1738725  67.4632739
  21.7407386  51.1191504  59.0076910  21.2130405  51.2020248  58.3182619
  22.2003094  51.8609375  59.0041555  21.7309237  51.2412166  58.9051605
  28.0765804  52.0658782  65.3087196  27.8375574  52.0254616  64.4707980
  28.2399705  52.9129934  65.4352917  28.0656108  52.1850867  65.2040678
  24.6811834  56.4508731  71.2392241  25.4046033  55.9981258  71.0603261
  24.4161797  56.7313397  70.4564569  24.7493108  56.4259700  71.0970956
  13.5498703  51.0468905  67.9745120  12.9251773  51.0587297  67.3671073
  13.2144297  51.5229080  68.6236360  13.4084194  51.1187422  67.9801689
  13.7340451  49.3894023  54.0317805  13.3853256  50.0413749  54.4949354
  13.2536897  49.3751136  53.3041676  13.6110695  49.4837077  53.9928896
  21.2944469  59.6895067  58.1386567  22.0178668  60.1553180  57.9951140
  20.8545060  59.7568677  57.3884164  21.3360161  59.7678904  58.0071348
  20.4630624  56.5492610  69.3887256  19.8487617  56.0050660  69.6835891
  20.9797909  56.0356846  68.9093072  20.4486286  56.3929019  69.3611484
  19.7026921  57.6196880  67.1231555  19.2754529  56.9946598  66.6896990
  19.6951865  57.3371802  67.9490562  19.6386062  57.4849660  67.1811382
  12.8189448  52.6562053  70.1919989  12.9782935  51.9005377  70.5971710
  12.6382342  53.2052992  70.8460726  12.8154807  52.6255866  70.3482695
  20.7609751  44.8223288  70.7470778  20.2650312  45.0186963  70.0562345
  21.5178813  45.2215957  70.5759580  20.7996576  44.9101022  70.6190915
  18.0312631  48.4965634  67.3374089  18.0555118  47.9625747  66.6486869
  18.2824104  47.9882943  67.9999679  18.0722549  48.3426538  67.3338733
  14.3113953  47.2236452  66.7179833  14.3512324  47.7245659  67.4314540
  13.4863617  47.3146846  66.4485756  14.1953479  47.3118269  66.7830371
  15.7328316  53.7396962  69.0153732  14.9020246  53.9070780  68.8088980
  15.6779833  53.3632913  69.8002617  15.6017731  53.7086694  69.1002260
  13.5412099  47.2305855  74.6510143  14.1664803  46.6867988  74.9239575
  13.0862579  46.7500773  74.0817933  13.5660360  47.0795337  74.6071736
  14.1064360  52.0152554  59.5443850  14.2467321  52.5125018  60.2472491
  14.6046893  51.3138848  59.6858063  14.2005441  51.9854533  59.6695429
  14.1364582  52.8819665  56.8736426  14.7709662  53.4780090  56.8085888
  14.2190193  52.5823122  57.6882297  14.2421133  52.9260573  56.9839513
  27.1147148  55.4135142  69.7422791  27.7064988  56.0532393  69.7740989
  27.5506143  54.7158179  70.0314857  27.2665579  55.4053493  69.7903623
  15.7143565  48.8133640  56.8481868  16.0359406  48.3336723  56.1941131
  15.9770509  49.6233286  56.6572680  15.8009591  48.8623538  56.7237360
  18.9440538  59.8352515  70.3680685  18.4365629  60.3888361  70.8121315
  18.6467184  59.8960804  69.5499459  18.8245423  59.9258826  70.3129141
  21.1102720  48.2005834  69.2105348  21.5357792  47.7478361  68.5988874
  20.4959713  47.6465905  69.4870135  21.0831366  48.0519810  69.1610373
  10.6417570  55.0787506  60.1425972  11.1509800  55.6752013  60.5237278
  11.1151843  54.8113479  59.4602392  10.7860946  55.1273321  60.0980495
  21.5548318  63.7515772  58.2984628  20.8377628  63.5776635  57.8331865
  22.2055056  63.5168345  57.7660114  21.5450169  63.6911565  58.1513846
  19.5496943  44.6720934  62.6195925  18.9065261  44.5218580  63.1881063
  19.2096350  44.4263279  61.8545029  19.4042020  44.6133056  62.5898940
  24.1396290  52.6280361  62.0425933  23.4687479  53.1710063  61.9138999
  24.8336040  53.0975216  61.8007628  24.1425157  52.7778632  61.9881461
  18.1883023  64.7677073  67.2737691  17.9648678  64.0095902  67.6421718
  17.6992867  64.7975094  66.5518131  18.0826472  64.6599297  67.2214432
  24.3024417  49.0836244  64.9516306  24.6552027  48.6565967  65.6262105
  23.4439219  48.9987088  65.0817383  24.2273862  49.0080985  65.0711317
  13.0008102  51.7143764  63.0099153  12.2820091  52.1307897  63.2772016
  13.3720464  52.2798003  62.4590791  12.9500034  51.8593046  62.9681960
  22.3007683  52.3471613  68.9001149  22.2805610  52.1654908  69.7535927
  22.3486884  53.2183632  68.8760732  22.3042324  52.4488151  69.0224443
  20.2454013  58.9358805  74.8249625  20.2049868  58.2908482  74.2394781
  21.0577331  58.8795422  75.1375037  20.3597166  58.8317772  74.7846574
  16.8361480  64.9877531  64.7274776  16.4221879  64.3251661  64.3378618
  17.5208854  65.1355390  64.2070470  16.8759852  64.9118189  64.5931273
  20.2026774  64.1467616  65.4798393  19.8043058  64.2569887  64.7119213
  19.5877994  64.3549683  66.0624952  20.0525664  64.1941184  65.4529692
  18.7754676  50.7541764  58.3472532  18.1819516  51.0758761  57.7957099
  18.8129954  49.9082859  58.1393638  18.6929065  50.6766092  58.2355304
  25.7348477  44.2054656  65.8800619  25.2279342  43.4983796  65.8121796
  26.5315911  43.8747845  66.0101695  25.7775716  44.0527808  65.8899614
  21.6512493  50.7121269  61.7774283  21.4226186  50.7353970  60.9352641
  21.9110569  49.8878736  61.8969293  21.6558681  50.5937348  61.6699480
  15.9331721  52.5655742  71.3799383  15.4210624  51.9576925  71.7384414
  15.7611218  53.2812334  71.8473359  15.8321358  52.5819041  71.5015606
  14.7057255  49.2497815  63.0728478  15.1814622  49.6114895  62.4378659
  14.2045855  49.9054282  63.3528621  14.7022614  49.3992004  63.0205219
  27.9368617  58.7219583  58.8641483  28.3202223  59.4710939  59.0939580
  27.1412730  58.9685403  58.6053472  27.8762399  58.8689277  58.8599057
  19.8100792  50.4879986  73.8201638  20.3672222  50.2593796  73.1880104
  19.4861857  51.2485652  73.5436851  19.8447202  50.5663823  73.6858135
  17.5283909  53.5747640  74.7853645  18.2795236  53.8899316  75.0993200
  17.7206485  53.3726810  73.9587567  17.6675323  53.5915021  74.7097041
  16.7483909  51.3939015  56.4401862  17.1282873  51.4118644  55.6552977
  16.0076505  51.8393003  56.3192710  16.6952746  51.4620789  56.3065430
  24.3769199  49.7021206  62.0277441  24.3763426  49.5469862  62.8861717
  24.1725379  50.5484193  61.9718826  24.3468977  49.8041827  62.1465380
   6.4386470  53.1260990  66.4436257   6.2608231  52.6737599  67.1691173
   6.1505492  53.9287152  66.6274735   6.3699423  53.1783548  66.5779760
  22.1010051  54.3818708  65.6813648  22.5963716  53.6641703  65.6417668
  21.2909827  54.0789505  65.5668135  22.0553944  54.2316354  65.6587374
  17.5468663  58.2316521  57.8310652  16.7379985  57.9083194  57.7843962
  18.0543572  57.5249743  57.7638901  17.5018329  58.0797837  57.8140947
   8.1758940  55.6588714  63.5558016   7.3104459  55.6474404  63.4440788
   8.2757756  55.4718937  64.4029156   8.0633107  55.6294775  63.6646961
  24.1661870  57.1322395  68.3690777  24.5916942  56.6096817  67.8161202
  23.8018790  57.7303233  67.8479399  24.1748473  57.1432622  68.2099786
  13.8015950  65.4286613  67.1288122  14.1162509  66.2423001  67.1365904
  14.2109363  65.0436831  67.7970281  13.9084048  65.4915315  67.2292214
  20.7540469  60.8456659  64.6991934  21.2251648  61.5596922  64.8681919
  21.0900648  60.2455410  65.2351803  20.8735585  60.8628124  64.8024310
  17.6709964  45.6184130  71.6550029  17.8037870  44.8215123  71.9831004
  18.0555117  46.1450533  72.2348304  17.7466293  45.5784047  71.7893532
  21.3914416  60.6374594  71.4619627  20.8435362  60.0132477  71.1939692
  21.8527445  60.8268866  70.7463706  21.3781625  60.5733644  71.3170058
  20.7442320  42.5414456  68.2531122  19.9388283  42.4312186  68.5698960
  20.6149055  42.6426912  67.3960988  20.6062452  42.5398126  68.1739162
  24.2008280  48.7059948  68.8470819  23.6171269  49.2069155  68.4348386
  24.5212574  48.1989504  68.2135142  24.1621456  48.7051783  68.6929326
  16.7403079  47.6200543  59.1229494  17.5618774  47.7898856  58.8811189
  16.2772730  47.7747804  58.3995791  16.7934242  47.6682276  58.9801138
  15.3298411  45.6143305  69.9027923  15.8742824  45.2734432  70.4932264
  15.3835347  46.4728767  70.0449207  15.4187531  45.6898564  70.0109796
  11.1428970  59.3759721  66.7766730  11.7473827  59.3355555  66.1480551
  10.9356283  60.2230873  66.8070786  11.2017867  59.4947724  66.6882847
  20.9572742  61.6425666  67.9928968  21.7771116  61.4988632  68.2545263
  20.6766820  62.2671865  68.5345406  21.0369485  61.7136018  68.1116907
  37.4286393  69.2990518  60.9571844  37.3980397  70.1535155  61.1290114
  38.0267741  68.9985811  61.5157988  37.5123550  69.3807015  61.0646646
  30.6286077  68.3866169  65.7124775  29.7723973  68.5474667  65.7633891
  30.6753731  67.5158233  65.7329836  30.5085189  68.2816971  65.7230841
  33.4737898  70.4458213  68.3556426  34.0193858  71.1243299  68.4150396
  33.4154775  70.3045674  67.4958008  33.5453813  70.5250215  68.2368487
  35.2502967  71.8742820  59.2290154  35.1342493  72.6250506  59.6582292
  36.0458854  71.6166773  59.4786241  35.3507556  71.9477667  59.3294246
  19.7877018  73.9567566  63.3677112  19.5527202  73.1235218  63.2609381
  19.9262658  74.2372231  62.5538313  19.7732680  73.8751069  63.2319467
  22.0867105  66.1253296  66.2661420  21.4672137  65.5345943  66.0971435
  21.9850969  66.7164731  65.6325743  21.9804780  66.1257379  66.1466410
  27.1333293  75.8636843  60.5159496  27.4549134  76.4042050  59.9120804
  27.7805389  75.2933614  60.6481786  27.2759348  75.8596018  60.4466532
  29.1835001  67.8652838  60.5993883  29.8815165  68.0440965  61.0915346
  29.4987333  67.3423177  59.9764272  29.3330338  67.8146610  60.5795893
  21.8136238  69.6705578  68.5104989  21.6894935  70.2568023  69.1454808
  22.4654523  69.1765774  68.8117264  21.8909887  69.6844382  68.6490918
  29.3722936  74.2523283  60.5873675  29.8116571  73.6440383  61.0328447
  29.2227599  73.8730656  59.8159140  29.4144402  74.1061754  60.5392842
  29.3780670  75.6922201  67.4399393  29.6603913  74.8973606  67.2186149
  30.1066831  76.1702788  67.4604454  29.5270234  75.6456798  67.4102408
  27.3561864  63.2345235  64.6815158  27.0265194  63.6856378  64.0118856
  26.6806866  63.1561398  65.2288164  27.2072301  63.2896370  64.6638381
  32.9732273  72.6050464  57.5404444  32.8883568  73.4611431  57.6854013
  33.4616656  72.3294788  58.2086603  33.0321170  72.6907786  57.6606525
  34.5638272  59.2230757  62.9264768  34.2491713  59.9134236  63.3585191
  34.0465214  59.1675540  62.2250269  34.4402742  59.3165646  62.8861718
  33.9050706  69.2235258  59.0402179  33.3762177  69.4394892  59.6999485
  34.4275726  69.9171397  58.9603148  33.9039159  69.3578395  59.1257778
  39.3598759  74.7981563  64.4135223  38.5296462  75.0092207  64.5768640
  39.3108011  73.9718617  64.1377507  39.2305494  74.7071169  64.3972589
  25.7950314  73.1198475  57.8409647  25.2107529  73.6248507  58.2475511
  25.3920409  72.8940862  57.1006239  25.6489617  73.1606724  57.7914672
  30.2527528  69.3664127  56.3178568  30.4923532  69.5742111  55.5053911
  30.5743369  68.5621636  56.4267512  30.3364686  69.2778229  56.2139121
  25.5617818  61.2957523  60.1638105  26.3163786  61.6635840  59.9255156
  25.3845353  61.6697077  60.9317285  25.6472297  61.4055711  60.2422994
  38.8552717  67.4451964  68.2085645  38.0181138  67.5154151  68.4433239
  38.8240948  67.4476458  67.3359947  38.7270999  67.4562191  68.1145193
  25.2517446  69.5884999  73.9234013  25.4237950  69.4790894  74.7719295
  25.7886804  70.2339405  73.6865206  25.3562450  69.6677001  74.0139110
  23.9174883  63.7027842  56.8616218  23.7350456  63.9199723  56.0357211
  24.7800496  63.8166855  56.9174833  24.0179472  63.7517740  56.7470705
  23.5289315  75.5415764  64.3039206  24.3678214  75.7738697  64.3512968
  23.5601084  74.6720076  64.2346242  23.6571032  75.4472711  64.3003851
  29.5974602  60.7054253  59.8965242  30.3260763  60.5270208  59.4503399
  29.6869495  61.5472332  60.1072420  29.7181264  60.8038131  59.8618760
  33.5782903  71.6407640  63.7997536  34.3340418  72.0739154  63.8386445
  33.6845227  70.9912410  64.3732172  33.7053073  71.6085124  63.8895562
  36.6163074  75.4680917  64.5499939  36.1798306  75.4717660  65.3058911
  36.2825989  76.1486416  64.1179517  36.5025694  75.5693373  64.5980772
  36.5360557  62.5094745  66.7929367  37.1786465  62.5792850  67.3791282
  36.7883578  61.8423968  66.2908909  36.6682689  62.4221094  66.8056646
  23.4636910  66.9802015  55.3738692  22.7495087  66.6940194  55.7861124
  23.9480879  67.3198640  56.0145079  23.4296273  66.9883664  55.5294326
  24.3077769  65.7195309  71.4053941  23.6149566  65.2492288  71.6514673
  24.9238097  65.4933613  71.9795648  24.2962299  65.6162440  71.5263094
  39.7507420  72.1861837  63.4419576  40.4123854  71.6252506  63.3415485
  39.1098832  71.6913868  63.7672268  39.7536288  72.0298246  63.4751917
  30.6384228  75.4831969  55.7500500  31.0535376  75.1516992  55.0584995
  29.8076157  75.2500871  55.6220636  30.5772237  75.4003225  55.6291347
  19.9672577  72.9675710  66.0398678  19.7848150  72.9422596  65.1870970
  20.7022246  73.4374647  66.0787586  20.0486641  73.0337072  65.9196596
  36.0372251  73.2027220  63.1831565  36.2727840  73.3472419  62.3558416
  36.1861814  73.9669628  63.5763079  36.0938054  73.3366274  63.1195169
  23.0318328  69.6860713  72.5480786  23.7558301  69.6713743  73.0345681
  23.1334465  70.3956068  72.0502755  23.1536537  69.7885416  72.5459573
  37.8662708  72.0428886  61.0201169  38.1970925  72.5756526  60.4141264
  38.4395796  72.0967773  61.6763120  37.9996387  72.1298454  61.0278951
  33.0794597  69.8893788  61.7024749  33.1741451  70.6283082  62.1564375
  32.4553440  69.4611264  62.1359314  33.0003627  69.9355109  61.8332897
  19.9343487  69.8469210  66.1897744  20.5116990  69.7105661  66.8289990
  19.2357549  69.3904994  66.4443329  19.9164508  69.7591477  66.3220034
  33.3317618  71.7342528  54.9361701  33.2497781  71.8044715  55.8016688
  33.9697338  72.2972272  54.7445442  33.4137455  71.8281499  55.0351651
  26.6910789  71.5003266  64.4036227  26.4330033  70.6675001  64.3767527
  26.7459272  71.7260879  63.5628728  26.6610567  71.4101037  64.2756364
  31.7711839  63.6031717  64.5040320  31.0668166  63.1140902  64.6624239
  31.8196814  63.6154191  63.6328765  31.6741891  63.5321365  64.3979660
  25.6645501  69.0541028  64.8901122  25.0895093  69.2133197  65.5265083
  25.2881178  68.4176438  64.4269573  25.5248314  68.9838841  64.9155681
  29.3318790  67.5264378  69.7493501  28.9433223  67.1018595  69.0945692
  28.6673488  67.7746527  70.2570527  29.1765718  67.5003099  69.7281369
  38.9742059  67.2839382  62.5241331  38.7178624  66.4719324  62.3339213
  39.8171373  67.2916950  62.2971518  39.0608084  67.1651380  62.4626148
  15.4102320  68.6981103  62.9045563  15.4962572  68.3212972  63.6859093
  16.0378118  68.3241549  62.4265521  15.5158871  68.5866585  62.9491040
  33.1545151  61.2239007  67.2617485  33.5355663  60.5417178  67.6485359
  32.3508436  60.9348609  67.0793149  33.0921613  61.0806055  67.2921541
  30.4357728  71.7562982  57.9470308  31.2498367  72.0477875  57.8353079
  30.3716869  71.1022845  57.3728601  30.5460467  71.7028177  57.8459145
  26.3065636  75.2284500  63.0742620  26.9439583  74.9896247  63.6194413
  26.7320708  75.4321659  62.3395780  26.4641803  75.2235510  63.0459777
  26.9468451  70.4486790  57.4117509  27.3313604  70.2294496  58.1634054
  26.6980072  71.2749735  57.5418585  26.9670524  70.5384936  57.5418586
  27.1136992  63.7293205  77.1280093  26.7990433  64.4992767  76.8649656
  26.7926924  63.1663461  76.5432320  27.0195911  63.7603473  77.0021443
  28.6887108  75.7056922  64.7536406  28.7626117  75.5432094  65.6078256
  29.5056615  75.8947112  64.5096888  28.8203467  75.7093665  64.8434432
  24.6668889  62.1183726  62.7426290  23.7991314  62.1906326  62.8083899
  24.9544093  62.9205805  62.9314265  24.5808637  62.2477873  62.7801056
  33.7901778  62.2661586  71.0737611  34.5355370  62.0771396  70.6601037
  33.3739082  62.7919824  70.5151468  33.8386752  62.3163731  70.9302185
  41.1664048  69.6370814  66.0243116  41.7171970  69.0038883  66.2640209
  41.1508164  70.1686207  66.7158621  41.2449245  69.6219762  66.1621975
  27.8186439  73.4709411  70.5703010  27.3198133  74.1825179  70.6487898
  28.6286664  73.7910078  70.5321172  27.8642546  73.6236260  70.5759578
  24.0814557  72.7332364  64.8165731  23.7927806  72.1069836  65.3511458
  24.9497905  72.6752652  64.8830411  24.1674809  72.6319909  64.9056685
  34.8692455  67.8767148  65.1347713  34.5257221  67.1557483  65.4854962
  34.9685497  67.6680999  64.2926071  34.8334498  67.7391351  65.0619393
  24.2846830  74.3727615  60.7408096  25.0392798  74.7540655  60.9543558
  23.6917443  74.8238759  61.1954792  24.3083544  74.4956443  60.8390974
  35.3305484  74.3392852  60.6771701  35.8963516  74.9986062  60.5930244
  34.6833387  74.6842550  61.1488103  35.3184240  74.4874793  60.7344457
  26.7453497  66.3290456  75.8665308  25.9353273  66.6348235  75.7555150
  27.2228184  67.0496038  75.9817892  26.6956976  66.4805057  75.8672379
  25.6045057  75.5436177  66.1148211  25.0825810  75.6836468  66.8000076
  25.9919077  74.7846841  66.3050329  25.5848758  75.4521701  66.2449288
  22.5936241  65.5941986  60.1843166  22.3061037  65.2243256  59.4475113
  23.2806709  66.0636841  59.9226871  22.6525138  65.6088955  60.0358242
  31.8012062  77.2831636  60.1008780  31.5598738  76.5499497  59.6935845
  31.9813395  77.8318493  59.4475113  31.7919686  77.2554027  59.9439003
  27.0311382  72.5740196  61.5129702  26.8354165  73.1814930  60.9190005
  27.2545728  71.8808140  61.0321376  27.0346024  72.5617721  61.3545783
  25.4289912  69.4594934  61.6310571  26.1512564  69.6236092  61.1714377
  24.9497905  70.1804599  61.5249910  25.4653643  69.5893163  61.5476185
  33.3883420  65.7958733  67.0107256  32.5494521  65.8220011  66.7745519
  33.4587787  66.4429468  67.5912602  33.2751814  65.8954858  67.0616372
  31.8352698  62.6944110  61.7434871  32.5379051  62.4951858  61.2654830
  31.5696887  61.9220052  62.0503715  31.8999331  62.5507076  61.7180313
  37.2640944  71.0026719  64.2968497  37.1774918  71.1582145  65.1503276
  36.8091424  71.6464795  63.9227902  37.1844201  71.1202474  64.3675604
  20.1664436  66.3723198  61.0328447  20.2680572  67.1749359  61.3609422
  20.9620322  66.1710534  60.7351528  20.2992341  66.4609097  61.0363802
  26.5981255  63.9579395  70.7965752  26.4064452  63.9734529  71.6465176
  27.4479851  64.1543069  70.7732407  26.6956977  63.9893746  70.9189047
  20.9828168  66.4870376  68.7749569  20.8413659  65.6354317  68.8994076
  21.2668731  66.5299037  67.9511775  21.0036014  66.3670126  68.6717193
  31.1366760  68.3237466  62.9194057  30.8901474  68.2433217  63.7530846
  31.4651883  67.5390934  62.7256584  31.1488004  68.1963732  63.0141580
  35.0314809  75.0320826  66.7080838  34.8929168  75.7301872  67.2129580
  34.2514807  74.8769482  66.3517020  34.8958036  75.1120992  66.7307112
  27.0963787  71.0594185  72.3317040  27.2407163  71.6395393  71.6960150
  27.4439436  71.4370482  73.0366894  27.1691249  71.2014889  72.3416035
  29.2683705  70.2584353  70.1142171  28.5207019  70.4515368  69.7090450
  29.4225230  69.4329573  69.8766293  29.1806132  70.1649465  70.0187577
  36.5268182  74.3899080  57.4697337  36.1474990  73.6036217  57.4626627
  35.8634427  74.9385937  57.3268981  36.3726656  74.3543904  57.4478134
  29.5085482  64.1534904  71.0037575  29.9658096  64.8858878  71.1310367
  29.5841810  63.7301369  71.7624831  29.5876451  64.1992142  71.1338652
  21.7518473  64.4000724  72.0927019  21.2160662  63.7881082  72.4087786
  21.8136238  64.9748860  72.7460686  21.6814106  64.3947652  72.2362446
  33.9812808  57.3324779  64.8731418  34.0996376  57.7901243  64.1398721
  33.8074983  56.5270041  64.5867636  33.9731979  57.2818551  64.7232352
  27.3867860  66.1437008  67.8479399  26.5963934  65.9628468  68.1696735
  27.7828482  65.3663961  67.8309694  27.3284736  66.0024469  67.8931948
  31.8733750  74.9724782  53.2886113  32.6406735  75.0324907  52.8791965
  31.4265059  74.4005224  52.8042431  31.9207178  74.8961358  53.1563823
  32.7711546  73.7779438  65.5738845  32.0956548  73.5464670  66.0752232
  32.7803922  73.1700621  64.9480950  32.6730050  73.6538363  65.5554997
  29.9005690  68.6197267  72.3302898  29.8364831  69.4807224  72.2023035
  30.0402878  68.3029260  71.5298449  29.9121160  68.6997434  72.1931111
  34.7728280  76.6344571  57.8049023  34.8548118  77.4411557  57.4810474
  35.2578023  76.6540530  58.5289797  34.8565438  76.7565233  57.8635922
  28.5824784  71.3129406  66.4719101  28.1587033  71.5133906  65.7358119
  28.4069639  70.4658254  66.5843401  28.4935664  71.2178188  66.3792791
  23.8707229  71.8081458  61.9047074  24.0271848  71.7428261  62.7603066
  24.2107822  72.5830010  61.6925753  23.9440464  71.9130656  62.0001668
  30.4086373  71.1839341  60.7740437  30.9501919  70.6809723  61.2379057
  30.7232932  71.1304536  59.9629922  30.5350770  71.1018762  60.7224249
  28.5772823  76.5756693  58.0580465  28.6465643  75.7171231  58.1973465
  29.3561278  76.7928574  57.7299489  28.7025673  76.4809557  58.0297622
  31.5575643  66.0775646  70.8262737  31.7717612  65.4386560  70.2726091
  30.9409542  66.5221470  70.3970599  31.4980972  66.0485790  70.6813168
  20.4441490  68.9916408  62.2207841  20.8240455  69.4100953  61.5568108
  19.8696855  69.5729864  62.5276684  20.4152815  69.1394267  62.1684582
  33.7214731  67.6864711  71.7646044  32.9091412  67.3790602  71.8459217
  34.1804665  67.2063711  72.3288757  33.6695115  67.5701204  71.8600638
  33.1319985  75.5644383  62.2122989  32.7734640  75.7359026  62.9887021
  32.6458696  76.0257589  61.6550987  33.0078682  75.6583354  62.2448258
  30.9490371  59.1875582  65.8150080  30.0783929  59.1614303  65.7683390
  31.2030713  59.0152774  64.9975926  30.8583931  59.1585725  65.6870217
  27.9208351  71.2443549  54.7523223  28.2100876  72.0208431  55.0266797
  28.0080150  70.7332280  55.4537722  27.9762607  71.2835467  54.8965721
  27.9739512  61.1981810  67.2723550  27.4578000  60.5062002  67.3975129
  27.4133441  61.8652587  67.2186149  27.8146025  61.1945068  67.2829616
  30.0431745  61.7374770  69.1016403  29.6563498  61.7623802  69.8829933
  29.5564683  61.1716449  68.6490920  29.9144254  61.6570521  69.1504307
  36.0181725  68.3037425  67.7256105  35.5909333  68.2163774  66.9704205
  35.3807778  68.4115201  68.3110949  35.8611332  68.3070085  67.7001547
  29.7088887  58.6241756  71.3926663  30.3382005  59.1602056  71.1147733
  29.8774750  58.5319115  72.2440229  29.8266682  58.6903118  71.4775191
  29.5102802  63.4112950  73.6653075  30.3376231  63.1398099  73.7211689
  29.5310648  64.2073792  74.0216893  29.6355652  63.4892705  73.7268257
  24.0872292  70.5576813  66.8523335  23.2460298  70.4580687  67.0602229
  24.2962300  71.3272293  67.2037656  23.9936984  70.6568856  66.9350650
  21.5647859  68.1796350  64.6808086  21.1704556  68.2539362  63.9058195
  21.0087976  68.5654296  65.2316448  21.4250671  68.2478125  64.6475746
  33.2012805  61.1577644  64.3611965  33.4062399  61.0899952  65.2068962
  32.8739229  61.9636465  64.2933142  33.1828053  61.2663585  64.4771620
  27.8988957  68.4858212  66.1020933  27.5952094  67.9314201  66.7031340
  27.1968377  68.6650422  65.6148967  27.7505166  68.4302995  66.1190638
  26.9555054  65.7958732  60.6665635  27.2314788  65.0777645  60.2543202
  27.5553723  66.3943652  60.4586741  27.0848318  65.7779103  60.5746396
  36.4546493  61.7109408  63.8414730  35.8420807  62.1979811  64.2268462
  36.5510668  61.0352899  64.3852381  36.3784391  61.6827717  63.9793588
  30.4565574  63.4672250  58.9412230  30.9109321  63.6382810  59.6660074
  30.9305620  62.8540360  58.5410005  30.5933894  63.4023135  58.9885991
  23.9781100  72.9520575  68.2714968  23.3869033  73.5930074  68.2417983
  24.7402123  73.3758193  68.2446268  24.0029360  73.1096414  68.2630115
  24.3741722  64.1122573  68.9382986  24.8343204  64.1861503  69.6758109
  24.4197829  64.9103827  68.5882807  24.4492278  64.2416720  68.9955742
  26.0225072  64.7789268  73.5055013  25.6310637  64.1322615  73.9410791
  26.1910935  65.3700703  74.1249268  25.9895982  64.7703536  73.6617719
  33.7370616  78.4029887  65.7046992  33.5390304  78.8920701  65.0103204
  33.1158327  78.6071129  66.2831126  33.6158180  78.5046425  65.6870216
  29.7158170  61.9665043  65.0789098  28.8694215  62.1387851  64.9530448
  29.7129302  61.1614386  65.4154927  29.5905320  61.8726072  65.1100225
  30.7856470  65.7440257  65.9451156  30.3116424  65.2182019  66.4556467
  31.1574606  65.1969730  65.3766018  30.7706359  65.5856254  65.9366303
  21.1629500  67.7411764  71.3134702  22.0255113  67.6407473  71.2272032
  20.8321283  67.1606473  70.7520274  21.2414697  67.6403391  71.2180108
  32.7139970  66.6376812  59.0076910  32.1862988  66.7205556  58.3182619
  33.1735678  67.3794683  59.0041555  32.7041820  66.7597474  58.9051605
  39.0498388  67.5844090  65.3087196  38.8108158  67.5439924  64.4707980
  39.2132289  68.4315242  65.4352917  39.0388691  67.7036175  65.2040678
  24.5231286  66.5654213  67.9745120  23.8984356  66.5772605  67.3671073
  24.1876881  67.0414388  68.6236360  24.3816778  66.6372730  67.9801689
  24.7073035  64.9079331  54.0317805  24.3585839  65.5599057  54.4949354
  24.2269481  64.8936444  53.3041676  24.5843279  65.0022385  53.9928896
  32.2677052  75.2080375  58.1386567  32.9911251  75.6738488  57.9951140
  31.8277643  75.2753985  57.3884164  32.3092744  75.2864212  58.0071348
  31.4363207  72.0677918  69.3887256  30.8220200  71.5235968  69.6835891
  31.9530492  71.5542154  68.9093072  31.4218870  71.9114327  69.3611484
  30.6759504  73.1382188  67.1231555  30.2487112  72.5131906  66.6896990
  30.6684449  72.8557109  67.9490562  30.6118646  73.0034968  67.1811382
  23.7922032  68.1747361  70.1919989  23.9515518  67.4190685  70.5971710
  23.6114925  68.7238300  70.8460726  23.7887391  68.1441174  70.3482695
  31.7342335  60.3408596  70.7470778  31.2382896  60.5372270  70.0562345
  32.4911397  60.7401264  70.5759580  31.7729159  60.4286330  70.6190915
  29.0045214  64.0150942  67.3374089  29.0287701  63.4811054  66.6486869
  29.2556688  63.5068251  67.9999679  29.0455133  63.8611846  67.3338733
  25.2846536  62.7421760  66.7179833  25.3244908  63.2430967  67.4314540
  24.4596201  62.8332154  66.4485756  25.1686062  62.8303577  66.7830371
  26.7060900  69.2582270  69.0153732  25.8752829  69.4256088  68.8088980
  26.6512417  68.8818221  69.8002617  26.5750315  69.2272001  69.1002260
  24.5144683  62.7491163  74.6510143  25.1397386  62.2053296  74.9239575
  24.0595163  62.2686081  74.0817933  24.5392944  62.5980644  74.6071736
  25.0796944  67.5337862  59.5443850  25.2199905  68.0310326  60.2472491
  25.5779476  66.8324156  59.6858063  25.1738024  67.5039841  59.6695429
  25.1097166  68.4004973  56.8736426  25.7442245  68.9965398  56.8085888
  25.1922777  68.1008430  57.6882297  25.2153717  68.4445881  56.9839513
  26.6876149  64.3318948  56.8481868  27.0091990  63.8522031  56.1941131
  26.9503093  65.1418594  56.6572680  26.7742174  64.3808846  56.7237360
  29.9173122  75.3537823  70.3680685  29.4098213  75.9073669  70.8121315
  29.6199768  75.4146112  69.5499459  29.7978007  75.4444134  70.3129141
  32.0835304  63.7191142  69.2105348  32.5090375  63.2663669  68.5988874
  31.4692297  63.1651213  69.4870135  32.0563949  63.5705118  69.1610373
  21.6150154  70.5972814  60.1425972  22.1242383  71.1937321  60.5237278
  22.0884426  70.3298787  59.4602392  21.7593530  70.6458629  60.0980495
  30.5229527  60.1906242  62.6195925  29.8797845  60.0403888  63.1881063
  30.1828934  59.9448587  61.8545029  30.3774604  60.1318364  62.5898940
  35.1128873  68.1465669  62.0425933  34.4420063  68.6895371  61.9138999
  35.8068623  68.6160524  61.8007628  35.1157741  68.2963940  61.9881461
  35.2757001  64.6021552  64.9516306  35.6284611  64.1751275  65.6262105
  34.4171802  64.5172396  65.0817383  35.2006445  64.5266293  65.0711317
  23.9740686  67.2329072  63.0099153  23.2552675  67.6493205  63.2772016
  24.3453048  67.7983311  62.4590791  23.9232617  67.3778354  62.9681960
  33.2740266  67.8656921  68.9001149  33.2538194  67.6840216  69.7535927
  33.3219467  68.7368940  68.8760732  33.2774907  67.9673459  69.0224443
  29.7487260  66.2727072  58.3472532  29.1552099  66.5944068  57.7957099
  29.7862538  65.4268167  58.1393638  29.6661649  66.1951400  58.2355304
  32.6245077  66.2306576  61.7774283  32.3958770  66.2539278  60.9352641
  32.8843153  65.4064044  61.8969293  32.6291265  66.1122656  61.6699480
  26.9064305  68.0841050  71.3799383  26.3943208  67.4762232  71.7384414
  26.7343801  68.7997642  71.8473359  26.8053942  68.1004349  71.5015606
  25.6789839  64.7683123  63.0728478  26.1547205  65.1300203  62.4378659
  25.1778439  65.4239590  63.3528621  25.6755198  64.9177312  63.0205219
  38.9101201  74.2404891  58.8641483  39.2934806  74.9896247  59.0939580
  38.1145314  74.4870711  58.6053472  38.8494983  74.3874585  58.8599057
  30.7833375  66.0065294  73.8201638  31.3404805  65.7779104  73.1880104
  30.4594440  66.7670960  73.5436851  30.8179785  66.0849131  73.6858135
  27.7216492  66.9124323  56.4401862  28.1015457  66.9303952  55.6552977
  26.9809088  67.3578311  56.3192710  27.6685330  66.9806097  56.3065430
  35.3501783  65.2206514  62.0277441  35.3496009  65.0655170  62.8861717
  35.1457963  66.0669501  61.9718826  35.3201561  65.3227135  62.1465380
  17.4119054  68.6446298  66.4436257  17.2340815  68.1922907  67.1691173
  17.1238076  69.4472460  66.6274735  17.3432007  68.6968856  66.5779760
  33.0742635  69.9004016  65.6813648  33.5696300  69.1827011  65.6417668
  32.2642410  69.5974813  65.5668135  33.0286528  69.7501662  65.6587374
  28.5201246  73.7501829  57.8310652  27.7112569  73.4268502  57.7843962
  29.0276155  73.0435051  57.7638901  28.4750913  73.5983145  57.8140947
  19.1491524  71.1774022  63.5558016  18.2837043  71.1659712  63.4440788
  19.2490339  70.9904245  64.4029156  19.0365691  71.1480083  63.6646961
  35.1394454  72.6507703  68.3690777  35.5649525  72.1282125  67.8161202
  34.7751373  73.2488540  67.8479399  35.1481056  72.6617930  68.2099786
  31.7273053  76.3641967  64.6991934  32.1984231  77.0782230  64.8681919
  32.0633232  75.7640717  65.2351803  31.8468168  76.3813432  64.8024310
  28.6442548  61.1369438  71.6550029  28.7770454  60.3400431  71.9831004
  29.0287701  61.6635841  72.2348304  28.7198877  61.0969355  71.7893532
  31.7174903  58.0599764  68.2531122  30.9120867  57.9497494  68.5698960
  31.5881639  58.1612220  67.3960988  31.5795036  58.0583434  68.1739162
  35.1740864  64.2245256  68.8470819  34.5903853  64.7254462  68.4348386
  35.4945158  63.7174812  68.2135142  35.1354039  64.2237091  68.6929326
  27.7135663  63.1385851  59.1229494  28.5351357  63.3084164  58.8811189
  27.2505314  63.2933112  58.3995791  27.7666825  63.1867584  58.9801138
  26.3030995  61.1328613  69.9027923  26.8475408  60.7919740  70.4932264
  26.3567931  61.9914075  70.0449207  26.3920114  61.2083872  70.0109796
  31.9305326  77.1610974  67.9928968  32.7503700  77.0173940  68.2545263
  31.6499403  77.7857173  68.5345406  32.0102069  77.2321326  68.1116907
  38.3294448  78.7530543  64.6815158  37.9997778  79.2041686  64.0118856
  37.6539450  78.6746706  65.2288164  38.1804884  78.8081678  64.6638381
  45.5370856  74.7416065  62.9264768  45.2224297  75.4319544  63.3585191
  45.0197797  74.6860848  62.2250269  45.4135326  74.8350954  62.8861718
  36.5350402  76.8142831  60.1638105  37.2896370  77.1821148  59.9255156
  36.3577936  77.1882385  60.9317285  36.6204880  76.9241019  60.2422994
  34.8907466  79.2213150  56.8616218  34.7083040  79.4385031  56.0357211
  35.7533079  79.3352163  56.9174833  34.9912056  79.2703048  56.7470705
  40.5707186  76.2239561  59.8965242  41.2993346  76.0455516  59.4503399
  40.6602079  77.0657640  60.1072420  40.6913848  76.3223439  59.8618760
  35.6401472  77.6369034  62.7426290  34.7723898  77.7091634  62.8083899
  35.9276677  78.4391113  62.9314265  35.5541221  77.7663181  62.7801056
  42.8085282  78.2129417  61.7434871  43.5111635  78.0137166  61.2654830
  42.5429471  77.4405360  62.0503715  42.8731914  78.0692383  61.7180313
  44.9545391  72.8510087  64.8731418  45.0728959  73.3086551  64.1398721
  44.7807567  72.0455348  64.5867636  44.9464562  72.8003859  64.7232352
  41.9222955  74.7060890  65.8150080  41.0516513  74.6799611  65.7683390
  42.1763296  74.5338082  64.9975926  41.8316515  74.6771033  65.6870217
  41.4298158  78.9857557  58.9412230  41.8841904  79.1568118  59.6660074
  41.9038204  78.3725668  58.5410005  41.5666478  78.9208443  58.9885991
  40.6890753  77.4850351  65.0789098  39.8426798  77.6573158  64.9530448
  40.6861886  76.6799694  65.4154927  40.5637903  77.3911380  65.1100225
  43.6872553  82.1562120  59.0076910  43.1595572  82.2390864  58.3182619
  44.1468261  82.8979991  59.0041555  43.6774404  82.2782782  58.9051605
  37.6608732  79.8504256  56.8481868  37.9824573  79.3707339  56.1941131
  37.9235676  80.6603902  56.6572680  37.7474758  79.8994154  56.7237360
  41.4962110  75.7091550  62.6195925  40.8530428  75.5589196  63.1881063
  41.1561517  75.4633895  61.8545029  41.3507188  75.6503672  62.5898940
  38.6868246  78.6571159  59.1229494  39.5083941  78.8269472  58.8811189
  38.2237897  78.8118420  58.3995791  38.7399409  78.7052892  58.9801138
  15.1772049  15.1998033  47.8911891  15.1466054  16.0542670  48.0630160
  15.7753398  14.8993326  48.4498035  15.2609207  15.2814530  47.9986693
   8.3771734  14.2873684  52.6464821   7.5209630  14.4482183  52.6973938
   8.4239388  13.4165748  52.6669882   8.2570846  14.1824486  52.6570887
   2.7612874  23.8236402  48.4102053   2.0095773  23.4451940  48.1818098
   3.2098886  23.8554836  47.6620863   2.7162541  23.7722009  48.2659555
  11.6865451  20.5560210  62.2525278  12.3932218  20.0612241  62.3812212
  11.8753386  20.9969291  61.5227936  11.8193356  20.5478560  62.1634323
   8.2137834  24.2461772  43.8387600   7.8789202  24.9238693  43.4031822
   8.7264704  23.8567083  43.2504472   8.2403415  24.2886350  43.6874392
   7.7542125  26.1976040  49.7798712   8.1381504  26.7662939  49.2403487
   7.6901266  25.4725551  49.3004528   7.8015552  26.1751504  49.6292574
  11.2223555  16.3465728  55.2896473  11.7679515  17.0250815  55.3490443
  11.1640431  16.2053189  54.4298055  11.2939470  16.4257730  55.1708534
   4.3397630  23.8354794  50.6764825   4.4407993  23.0255148  50.9861953
   3.7439375  23.7411741  50.0464504   4.2670169  23.7019822  50.6291064
  12.9988624  17.7750335  46.1630201  12.8828150  18.5258021  46.5922339
  13.7944510  17.5174289  46.4126288  13.0993213  17.8485182  46.2634292
   4.1798370  28.7532383  52.0779682   4.8235825  29.1945548  52.4675840
   4.5054625  27.9485810  51.9909940   4.3230198  28.6997578  52.1225159
   4.8818949  21.7644358  47.4499543   5.2034790  22.3049566  46.8460851
   5.5291046  21.1941130  47.5821833   5.0245005  21.7603533  47.3806579
   6.9320657  13.7660353  47.5333930   7.6300822  13.9448481  48.0255393
   7.2472990  13.2430693  46.9104319   7.0815995  13.7154125  47.5135940
   7.1208593  20.1530798  47.5213721   7.5602228  19.5447899  47.9668494
   6.9713256  19.7738172  46.7499186   7.1630058  20.0069269  47.4732889
   4.5880236  18.7474810  54.7232547   5.2329238  18.2547253  54.4043495
   4.8282013  18.8899597  55.5498625   4.7190821  18.6952252  54.7982080
   7.1266327  21.5929716  54.3739439   7.4089570  20.7981122  54.1526195
   7.8552488  22.0710303  54.3944500   7.2755891  21.5464313  54.3442455
  10.7217929  18.5057980  44.4744491  10.6369224  19.3618946  44.6194059
  11.2102313  18.2302304  45.1426650  10.7806827  18.5915301  44.5946572
  12.3123929   5.1238273  49.8604815  11.9977370   5.8141751  50.2925238
  11.7950870   5.0683055  49.1590316  12.1888399   5.2173161  49.8201764
  11.6536363  15.1242774  45.9742226  11.1247834  15.3402407  46.6339532
  12.1761382  15.8178912  45.8943195  11.6524816  15.2585911  46.0597825
  17.1084415  20.6989078  51.3475270  16.2782119  20.9099722  51.5108687
  17.0593668  19.8726133  51.0717554  16.9791151  20.6078685  51.3312636
   3.5435970  19.0205991  44.7749694   2.9593186  19.5256022  45.1815558
   3.1406066  18.7948377  44.0346286   3.3975274  19.0614239  44.7254719
   5.1694153  23.5292932  54.1823180   4.6521095  23.1700347  53.5784488
   5.8668544  23.0055107  54.1929246   5.1959734  23.3990620  54.0953438
   8.8257745  23.9787746  60.1439353   8.9141091  23.7913887  60.9917563
   9.2547458  23.3325176  59.7444200   8.9019847  23.8550754  60.2111104
   6.3928205  23.2618906  59.1257015   5.8299040  22.8491516  59.6496676
   7.1549228  23.1871812  59.5450158   6.4222653  23.1896307  59.2650015
   8.0013185  15.2671643  43.2518614   8.2409188  15.4749626  42.4393957
   8.3229026  14.4629151  43.3607559   8.0850343  15.1785744  43.1479167
   1.9524196  25.2516928  51.7293645   2.6544776  24.7368917  51.7866402
   1.8721679  25.5791079  52.5340520   2.0447957  25.2231154  51.8566437
  16.6038374  13.3459479  55.1425692  15.7666795  13.4161666  55.3773286
  16.5726605  13.3483974  54.2699994  16.4756656  13.3569706  55.0485240
   1.2774972  21.4423280  51.2379253   2.1163871  21.6746212  51.2853015
   1.3086741  20.5727591  51.1686289   1.4056689  21.3480226  51.2343898
   1.9027675  21.8624155  55.5392559   2.4425900  21.7195286  56.2095931
   1.2197621  22.2620906  55.9076585   1.8819829  21.9003826  55.6926980
  11.3268560  17.5415155  50.7337583  12.0826075  17.9746670  50.7726492
  11.4330884  16.8919925  51.3072219  11.4538730  17.5092639  50.8235609
   8.9377804  23.4096765  62.8083136   9.7218221  23.5227613  63.1738879
   8.7374399  22.5837903  63.0041822   9.0243830  23.3043485  62.8917522
  14.2846214   8.4102260  53.7269414  14.9272122   8.4800365  54.3131329
  14.5369234   7.7431483  53.2248956  14.4168346   8.3228609  53.7396693
   1.2122567  12.8809530  42.3078738   0.4980744  12.5947709  42.7201171
   1.6966535  13.2206156  42.9485126   1.1781930  12.8891180  42.4634373
   9.0948198  25.3206868  56.4549592   8.2963443  25.0806368  56.7123461
   9.5434209  25.3721260  57.2016640   9.0422809  25.2929259  56.6034516
  17.4993077  18.0869353  50.3759623  18.1609511  17.5260021  50.2755532
  16.8584489  17.5921383  50.7012314  17.5021944  17.9305762  50.4091963
   8.3869885  21.3839484  42.6840547   8.8021033  21.0524508  41.9925042
   7.5561814  21.1508386  42.5560683   8.3257893  21.3010740  42.5631394
  13.7857908  19.1034735  50.1171612  14.0213497  19.2479934  49.2898463
  13.9347471  19.8677143  50.5103126  13.8423711  19.2373789  50.0535216
  15.6148364  17.9436401  47.9541216  15.9456581  18.4764041  47.3481311
  16.1881452  17.9975289  48.6103167  15.7482043  18.0305970  47.9618998
  10.8280253  15.7901304  48.6364796  10.9227108  16.5290598  49.0904421
  10.2039097  15.3618779  49.0699361  10.7489284  15.8362624  48.7672944
   9.0832727  18.9687516  59.2855077   9.6571589  18.3314760  59.4403641
   9.0047531  18.9691599  58.4164735   9.1565962  18.8752628  59.1801488
  11.0803275  17.6350043  41.8701748  10.9983437  17.7052230  42.7356735
  11.7182995  18.1979787  41.6785489  11.1623112  17.7289014  41.9691697
   4.4396446  17.4010781  51.3376274   4.1815690  16.5682516  51.3107574
   4.4944929  17.6268394  50.4968775   4.4096224  17.3108553  51.2096411
   9.5197496   9.5039232  51.4380367   8.8153823   9.0148417  51.5964286
   9.5682470   9.5161706  50.5668811   9.4227548   9.4328880  51.3319707
   3.4131158  14.9548544  51.8241169   2.8380749  15.1140712  52.4605130
   3.0366834  14.3183953  51.3609620   3.2733970  14.8846357  51.8495727
   7.0804447  13.4271893  56.6833547   6.6918879  13.0026111  56.0285739
   6.4159145  13.6754043  57.1910574   6.9251374  13.4010614  56.6621415
  16.7227716  13.1846898  49.4581378  16.4664281  12.3726839  49.2679260
  17.5657030  13.1924465  49.2311565  16.8093741  13.0658895  49.3966195
  10.9030808   7.1246522  54.1957532  11.2841320   6.4424693  54.5825406
  10.0994093   6.8356124  54.0133196  10.8407270   6.9813570  54.2261588
   8.1843385  17.6570498  44.8810354   8.9984024  17.9485390  44.7693126
   8.1202526  17.0030360  44.3068647   8.2946124  17.6035692  44.7799192
  14.4052875  20.3396494  59.2939930  14.1691513  19.5084559  59.1751991
  15.0496104  20.2882101  59.8794774  14.4647546  20.2094182  59.3625824
   4.0551293  21.1292015  50.0082667   4.6925240  20.8903763  50.5534460
   4.4806365  21.3329174  49.2735827   4.2127459  21.1243025  49.9799824
   4.6954108  16.3494305  44.3457556   5.0799261  16.1302012  45.0974101
   4.4465729  17.1757250  44.4758632   4.7156181  16.4392451  44.4758632
  15.4289296  20.1240943  55.3568225  15.1235113  20.8568999  55.7181540
  14.7095511  19.7178872  55.0761011  15.2776638  20.1722676  55.3681362
   6.4372765  21.6064438  51.6876453   6.5111773  21.4439610  52.5418303
   7.2542272  21.7954627  51.4436934   6.5689124  21.6101180  51.7774478
  21.1291088  16.7633943  54.6836569  21.0615588  16.7829902  53.8139155
  21.1146750  17.6064270  54.9092239  21.1169844  16.8907678  54.5889046
   4.9777351  24.5699181  46.4189926   5.2675649  24.1788162  45.6949153
   5.7080832  24.7515886  46.8595201   5.1284235  24.5392995  46.3772733
  18.9149705  15.5378329  52.9583163  19.4657627  14.9046398  53.1980255
  18.8993821  16.0693722  53.6498668  18.9934902  15.5227278  53.0962021
   5.5672096  19.3716927  57.5043057   5.0683790  20.0832694  57.5827945
   6.3772320  19.6917593  57.4661219   5.6128203  19.5243775  57.5099625
   2.9183266  26.5466563  49.4850076   2.6983562  26.2563918  50.2776743
   2.6977789  25.8881518  48.9567988   2.8530861  26.4066272  49.5238985
   1.8300214  18.6339880  51.7505778   1.5413462  18.0077351  52.2851505
   2.6983562  18.5760167  51.8170458   1.9160466  18.5327424  51.8396732
  12.6178111  13.7774663  52.0687759  12.2742877  13.0564998  52.4195009
  12.7171154  13.5688514  51.2266118  12.5820154  13.6398866  51.9959439
   5.0851222  27.9195953  48.2680768   5.7375280  27.3872395  48.4971794
   4.3876831  27.5664605  48.6548642   5.0781940  27.7885476  48.3592936
   2.0332487  20.2735131  47.6748143   2.7878455  20.6548170  47.8883605
   1.4403100  20.7246274  48.1294839   2.0569201  20.3963958  47.7731021
  13.0791141  20.2400367  47.6111748  13.6449173  20.8993577  47.5270291
  12.4319044  20.5850065  48.0828150  13.0669897  20.3882308  47.6684504
   3.3530714  21.4443692  53.0488258   2.8311467  21.5843984  53.7340123
   3.7404734  20.6854356  53.2390375   3.3334415  21.3529216  53.1789335
   9.5497719  23.1839151  47.0348827   9.3084395  22.4507012  46.6275892
   9.7299052  23.7326008  46.3815160   9.5405343  23.1561543  46.8779050
   4.7797039  18.4747711  48.4469749   4.5839822  19.0822446  47.8530052
   5.0031385  17.7815655  47.9661423   4.7831680  18.4625237  48.2885830
   3.1775569  15.3602449  48.5650617   3.8998221  15.5243607  48.1054423
   2.6983562  16.0812114  48.4589957   3.2139300  15.4900679  48.4816231
  11.1369077  11.6966248  53.9447302  10.2980177  11.7227527  53.7085566
  11.2073444  12.3436983  54.5252649  11.0237470  11.7962374  53.9956419
   0.8283186  17.7660521  57.6704757   1.3404283  18.0444775  57.0213517
   0.5419529  18.5049816  58.0367570   0.8618049  17.9162875  57.6294635
   9.5838355   8.5951625  48.6774918  10.2864708   8.3959373  48.1994877
   9.3182544   7.8227567  48.9843762   9.6484987   8.4514591  48.6520360
  15.0126601  16.9034235  51.2308544  14.9260575  17.0589661  52.0843323
  14.5577081  17.5472310  50.8567949  14.9329857  17.0209990  51.3015651
   8.8852417  14.2244982  49.8534104   8.6387131  14.1440733  50.6870893
   9.2137540  13.4398450  49.6596631   8.8973660  14.0971247  49.9481627
  12.7800466  20.9328341  53.6420885  12.6414825  21.6309387  54.1469627
  12.0000463  20.7776998  53.2857067  12.6443692  21.0128508  53.6647159
  11.1178551  17.2324716  59.8943267  11.1126589  16.3604533  59.8985693
  11.8239545  17.4312886  59.4212722  11.2223555  17.1328591  59.8250302
   4.8449444  16.9601700  59.2657087   4.9892820  17.5402908  58.6300197
   5.1925093  17.3377997  59.9706941   4.9176905  17.1022404  59.2756082
   7.0169361  16.1591869  57.0482218   6.2692675  16.3522883  56.6430496
   7.1710887  15.3337088  56.8106340   6.9291789  16.0656980  56.9527624
   3.9177199  25.1504472  56.1318114   4.0666763  24.5907388  55.4791518
   4.6977201  25.2296474  56.5150632   4.0551293  25.0790038  56.0915063
  14.2753838  20.2906595  44.4037384  13.8960647  19.5043733  44.3966673
  13.6120084  20.8393452  44.2609028  14.1212313  20.2551419  44.3818181
   6.4430500  25.3219115  57.4102604   6.3674171  24.6527926  57.9653393
   6.3720359  26.0236903  57.9243271   6.4211107  25.3264022  57.5679452
   7.1000747  23.8420114  48.2426210   7.8650638  23.5729758  47.9208875
   6.9978837  23.3570124  48.9596273   7.1982242  23.7309679  48.3006038
   5.1353516  12.0444523  54.7819446   4.3449591  11.8635983  55.1036782
   5.5314139  11.2671476  54.7649741   5.0770393  11.9031984  54.8271994
   9.6219407  20.8732298  40.2226160  10.3892392  20.9332423  39.8132011
   9.1750716  20.3012739  39.7382478   9.6692834  20.7968873  40.0903870
  10.5197203  19.6786954  52.5078892   9.8442204  19.4472186  53.0092279
  10.5289579  19.0708136  51.8820997  10.4215707  19.5545879  52.4895044
   7.6491347  14.5204782  59.2642945   7.5850488  15.3814739  59.1363082
   7.7888534  14.2036776  58.4638496   7.6606817  14.6004949  59.1271158
  12.5213937  22.5352086  44.7389070  12.6033775  23.3419072  44.4150521
  13.0063679  22.5548045  45.4629843  12.6051095  22.6572748  44.7975969
   6.3310441  17.2136922  53.4059148   5.9072690  17.4141421  52.6698166
   6.1555296  16.3665770  53.5183448   6.2421321  17.1185703  53.3132838
   5.8322134  28.7287435  55.8680605   6.3218064  28.0298224  55.6856270
   5.2606366  28.4311305  56.4556662   5.8206664  28.5813658  55.9281646
   1.6192885  17.7088973  48.8387120   1.7757505  17.6435776  49.6943112
   1.9593479  18.4837526  48.6265800   1.6926120  17.8138171  48.9341715
   8.1572030  17.0846857  47.7080484   8.6987576  16.5817238  48.1719104
   8.4718589  17.0312051  46.8969969   8.2836427  17.0026278  47.6564296
  12.0289138  21.2949504  64.8207396  12.8424003  21.0234653  64.9812528
  11.8684104  20.9957044  64.0167592  12.1259086  21.2104430  64.7252802
   6.3258480  22.4764208  44.9920512   6.3951300  21.6178747  45.1313512
   7.1046935  22.6936089  44.6639536   6.4511330  22.3817072  44.9637669
   9.3061299  11.9783161  57.7602784   9.5203269  11.3394076  57.2066138
   8.6895199  12.4228985  57.3310646   9.2466629  11.9493305  57.6153215
  10.7165967  24.9001910  49.2057005  10.3245759  24.5968625  48.4879871
  10.8719040  25.7371000  49.0161959  10.6819557  24.9785746  49.0713502
  11.4700387  13.5872227  58.6986091  10.6577069  13.2798117  58.7799264
  11.9290322  13.1071227  59.2628803  11.4180772  13.4708719  58.7940685
  10.8805642  21.4651898  49.1463035  10.5220297  21.6366541  49.9227068
  10.3944353  21.9265104  48.5891034  10.7564339  21.5590870  49.1788305
   5.6694008  17.1451064  41.6863270   5.9586532  17.9215946  41.9606844
   5.7565806  16.6339795  42.3877769   5.7248264  17.1842982  41.8305768
  12.0410382  22.3555794  60.0930236  12.6790102  21.8615990  59.7592692
  11.3984473  22.2833195  59.5082463  12.0404608  22.2714803  59.9572591
  13.7667382  14.2044940  54.6596152  13.3394990  14.1171289  53.9044252
  13.1293435  14.3122716  55.2450996  13.6096989  14.2077600  54.6341594
  12.0964638  23.0475603  56.7335593  12.8857016  22.6964667  56.8537675
  12.2708236  23.8611991  56.4712227  12.2384920  23.1161460  56.7123461
   1.8357949  16.4584328  53.7863382   0.9945955  16.3588203  53.9942276
   2.0447956  17.2279809  54.1377703   1.7422641  16.5576372  53.8690697
  10.9498462   7.0585159  51.2952012  11.1548056   6.9907467  52.1409009
  10.6224886   7.8643981  51.2273189  10.9313710   7.1671100  51.4111667
   5.6474613  14.3865728  53.0360980   5.3437751  13.8321716  53.6371387
   4.9454034  14.5657938  52.5489014   5.4990823  14.3310510  53.0530685
   4.7040710  11.6966247  47.6005681   4.9800445  10.9785160  47.1883249
   5.3039380  12.2951167  47.3926787   4.8333975  11.6786618  47.5086443
   3.7092964  21.6015448  57.7433077   3.6013319  21.6117510  58.6095135
   3.9188746  22.4270229  57.5538031   3.7243075  21.7256523  57.8437169
  14.2032150   7.6116924  50.7754777  13.5906464   8.0987326  51.1608509
  14.2996325   6.9360415  51.3192428  14.1270048   7.5835232  50.9133635
   8.2051231   9.3679765  45.8752276   8.6594978   9.5390325  46.6000121
   8.6791277   8.7547875  45.4750052   8.3419551   9.3030650  45.9226038
   1.7266756  18.8528091  55.2055015   1.1354690  19.4937589  55.1758030
   2.4887780  19.2765708  55.1786314   1.7515017  19.0103929  55.1970162
  17.8457178  18.6833860  56.2032293  17.9040302  19.1320509  56.9492270
  17.2123646  19.0932673  55.7662373  17.7608473  18.8107595  56.2484841
  11.4856273  24.3037402  52.6387039  11.2875961  24.7928217  51.9443251
  10.8643984  24.5078644  53.2171173  11.3643837  24.4053941  52.6210263
   5.5464251  16.0722299  46.9797284   6.2906296  16.4596575  47.2180233
   5.6924947  15.2279725  47.1437771   5.6774836  16.0052772  47.0391253
   8.5342127  11.6447772  52.8791203   8.0602081  11.1189535  53.3896514
   8.9060263  11.0977245  52.3106064   8.5192016  11.4863769  52.8706350
  14.7978857  16.7050148  54.2897983  14.5577080  15.8656563  54.2940410
  15.2770865  16.7850315  55.0138757  14.8331041  16.5931548  54.3972786
  10.4625627  12.5384327  45.9416957   9.9348645  12.6213071  45.2522666
  10.9221335  13.2802199  45.9381601  10.4527477  12.6604989  45.8391652
  16.7984044  13.4851605  52.2427243  16.5593814  13.4447439  51.4048027
  16.9617946  14.3322757  52.3692964  16.7874348  13.6043690  52.1380724
  13.4030075  17.8701555  58.1732288  14.1264273  17.4174081  57.9943308
  13.1380037  18.1506220  57.3904616  13.4711348  17.8452523  58.0311003
   2.2716943  12.4661728  54.9085167   1.6470013  12.4780120  54.3011120
   1.9362538  12.9421903  55.5576407   2.1302435  12.5380245  54.9141735
  10.0162709  21.1087891  45.0726614  10.7396908  21.5746004  44.9291187
   9.5763300  21.1761500  44.3224211  10.0578401  21.1871727  44.9411395
   9.1848864  17.9685433  56.3227303   8.5705857  17.4243483  56.6175938
   9.7016149  17.4549669  55.8433119   9.1704526  17.8121842  56.2951531
   8.4245161  19.0389703  54.0571601   7.9972769  18.4139422  53.6237037
   8.4170106  18.7564625  54.8830609   8.3604302  18.9042484  54.1151429
   6.7530871   9.9158457  54.2714135   6.7773358   9.3818570  53.5826915
   7.0042345   9.4075766  54.9339726   6.7940790   9.7619361  54.2678780
   4.4546557  15.1589786  55.9493779   3.6238486  15.3263603  55.7429027
   4.3998074  14.7825736  56.7342664   4.3235971  15.1279517  56.0342307
   2.8282600  13.4345377  46.4783896   2.9685561  13.9317841  47.1812538
   3.3265133  12.7331671  46.6198110   2.9223681  13.4047356  46.6035475
   2.8582823  14.3012488  43.8076473   3.4927902  14.8972913  43.7425935
   2.9408434  14.0015946  44.6222343   2.9639374  14.3453396  43.9179560
  15.8365389  16.8327965  56.6762837  16.4283229  17.4725216  56.7081035
  16.2724383  16.1351002  56.9654904  15.9883820  16.8246316  56.7243670
   4.4361806  10.2326463  43.7821915   4.7577647   9.7529546  43.1281178
   4.6988749  11.0426110  43.5912727   4.5227831  10.2816361  43.6577407
   7.6658778  21.2545338  57.3020731   7.1583869  21.8081185  57.7461362
   7.3685425  21.3153628  56.4839506   7.5463663  21.3451649  57.2469188
   9.8320961   9.6198657  56.1445394  10.2576032   9.1671184  55.5328921
   9.2177954   9.0658728  56.4210182   9.8049606   9.4712634  56.0950420
  10.2766559  25.1708596  45.2324675   9.5595868  24.9969458  44.7671912
  10.9273296  24.9361168  44.7000161  10.2668409  25.1104388  45.0853893
  12.8614530  14.0473184  48.9765980  12.1905720  14.5902886  48.8479045
  13.5554280  14.5168039  48.7347675  12.8643397  14.1971455  48.9221508
   6.9101264  26.1869896  54.2077738   6.6866918  25.4288725  54.5761765
   6.4211107  26.2167917  53.4858178   6.8044713  26.0792121  54.1554479
  13.0242657  10.5029068  51.8856353  13.3770267  10.0758791  52.5602152
  12.1657459  10.4179911  52.0157430  12.9492102  10.4273808  52.0051364
   1.7226342  13.1336587  49.9439200   1.0038331  13.5500720  50.2112063
   2.0938705  13.6990826  49.3930838   1.6718274  13.2785869  49.9022007
  11.0225923  13.7664436  55.8341195  11.0023851  13.5847731  56.6875974
  11.0705124  14.6376455  55.8100779  11.0260564  13.8680975  55.9564490
   8.9672253  20.3551628  61.7589672   8.9268108  19.7101305  61.1734828
   9.7795571  20.2988246  62.0715084   9.0815407  20.2510595  61.7186621
   5.5579721  26.4070354  51.6614823   5.1440119  25.7444484  51.2718665
   6.2427095  26.5548213  51.1410517   5.5978092  26.3311012  51.5271320
   8.9245015  25.5660439  52.4138439   8.5261298  25.6762710  51.6459260
   8.3096234  25.7742506  52.9964999   8.7743904  25.6134007  52.3869739
   7.4972917  12.1734587  45.2812579   6.9037756  12.4951584  44.7297146
   7.5348194  11.3275683  45.0733685   7.4147306  12.0958916  45.1695350
  14.4566717   5.6247480  52.8140666  13.9497582   4.9176619  52.7461843
  15.2534151   5.2940668  52.9441742  14.4993957   5.4720631  52.8239661
  10.3730733  12.1314092  48.7114329  10.1444426  12.1546793  47.8692688
  10.6328810  11.3071559  48.8309340  10.3776921  12.0130172  48.6039527
   3.4275496  10.6690638  50.0068525   3.9032862  11.0307718  49.3718706
   2.9264095  11.3247106  50.2868668   3.4240855  10.8184827  49.9545266
  16.6586857  20.1412406  45.7981530  17.0420463  20.8903762  46.0279627
  15.8630971  20.3878226  45.5393519  16.5980640  20.2882100  45.7939104
   5.4702149  12.8131838  43.3741909   5.8501114  12.8311467  42.5893024
   4.7294745  13.2585827  43.2532756   5.4170987  12.8813613  43.2405477
  13.0987440  11.1214029  48.9617488  13.0981666  10.9662686  49.8201764
  12.8943620  11.9677016  48.9058873  13.0687217  11.2234650  49.0805427
  10.8228292  15.8011531  52.6153695  11.3181957  15.0834526  52.5757715
  10.0128067  15.4982329  52.5008182  10.7772185  15.6509177  52.5927420
   6.2686903  19.6509344  44.7650699   5.4598226  19.3276018  44.7184008
   6.7761812  18.9442566  44.6978948   6.2236570  19.4990661  44.7480993
  12.8880110  18.5515218  55.3030823  13.3135182  18.0289640  54.7501248
  12.5237030  19.1496056  54.7819446  12.8966713  18.5625445  55.1439833
   2.5234190  26.8479436  54.0628169   2.8380749  27.6615824  54.0705951
   2.9327604  26.4629655  54.7310328   2.6302288  26.9108138  54.1632260
   9.4758710  22.2649483  51.6331981   9.9469888  22.9789745  51.8021966
   9.8118888  21.6648233  52.1691850   9.5953825  22.2820947  51.7364357
  11.5635694  23.8750796  63.8124053  11.6732660  23.0859357  64.1680800
  11.8926591  23.7856732  63.0098391  11.6288100  23.7456649  63.7466444
  10.1132656  22.0567417  58.3959673   9.5653602  21.4325300  58.1279739
  10.5745685  22.2461689  57.6803753  10.0999866  21.9926467  58.2510105
  12.9226521  10.1252771  55.7810866  12.3389509  10.6261978  55.3688433
  13.2430815   9.6182327  55.1475189  12.8839696  10.1244606  55.6269373
   5.4621320   9.0393366  46.0569541   6.2837014   9.2091679  45.8151235
   4.9990971   9.1940627  45.3335838   5.5152482   9.0875099  45.9141185
   9.6790982  23.0618490  54.9269015  10.4989356  22.9181456  55.1885310
   9.3985060  23.6864688  55.4685453   9.7587726  23.1328842  55.0456954
  26.1504633  30.7183341  47.8911891  26.1198637  31.5727978  48.0630160
  26.7485982  30.4178634  48.4498035  26.2341791  30.7999838  47.9986693
  19.3504318  29.8058992  52.6464821  18.4942213  29.9667490  52.6973938
  19.3971971  28.9351056  52.6669882  19.2303429  29.7009794  52.6570887
  13.7345457  39.3421710  48.4102053  12.9828357  38.9637248  48.1818098
  14.1831469  39.3740144  47.6620863  13.6895124  39.2907317  48.2659555
  22.6598034  36.0745518  62.2525278  23.3664802  35.5797549  62.3812212
  22.8485970  36.5154599  61.5227936  22.7925940  36.0663868  62.1634323
  19.1870417  39.7647080  43.8387600  18.8521786  40.4424001  43.4031822
  19.6997288  39.3752391  43.2504472  19.2135998  39.8071658  43.6874392
  18.7274709  41.7161348  49.7798712  19.1114088  42.2848247  49.2403487
  18.6633850  40.9910859  49.3004528  18.7748136  41.6936812  49.6292574
  22.1956139  31.8651036  55.2896473  22.7412099  32.5436123  55.3490443
  22.1373015  31.7238497  54.4298055  22.2672053  31.9443038  55.1708534
  15.3130214  39.3540102  50.6764825  15.4140577  38.5440456  50.9861953
  14.7171959  39.2597049  50.0464504  15.2402752  39.2205130  50.6291064
  23.9721207  33.2935643  46.1630201  23.8560733  34.0443329  46.5922339
  24.7677094  33.0359597  46.4126288  24.0725797  33.3670490  46.2634292
  15.1530953  44.2717691  52.0779682  15.7968409  44.7130855  52.4675840
  15.4787209  43.4671118  51.9909940  15.2962782  44.2182886  52.1225159
   8.5095258  35.3760389  50.3017159   8.2745442  34.5428041  50.1949428
   8.6480899  35.6565055  49.4878360   8.4950920  35.2943892  50.1659514
  10.8085345  27.5446119  53.2001467  10.1890377  26.9538767  53.0311482
  10.7069209  28.1357555  52.5665790  10.7023021  27.5450202  53.0806456
  15.8551533  37.2829666  47.4499543  16.1767374  37.8234874  46.8460851
  16.5023629  36.7126438  47.5821833  15.9977588  37.2788841  47.3806579
  17.9053241  29.2845661  47.5333930  18.6033406  29.4633789  48.0255393
  18.2205573  28.7616001  46.9104319  18.0548578  29.2339433  47.5135940
  10.5354478  31.0898401  55.4445036  10.4113175  31.6760847  56.0794855
  11.1872763  30.5958597  55.7457311  10.6128128  31.1037206  55.5830965
  18.0941176  35.6716106  47.5213721  18.5334812  35.0633207  47.9668494
  17.9445839  35.2923480  46.7499186  18.1362642  35.5254577  47.4732889
  15.5612819  34.2660118  54.7232547  16.2061822  33.7732561  54.4043495
  15.8014596  34.4084905  55.5498625  15.6923404  34.2137560  54.7982080
  18.0998911  37.1115024  54.3739439  18.3822154  36.3166430  54.1526195
  18.8285071  37.5895611  54.3944500  18.2488474  37.0649621  54.3442455
  16.0780105  24.6538058  51.6155205  15.7483435  25.1049201  50.9458903
  15.4025106  24.5754221  52.1628211  15.9290541  24.7089193  51.5978428
  21.6950513  34.0243288  44.4744491  21.6101808  34.8804254  44.6194059
  22.1834896  33.7487612  45.1426650  21.7539410  34.1100609  44.5946572
  23.2856512  20.6423581  49.8604815  22.9709953  21.3327059  50.2925238
  22.7683454  20.5868363  49.1590316  23.1620983  20.7358469  49.8201764
  22.6268946  30.6428082  45.9742226  22.0980418  30.8587715  46.6339532
  23.1493966  31.3364220  45.8943195  22.6257399  30.7771219  46.0597825
  14.5168554  34.5391298  44.7749694  13.9325769  35.0441330  45.1815558
  14.1138649  34.3133685  44.0346286  14.3707858  34.5799547  44.7254719
  10.0712583  40.2546060  51.5773365   9.5880161  40.9796549  51.5532949
  10.8835901  40.5522190  51.6883523  10.1203330  40.4048413  51.5900645
  16.1426737  39.0478240  54.1823180  15.6253678  38.6885655  53.5784488
  16.8401128  38.5240415  54.1929246  16.1692318  38.9175928  54.0953438
  19.7990329  39.4973054  60.1439353  19.8873674  39.3099195  60.9917563
  20.2280041  38.8510484  59.7444200  19.8752431  39.3736062  60.2111104
  17.3660788  38.7804214  59.1257015  16.8031623  38.3676824  59.6496676
  18.1281812  38.7057120  59.5450158  17.3955237  38.7081615  59.2650015
  18.9745768  30.7856951  43.2518614  19.2141772  30.9934934  42.4393957
  19.2961609  29.9814459  43.3607559  19.0582926  30.6971052  43.1479167
  14.2836059  22.7150346  47.0978152  15.0382027  23.0828663  46.8595202
  14.1063593  23.0889901  47.8657332  14.3690537  22.8248534  47.1763041
  12.9256780  40.7702236  51.7293645  13.6277359  40.2554225  51.7866402
  12.8454263  41.0976387  52.5340520  13.0180540  40.7416462  51.8566437
  27.5770957  28.8644787  55.1425692  26.7399378  28.9346974  55.3773286
  27.5459188  28.8669282  54.2699994  27.4489240  28.8755014  55.0485240
  13.9735686  31.0077822  60.8574060  14.1456190  30.8983717  61.7059342
  14.5105044  31.6532228  60.6205253  14.0780690  31.0869824  60.9479157
  12.6393123  25.1220665  43.7956265  12.4568696  25.3392546  42.9697258
  13.5018736  25.2359678  43.8514880  12.7397713  25.1710563  43.6810752
  12.2507555  36.9608588  51.2379253  13.0896455  37.1931520  51.2853015
  12.2819324  36.0912899  51.1686289  12.3789273  36.8665534  51.2343898
  12.8760258  37.3809463  55.5392559  13.4158483  37.2380594  56.2095931
  12.1930205  37.7806213  55.9076585  12.8552412  37.4189134  55.6926980
  18.3192842  22.1247076  46.8305289  19.0479003  21.9463031  46.3843445
  18.4087735  22.9665156  47.0412467  18.4399505  22.2230954  46.7958807
  22.3001143  33.0600463  50.7337583  23.0558658  33.4931978  50.7726492
  22.4063468  32.4105233  51.3072219  22.4271314  33.0277947  50.8235609
  25.3381314  36.8873741  51.4839986  24.9016546  36.8910483  52.2398957
  25.0044230  37.5679240  51.0519564  25.2243934  36.9886196  51.5320819
  19.9110388  38.9282073  62.8083136  20.6950804  39.0412921  63.1738879
  19.7106982  38.1023210  63.0041822  19.9976413  38.8228793  62.8917522
   8.2797403  33.6009753  55.6926980   8.0135819  32.7848870  55.8517971
   8.2935967  33.6462909  54.8222496   8.2422126  33.4866658  55.5880462
  25.2578797  23.9287568  53.7269414  25.9004706  23.9985673  54.3131329
  25.5101818  23.2616791  53.2248956  25.3900929  23.8413917  53.7396693
  12.1855150  28.3994838  42.3078738  11.4713327  28.1133017  42.7201171
  12.6699119  28.7391464  42.9485126  12.1514514  28.4076488  42.4634373
  13.0296010  27.1388132  58.3393988  12.3367806  26.6685111  58.5854720
  13.6456337  26.9126436  58.9135695  13.0180540  27.0355264  58.4603141
  20.0680781  40.8392175  56.4549592  19.2696027  40.5991676  56.7123461
  20.5166793  40.8906568  57.2016640  20.0155392  40.8114567  56.6034516
  19.3602468  36.9024792  42.6840547  19.7753617  36.5709816  41.9925042
  18.5294398  36.6693694  42.5560683  19.2990477  36.8196048  42.5631394
   8.6890817  34.3868533  52.9738724   8.5066390  34.3615419  52.1211017
   9.4240486  34.8567471  53.0127633   8.7704881  34.4529895  52.8536643
  24.7590491  34.6220043  50.1171612  24.9946080  34.7665242  49.2898463
  24.9080055  35.3862451  50.5103126  24.8156294  34.7559097  50.0535216
  11.7536569  31.1053536  59.4820833  12.4776541  31.0906566  59.9685728
  11.8552705  31.8148891  58.9842801  11.8754778  31.2078239  59.4799620
  26.5880948  33.4621709  47.9541216  26.9189165  33.9949349  47.3481311
  27.1614036  33.5160597  48.6103167  26.7214627  33.5491278  47.9618998
  19.1281518  34.5852620  64.3469780  18.3354499  34.8996132  64.5322400
  19.2430445  34.8004089  63.5090565  19.0276929  34.6636457  64.2508115
  21.8012837  31.3086612  48.6364796  21.8959691  32.0475906  49.0904421
  21.1771681  30.8804087  49.0699361  21.7221867  31.3547932  48.7672944
  20.0565311  34.4872824  59.2855077  20.6304173  33.8500068  59.4403641
  19.9780115  34.4876907  58.4164735  20.1298546  34.3937936  59.1801488
   8.6561727  31.2662034  53.1237791   9.2335230  31.1298484  53.7630036
   7.9575789  30.8097818  53.3783375   8.6382749  31.1784300  53.2560081
  22.0535858  33.1535351  41.8701748  21.9716021  33.2237538  42.7356735
  22.6915579  33.7165095  41.6785489  22.1355696  33.2474322  41.9691697
  15.4129029  32.9196089  51.3376274  15.1548274  32.0867824  51.3107574
  15.4677512  33.1453702  50.4968775  15.3828807  32.8293861  51.2096411
  20.4930080  25.0224540  51.4380367  19.7886406  24.5333725  51.5964286
  20.5415054  25.0347014  50.5668811  20.3960131  24.9514188  51.3319707
  14.3863742  30.4733852  51.8241169  13.8113333  30.6326020  52.4605130
  14.0099418  29.8369261  51.3609620  14.2466554  30.4031665  51.8495727
  18.0537030  28.9457201  56.6833547  17.6651463  28.5211419  56.0285739
  17.3891729  29.1939351  57.1910574  17.8983958  28.9195922  56.6621415
  27.6960299  28.7032206  49.4581378  27.4396864  27.8912147  49.2679260
  28.5389613  28.7109773  49.2311565  27.7826325  28.5844203  49.3966195
   4.1320561  30.1173926  49.8385610   4.2180812  29.7405795  50.6199140
   4.7596358  29.7434372  49.3605568   4.2377112  30.0059409  49.8831087
  21.8763392  22.6431830  54.1957532  22.2573904  21.9610001  54.5825406
  21.0726676  22.3541432  54.0133196  21.8139854  22.4998878  54.2261588
  19.1575969  33.1755806  44.8810354  19.9716607  33.4670698  44.7693126
  19.0935110  32.5215668  44.3068647  19.2678708  33.1221000  44.7799192
  25.3785459  35.8581802  59.2939930  25.1424096  35.0269867  59.1751991
  26.0228688  35.8067409  59.8794774  25.4380129  35.7279490  59.3625824
  15.0283877  36.6477323  50.0082667  15.6657824  36.4089071  50.5534460
  15.4538948  36.8514482  49.2735827  15.1860043  36.6428333  49.9799824
   9.7196519  38.8865660  53.8916970   9.7600664  39.1580511  53.0636750
  10.2791043  39.4107568  54.3074758   9.8079865  39.0041415  53.8308858
  15.6686692  31.8679613  44.3457556  16.0531845  31.6487320  45.0974101
  15.4198312  32.6942558  44.4758632  15.6888764  31.9577759  44.4758632
  15.8355232  25.1486028  64.0620140  15.5208673  25.9185591  63.7989703
  15.5145165  24.5856284  63.4772367  15.7414151  25.1796297  63.9361490
  17.4105349  37.1249746  51.6876453  17.4844357  36.9624918  52.5418303
  18.2274855  37.3139935  51.4436934  17.5421707  37.1286488  51.7774478
  11.1711105  37.4707608  48.7170896  10.3449223  37.7169346  48.5905175
  11.2323097  37.3919689  49.5832954  11.0585272  37.4952557  48.8259841
  13.3887129  23.5376549  49.6766336  12.5209555  23.6099149  49.7423946
  13.6762334  24.3398628  49.8654312  13.3026877  23.6670697  49.7141103
  22.5120018  23.6854409  58.0077658  23.2573610  23.4964219  57.5941084
  22.0957323  24.2112647  57.4491515  22.5604992  23.7356554  57.8642232
  15.9509934  40.0884489  46.4189926  16.2408233  39.6973470  45.6949153
  16.6813415  40.2701194  46.8595201  16.1016819  40.0578302  46.3772733
  16.5404680  34.8902235  57.5043057  16.0416373  35.6018002  57.5827945
  17.3504904  35.2102901  57.4661219  16.5860786  35.0429083  57.5099625
  13.8915850  42.0651871  49.4850076  13.6716145  41.7749226  50.2776743
  13.6710372  41.4066826  48.9567988  13.8263444  41.9251580  49.5238985
  12.8032797  34.1525188  51.7505778  12.5146046  33.5262659  52.2851505
  13.6716145  34.0945475  51.8170458  12.8893049  34.0512732  51.8396732
  23.5910695  29.2959971  52.0687759  23.2475461  28.5750306  52.4195009
  23.6903738  29.0873822  51.2266118  23.5552738  29.1584174  51.9959439
  16.0583806  43.4381261  48.2680768  16.7107864  42.9057703  48.4971794
  15.3609414  43.0849913  48.6548642  16.0514524  43.3070784  48.3592936
  13.0065071  35.7920439  47.6748143  13.7611039  36.1733478  47.8883605
  12.4135683  36.2431582  48.1294839  13.0301784  35.9149266  47.7731021
  24.0523724  35.7585675  47.6111748  24.6181757  36.4178885  47.5270291
  23.4051628  36.1035373  48.0828150  24.0402481  35.9067616  47.6684504
  15.4671738  27.7483279  62.8005355  14.6571513  28.0541059  62.6895197
  15.9446424  28.4688861  62.9157939  15.4175216  27.8997880  62.8012426
  14.3263297  36.9629000  53.0488258  13.8044051  37.1029292  53.7340123
  14.7137318  36.2039664  53.2390375  14.3066998  36.8714524  53.1789335
  11.3154481  27.0134809  47.1183213  11.0279277  26.6436079  46.3815160
  12.0024950  27.4829664  46.8566918  11.3743379  27.0281778  46.9698288
  20.5230302  38.7024459  47.0348827  20.2816978  37.9692320  46.6275892
  20.7031635  39.2511316  46.3815160  20.5137926  38.6746850  46.8779050
  15.7529623  33.9933019  48.4469749  15.5572405  34.6007754  47.8530052
  15.9763968  33.3000963  47.9661423  15.7564264  33.9810545  48.2885830
  14.1508153  30.8787757  48.5650617  14.8730805  31.0428915  48.1054423
  13.6716146  31.5997422  48.4589957  14.1871884  31.0085987  48.4816231
  22.1101660  27.2151556  53.9447302  21.2712761  27.2412835  53.7085566
  22.1806028  27.8622291  54.5252649  21.9970054  27.3147682  53.9956419
  11.8015770  33.2845829  57.6704757  12.3136866  33.5630083  57.0213517
  11.5152112  34.0235123  58.0367570  11.8350633  33.4348183  57.6294635
  20.5570939  24.1136933  48.6774918  21.2597292  23.9144681  48.1994877
  20.2915127  23.3412875  48.9843762  20.6217571  23.9699899  48.6520360
   8.8882676  27.7916021  47.9668494   8.9898812  28.5942183  48.2949469
   9.6838563  27.5903357  47.6691574   9.0210582  27.8801920  47.9703849
  15.3199495  25.3772218  57.7305799  15.1282692  25.3927352  58.5805222
  16.1698091  25.5735892  57.7072454  15.4175217  25.4086569  57.8529094
   9.7046408  27.9063199  55.7089615   9.5631900  27.0547140  55.8334123
   9.9886971  27.9491860  54.8851821   9.7254254  27.7862949  55.6057239
  19.8585000  29.7430290  49.8534104  19.6119715  29.6626041  50.6870893
  20.1870123  28.9583757  49.6596631  19.8706244  29.6156555  49.9481627
  23.7533049  36.4513649  53.6420885  23.6147408  37.1494695  54.1469627
  22.9733047  36.2962305  53.2857067  23.6176276  36.5313816  53.6647159
  22.0911134  32.7510024  59.8943267  22.0859173  31.8789841  59.8985693
  22.7972128  32.9498194  59.4212722  22.1956138  32.6513899  59.8250302
  15.8182028  32.4787008  59.2657087  15.9625403  33.0588216  58.6300197
  16.1657676  32.8563305  59.9706941  15.8909489  32.6207712  59.2756082
  17.9901945  31.6777177  57.0482218  17.2425259  31.8708191  56.6430496
  18.1443470  30.8522396  56.8106340  17.9024373  31.5842288  56.9527624
  14.8909783  40.6689780  56.1318114  15.0399346  40.1092696  55.4791518
  15.6709785  40.7481782  56.5150632  15.0283876  40.5975346  56.0915063
  25.2486422  35.8091903  44.4037384  24.8693231  35.0229041  44.3966673
  24.5852667  36.3578760  44.2609028  25.0944897  35.7736727  44.3818181
  17.4163083  40.8404423  57.4102604  17.3406754  40.1713234  57.9653393
  17.3452942  41.5422211  57.9243271  17.3943690  40.8449330  57.5679452
  18.2303722  25.5727727  57.9377622  18.6876336  26.3051702  58.0650414
  18.3060051  25.1494193  58.6964878  18.3094692  25.6184965  58.0678699
  10.4736713  25.8193547  59.0267066   9.9378903  25.2073905  59.3427833
  10.5354478  26.3941683  59.6800732  10.4032346  25.8140475  59.1702492
  22.7031048  18.7517603  51.8071465  22.8214616  19.2094066  51.0738768
  22.5293224  17.9462864  51.5207683  22.6950219  18.7011375  51.6572399
  18.0733330  39.3605422  48.2426210  18.8383221  39.0915066  47.9208875
  17.9711420  38.8755432  48.9596273  18.1714826  39.2494986  48.3006038
  16.1086100  27.5629831  54.7819446  15.3182175  27.3821291  55.1036782
  16.5046723  26.7856784  54.7649741  16.0502976  27.4217292  54.8271994
  21.4929786  35.1972261  52.5078892  20.8174788  34.9657494  53.0092279
  21.5022162  34.5893444  51.8820997  21.3948291  35.0731187  52.4895044
  18.6223930  30.0390090  59.2642945  18.5583071  30.9000047  59.1363082
  18.7621118  29.7222084  58.4638496  18.6339400  30.1190257  59.1271158
  17.3043024  32.7322230  53.4059148  16.8805273  32.9326729  52.6698166
  17.1287879  31.8851078  53.5183448  17.2153905  32.6371011  53.3132838
  16.8054718  44.2472743  55.8680605  17.2950648  43.5483532  55.6856270
  16.2338950  43.9496613  56.4556662  16.7939247  44.0998966  55.9281646
  12.5925469  33.2274281  48.8387120  12.7490088  33.1621084  49.6943112
  12.9326062  34.0022834  48.6265800  12.6658704  33.3323479  48.9341715
  19.1304614  32.6032165  47.7080484  19.6720159  32.1002546  48.1719104
  19.4451173  32.5497359  46.8969969  19.2569011  32.5211586  47.6564296
  23.0021721  36.8134812  64.8207396  23.8156586  36.5419961  64.9812528
  22.8416687  36.5142352  64.0167592  23.0991670  36.7289738  64.7252802
  17.2991063  37.9949516  44.9920512  17.3683884  37.1364055  45.1313512
  18.0779519  38.2121397  44.6639536  17.4243913  37.9002380  44.9637669
  20.2793883  27.4968469  57.7602784  20.4935853  26.8579383  57.2066138
  19.6627782  27.9414293  57.3310646  20.2199212  27.4678613  57.6153215
  21.6898551  40.4187218  49.2057005  21.2978343  40.1153933  48.4879871
  21.8451623  41.2556308  49.0161959  21.6552141  40.4971054  49.0713502
   9.1659731  30.4109232  49.1547888   9.5458695  30.8293777  48.4908155
   8.5915095  30.9922687  49.4616731   9.1371055  30.5587090  49.1024629
  22.4432971  29.1057534  58.6986091  21.6309653  28.7983425  58.7799264
  22.9022906  28.6256535  59.2628803  22.3913356  28.9894027  58.7940685
  21.8538226  36.9837206  49.1463035  21.4952880  37.1551849  49.9227068
  21.3676937  37.4450412  48.5891034  21.7296923  37.0776177  49.1788305
  19.6708612  20.6068405  52.7490127  18.8002170  20.5807126  52.7023436
  19.9248953  20.4345597  51.9315973  19.5802172  20.5778549  52.6210264
  16.6426591  32.6636372  41.6863270  16.9319116  33.4401254  41.9606844
  16.7298390  32.1525103  42.3877769  16.6980847  32.7028290  41.8305768
  19.5386479  30.5117606  63.4814793  20.0086110  31.1359722  63.8682668
  19.5848359  29.8434581  64.0408008  19.6154354  30.5052286  63.6214865
  16.6957752  22.6174633  54.2063597  16.1796241  21.9254825  54.3315176
  16.1351681  23.2845410  54.1526196  16.5364265  22.6137891  54.2169663
  18.7649986  23.1567593  56.0356450  18.3781739  23.1816625  56.8169980
  18.2782923  22.5909272  55.5830966  18.6362495  23.0763344  56.0844353
  23.0142965  37.8741102  60.0930236  23.6522686  37.3801298  59.7592692
  22.3717057  37.8018503  59.5082463  23.0137192  37.7900111  59.9572591
  24.7399965  29.7230248  54.6596152  24.3127573  29.6356597  53.9044252
  24.1026018  29.8308024  55.2450996  24.5829572  29.7262908  54.6341594
  18.4307127  20.0434579  58.3266710  19.0600245  20.5794879  58.0487780
  18.5992990  19.9511938  59.1780275  18.5484922  20.1095941  58.4115238
  18.2321042  24.8305774  60.5993121  19.0594472  24.5590922  60.6551736
  18.2528888  25.6266615  60.9556939  18.3573892  24.9085528  60.6608304
  23.0697222  38.5660911  56.7335593  23.8589600  38.2149975  56.8537675
  23.2440820  39.3797299  56.4712227  23.2117503  38.6346768  56.7123461
  12.8090532  31.9769636  53.7863382  11.9678539  31.8773511  53.9942276
  13.0180540  32.7465117  54.1377703  12.7155225  32.0761680  53.8690697
  10.2866099  29.5989173  51.6148133   9.8922797  29.6732185  50.8398242
   9.7306216  29.9847120  52.1656494  10.1468911  29.6670948  51.5815792
  21.9231046  22.5770467  51.2952012  22.1280639  22.5092775  52.1409009
  21.5957470  23.3829289  51.2273189  21.9046294  22.6856408  51.4111667
  16.6207197  29.9051036  53.0360980  16.3170334  29.3507024  53.6371387
  15.9186618  30.0843246  52.5489014  16.4723407  29.8495818  53.0530685
  15.6773294  27.2151555  47.6005681  15.9533028  26.4970468  47.1883249
  16.2771963  27.8136475  47.3926787  15.8066559  27.1971926  47.5086443
  14.6825548  37.1200756  57.7433077  14.5745903  37.1302818  58.6095135
  14.8921329  37.9455537  57.5538031  14.6975659  37.2441831  57.8437169
  25.1764734  23.1302232  50.7754777  24.5639047  23.6172634  51.1608509
  25.2728908  22.4545722  51.3192428  25.1002631  23.1020540  50.9133635
  19.1783815  24.8865073  45.8752276  19.6327561  25.0575633  46.6000121
  19.6523860  24.2733183  45.4750052  19.3152135  24.8215958  45.9226038
  12.6999340  34.3713399  55.2055015  12.1087273  35.0122897  55.1758030
  13.4620364  34.7951016  55.1786314  12.7247601  34.5289237  55.1970162
  13.0959963  25.5315396  55.8723032  13.5561444  25.6054326  56.6098156
  13.1416069  26.3296650  55.5222854  13.1710518  25.6609543  55.9295789
  14.7443313  26.1982091  60.4395060  14.3528878  25.5515438  60.8750837
  14.9129175  26.7893527  61.0589315  14.7114223  26.1896359  60.5957766
  22.4588856  39.8222710  52.6387039  22.2608545  40.3113525  51.9443251
  21.8376567  40.0263952  53.2171173  22.3376421  39.9239249  52.6210263
  16.5196835  31.5907607  46.9797284  17.2638880  31.9781883  47.2180233
  16.6657531  30.7465032  47.1437771  16.6507420  31.5238080  47.0391253
  18.4376410  23.3857866  52.0129145  17.5912455  23.5580674  51.8870495
  18.4347542  22.5807210  52.3494973  18.3123560  23.2918895  52.0440272
  19.5074710  27.1633080  52.8791203  19.0334665  26.6374842  53.3896514
  19.8792846  26.6162553  52.3106064  19.4924599  27.0049077  52.8706350
   9.8847741  29.1604587  58.2474749  10.7473354  29.0600296  58.1612079
   9.5539524  28.5799296  57.6860321   9.9632937  29.0596214  58.1520155
  21.4358210  28.0569635  45.9416957  20.9081229  28.1398379  45.2522666
  21.8953918  28.7987506  45.9381601  21.4260061  28.1790297  45.8391652
  24.3762658  33.3886863  58.1732288  25.0996857  32.9359389  57.9943308
  24.1112620  33.6691528  57.3904616  24.4443931  33.3637831  58.0311003
  13.2449527  27.9847036  54.9085167  12.6202597  27.9965428  54.3011120
  12.9095121  28.4607211  55.5576407  13.1035018  28.0565553  54.9141735
  13.4291275  26.3272155  40.9657852  13.0804080  26.9791880  41.4289401
  12.9487721  26.3129268  40.2381723  13.3061519  26.4215208  40.9268943
   9.9575202  36.0447496  56.3488931   9.4275127  35.3539935  56.3983906
  10.2300295  36.0357682  55.5201640   9.9199924  35.9414628  56.2336347
  20.9895293  36.6273199  45.0726614  21.7129491  37.0931312  44.9291187
  20.5495884  36.6946808  44.3224211  21.0310985  36.7057035  44.9411395
  20.1581448  33.4870741  56.3227303  19.5438441  32.9428791  56.6175938
  20.6748733  32.9734977  55.8433119  20.1437110  33.3307150  56.2951531
  19.3977745  34.5575011  54.0571601  18.9705353  33.9324729  53.6237037
  19.3902689  34.2749933  54.8830609  19.3336886  34.4227791  54.1151429
  12.5140272  29.5940184  57.1260035  12.6733759  28.8383508  57.5311757
  12.3333166  30.1431123  57.7800773  12.5105631  29.5633998  57.2822741
  20.4560575  21.7601419  57.6810825  19.9601136  21.9565094  56.9902392
  21.2129637  22.1594088  57.5099627  20.4947400  21.8479153  57.5530962
  17.7263454  25.4343765  54.2714135  17.7505942  24.9003878  53.5826915
  17.9774928  24.9261074  54.9339726  17.7673373  25.2804669  54.2678780
   5.2371044  32.7175260  53.7057279   5.1314493  32.6722105  52.8409364
   4.4871264  33.0629041  53.9871564   5.1106647  32.7616169  53.6194609
  14.0064777  24.1614584  53.6519880  14.0463148  24.6623790  54.3654587
  13.1814441  24.2524977  53.3825803  13.8904303  24.2496400  53.7170418
  16.1894390  33.7275324  61.7540174  15.3390020  33.8647038  61.8897819
  16.3522517  32.9939102  62.1987876  16.0878253  33.6389425  61.8395773
  15.4279140  30.6775093  55.9493779  14.5971070  30.8448911  55.7429027
  15.3730657  30.3011044  56.7342664  15.2968555  30.6464825  56.0342307
  13.2362923  24.1683986  61.5850189  13.8615627  23.6246119  61.8579622
  12.7813403  23.6878904  61.0157980  13.2611184  24.0173468  61.5411783
  13.8015184  28.9530685  46.4783896  13.9418145  29.4503149  47.1812538
  14.2997717  28.2516979  46.6198110  13.8956265  28.9232664  46.6035475
  13.8315406  29.8197796  43.8076473  14.4660486  30.4158221  43.7425935
  13.9141017  29.5201254  44.6222343  13.9371957  29.8638704  43.9179560
  26.8097972  32.3513273  56.6762837  27.4015812  32.9910524  56.7081035
  27.2456967  31.6536310  56.9654904  26.9616403  32.3431624  56.7243670
  15.4094389  25.7511771  43.7821915  15.7310230  25.2714854  43.1281178
  15.6721333  26.5611417  43.5912727  15.4960415  25.8001669  43.6577407
  18.6391362  36.7730646  57.3020731  18.1316453  37.3266493  57.7461362
  18.3418008  36.8338936  56.4839506  18.5196247  36.8636957  57.2469188
  20.8053544  25.1383965  56.1445394  21.2308616  24.6856492  55.5328921
  20.1910537  24.5844036  56.4210182  20.7782190  24.9897942  56.0950420
  10.3368394  32.0165637  47.0766019  10.8460624  32.6130144  47.4577325
  10.8102666  31.7491610  46.3942439  10.4811770  32.0651452  47.0320542
  21.2499142  40.6893903  45.2324675  20.5328452  40.5154766  44.7671912
  21.9005880  40.4546476  44.7000161  21.2400993  40.6289696  45.0853893
  19.2447767  21.6099065  49.5535971  18.6016085  21.4596712  50.1221110
  18.9047174  21.3641410  48.7885076  19.0992844  21.5511188  49.5238986
  23.8347113  29.5658492  48.9765980  23.1638303  30.1088194  48.8479045
  24.5286864  30.0353347  48.7347675  23.8375981  29.7156763  48.9221508
  17.8833847  41.7055204  54.2077738  17.6599502  40.9474033  54.5761765
  17.3943691  41.7353225  53.4858178  17.7777296  41.5977429  54.1554479
  23.9975241  26.0214376  51.8856353  24.3502851  25.5944099  52.5602152
  23.1390042  25.9365219  52.0157430  23.9224686  25.9459116  52.0051364
  12.6958926  28.6521895  49.9439200  11.9770915  29.0686028  50.2112063
  13.0671288  29.2176134  49.3930838  12.6450858  28.7971177  49.9022007
  21.9958507  29.2849744  55.8341195  21.9756434  29.1033039  56.6875974
  22.0437707  30.1561763  55.8100779  21.9993148  29.3866282  55.9564490
  19.9404837  35.8736936  61.7589672  19.9000691  35.2286613  61.1734828
  20.7528155  35.8173554  62.0715084  20.0547990  35.7695903  61.7186621
  16.5312304  41.9255662  51.6614823  16.1172703  41.2629792  51.2718665
  17.2159678  42.0733521  51.1410517  16.5710676  41.8496320  51.5271320
  19.8977598  41.0845747  52.4138439  19.4993882  41.1948018  51.6459260
  19.2828818  41.2927814  52.9964999  19.7476488  41.1319315  52.3869739
  18.4705500  27.6919895  45.2812579  17.8770340  28.0136892  44.7297146
  18.5080778  26.8460991  45.0733685  18.3879889  27.6144223  45.1695350
  25.4299301  21.1432787  52.8140666  24.9230166  20.4361927  52.7461843
  26.2266735  20.8125976  52.9441742  25.4726540  20.9905939  52.8239661
  21.3463317  27.6499400  48.7114329  21.1177010  27.6732101  47.8692688
  21.6061393  26.8256867  48.8309340  21.3509505  27.5315480  48.6039527
  15.6282545  29.5033873  58.3139430  15.1161448  28.8955056  58.6724461
  15.4562041  30.2190465  58.7813405  15.5272182  29.5197172  58.4355653
  10.4748260  27.9471448  60.9641791  10.3050850  28.6072823  60.4189998
  10.0314210  28.1578009  61.6854280  10.3847594  28.0757430  60.9903421
  14.4008079  26.1875946  50.0068525  14.8765446  26.5493026  49.3718706
  13.8996679  26.8432414  50.2868668  14.3973438  26.3370135  49.9545266
  27.6319441  35.6597714  45.7981530  28.0153047  36.4089070  46.0279627
  26.8363554  35.9063534  45.5393519  27.5713223  35.8067408  45.7939104
  19.5051616  27.4258117  60.7541685  20.0623046  27.1971927  60.1220151
  19.1812681  28.1863783  60.4776898  19.5398026  27.5041954  60.6198182
   7.3750325  30.8518314  56.2230281   6.8277044  30.1818959  56.3411150
   8.1642703  30.4848162  56.2873748   7.4102508  30.6983300  56.2498982
  17.2234733  30.5125771  61.7193692  17.9746060  30.8277448  62.0333246
  17.4157309  30.3104942  60.8927614  17.3626147  30.5293153  61.6437088
  16.4434733  28.3317146  43.3741909  16.8233697  28.3496775  42.5893024
  15.7027329  28.7771135  43.2532756  16.3903570  28.3998920  43.2405477
  24.0720023  26.6399337  48.9617488  24.0714249  26.4847994  49.8201764
  23.8676203  27.4862324  48.9058873  24.0419801  26.7419958  49.0805427
   6.1337294  30.0639121  53.3776304   5.9559055  29.6115730  54.1031220
   5.8456316  30.8665283  53.5614782   6.0650247  30.1161679  53.5119807
  21.7960875  31.3196839  52.6153695  22.2914540  30.6019834  52.5757715
  20.9860651  31.0167636  52.5008182  21.7504768  31.1694485  52.5927420
  17.2419487  35.1694652  44.7650699  16.4330809  34.8461326  44.7184008
  17.7494396  34.4627874  44.6978948  17.1969153  35.0175968  44.7480993
   7.8709764  32.5966845  50.4898063   7.0055283  32.5852536  50.3780835
   7.9708580  32.4097068  51.3369203   7.7583931  32.5672906  50.5987008
  23.8612694  34.0700526  55.3030823  24.2867766  33.5474948  54.7501248
  23.4969614  34.6681364  54.7819446  23.8699297  34.0810753  55.1439833
  13.4966774  42.3664744  54.0628169  13.8113333  43.1801132  54.0705951
  13.9060187  41.9814962  54.7310328  13.6034872  42.4293446  54.1632260
  20.4491293  37.7834791  51.6331981  20.9202472  38.4975053  51.8021966
  20.7851472  37.1833541  52.1691850  20.5686408  37.8006255  51.7364357
  22.5368278  39.3936104  63.8124053  22.6465243  38.6044665  64.1680800
  22.8659175  39.3042040  63.0098391  22.6020684  39.2641957  63.7466444
  17.3660788  22.5562261  58.5890076  17.4988694  21.7593255  58.9171051
  17.7505941  23.0828664  59.1688351  17.4417117  22.5162178  58.7233578
  21.0865240  37.5752725  58.3959673  20.5386186  36.9510608  58.1279739
  21.5478268  37.7646997  57.6803753  21.0732449  37.5111775  58.2510105
  20.4393144  19.4792587  55.1871169  19.6339107  19.3690317  55.5039007
  20.3099879  19.5805043  54.3301035  20.3013276  19.4776257  55.1079209
  23.8959104  25.6438079  55.7810866  23.3122093  26.1447286  55.3688433
  24.2163398  25.1367635  55.1475189  23.8572279  25.6429914  55.6269373
  16.4353903  24.5578674  46.0569541  17.2569598  24.7276987  45.8151235
  15.9723554  24.7125935  45.3335838  16.4885066  24.6060407  45.9141185
  15.0249235  22.5521436  56.8367969  15.5693648  22.2112563  57.4272311
  15.0786171  23.4106898  56.9789254  15.1138355  22.6276696  56.9449843
  10.8379794  36.3137852  53.7106777  11.4424651  36.2733686  53.0820598
  10.6307106  37.1609004  53.7410833  10.8968691  36.4325855  53.6222894
  20.6523566  38.5803797  54.9269015  21.4721940  38.4366763  55.1885310
  20.3717644  39.2049996  55.4685453  20.7320309  38.6514149  55.0456954
   6.0731076  35.2972470  53.5805700   5.9755354  34.4868741  53.8895757
   6.8559946  35.2764263  53.1951968   6.1747213  35.1739560  53.5692563
  30.3236901  45.3244300  52.6464821  29.4674797  45.4852798  52.6973938
  30.3704555  44.4536364  52.6669882  30.2036013  45.2195102  52.6570887
  24.7078041  54.8607018  48.4102053  23.9560941  54.4822556  48.1818098
  25.1564053  54.8925452  47.6620863  24.6627708  54.8092625  48.2659555
  33.6330618  51.5930826  62.2525278  34.3397385  51.0982857  62.3812212
  33.8218553  52.0339907  61.5227936  33.7658523  51.5849176  62.1634323
  30.1603001  55.2832388  43.8387600  29.8254369  55.9609309  43.4031822
  30.6729871  54.8937699  43.2504472  30.1868582  55.3256966  43.6874392
  29.7007292  57.2346656  49.7798712  30.0846672  57.8033555  49.2403487
  29.6366433  56.5096167  49.3004528  29.7480719  57.2122120  49.6292574
  33.1688722  47.3836344  55.2896473  33.7144682  48.0621431  55.3490443
  33.1105599  47.2423805  54.4298055  33.2404637  47.4628346  55.1708534
  26.2862797  54.8725410  50.6764825  26.3873160  54.0625764  50.9861953
  25.6904542  54.7782357  50.0464504  26.2135336  54.7390438  50.6291064
  26.1263537  59.7902999  52.0779682  26.7700992  60.2316163  52.4675840
  26.4519792  58.9856426  51.9909940  26.2695365  59.7368194  52.1225159
  19.4827841  50.8945697  50.3017159  19.2478026  50.0613349  50.1949428
  19.6213482  51.1750362  49.4878360  19.4683504  50.8129200  50.1659514
  21.7817929  43.0631427  53.2001467  21.1622961  42.4724075  53.0311482
  21.6801793  43.6542863  52.5665790  21.6755604  43.0635510  53.0806456
  26.8284116  52.8014974  47.4499543  27.1499958  53.3420182  46.8460851
  27.4756213  52.2311746  47.5821833  26.9710172  52.7974149  47.3806579
  21.5087062  46.6083709  55.4445036  21.3845759  47.1946155  56.0794855
  22.1605346  46.1143905  55.7457311  21.5860711  46.6222513  55.5830965
  29.0673760  51.1901414  47.5213721  29.5067395  50.5818515  47.9668494
  28.9178423  50.8108787  46.7499186  29.1095226  51.0439885  47.4732889
  26.5345403  49.7845426  54.7232547  27.1794405  49.2917869  54.4043495
  26.7747180  49.9270213  55.5498625  26.6655988  49.7322868  54.7982080
  29.0731494  52.6300332  54.3739439  29.3554737  51.8351738  54.1526195
  29.8017655  53.1080919  54.3944500  29.2221058  52.5834929  54.3442455
  32.6683097  49.5428595  44.4744491  32.5834392  50.3989562  44.6194059
  33.1567480  49.2672920  45.1426650  32.7271994  49.6285917  44.5946572
  25.4901138  50.0576606  44.7749694  24.9058353  50.5626638  45.1815558
  25.0871233  49.8318993  44.0346286  25.3440441  50.0984855  44.7254719
  21.0445166  55.7731368  51.5773365  20.5612744  56.4981857  51.5532949
  21.8568484  56.0707498  51.6883523  21.0935914  55.9233721  51.5900645
  27.1159320  54.5663548  54.1823180  26.5986262  54.2070963  53.5784488
  27.8133711  54.0425723  54.1929246  27.1424901  54.4361236  54.0953438
  30.7722912  55.0158362  60.1439353  30.8606258  54.8284503  60.9917563
  31.2012625  54.3695792  59.7444200  30.8485015  54.8921370  60.2111104
  28.3393372  54.2989522  59.1257015  27.7764207  53.8862132  59.6496676
  29.1014395  54.2242428  59.5450158  28.3687821  54.2266923  59.2650015
  23.8989363  56.2887543  51.7293645  24.6009943  55.7739533  51.7866402
  23.8186846  56.6161695  52.5340520  23.9913124  56.2601770  51.8566437
  24.9468270  46.5263130  60.8574060  25.1188774  46.4169025  61.7059342
  25.4837627  47.1717536  60.6205253  25.0513274  46.6055132  60.9479157
  23.2240139  52.4793895  51.2379253  24.0629038  52.7116828  51.2853015
  23.2551908  51.6098207  51.1686289  23.3521856  52.3850842  51.2343898
  23.8492842  52.8994771  55.5392559  24.3891067  52.7565902  56.2095931
  23.1662788  53.2991521  55.9076585  23.8284996  52.9374442  55.6926980
  33.2733727  48.5785771  50.7337583  34.0291242  49.0117286  50.7726492
  33.3796051  47.9290541  51.3072219  33.4003897  48.5463255  50.8235609
  36.3113898  52.4059049  51.4839986  35.8749130  52.4095791  52.2398957
  35.9776813  53.0864547  51.0519564  36.1976518  52.5071504  51.5320819
  30.8842971  54.4467381  62.8083136  31.6683388  54.5598229  63.1738879
  30.6839566  53.6208518  63.0041822  30.9708997  54.3414101  62.8917522
  19.2529987  49.1195061  55.6926980  18.9868402  48.3034178  55.8517971
  19.2668551  49.1648217  54.8222496  19.2154709  49.0051966  55.5880462
  24.0028593  42.6573440  58.3393988  23.3100390  42.1870419  58.5854720
  24.6188921  42.4311744  58.9135695  23.9913123  42.5540572  58.4603141
  31.0413365  56.3577483  56.4549592  30.2428611  56.1176983  56.7123461
  31.4899376  56.4091876  57.2016640  30.9887976  56.3299875  56.6034516
  30.3335052  52.4210100  42.6840547  30.7486200  52.0895124  41.9925042
  29.5026981  52.1879002  42.5560683  30.2723061  52.3381356  42.5631394
  19.6623401  49.9053841  52.9738724  19.4798974  49.8800727  52.1211017
  20.3973069  50.3752779  53.0127633  19.7437464  49.9715203  52.8536643
  22.7269152  46.6238844  59.4820833  23.4509125  46.6091874  59.9685728
  22.8285289  47.3334199  58.9842801  22.8487361  46.7263547  59.4799620
  30.1014102  50.1037928  64.3469780  29.3087082  50.4181440  64.5322400
  30.2163029  50.3189397  63.5090565  30.0009512  50.1821765  64.2508115
  31.0297894  50.0058132  59.2855077  31.6036756  49.3685376  59.4403641
  30.9512698  50.0062214  58.4164735  31.1031129  49.9123243  59.1801488
  19.6294311  46.7847342  53.1237791  20.2067814  46.6483792  53.7630036
  18.9308373  46.3283126  53.3783375  19.6115332  46.6969608  53.2560081
  26.3861613  48.4381397  51.3376274  26.1280857  47.6053132  51.3107574
  26.4410096  48.6639010  50.4968775  26.3561391  48.3479168  51.2096411
  25.3596325  45.9919160  51.8241169  24.7845916  46.1511328  52.4605130
  24.9832002  45.3554569  51.3609620  25.2199138  45.9216973  51.8495727
  29.0269614  44.4642509  56.6833547  28.6384047  44.0396727  56.0285739
  28.3624312  44.7124659  57.1910574  28.8716542  44.4381230  56.6621415
  15.1053144  45.6359234  49.8385610  15.1913396  45.2591103  50.6199140
  15.7328942  45.2619680  49.3605568  15.2109695  45.5244717  49.8831087
  30.1308552  48.6941114  44.8810354  30.9449191  48.9856006  44.7693126
  30.0667693  48.0400976  44.3068647  30.2411291  48.6406308  44.7799192
  36.3518042  51.3767110  59.2939930  36.1156680  50.5455174  59.1751991
  36.9961271  51.3252717  59.8794774  36.4112713  51.2464798  59.3625824
  26.0016460  52.1662631  50.0082667  26.6390407  51.9274378  50.5534460
  26.4271532  52.3699790  49.2735827  26.1592627  52.1613641  49.9799824
  20.6929103  54.4050967  53.8916970  20.7333248  54.6765819  53.0636750
  21.2523627  54.9292876  54.3074758  20.7812449  54.5226723  53.8308858
  26.8087816  40.6671336  64.0620140  26.4941257  41.4370899  63.7989703
  26.4877748  40.1041592  63.4772367  26.7146735  40.6981605  63.9361490
  37.3754463  51.1611558  55.3568225  37.0700280  51.8939615  55.7181540
  36.6560679  50.7549488  55.0761011  37.2241805  51.2093291  55.3681362
  28.3837932  52.6435054  51.6876453  28.4576941  52.4810225  52.5418303
  29.2007439  52.8325243  51.4436934  28.5154291  52.6471796  51.7774478
  22.1443689  52.9892916  48.7170896  21.3181807  53.2354654  48.5905175
  22.2055680  52.9104997  49.5832954  22.0317856  53.0137865  48.8259841
  24.3619713  39.0561857  49.6766336  23.4942138  39.1284457  49.7423946
  24.6494917  39.8583936  49.8654312  24.2759461  39.1856005  49.7141103
  33.4852602  39.2039717  58.0077658  34.2306194  39.0149527  57.5941084
  33.0689906  39.7297955  57.4491515  33.5337576  39.2541862  57.8642232
  26.9242518  55.6069797  46.4189926  27.2140816  55.2158778  45.6949153
  27.6545999  55.7886502  46.8595201  27.0749402  55.5763610  46.3772733
  27.5137263  50.4087543  57.5043057  27.0148957  51.1203310  57.5827945
  28.3237488  50.7288209  57.4661219  27.5593370  50.5614391  57.5099625
  24.8648434  57.5837179  49.4850076  24.6448729  57.2934534  50.2776743
  24.6442956  56.9252134  48.9567988  24.7996028  57.4436887  49.5238985
  23.7765381  49.6710496  51.7505778  23.4878629  49.0447967  52.2851505
  24.6448729  49.6130783  51.8170458  23.8625633  49.5698040  51.8396732
  27.0316389  58.9566569  48.2680768  27.6840447  58.4243011  48.4971794
  26.3341998  58.6035221  48.6548642  27.0247107  58.8256092  48.3592936
  23.9797654  51.3105747  47.6748143  24.7343622  51.6918786  47.8883605
  23.3868267  51.7616890  48.1294839  24.0034368  51.4334574  47.7731021
  35.0256308  51.2770983  47.6111748  35.5914340  51.9364193  47.5270291
  34.3784211  51.6220681  48.0828150  35.0135064  51.4252924  47.6684504
  26.4404321  43.2668587  62.8005355  25.6304097  43.5726367  62.6895197
  26.9179008  43.9874169  62.9157939  26.3907800  43.4183188  62.8012426
  25.2995881  52.4814308  53.0488258  24.7776634  52.6214600  53.7340123
  25.6869901  51.7224972  53.2390375  25.2799582  52.3899832  53.1789335
  22.2887065  42.5320117  47.1183213  22.0011861  42.1621387  46.3815160
  22.9757533  43.0014972  46.8566918  22.3475962  42.5467086  46.9698288
  31.4962886  54.2209767  47.0348827  31.2549562  53.4877628  46.6275892
  31.6764219  54.7696624  46.3815160  31.4870510  54.1932158  46.8779050
  26.7262206  49.5118327  48.4469749  26.5304989  50.1193062  47.8530052
  26.9496552  48.8186271  47.9661423  26.7296847  49.4995853  48.2885830
  25.1240736  46.3973065  48.5650617  25.8463388  46.5614223  48.1054423
  24.6448729  47.1182730  48.4589957  25.1604467  46.5271294  48.4816231
  33.0834244  42.7336864  53.9447302  32.2445345  42.7598143  53.7085566
  33.1538611  43.3807599  54.5252649  32.9702638  42.8332990  53.9956419
  22.7748353  48.8031137  57.6704757  23.2869450  49.0815391  57.0213517
  22.4884696  49.5420431  58.0367570  22.8083216  48.9533491  57.6294635
  19.8615259  43.3101329  47.9668494  19.9631396  44.1127491  48.2949469
  20.6571146  43.1088665  47.6691574  19.9943165  43.3987228  47.9703849
  26.2932079  40.8957526  57.7305799  26.1015276  40.9112660  58.5805222
  27.1430674  41.0921200  57.7072454  26.3907800  40.9271877  57.8529094
  20.6778992  43.4248507  55.7089615  20.5364483  42.5732448  55.8334123
  20.9619555  43.4677168  54.8851821  20.6986838  43.3048257  55.6057239
  34.7265633  51.9698957  53.6420885  34.5879992  52.6680003  54.1469627
  33.9465631  51.8147613  53.2857067  34.5908860  52.0499124  53.6647159
  33.0643718  48.2695332  59.8943267  33.0591756  47.3975149  59.8985693
  33.7704712  48.4683501  59.4212722  33.1688722  48.1699206  59.8250302
  26.7914611  47.9972316  59.2657087  26.9357987  48.5773524  58.6300197
  27.1390260  48.3748613  59.9706941  26.8642073  48.1393020  59.2756082
  28.9634529  47.1962485  57.0482218  28.2157843  47.3893499  56.6430496
  29.1176054  46.3707704  56.8106340  28.8756956  47.1027596  56.9527624
  25.8642366  56.1875088  56.1318114  26.0131930  55.6278004  55.4791518
  26.6442368  56.2667090  56.5150632  26.0016460  56.1160653  56.0915063
  28.3895667  56.3589731  57.4102604  28.3139338  55.6898541  57.9653393
  28.3185526  57.0607519  57.9243271  28.3676274  56.3634638  57.5679452
  29.2036306  41.0913035  57.9377622  29.6608920  41.8237010  58.0650414
  29.2792634  40.6679501  58.6964878  29.2827275  41.1370273  58.0678699
  21.4469297  41.3378855  59.0267066  20.9111486  40.7259213  59.3427833
  21.5087062  41.9126991  59.6800732  21.3764929  41.3325783  59.1702492
  29.0465914  54.8790730  48.2426210  29.8115805  54.6100373  47.9208875
  28.9444004  54.3940740  48.9596273  29.1447409  54.7680294  48.3006038
  27.0818683  43.0815139  54.7819446  26.2914758  42.9006599  55.1036782
  27.4779306  42.3042092  54.7649741  27.0235560  42.9402600  54.8271994
  32.4662370  50.7157569  52.5078892  31.7907372  50.4842802  53.0092279
  32.4754746  50.1078752  51.8820997  32.3680874  50.5916495  52.4895044
  29.5956514  45.5575398  59.2642945  29.5315655  46.4185355  59.1363082
  29.7353702  45.2407392  58.4638496  29.6071984  45.6375565  59.1271158
  34.4679104  53.5722702  44.7389070  34.5498942  54.3789688  44.4150521
  34.9528847  53.5918661  45.4629843  34.5516262  53.6943364  44.7975969
  28.2775608  48.2507538  53.4059148  27.8537857  48.4512037  52.6698166
  28.1020463  47.4036386  53.5183448  28.1886488  48.1556319  53.3132838
  27.7787301  59.7658051  55.8680605  28.2683231  59.0668840  55.6856270
  27.2071533  59.4681921  56.4556662  27.7671831  59.6184274  55.9281646
  23.5658053  48.7459589  48.8387120  23.7222672  48.6806392  49.6943112
  23.9058646  49.5208142  48.6265800  23.6391287  48.8508787  48.9341715
  30.1037197  48.1217473  47.7080484  30.6452743  47.6187854  48.1719104
  30.4183756  48.0682667  46.8969969  30.2301594  48.0396894  47.6564296
  33.9754305  52.3320120  64.8207396  34.7889170  52.0605269  64.9812528
  33.8149271  52.0327660  64.0167592  34.0724253  52.2475046  64.7252802
  28.2723647  53.5134824  44.9920512  28.3416467  52.6549363  45.1313512
  29.0512102  53.7306705  44.6639536  28.3976497  53.4187688  44.9637669
  31.2526467  43.0153777  57.7602784  31.4668436  42.3764691  57.2066138
  30.6360366  43.4599601  57.3310646  31.1931796  42.9863921  57.6153215
  32.6631135  55.9372525  49.2057005  32.2710926  55.6339241  48.4879871
  32.8184207  56.7741615  49.0161959  32.6284724  56.0156362  49.0713502
  20.1392314  45.9294540  49.1547888  20.5191279  46.3479085  48.4908155
  19.5647679  46.5107995  49.4616731  20.1103639  46.0772398  49.1024629
  33.4165555  44.6242842  58.6986091  32.6042236  44.3168733  58.7799264
  33.8755489  44.1441843  59.2628803  33.3645939  44.5079335  58.7940685
  32.8270809  52.5022514  49.1463035  32.4685464  52.6737157  49.9227068
  32.3409520  52.9635720  48.5891034  32.7029506  52.5961485  49.1788305
  30.5119062  46.0302914  63.4814793  30.9818693  46.6545030  63.8682668
  30.5580942  45.3619889  64.0408008  30.5886938  46.0237594  63.6214865
  29.7382569  38.6752901  56.0356450  29.3514322  38.7001933  56.8169980
  29.2515507  38.1094580  55.5830966  29.6095078  38.5948652  56.0844353
  33.9875549  53.3926410  60.0930236  34.6255269  52.8986606  59.7592692
  33.3449640  53.3203811  59.5082463  33.9869775  53.3085419  59.9572591
  29.4039711  35.5619887  58.3266710  30.0332829  36.0980187  58.0487780
  29.5725574  35.4697246  59.1780275  29.5217506  35.6281249  58.4115238
  29.2053626  40.3491082  60.5993121  30.0327055  40.0776230  60.6551736
  29.2261472  41.1451923  60.9556939  29.3306476  40.4270836  60.6608304
  34.0429805  54.0846219  56.7335593  34.8322183  53.7335283  56.8537675
  34.2173403  54.8982607  56.4712227  34.1850087  54.1532076  56.7123461
  23.7823116  47.4954944  53.7863382  22.9411122  47.3958818  53.9942276
  23.9913124  48.2650425  54.1377703  23.6887808  47.5946988  53.8690697
  21.2598683  45.1174481  51.6148133  20.8655380  45.1917493  50.8398242
  20.7038799  45.5032428  52.1656494  21.1201495  45.1856256  51.5815792
  27.5939781  45.4236344  53.0360980  27.2902918  44.8692332  53.6371387
  26.8919201  45.6028553  52.5489014  27.4455990  45.3681126  53.0530685
  25.6558132  52.6386064  57.7433077  25.5478486  52.6488126  58.6095135
  25.8653913  53.4640845  57.5538031  25.6708243  52.7627139  57.8437169
  23.6731924  49.8898707  55.2055015  23.0819857  50.5308205  55.1758030
  24.4352947  50.3136324  55.1786314  23.6980184  50.0474545  55.1970162
  24.0692546  41.0500704  55.8723032  24.5294028  41.1239634  56.6098156
  24.1148653  41.8481958  55.5222854  24.1443102  41.1794851  55.9295789
  25.7175896  41.7167399  60.4395060  25.3261461  41.0700746  60.8750837
  25.8861759  42.3078835  61.0589315  25.6846806  41.7081667  60.5957766
  33.4321440  55.3408018  52.6387039  33.2341128  55.8298833  51.9443251
  32.8109151  55.5449260  53.2171173  33.3109004  55.4424556  52.6210263
  27.4929418  47.1092915  46.9797284  28.2371463  47.4967191  47.2180233
  27.6390114  46.2650340  47.1437771  27.6240003  47.0423388  47.0391253
  20.8580324  44.6789895  58.2474749  21.7205937  44.5785604  58.1612079
  20.5272107  44.0984604  57.6860321  20.9365521  44.5781522  58.1520155
  24.2182110  43.5032344  54.9085167  23.5935180  43.5150736  54.3011120
  23.8827705  43.9792519  55.5576407  24.0767602  43.5750861  54.9141735
  20.9307786  51.5632804  56.3488931  20.4007710  50.8725243  56.3983906
  21.2032879  51.5542989  55.5201640  20.8932508  51.4599936  56.2336347
  31.9627876  52.1458506  45.0726614  32.6862075  52.6116619  44.9291187
  31.5228467  52.2132116  44.3224211  32.0043568  52.2242343  44.9411395
  31.1314031  49.0056049  56.3227303  30.5171024  48.4614099  56.6175938
  31.6481316  48.4920285  55.8433119  31.1169694  48.8492458  56.2951531
  30.3710328  50.0760319  54.0571601  29.9437936  49.4510037  53.6237037
  30.3635273  49.7935241  54.8830609  30.3069470  49.9413099  54.1151429
  23.4872855  45.1125492  57.1260035  23.6466342  44.3568816  57.5311757
  23.3065749  45.6616431  57.7800773  23.4838214  45.0819306  57.2822741
  31.4293158  37.2786727  57.6810825  30.9333720  37.4750402  56.9902392
  32.1862221  37.6779396  57.5099627  31.4679983  37.3664461  57.5530962
  28.6996038  40.9529073  54.2714135  28.7238525  40.4189186  53.5826915
  28.9507512  40.4446382  54.9339726  28.7405957  40.7989977  54.2678780
  16.2103628  48.2360568  53.7057279  16.1047077  48.1907413  52.8409364
  15.4603848  48.5814349  53.9871564  16.0839231  48.2801476  53.6194609
  24.9797360  39.6799892  53.6519880  25.0195732  40.1809098  54.3654587
  24.1547025  39.7710285  53.3825803  24.8636886  39.7681708  53.7170418
  27.1626973  49.2460632  61.7540174  26.3122604  49.3832346  61.8897819
  27.3255101  48.5124410  62.1987876  27.0610837  49.1574733  61.8395773
  26.4011724  46.1960401  55.9493779  25.5703653  46.3634219  55.7429027
  26.3463241  45.8196352  56.7342664  26.2701139  46.1650133  56.0342307
  24.2095507  39.6869294  61.5850189  24.8348210  39.1431427  61.8579622
  23.7545987  39.2064212  61.0157980  24.2343768  39.5358776  61.5411783
  29.6123946  52.2915954  57.3020731  29.1049037  52.8451801  57.7461362
  29.3150592  52.3524244  56.4839506  29.4928830  52.3822265  57.2469188
  31.7786128  40.6569273  56.1445394  32.2041199  40.2041800  55.5328921
  31.1643121  40.1029344  56.4210182  31.7514773  40.5083250  56.0950420
  21.3100978  47.5350945  47.0766019  21.8193207  48.1315452  47.4577325
  21.7835250  47.2676918  46.3942439  21.4544353  47.5836760  47.0320542
  32.2231726  56.2079211  45.2324675  31.5061036  56.0340074  44.7671912
  32.8738463  55.9731784  44.7000161  32.2133576  56.1475004  45.0853893
  28.8566431  57.2240512  54.2077738  28.6332085  56.4659341  54.5761765
  28.3676274  57.2538533  53.4858178  28.7509880  57.1162736  54.1554479
  23.6691510  44.1707203  49.9439200  22.9503499  44.5871336  50.2112063
  24.0403872  44.7361442  49.3930838  23.6183441  44.3156485  49.9022007
  32.9691090  44.8035052  55.8341195  32.9489018  44.6218347  56.6875974
  33.0170291  45.6747071  55.8100779  32.9725731  44.9051590  55.9564490
  30.9137420  51.3922244  61.7589672  30.8733275  50.7471921  61.1734828
  31.7260738  51.3358862  62.0715084  31.0280574  51.2881211  61.7186621
  27.5044888  57.4440970  51.6614823  27.0905286  56.7815100  51.2718665
  28.1892262  57.5918829  51.1410517  27.5443259  57.3681628  51.5271320
  30.8710182  56.6031055  52.4138439  30.4726465  56.7133326  51.6459260
  30.2561401  56.8113122  52.9964999  30.7209071  56.6504623  52.3869739
  26.6015129  45.0219181  58.3139430  26.0894032  44.4140364  58.6724461
  26.4294625  45.7375773  58.7813405  26.5004766  45.0382480  58.4355653
  21.4480844  43.4656756  60.9641791  21.2783434  44.1258131  60.4189998
  21.0046793  43.6763317  61.6854280  21.3580177  43.5942738  60.9903421
  30.4784199  42.9443425  60.7541685  31.0355629  42.7157235  60.1220151
  30.1545264  43.7049091  60.4776898  30.5130609  43.0227262  60.6198182
  18.3482908  46.3703622  56.2230281  17.8009628  45.7004267  56.3411150
  19.1375286  46.0033469  56.2873748  18.3835092  46.2168608  56.2498982
  28.1967317  46.0311079  61.7193692  28.9478643  46.3462755  62.0333246
  28.3889893  45.8290250  60.8927614  28.3358731  46.0478460  61.6437088
  17.1069878  45.5824429  53.3776304  16.9291639  45.1301038  54.1031220
  16.8188900  46.3850591  53.5614782  17.0382831  45.6346987  53.5119807
  32.7693459  46.8382147  52.6153695  33.2647124  46.1205142  52.5757715
  31.9593234  46.5352944  52.5008182  32.7237352  46.6879793  52.5927420
  28.2152070  50.6879960  44.7650699  27.4063393  50.3646634  44.7184008
  28.7226979  49.9813182  44.6978948  28.1701737  50.5361276  44.7480993
  18.8442347  48.1152153  50.4898063  17.9787867  48.1037844  50.3780835
  18.9441163  47.9282376  51.3369203  18.7316514  48.0858214  50.5987008
  34.8345278  49.5885834  55.3030823  35.2600349  49.0660256  54.7501248
  34.4702197  50.1866672  54.7819446  34.8431880  49.5996061  55.1439833
  24.4699357  57.8850052  54.0628169  24.7845916  58.6986440  54.0705951
  24.8792771  57.5000270  54.7310328  24.5767455  57.9478754  54.1632260
  31.4223877  53.3020099  51.6331981  31.8935055  54.0160361  51.8021966
  31.7584056  52.7018849  52.1691850  31.5418992  53.3191563  51.7364357
  33.5100862  54.9121412  63.8124053  33.6197827  54.1229972  64.1680800
  33.8391758  54.8227348  63.0098391  33.5753267  54.7827265  63.7466444
  28.3393372  38.0747569  58.5890076  28.4721278  37.2778563  58.9171051
  28.7238525  38.6013972  59.1688351  28.4149701  38.0347486  58.7233578
  32.0597823  53.0938033  58.3959673  31.5118769  52.4695916  58.1279739
  32.5210852  53.2832305  57.6803753  32.0465033  53.0297083  58.2510105
  34.8691688  41.1623387  55.7810866  34.2854677  41.6632594  55.3688433
  35.1895982  40.6552943  55.1475189  34.8304863  41.1615222  55.6269373
  25.9981819  38.0706744  56.8367969  26.5426232  37.7297871  57.4272311
  26.0518754  38.9292206  56.9789254  26.0870938  38.1462004  56.9449843
  21.8112378  51.8323160  53.7106777  22.4157235  51.7918994  53.0820598
  21.6039690  52.6794312  53.7410833  21.8701275  51.9511163  53.6222894
  31.6256150  54.0989105  54.9269015  32.4454523  53.9552071  55.1885310
  31.3450227  54.7235304  55.4685453  31.7052893  54.1699457  55.0456954
  17.0463660  50.8157778  53.5805700  16.9487938  50.0054049  53.8895757
  17.8292529  50.7949571  53.1951968  17.1479796  50.6924868  53.5692563
  48.0969800  61.7553957  47.8911891  48.0663804  62.6098594  48.0630160
  48.6951149  61.4549250  48.4498035  48.1806958  61.8370454  47.9986693
  41.2969485  60.8429608  52.6464821  40.4407380  61.0038106  52.6973938
  41.3437139  59.9721672  52.6669882  41.1768596  60.7380410  52.6570887
  35.6810625  70.3792326  48.4102053  34.9293524  70.0007864  48.1818098
  36.1296636  70.4110760  47.6620863  35.6360291  70.3277933  48.2659555
  44.6063201  67.1116134  62.2525278  45.3129969  66.6168164  62.3812212
  44.7951137  67.5525215  61.5227936  44.7391107  67.1034484  62.1634323
  41.1335584  70.8017695  43.8387600  40.7986953  71.4794617  43.4031822
  41.6462455  70.4123007  43.2504472  41.1601166  70.8442274  43.6874392
  40.6739876  72.7531964  49.7798712  41.0579255  73.3218863  49.2403487
  40.6099017  72.0281474  49.3004528  40.7213303  72.7307428  49.6292574
  44.1421306  62.9021652  55.2896473  44.6877266  63.5806739  55.3490443
  44.0838182  62.7609113  54.4298055  44.2137220  62.9813654  55.1708534
  37.2595381  70.3910718  50.6764825  37.3605744  69.5811072  50.9861953
  36.6637126  70.2967665  50.0464504  37.1867919  70.2575746  50.6291064
  45.9186375  64.3306259  46.1630201  45.8025900  65.0813945  46.5922339
  46.7142261  64.0730212  46.4126288  46.0190964  64.4041106  46.2634292
  37.0996120  75.3088307  52.0779682  37.7433576  75.7501471  52.4675840
  37.4252376  74.5041733  51.9909940  37.2427949  75.2553502  52.1225159
  30.4560425  66.4131005  50.3017159  30.2210609  65.5798657  50.1949428
  30.5946066  66.6935670  49.4878360  30.4416087  66.3314508  50.1659514
  32.7550512  58.5816735  53.2001467  32.1355544  57.9909383  53.0311482
  32.6534376  59.1728170  52.5665790  32.6488188  58.5820818  53.0806456
  37.8016700  68.3200282  47.4499543  38.1232541  68.8605489  46.8460851
  38.4488797  67.7497054  47.5821833  37.9442755  68.3159457  47.3806579
  39.8518408  60.3216277  47.5333930  40.5498573  60.5004405  48.0255393
  40.1670741  59.7986616  46.9104319  40.0013745  60.2710049  47.5135940
  32.4819646  62.1269017  55.4445036  32.3578342  62.7131462  56.0794855
  33.1337930  61.6329213  55.7457311  32.5593295  62.1407821  55.5830965
  40.0406343  66.7086722  47.5213721  40.4799979  66.1003823  47.9668494
  39.8911006  66.3294095  46.7499186  40.0827809  66.5625193  47.4732889
  37.5077987  65.3030734  54.7232547  38.1526989  64.8103177  54.4043495
  37.7479764  65.4455521  55.5498625  37.6388572  65.2508176  54.7982080
  40.0464078  68.1485640  54.3739439  40.3287321  67.3537046  54.1526195
  40.7750238  68.6266227  54.3944500  40.1953642  68.1020237  54.3442455
  38.0245272  55.6908674  51.6155205  37.6948602  56.1419817  50.9458903
  37.3490274  55.6124837  52.1628211  37.8755708  55.7459809  51.5978428
  43.6415680  65.0613903  44.4744491  43.5566975  65.9174870  44.6194059
  44.1300063  64.7858227  45.1426650  43.7004577  65.1471225  44.5946572
  44.5734113  61.6798698  45.9742226  44.0445585  61.8958331  46.6339532
  45.0959133  62.3734836  45.8943195  44.5722566  61.8141834  46.0597825
  50.0282166  67.2545002  51.3475270  49.1979869  67.4655646  51.5108687
  49.9791419  66.4282057  51.0717554  49.8988902  67.1634608  51.3312636
  36.4633721  65.5761914  44.7749694  35.8790936  66.0811946  45.1815558
  36.0603816  65.3504301  44.0346286  36.3173025  65.6170163  44.7254719
  32.0177750  71.2916675  51.5773365  31.5345328  72.0167165  51.5532949
  32.8301068  71.5892805  51.6883523  32.0668497  71.4419029  51.5900645
  38.0891904  70.0848856  54.1823180  37.5718845  69.7256271  53.5784488
  38.7866295  69.5611031  54.1929246  38.1157485  69.9546544  54.0953438
  41.7455496  70.5343670  60.1439353  41.8338842  70.3469811  60.9917563
  42.1745208  69.8881100  59.7444200  41.8217598  70.4106678  60.2111104
  39.3125956  69.8174830  59.1257015  38.7496790  69.4047440  59.6496676
  40.0746979  69.7427736  59.5450158  39.3420404  69.7452231  59.2650015
  40.9210936  61.8227566  43.2518614  41.1606939  62.0305550  42.4393957
  41.2426776  61.0185075  43.3607559  41.0048093  61.7341668  43.1479167
  36.2301226  53.7520962  47.0978152  36.9847194  54.1199279  46.8595202
  36.0528760  54.1260517  47.8657332  36.3155704  53.8619150  47.1763041
  34.8721947  71.8072851  51.7293645  35.5742526  71.2924840  51.7866402
  34.7919430  72.1347003  52.5340520  34.9645707  71.7787078  51.8566437
  49.5236124  59.9015403  55.1425692  48.6864546  59.9717590  55.3773286
  49.4924355  59.9039897  54.2699994  49.3954407  59.9125630  55.0485240
  35.9200854  62.0448438  60.8574060  36.0921357  61.9354333  61.7059342
  36.4570211  62.6902844  60.6205253  36.0245858  62.1240440  60.9479157
  34.5858290  56.1591281  43.7956265  34.4033864  56.3763162  42.9697258
  35.4483903  56.2730294  43.8514880  34.6862880  56.2081179  43.6810752
  34.1972722  67.9979203  51.2379253  35.0361622  68.2302136  51.2853015
  34.2284492  67.1283515  51.1686289  34.3254440  67.9036150  51.2343898
  34.8225425  68.4180079  55.5392559  35.3623650  68.2751210  56.2095931
  34.1395372  68.8176829  55.9076585  34.8017579  68.4559749  55.6926980
  44.2466310  64.0971079  50.7337583  45.0023825  64.5302594  50.7726492
  44.3528635  63.4475849  51.3072219  44.3736481  64.0648563  50.8235609
  47.2846481  67.9244356  51.4839986  46.8481713  67.9281099  52.2398957
  46.9509397  68.6049855  51.0519564  47.1709101  68.0256812  51.5320819
  41.8575555  69.9652689  62.8083136  42.6415972  70.0783537  63.1738879
  41.6572150  69.1393826  63.0041822  41.9441580  69.8599409  62.8917522
  30.2262570  64.6380369  55.6926980  29.9600986  63.8219486  55.8517971
  30.2401135  64.6833525  54.8222496  30.1887293  64.5237274  55.5880462
  47.2043964  54.9658184  53.7269414  47.8469873  55.0356289  54.3131329
  47.4566985  54.2987407  53.2248956  47.3366096  54.8784533  53.7396693
  34.1320317  59.4365454  42.3078738  33.4178495  59.1503633  42.7201171
  34.6164286  59.7762080  42.9485126  34.0979681  59.4447103  42.4634373
  34.9761177  58.1758748  58.3393988  34.2832974  57.7055727  58.5854720
  35.5921504  57.9497052  58.9135695  34.9645707  58.0725879  58.4603141
  42.0145948  71.8762791  56.4549592  41.2161194  71.6362291  56.7123461
  42.4631960  71.9277184  57.2016640  41.9620560  71.8485182  56.6034516
  50.4190828  64.6425276  50.3759623  51.0807262  64.0815945  50.2755532
  49.7782240  64.1477307  50.7012314  50.4219695  64.4861685  50.4091963
  41.3067635  67.9395408  42.6840547  41.7218784  67.6080432  41.9925042
  40.4759565  67.7064310  42.5560683  41.2455644  67.8566664  42.5631394
  30.6355984  65.4239149  52.9738724  30.4531557  65.3986035  52.1211017
  31.3705653  65.8938087  53.0127633  30.7170048  65.4900511  52.8536643
  46.7055658  65.6590659  50.1171612  46.9411248  65.8035858  49.2898463
  46.8545222  66.4233067  50.5103126  46.7621462  65.7929713  50.0535216
  33.7001736  62.1424152  59.4820833  34.4241708  62.1277182  59.9685728
  33.8017872  62.8519507  58.9842801  33.8219945  62.2448855  59.4799620
  48.5346115  64.4992325  47.9541216  48.8654332  65.0319965  47.3481311
  49.1079203  64.5531212  48.6103167  48.6679794  64.5861894  47.9618998
  41.0746685  65.6223236  64.3469780  40.2819666  65.9366748  64.5322400
  41.1895612  65.8374705  63.5090565  40.9742096  65.7007073  64.2508115
  43.7478004  62.3457227  48.6364796  43.8424859  63.0846521  49.0904421
  43.1236848  61.9174703  49.0699361  43.6687034  62.3918548  48.7672944
  42.0030478  65.5243440  59.2855077  42.5769340  64.8870684  59.4403641
  41.9245282  65.5247522  58.4164735  42.0763713  65.4308551  59.1801488
  30.6026894  62.3032649  53.1237791  31.1800397  62.1669100  53.7630036
  29.9040956  61.8468434  53.3783375  30.5847916  62.2154916  53.2560081
  44.0001025  64.1905967  41.8701748  43.9181188  64.2608154  42.7356735
  44.6380746  64.7535711  41.6785489  44.0820863  64.2844938  41.9691697
  37.3594197  63.9566705  51.3376274  37.1013441  63.1238440  51.3107574
  37.4142679  64.1824318  50.4968775  37.3293975  63.8664476  51.2096411
  42.4395247  56.0595156  51.4380367  41.7351574  55.5704341  51.5964286
  42.4880221  56.0717630  50.5668811  42.3425298  55.9884804  51.3319707
  36.3328909  61.5104468  51.8241169  35.7578500  61.6696636  52.4605130
  35.9564585  60.8739877  51.3609620  36.1931721  61.4402281  51.8495727
  40.0002197  59.9827817  56.6833547  39.6116630  59.5582035  56.0285739
  39.3356896  60.2309966  57.1910574  39.8449125  59.9566538  56.6621415
  49.6425467  59.7402822  49.4581378  49.3862031  58.9282763  49.2679260
  50.4854781  59.7480389  49.2311565  49.7291492  59.6214819  49.3966195
  26.0785728  61.1544542  49.8385610  26.1645980  60.7776411  50.6199140
  26.7061525  60.7804988  49.3605568  26.1842279  61.0430025  49.8831087
  43.8228559  53.6802446  54.1957532  44.2039071  52.9980617  54.5825406
  43.0191843  53.3912048  54.0133196  43.7605021  53.5369494  54.2261588
  41.1041136  64.2126421  44.8810354  41.9181775  64.5041314  44.7693126
  41.0400277  63.5586284  44.3068647  41.2143875  64.1591616  44.7799192
  47.3250626  66.8952418  59.2939930  47.0889263  66.0640482  59.1751991
  47.9693855  66.8438025  59.8794774  47.3845297  66.7650106  59.3625824
  36.9749044  67.6847939  50.0082667  37.6122991  67.4459686  50.5534460
  37.4004116  67.8885098  49.2735827  37.1325210  67.6798949  49.9799824
  31.6661686  69.9236275  53.8916970  31.7065832  70.1951126  53.0636750
  32.2256210  70.4478183  54.3074758  31.7545032  70.0412030  53.8308858
  37.6151859  62.9050229  44.3457556  37.9997012  62.6857935  45.0974101
  37.3663479  63.7313174  44.4758632  37.6353932  62.9948375  44.4758632
  37.7820399  56.1856644  64.0620140  37.4673840  56.9556207  63.7989703
  37.4610332  55.6226900  63.4772367  37.6879318  56.2166913  63.9361490
  48.3487046  66.6796866  55.3568225  48.0432864  67.4124923  55.7181540
  47.6293262  66.2734796  55.0761011  48.1974389  66.7278599  55.3681362
  39.3570516  68.1620362  51.6876453  39.4309524  67.9995533  52.5418303
  40.1740022  68.3510551  51.4436934  39.4886875  68.1657104  51.7774478
  54.0488839  63.3189867  54.6836569  53.9813339  63.3385826  53.8139155
  54.0344501  64.1620194  54.9092239  54.0367595  63.4463602  54.5889046
  33.1176273  68.5078224  48.7170896  32.2914390  68.7539962  48.5905175
  33.1788264  68.4290305  49.5832954  33.0050440  68.5323173  48.8259841
  35.3352296  54.5747165  49.6766336  34.4674722  54.6469765  49.7423946
  35.6227501  55.3769244  49.8654312  35.2492044  54.7041312  49.7141103
  44.4585185  54.7225025  58.0077658  45.2038777  54.5334835  57.5941084
  44.0422490  55.2483263  57.4491515  44.5070159  54.7727170  57.8642232
  37.8975102  71.1255105  46.4189926  38.1873400  70.7344086  45.6949153
  38.6278582  71.3071809  46.8595201  38.0481986  71.0948918  46.3772733
  51.8347456  62.0934253  52.9583163  52.3855378  61.4602322  53.1980255
  51.8191571  62.6249646  53.6498668  51.9132652  62.0783201  53.0962021
  38.4869847  65.9272850  57.5043057  37.9881540  66.6388618  57.5827945
  39.2970071  66.2473517  57.4661219  38.5325954  66.0799699  57.5099625
  35.8381017  73.1022487  49.4850076  35.6181313  72.8119842  50.2776743
  35.6175539  72.4437442  48.9567988  35.7728611  72.9622195  49.5238985
  34.7497964  65.1895803  51.7505778  34.4611213  64.5633275  52.2851505
  35.6181312  65.1316091  51.8170458  34.8358216  65.0883348  51.8396732
  45.5375862  60.3330587  52.0687759  45.1940628  59.6120922  52.4195009
  45.6368905  60.1244438  51.2266118  45.5017905  60.1954790  51.9959439
  38.0048973  74.4751877  48.2680768  38.6573031  73.9428319  48.4971794
  37.3074582  74.1220529  48.6548642  37.9979691  74.3441400  48.3592936
  34.9530238  66.8291055  47.6748143  35.7076206  67.2104094  47.8883605
  34.3600850  67.2802198  48.1294839  34.9766951  66.9519882  47.7731021
  45.9988891  66.7956291  47.6111748  46.5646924  67.4549501  47.5270291
  45.3516795  67.1405989  48.0828150  45.9867648  66.9438232  47.6684504
  37.4136905  58.7853895  62.8005355  36.6036681  59.0911675  62.6895197
  37.8911592  59.5059477  62.9157939  37.3640384  58.9368496  62.8012426
  36.2728464  67.9999616  53.0488258  35.7509218  68.1399908  53.7340123
  36.6602485  67.2410280  53.2390375  36.2532165  67.9085140  53.1789335
  33.2619648  58.0505425  47.1183213  32.9744444  57.6806695  46.3815160
  33.9490117  58.5200280  46.8566918  33.3208546  58.0652394  46.9698288
  42.4695469  69.7395075  47.0348827  42.2282145  69.0062936  46.6275892
  42.6496802  70.2881932  46.3815160  42.4603093  69.7117466  46.8779050
  37.6994790  65.0303635  48.4469749  37.5037573  65.6378369  47.8530052
  37.9229136  64.3371579  47.9661423  37.7029431  65.0181160  48.2885830
  36.0973320  61.9158373  48.5650617  36.8195972  62.0799531  48.1054423
  35.6181313  62.6368038  48.4589957  36.1337051  62.0456602  48.4816231
  44.0566828  58.2522172  53.9447302  43.2177928  58.2783451  53.7085566
  44.1271195  58.8992907  54.5252649  43.9435221  58.3518297  53.9956419
  33.7480937  64.3216445  57.6704757  34.2602034  64.6000699  57.0213517
  33.4617279  65.0605739  58.0367570  33.7815800  64.4718799  57.6294635
  47.9324351  63.4590158  51.2308544  47.8458326  63.6145584  52.0843323
  47.4774831  64.1028234  50.8567949  47.8527608  63.5765914  51.3015651
  30.8347843  58.8286637  47.9668494  30.9363979  59.6312799  48.2949469
  31.6303730  58.6273973  47.6691574  30.9675749  58.9172536  47.9703849
  37.2664662  56.4142834  57.7305799  37.0747859  56.4297968  58.5805222
  38.1163258  56.6106508  57.7072454  37.3640384  56.4457185  57.8529094
  31.6511575  58.9433815  55.7089615  31.5097067  58.0917756  55.8334123
  31.9352139  58.9862476  54.8851821  31.6719421  58.8233565  55.6057239
  41.8050168  60.7800906  49.8534104  41.5584882  60.6996656  50.6870893
  42.1335291  59.9954373  49.6596631  41.8171411  60.6527171  49.9481627
  45.6998216  67.4884265  53.6420885  45.5612576  68.1865311  54.1469627
  44.9198214  67.3332921  53.2857067  45.5641443  67.5684432  53.6647159
  44.0376301  63.7880640  59.8943267  44.0324340  62.9160457  59.8985693
  44.7437295  63.9868809  59.4212722  44.1421305  63.6884514  59.8250302
  37.7647195  63.5157624  59.2657087  37.9090571  64.0958832  58.6300197
  38.1122843  63.8933921  59.9706941  37.8374656  63.6578328  59.2756082
  39.9367112  62.7147792  57.0482218  39.1890426  62.9078807  56.6430496
  40.0908637  61.8893012  56.8106340  39.8489540  62.6212904  56.9527624
  36.8374950  71.7060396  56.1318114  36.9864514  71.1463312  55.4791518
  37.6174952  71.7852398  56.5150632  36.9749043  71.6345961  56.0915063
  47.1951589  66.8462519  44.4037384  46.8158398  66.0599657  44.3966673
  46.5317835  67.3949376  44.2609028  47.0410064  66.8107343  44.3818181
  39.3628250  71.8775039  57.4102604  39.2871921  71.2083849  57.9653393
  39.2918110  72.5792827  57.9243271  39.3408857  71.8819946  57.5679452
  40.1768889  56.6098343  57.9377622  40.6341503  57.3422318  58.0650414
  40.2525218  56.1864808  58.6964878  40.2559859  56.6555581  58.0678699
  32.4201880  56.8564163  59.0267066  31.8844070  56.2444521  59.3427833
  32.4819645  57.4312299  59.6800732  32.3497513  56.8511091  59.1702492
  40.0198497  70.3976038  48.2426210  40.7848388  70.1285681  47.9208875
  39.9176587  69.9126048  48.9596273  40.1179993  70.2865602  48.3006038
  38.0551267  58.6000447  54.7819446  37.2647342  58.4191907  55.1036782
  38.4511890  57.8227400  54.7649741  37.9968143  58.4587908  54.8271994
  42.5417158  67.4288221  40.2226160  43.3090143  67.4888346  39.8132011
  42.0948467  66.8568663  39.7382478  42.5890585  67.3524797  40.0903870
  43.4394953  66.2342877  52.5078892  42.7639955  66.0028110  53.0092279
  43.4487329  65.6264060  51.8820997  43.3413458  66.1101802  52.4895044
  40.5689097  61.0760706  59.2642945  40.5048239  61.9370663  59.1363082
  40.7086285  60.7592699  58.4638496  40.5804567  61.1560873  59.1271158
  45.4411688  69.0908010  44.7389070  45.5231525  69.8974996  44.4150521
  45.9261430  69.1103969  45.4629843  45.5248846  69.2128672  44.7975969
  39.2508191  63.7692846  53.4059148  38.8270440  63.9697345  52.6698166
  39.0753046  62.9221694  53.5183448  39.1619072  63.6741627  53.3132838
  38.7519885  75.2843359  55.8680605  39.2415815  74.5854148  55.6856270
  38.1804117  74.9867229  56.4556662  38.7404415  75.1369582  55.9281646
  34.5390636  64.2644897  48.8387120  34.6955255  64.1991700  49.6943112
  34.8791229  65.0393450  48.6265800  34.6123871  64.3694095  48.9341715
  41.0769781  63.6402781  47.7080484  41.6185326  63.1373162  48.1719104
  41.3916340  63.5867975  46.8969969  41.2034178  63.5582202  47.6564296
  44.9486888  67.8505428  64.8207396  45.7621754  67.5790577  64.9812528
  44.7881855  67.5512968  64.0167592  45.0456837  67.7660354  64.7252802
  39.2456231  69.0320132  44.9920512  39.3149051  68.1734671  45.1313512
  40.0244686  69.2492013  44.6639536  39.3709081  68.9372996  44.9637669
  42.2259050  58.5339085  57.7602784  42.4401020  57.8949999  57.2066138
  41.6092949  58.9784909  57.3310646  42.1664379  58.5049229  57.6153215
  43.6363718  71.4557833  49.2057005  43.2443510  71.1524549  48.4879871
  43.7916790  72.2926923  49.0161959  43.6017308  71.5341670  49.0713502
  31.1124898  61.4479847  49.1547888  31.4923863  61.8664392  48.4908155
  30.5380263  62.0293303  49.4616731  31.0836223  61.5957706  49.1024629
  44.3898138  60.1428150  58.6986091  43.5774820  59.8354041  58.7799264
  44.8488073  59.6627150  59.2628803  44.3378523  60.0264643  58.7940685
  43.8003393  68.0207822  49.1463035  43.4418048  68.1922465  49.9227068
  43.3142104  68.4821028  48.5891034  43.6762090  68.1146793  49.1788305
  38.5891758  63.7006988  41.6863270  38.8784283  64.4771870  41.9606844
  38.6763557  63.1895719  42.3877769  38.6446015  63.7398906  41.8305768
  41.4851646  61.5488222  63.4814793  41.9551277  62.1730338  63.8682668
  41.5313526  60.8805197  64.0408008  41.5619522  61.5422902  63.6214865
  40.7115153  54.1938209  56.0356450  40.3246906  54.2187241  56.8169980
  40.2248090  53.6279888  55.5830966  40.5827662  54.1133960  56.0844353
  44.9608132  68.9111718  60.0930236  45.5987853  68.4171914  59.7592692
  44.3182224  68.8389119  59.5082463  44.9602359  68.8270727  59.9572591
  46.6865132  60.7600864  54.6596152  46.2592740  60.6727213  53.9044252
  46.0491185  60.8678640  55.2450996  46.5294740  60.7633524  54.6341594
  40.3772295  51.0805195  58.3266710  41.0065413  51.6165495  58.0487780
  40.5458157  50.9882554  59.1780275  40.4950089  51.1466557  58.4115238
  40.1786209  55.8676389  60.5993121  41.0059639  55.5961538  60.6551736
  40.1994055  56.6637231  60.9556939  40.3039059  55.9456144  60.6608304
  45.0162389  69.6031527  56.7335593  45.8054767  69.2520591  56.8537675
  45.1905987  70.4167915  56.4712227  45.1582670  69.6717384  56.7123461
  34.7555699  63.0140252  53.7863382  33.9143706  62.9144126  53.9942276
  34.9645707  63.7835733  54.1377703  34.6620392  63.1132296  53.8690697
  32.2331266  60.6359789  51.6148133  31.8387964  60.7102801  50.8398242
  31.6771383  61.0217736  52.1656494  32.0934079  60.7041564  51.5815792
  38.5672364  60.9421651  53.0360980  38.2635502  60.3877640  53.6371387
  37.8651785  61.1213861  52.5489014  38.4188574  60.8866434  53.0530685
  37.6238461  58.2522171  47.6005681  37.8998196  57.5341084  47.1883249
  38.2237131  58.8507091  47.3926787  37.7531726  58.2342542  47.5086443
  36.6290715  68.1571372  57.7433077  36.5211070  68.1673434  58.6095135
  36.8386497  68.9826153  57.5538031  36.6440826  68.2812447  57.8437169
  41.1248982  55.9235689  45.8752276  41.5792728  56.0946249  46.6000121
  41.5989027  55.3103799  45.4750052  41.2617302  55.8586574  45.9226038
  34.6464507  65.4084015  55.2055015  34.0552440  66.0493513  55.1758030
  35.4085531  65.8321632  55.1786314  34.6712768  65.5659853  55.1970162
  35.0425130  56.5686012  55.8723032  35.5026611  56.6424942  56.6098156
  35.0881237  57.3667266  55.5222854  35.1175685  56.6980159  55.9295789
  36.6908480  57.2352707  60.4395060  36.2994045  56.5886054  60.8750837
  36.8594342  57.8264142  61.0589315  36.6579390  57.2266975  60.5957766
  50.7654929  65.2389784  56.2032293  50.8238052  65.6876433  56.9492270
  50.1321396  65.6488597  55.7662373  50.6806224  65.3663519  56.2484841
  44.4054023  70.8593326  52.6387039  44.2073712  71.3484141  51.9443251
  43.7841734  71.0634568  53.2171173  44.2841588  70.9609864  52.6210263
  38.4662002  62.6278223  46.9797284  39.2104047  63.0152499  47.2180233
  38.6122698  61.7835648  47.1437771  38.5972587  62.5608696  47.0391253
  41.4539878  58.2003696  52.8791203  40.9799832  57.6745458  53.3896514
  41.8258013  57.6533169  52.3106064  41.4389767  58.0419693  52.8706350
  31.8312908  60.1975203  58.2474749  32.6938521  60.0970912  58.1612079
  31.5004691  59.6169912  57.6860321  31.9098104  60.0966830  58.1520155
  47.7176608  63.2606072  54.2897983  47.4774831  62.4212487  54.2940410
  48.1968615  63.3406239  55.0138757  47.7528792  63.1487472  54.3972786
  43.3823377  59.0940251  45.9416957  42.8546396  59.1768995  45.2522666
  43.8419085  59.8358122  45.9381601  43.3725228  59.2160913  45.8391652
  49.7181795  60.0407529  52.2427243  49.4791565  60.0003363  51.4048027
  49.8815696  60.8878681  52.3692964  49.7072099  60.1599614  52.1380724
  46.3227825  64.4257478  58.1732288  47.0462024  63.9730005  57.9943308
  46.0577788  64.7062144  57.3904616  46.3909099  64.4008447  58.0311003
  35.1914694  59.0217652  54.9085167  34.5667764  59.0336044  54.3011120
  34.8560289  59.4977827  55.5576407  35.0500186  59.0936169  54.9141735
  35.3756442  57.3642770  40.9657852  35.0269247  58.0162496  41.4289401
  34.8952888  57.3499884  40.2381723  35.2526686  57.4585824  40.9268943
  31.9040369  67.0818112  56.3488931  31.3740294  66.3910551  56.3983906
  32.1765463  67.0728297  55.5201640  31.8665092  66.9785244  56.2336347
  42.9360460  67.6643814  45.0726614  43.6594659  68.1301927  44.9291187
  42.4961051  67.7317424  44.3224211  42.9776152  67.7427651  44.9411395
  42.1046615  64.5241357  56.3227303  41.4903608  63.9799407  56.6175938
  42.6213900  64.0105593  55.8433119  42.0902277  64.3677766  56.2951531
  41.3442912  65.5945627  54.0571601  40.9170520  64.9695345  53.6237037
  41.3367856  65.3120549  54.8830609  41.2802053  65.4598407  54.1151429
  34.4605439  60.6310800  57.1260035  34.6198926  59.8754124  57.5311757
  34.2798333  61.1801739  57.7800773  34.4570798  60.6004614  57.2822741
  42.4025742  52.7972035  57.6810825  41.9066303  52.9935710  56.9902392
  43.1594804  53.1964704  57.5099627  42.4412567  52.8849769  57.5530962
  39.6728622  56.4714381  54.2714135  39.6971109  55.9374494  53.5826915
  39.9240095  55.9631690  54.9339726  39.7138540  56.3175285  54.2678780
  27.1836211  63.7545876  53.7057279  27.0779661  63.7092721  52.8409364
  26.4336431  64.0999657  53.9871564  27.0571814  63.7986784  53.6194609
  35.9529944  55.1985199  53.6519880  35.9928315  55.6994406  54.3654587
  35.1279609  55.2895593  53.3825803  35.8369470  55.2867016  53.7170418
  38.1359557  64.7645939  61.7540174  37.2855187  64.9017654  61.8897819
  38.2987684  64.0309718  62.1987876  38.0343420  64.6760041  61.8395773
  37.3744307  61.7145709  55.9493779  36.5436237  61.8819527  55.7429027
  37.3195824  61.3381660  56.7342664  37.2433722  61.6835441  56.0342307
  35.1828091  55.2054602  61.5850189  35.8080794  54.6616735  61.8579622
  34.7278570  54.7249520  61.0157980  35.2076351  55.0544084  61.5411783
  35.7480351  59.9901301  46.4783896  35.8883312  60.4873765  47.1812538
  36.2462884  59.2887595  46.6198110  35.8421432  59.9603280  46.6035475
  35.7780573  60.8568412  43.8076473  36.4125653  61.4528837  43.7425935
  35.8606184  60.5571869  44.6222343  35.8837124  60.9009320  43.9179560
  48.7563139  63.3883889  56.6762837  49.3480980  64.0281140  56.7081035
  49.1922134  62.6906926  56.9654904  48.9081570  63.3802240  56.7243670
  37.3559556  56.7882387  43.7821915  37.6775397  56.3085470  43.1281178
  37.6186500  57.5982033  43.5912727  37.4425582  56.8372285  43.6577407
  40.5856529  67.8101262  57.3020731  40.0781620  68.3637108  57.7461362
  40.2883175  67.8709552  56.4839506  40.4661414  67.9007573  57.2469188
  42.7518711  56.1754581  56.1445394  43.1773783  55.7227108  55.5328921
  42.1375704  55.6214652  56.4210182  42.7247357  56.0268557  56.0950420
  32.2833561  63.0536253  47.0766019  32.7925791  63.6500760  47.4577325
  32.7567834  62.7862226  46.3942439  32.4276937  63.1022068  47.0320542
  43.1964309  71.7264519  45.2324675  42.4793619  71.5525382  44.7671912
  43.8471047  71.4917092  44.7000161  43.1866160  71.6660312  45.0853893
  45.7812281  60.6029108  48.9765980  45.1103471  61.1458810  48.8479045
  46.4752031  61.0723963  48.7347675  45.7841148  60.7527379  48.9221508
  39.8299014  72.7425820  54.2077738  39.6064669  71.9844649  54.5761765
  39.3408858  72.7723841  53.4858178  39.7242463  72.6348044  54.1554479
  45.9440408  57.0584991  51.8856353  46.2968018  56.6314714  52.5602152
  45.0855210  56.9735835  52.0157430  45.8689853  56.9829732  52.0051364
  34.6424093  59.6892511  49.9439200  33.9236082  60.1056644  50.2112063
  35.0136455  60.2546750  49.3930838  34.5916025  59.8341793  49.9022007
  43.9423674  60.3220360  55.8341195  43.9221601  60.1403655  56.6875974
  43.9902875  61.1932379  55.8100779  43.9458315  60.4236898  55.9564490
  41.8870004  66.9107552  61.7589672  41.8465859  66.2657229  61.1734828
  42.6993322  66.8544169  62.0715084  42.0013157  66.8066519  61.7186621
  38.4777471  72.9626278  51.6614823  38.0637870  72.3000408  51.2718665
  39.1624846  73.1104137  51.1410517  38.5175843  72.8866936  51.5271320
  41.8442765  72.1216363  52.4138439  41.4459049  72.2318634  51.6459260
  41.2293985  72.3298430  52.9964999  41.6941655  72.1689931  52.3869739
  40.4170667  58.7290511  45.2812579  39.8235507  59.0507508  44.7297146
  40.4545945  57.8831606  45.0733685  40.3345057  58.6514839  45.1695350
  43.2928484  58.6870016  48.7114329  43.0642177  58.7102717  47.8692688
  43.5526560  57.8627483  48.8309340  43.2974672  58.5686096  48.6039527
  37.5747712  60.5404489  58.3139430  37.0626616  59.9325672  58.6724461
  37.4027209  61.2561081  58.7813405  37.4737349  60.5567788  58.4355653
  32.4213427  58.9842064  60.9641791  32.2516017  59.6443439  60.4189998
  31.9779377  59.1948625  61.6854280  32.3312761  59.1128046  60.9903421
  36.3473247  57.2246562  50.0068525  36.8230613  57.5863642  49.3718706
  35.8461846  57.8803029  50.2868668  36.3438606  57.3740751  49.9545266
  49.5784608  66.6968330  45.7981530  49.9618214  67.4459686  46.0279627
  48.7828721  66.9434150  45.5393519  49.5178390  66.8438024  45.7939104
  41.4516783  58.4628733  60.7541685  42.0088213  58.2342543  60.1220151
  41.1277848  59.2234399  60.4776898  41.4863193  58.5412570  60.6198182
  29.3215492  61.8888930  56.2230281  28.7742211  61.2189575  56.3411150
  30.1107870  61.5218777  56.2873748  29.3567675  61.7353916  56.2498982
  39.1699900  61.5496387  61.7193692  39.9211227  61.8648063  62.0333246
  39.3622477  61.3475557  60.8927614  39.3091314  61.5663768  61.6437088
  38.3899900  59.3687762  43.3741909  38.7698865  59.3867391  42.5893024
  37.6492496  59.8141751  43.2532756  38.3368737  59.4369536  43.2405477
  46.0185190  57.6769953  48.9617488  46.0179417  57.5218609  49.8201764
  45.8141370  58.5232940  48.9058873  45.9884968  57.7790574  49.0805427
  28.0802461  61.1009737  53.3776304  27.9024222  60.6486346  54.1031220
  27.7921483  61.9035899  53.5614782  28.0115414  61.1532295  53.5119807
  43.7426042  62.3567455  52.6153695  44.2379708  61.6390450  52.5757715
  42.9325818  62.0538252  52.5008182  43.6969936  62.2065101  52.5927420
  39.1884654  66.2065268  44.7650699  38.3795977  65.8831941  44.7184008
  39.6959563  65.4998490  44.6978948  39.1434321  66.0546584  44.7480993
  29.8174931  63.6337461  50.4898063  28.9520451  63.6223152  50.3780835
  29.9173747  63.4467684  51.3369203  29.7049098  63.6043522  50.5987008
  45.8077861  65.1071142  55.3030823  46.2332933  64.5845564  54.7501248
  45.4434781  65.7051980  54.7819446  45.8164464  65.1181369  55.1439833
  35.4431941  73.4035360  54.0628169  35.7578500  74.2171748  54.0705951
  35.8525354  73.0185578  54.7310328  35.5500039  73.4664062  54.1632260
  42.3956461  68.8205406  51.6331981  42.8667639  69.5345669  51.8021966
  42.7316639  68.2204157  52.1691850  42.5151576  68.8376871  51.7364357
  44.4833445  70.4306720  63.8124053  44.5930411  69.6415280  64.1680800
  44.8124342  70.3412656  63.0098391  44.5485851  70.3012573  63.7466444
  39.3125956  53.5932877  58.5890076  39.4453861  52.7963870  58.9171051
  39.6971108  54.1199280  59.1688351  39.3882284  53.5532794  58.7233578
  43.0330407  68.6123341  58.3959673  42.4851353  67.9881224  58.1279739
  43.4943436  68.8017613  57.6803753  43.0197616  68.5482391  58.2510105
  45.8424271  56.6808695  55.7810866  45.2587260  57.1817902  55.3688433
  46.1628565  56.1738251  55.1475189  45.8037447  56.6800530  55.6269373
  38.3819070  55.5949290  46.0569541  39.2034765  55.7647603  45.8151235
  37.9188721  55.7496551  45.3335838  38.4350233  55.6431023  45.9141185
  36.9714402  53.5892052  56.8367969  37.5158815  53.2483179  57.4272311
  37.0251338  54.4477514  56.9789254  37.0603522  53.6647311  56.9449843
  32.7844961  67.3508468  53.7106777  33.3889818  67.3104302  53.0820598
  32.5772274  68.1979620  53.7410833  32.8433858  67.4696471  53.6222894
  42.5988733  69.6174413  54.9269015  43.4187107  69.4737379  55.1885310
  42.3182811  70.2420612  55.4685453  42.6785477  69.6884765  55.0456954
  28.0196243  66.3343086  53.5805700  27.9220521  65.5239357  53.8895757
  28.8025113  66.3134879  53.1951968  28.1212380  66.2110176  53.5692563
  59.0702384  77.2739265  47.8911891  59.0396388  78.1283902  48.0630160
  59.6683732  76.9734558  48.4498035  59.1539541  77.3555762  47.9986693
  52.2702068  76.3614916  52.6464821  51.4139964  76.5223414  52.6973938
  52.3169722  75.4906980  52.6669882  52.1501180  76.2565718  52.6570887
  55.1153889  78.4206960  55.2896473  55.6609850  79.0992047  55.3490443
  55.0570766  78.2794421  54.4298055  55.1869804  78.4998962  55.1708534
  56.8918958  79.8491567  46.1630201  56.7758484  80.5999253  46.5922339
  57.6874845  79.5915520  46.4126288  56.9923548  79.9226414  46.2634292
  43.7283096  74.1002043  53.2001467  43.1088128  73.5094690  53.0311482
  43.6266960  74.6913478  52.5665790  43.6220772  74.1006126  53.0806456
  48.7749284  83.8385590  47.4499543  49.0965125  84.3790797  46.8460851
  49.4221380  83.2682361  47.5821833  48.9175339  83.8344765  47.3806579
  50.8250992  75.8401585  47.5333930  51.5231156  76.0189713  48.0255393
  51.1403324  75.3171924  46.9104319  50.9746329  75.7895357  47.5135940
  43.4552229  77.6454325  55.4445036  43.3310926  78.2316770  56.0794855
  44.1070514  77.1514521  55.7457311  43.5325878  77.6593129  55.5830965
  51.0138927  82.2272030  47.5213721  51.4532563  81.6189131  47.9668494
  50.8643590  81.8479403  46.7499186  51.0560393  82.0810501  47.4732889
  48.4810570  80.8216042  54.7232547  49.1259573  80.3288485  54.4043495
  48.7212347  80.9640828  55.5498625  48.6121155  80.7693484  54.7982080
  51.0196661  83.6670948  54.3739439  51.3019904  82.8722353  54.1526195
  51.7482822  84.1451535  54.3944500  51.1686225  83.6205545  54.3442455
  48.9977855  71.2093982  51.6155205  48.6681185  71.6605125  50.9458903
  48.3222857  71.1310145  52.1628211  48.8488292  71.2645117  51.5978428
  54.6148264  80.5799211  44.4744491  54.5299559  81.4360178  44.6194059
  55.1032647  80.3043535  45.1426650  54.6737161  80.6656533  44.5946572
  56.2054263  67.1979505  49.8604815  55.8907704  67.8882983  50.2925238
  55.6881205  67.1424287  49.1590316  56.0818733  67.2914393  49.8201764
  55.5466697  77.1984006  45.9742226  55.0178168  77.4143639  46.6339532
  56.0691717  77.8920144  45.8943195  55.5455150  77.3327142  46.0597825
  47.4366305  81.0947222  44.7749694  46.8523520  81.5997254  45.1815558
  47.0336400  80.8689609  44.0346286  47.2905608  81.1355471  44.7254719
  51.8943519  77.3412874  43.2518614  52.1339523  77.5490858  42.4393957
  52.2159360  76.5370383  43.3607559  51.9780677  77.2526976  43.1479167
  47.2033809  69.2706270  47.0978152  47.9579777  69.6384587  46.8595202
  47.0261344  69.6445824  47.8657332  47.2888288  69.3804458  47.1763041
  60.4968708  75.4200711  55.1425692  59.6597129  75.4902898  55.3773286
  60.4656939  75.4225205  54.2699994  60.3686990  75.4310938  55.0485240
  46.8933437  77.5633746  60.8574060  47.0653941  77.4539641  61.7059342
  47.4302795  78.2088152  60.6205253  46.9978441  77.6425748  60.9479157
  45.5590874  71.6776589  43.7956265  45.3766447  71.8948470  42.9697258
  46.4216487  71.7915602  43.8514880  45.6595463  71.7266487  43.6810752
  51.2390593  68.6803000  46.8305289  51.9676754  68.5018955  46.3843445
  51.3285486  69.5221080  47.0412467  51.3597255  68.7786878  46.7958807
  55.2198894  79.6156387  50.7337583  55.9756409  80.0487901  50.7726492
  55.3261218  78.9661157  51.3072219  55.3469064  79.5833871  50.8235609
  41.1995154  80.1565677  55.6926980  40.9333569  79.3404794  55.8517971
  41.2133718  80.2018833  54.8222496  41.1619876  80.0422582  55.5880462
  58.1776548  70.4843492  53.7269414  58.8202456  70.5541597  54.3131329
  58.4299569  69.8172715  53.2248956  58.3098680  70.3969841  53.7396693
  45.1052901  74.9550762  42.3078738  44.3911078  74.6688941  42.7201171
  45.5896870  75.2947388  42.9485126  45.0712264  74.9632411  42.4634373
  45.9493760  73.6944056  58.3393988  45.2565557  73.2241035  58.5854720
  46.5654088  73.4682360  58.9135695  45.9378290  73.5911187  58.4603141
  52.2800219  83.4580716  42.6840547  52.6951367  83.1265739  41.9925042
  51.4492149  83.2249618  42.5560683  52.2188228  83.3751972  42.5631394
  41.6088568  80.9424457  52.9738724  41.4264141  80.9171343  52.1211017
  42.3438237  81.4123395  53.0127633  41.6902632  81.0085819  52.8536643
  57.6788242  81.1775967  50.1171612  57.9143831  81.3221166  49.2898463
  57.8277806  81.9418375  50.5103126  57.7354045  81.3115021  50.0535216
  44.6734319  77.6609460  59.4820833  45.3974292  77.6462490  59.9685728
  44.7750456  78.3704815  58.9842801  44.7952528  77.7634163  59.4799620
  59.5078699  80.0177633  47.9541216  59.8386916  80.5505273  47.3481311
  60.0811787  80.0716520  48.6103167  59.6412378  80.1047201  47.9618998
  54.7210588  77.8642535  48.6364796  54.8157442  78.6031829  49.0904421
  54.0969431  77.4360011  49.0699361  54.6419618  77.9103856  48.7672944
  41.5759478  77.8217957  53.1237791  42.1532981  77.6854408  53.7630036
  40.8773540  77.3653742  53.3783375  41.5580499  77.7340224  53.2560081
  54.9733609  79.7091275  41.8701748  54.8913772  79.7793462  42.7356735
  55.6113330  80.2721019  41.6785489  55.0553446  79.8030246  41.9691697
  48.3326780  79.4752013  51.3376274  48.0746025  78.6423748  51.3107574
  48.3875263  79.7009626  50.4968775  48.3026558  79.3849784  51.2096411
  53.4127830  71.5780464  51.4380367  52.7084157  71.0889649  51.5964286
  53.4612805  71.5902938  50.5668811  53.3157882  71.5070112  51.3319707
  47.3061492  77.0289775  51.8241169  46.7311084  77.1881944  52.4605130
  46.9297169  76.3925185  51.3609620  47.1664305  76.9587588  51.8495727
  50.9734781  75.5013125  56.6833547  50.5849214  75.0767343  56.0285739
  50.3089479  75.7495274  57.1910574  50.8181709  75.4751846  56.6621415
  60.6158050  75.2588129  49.4581378  60.3594615  74.4468071  49.2679260
  61.4587364  75.2665697  49.2311565  60.7024076  75.1400127  49.3966195
  37.0518311  76.6729850  49.8385610  37.1378563  76.2961719  50.6199140
  37.6794109  76.2990296  49.3605568  37.1574862  76.5615332  49.8831087
  54.7961143  69.1987754  54.1957532  55.1771654  68.5165925  54.5825406
  53.9924427  68.9097356  54.0133196  54.7337604  69.0554802  54.2261588
  52.0773719  79.7311729  44.8810354  52.8914358  80.0226622  44.7693126
  52.0132861  79.0771592  44.3068647  52.1876458  79.6776924  44.7799192
  47.9481628  83.2033247  50.0082667  48.5855574  82.9644994  50.5534460
  48.3736699  83.4070406  49.2735827  48.1057794  83.1984257  49.9799824
  48.5884443  78.4235537  44.3457556  48.9729595  78.2043243  45.0974101
  48.3396063  79.2498482  44.4758632  48.6086515  78.5133683  44.4758632
  48.7552983  71.7041952  64.0620140  48.4406424  72.4741515  63.7989703
  48.4342916  71.1412208  63.4772367  48.6611902  71.7352220  63.9361490
  50.3303099  83.6805669  51.6876453  50.4042108  83.5180841  52.5418303
  51.1472606  83.8695859  51.4436934  50.4619458  83.6842412  51.7774478
  46.3084880  70.0932473  49.6766336  45.4407305  70.1655073  49.7423946
  46.5960084  70.8954552  49.8654312  46.2224628  70.2226620  49.7141103
  55.4317769  70.2410333  58.0077658  56.1771361  70.0520143  57.5941084
  55.0155073  70.7668571  57.4491515  55.4802743  70.2912478  57.8642232
  62.8080040  77.6119561  52.9583163  63.3587961  76.9787630  53.1980255
  62.7924155  78.1434954  53.6498668  62.8865236  77.5968509  53.0962021
  49.4602430  81.4458158  57.5043057  48.9614124  82.1573926  57.5827945
  50.2702655  81.7658825  57.4661219  49.5058537  81.5985007  57.5099625
  45.7230548  80.7081111  51.7505778  45.4343797  80.0818583  52.2851505
  46.5913896  80.6501399  51.8170458  45.8090800  80.6068656  51.8396732
  56.5108446  75.8515895  52.0687759  56.1673212  75.1306230  52.4195009
  56.6101488  75.6429746  51.2266118  56.4750489  75.7140098  51.9959439
  45.9262821  82.3476362  47.6748143  46.6808789  82.7289402  47.8883605
  45.3333434  82.7987506  48.1294839  45.9499535  82.4705190  47.7731021
  48.3869488  74.3039203  62.8005355  47.5769264  74.6096983  62.6895197
  48.8644175  75.0244785  62.9157939  48.3372967  74.4553804  62.8012426
  47.2461048  83.5184924  53.0488258  46.7241801  83.6585216  53.7340123
  47.6335068  82.7595588  53.2390375  47.2264749  83.4270448  53.1789335
  44.2352232  73.5690733  47.1183213  43.9477028  73.1992003  46.3815160
  44.9222700  74.0385588  46.8566918  44.2941129  73.5837702  46.9698288
  48.6727374  80.5488943  48.4469749  48.4770156  81.1563677  47.8530052
  48.8961719  79.8556887  47.9661423  48.6762015  80.5366468  48.2885830
  47.0705904  77.4343681  48.5650617  47.7928556  77.5984839  48.1054423
  46.5913896  78.1553346  48.4589957  47.1069634  77.5641910  48.4816231
  55.0299411  73.7707480  53.9447302  54.1910512  73.7968758  53.7085566
  55.1003778  74.4178215  54.5252649  54.9167805  73.8703605  53.9956419
  44.7213520  79.8401753  57.6704757  45.2334617  80.1186006  57.0213517
  44.4349863  80.5791047  58.0367570  44.7548383  79.9904107  57.6294635
  53.4768689  70.6692857  48.6774918  54.1795042  70.4700605  48.1994877
  53.2112878  69.8968799  48.9843762  53.5415322  70.5255823  48.6520360
  58.9056935  78.9775466  51.2308544  58.8190910  79.1330892  52.0843323
  58.4507415  79.6213542  50.8567949  58.8260192  79.0951221  51.3015651
  41.8080427  74.3471945  47.9668494  41.9096563  75.1498106  48.2949469
  42.6036313  74.1459281  47.6691574  41.9408332  74.4357844  47.9703849
  48.2397246  71.9328142  57.7305799  48.0480443  71.9483276  58.5805222
  49.0895842  72.1291816  57.7072454  48.3372968  71.9642493  57.8529094
  42.6244159  74.4619123  55.7089615  42.4829651  73.6103064  55.8334123
  42.9084722  74.5047784  54.8851821  42.6452005  74.3418873  55.6057239
  52.7782751  76.2986213  49.8534104  52.5317465  76.2181964  50.6870893
  53.1067874  75.5139681  49.6596631  52.7903995  76.1712479  49.9481627
  48.7379778  79.0342932  59.2657087  48.8823154  79.6144140  58.6300197
  49.0855427  79.4119229  59.9706941  48.8107240  79.1763636  59.2756082
  50.9099696  78.2333100  57.0482218  50.1623010  78.4264115  56.6430496
  51.0641221  77.4078320  56.8106340  50.8222123  78.1398212  56.9527624
  51.1501473  72.1283651  57.9377622  51.6074087  72.8607625  58.0650414
  51.2257802  71.7050116  58.6964878  51.2292443  72.1740889  58.0678699
  43.3934464  72.3749471  59.0267066  42.8576653  71.7629829  59.3427833
  43.4552229  72.9497607  59.6800732  43.3230097  72.3696399  59.1702492
  55.6228799  65.3073526  51.8071465  55.7412367  65.7649990  51.0738768
  55.4490974  64.5018788  51.5207683  55.6147970  65.2567298  51.6572399
  49.0283851  74.1185755  54.7819446  48.2379925  73.9377215  55.1036782
  49.4244473  73.3412708  54.7649741  48.9700727  73.9773216  54.8271994
  53.5149741  82.9473529  40.2226160  54.2822727  83.0073654  39.8132011
  53.0681050  82.3753971  39.7382478  53.5623169  82.8710105  40.0903870
  54.4127537  81.7528185  52.5078892  53.7372539  81.5213417  53.0092279
  54.4219913  81.1449368  51.8820997  54.3146041  81.6287110  52.4895044
  51.5421681  76.5946014  59.2642945  51.4780822  77.4555971  59.1363082
  51.6818869  76.2778007  58.4638496  51.5537151  76.6746181  59.1271158
  50.2240775  79.2878154  53.4059148  49.8003024  79.4882653  52.6698166
  50.0485630  78.4407001  53.5183448  50.1351655  79.1926935  53.3132838
  45.5123220  79.7830205  48.8387120  45.6687839  79.7177008  49.6943112
  45.8523813  80.5578758  48.6265800  45.5856455  79.8879403  48.9341715
  52.0502364  79.1588089  47.7080484  52.5917910  78.6558470  48.1719104
  52.3648923  79.1053283  46.8969969  52.1766761  79.0767509  47.6564296
  50.2188814  84.5505440  44.9920512  50.2881634  83.6919979  45.1313512
  50.9977269  84.7677321  44.6639536  50.3441664  84.4558304  44.9637669
  53.1991634  74.0524393  57.7602784  53.4133603  73.4135307  57.2066138
  52.5825533  74.4970217  57.3310646  53.1396963  74.0234537  57.6153215
  42.0857481  76.9665155  49.1547888  42.4656446  77.3849700  48.4908155
  41.5112846  77.5478611  49.4616731  42.0568806  77.1143014  49.1024629
  55.3630722  75.6613458  58.6986091  54.5507404  75.3539349  58.7799264
  55.8220656  75.1812458  59.2628803  55.3111107  75.5449951  58.7940685
  52.5906362  67.1624329  52.7490127  51.7199920  67.1363050  52.7023436
  52.8446704  66.9901521  51.9315973  52.4999923  67.1334472  52.6210264
  49.5624342  79.2192296  41.6863270  49.8516867  79.9957178  41.9606844
  49.6496141  78.7081027  42.3877769  49.6178598  79.2584214  41.8305768
  49.6155503  69.1730557  54.2063597  49.0993992  68.4810749  54.3315176
  49.0549432  69.8401334  54.1526196  49.4562016  69.1693815  54.2169663
  51.6847736  69.7123517  56.0356450  51.2979490  69.7372549  56.8169980
  51.1980674  69.1465196  55.5830966  51.5560245  69.6319268  56.0844353
  57.6597716  76.2786172  54.6596152  57.2325324  76.1912521  53.9044252
  57.0223769  76.3863948  55.2450996  57.5027323  76.2818832  54.6341594
  51.3504878  66.5990503  58.3266710  51.9797996  67.1350803  58.0487780
  51.5190741  66.5067862  59.1780275  51.4682673  66.6651865  58.4115238
  51.1518793  71.3861697  60.5993121  51.9792222  71.1146846  60.6551736
  51.1726639  72.1822539  60.9556939  51.2771643  71.4641452  60.6608304
  45.7288283  78.5325560  53.7863382  44.8876289  78.4329434  53.9942276
  45.9378291  79.3021040  54.1377703  45.6352975  78.6317604  53.8690697
  43.2063850  76.1545097  51.6148133  42.8120548  76.2288109  50.8398242
  42.6503967  76.5403043  52.1656494  43.0666662  76.2226872  51.5815792
  54.8428797  69.1326391  51.2952012  55.0478390  69.0648699  52.1409009
  54.5155221  69.9385212  51.2273189  54.8244044  69.2412332  51.4111667
  49.5404948  76.4606959  53.0360980  49.2368085  75.9062948  53.6371387
  48.8384368  76.6399169  52.5489014  49.3921157  76.4051742  53.0530685
  48.5971045  73.7707479  47.6005681  48.8730779  73.0526392  47.1883249
  49.1969714  74.3692399  47.3926787  48.7264309  73.7527850  47.5086443
  58.0962484  69.6858155  50.7754777  57.4836798  70.1728558  51.1608509
  58.1926659  69.0101646  51.3192428  58.0200382  69.6576464  50.9133635
  52.0981565  71.4420997  45.8752276  52.5525312  71.6131557  46.6000121
  52.5721611  70.8289107  45.4750052  52.2349885  71.3771882  45.9226038
  45.6197091  80.9269322  55.2055015  45.0285024  81.5678821  55.1758030
  46.3818114  81.3506940  55.1786314  45.6445351  81.0845161  55.1970162
  46.0157713  72.0871320  55.8723032  46.4759195  72.1610250  56.6098156
  46.0613820  72.8852574  55.5222854  46.0908269  72.2165467  55.9295789
  47.6641063  72.7538015  60.4395060  47.2726628  72.1071362  60.8750837
  47.8326926  73.3449450  61.0589315  47.6311974  72.7452283  60.5957766
  49.4394585  78.1463531  46.9797284  50.1836630  78.5337807  47.2180233
  49.5855281  77.3020956  47.1437771  49.5705170  78.0794004  47.0391253
  51.3574161  69.9413790  52.0129145  50.5110206  70.1136598  51.8870495
  51.3545293  69.1363134  52.3494973  51.2321311  69.8474819  52.0440272
  52.4272461  73.7189004  52.8791203  51.9532415  73.1930766  53.3896514
  52.7990597  73.1718477  52.3106064  52.4122350  73.5605001  52.8706350
  42.8045491  75.7160511  58.2474749  43.6671104  75.6156220  58.1612079
  42.4737274  75.1355220  57.6860321  42.8830688  75.6152138  58.1520155
  58.6909192  78.7791380  54.2897983  58.4507415  77.9397795  54.2940410
  59.1701199  78.8591547  55.0138757  58.7261375  78.6672780  54.3972786
  54.3555961  74.6125559  45.9416957  53.8278979  74.6954303  45.2522666
  54.8151669  75.3543430  45.9381601  54.3457811  74.7346221  45.8391652
  60.6914379  75.5592837  52.2427243  60.4524149  75.5188671  51.4048027
  60.8548280  76.4063989  52.3692964  60.6804682  75.6784922  52.1380724
  46.1647277  74.5402960  54.9085167  45.5400347  74.5521352  54.3011120
  45.8292872  75.0163135  55.5576407  46.0232769  74.6121477  54.9141735
  46.3489026  72.8828078  40.9657852  46.0001830  73.5347804  41.4289401
  45.8685472  72.8685191  40.2381723  46.2259270  72.9771132  40.9268943
  53.9093043  83.1829122  45.0726614  54.6327242  83.6487235  44.9291187
  53.4693634  83.2502732  44.3224211  53.9508736  83.2612959  44.9411395
  53.0779198  80.0426665  56.3227303  52.4636191  79.4984715  56.6175938
  53.5946483  79.5290901  55.8433119  53.0634861  79.8863074  56.2951531
  52.3175496  81.1130935  54.0571601  51.8903104  80.4880653  53.6237037
  52.3100440  80.8305856  54.8830609  52.2534637  80.9783715  54.1151429
  45.4338023  76.1496108  57.1260035  45.5931509  75.3939432  57.5311757
  45.2530916  76.6987047  57.7800773  45.4303382  76.1189921  57.2822741
  53.3758326  68.3157343  57.6810825  52.8798887  68.5121017  56.9902392
  54.1327388  68.7150012  57.5099627  53.4145150  68.4035077  57.5530962
  50.6461205  71.9899689  54.2714135  50.6703692  71.4559801  53.5826915
  50.8972679  71.4816998  54.9339726  50.6871124  71.8360593  54.2678780
  38.1568795  79.2731184  53.7057279  38.0512244  79.2278028  52.8409364
  37.4069015  79.6184965  53.9871564  38.0304398  79.3172092  53.6194609
  46.9262527  70.7170507  53.6519880  46.9660899  71.2179714  54.3654587
  46.1012192  70.8080901  53.3825803  46.8102053  70.8052324  53.7170418
  48.3476891  77.2331017  55.9493779  47.5168820  77.4004835  55.7429027
  48.2928408  76.8566968  56.7342664  48.2166306  77.2020749  56.0342307
  46.1560674  70.7239910  61.5850189  46.7813377  70.1802043  61.8579622
  45.7011154  70.2434828  61.0157980  46.1808935  70.5729391  61.5411783
  46.7212935  75.5086609  46.4783896  46.8615896  76.0059073  47.1812538
  47.2195467  74.8072903  46.6198110  46.8154016  75.4788588  46.6035475
  46.7513157  76.3753720  43.8076473  47.3858237  76.9714145  43.7425935
  46.8338768  76.0757177  44.6222343  46.8569708  76.4194628  43.9179560
  48.3292140  72.3067695  43.7821915  48.6507981  71.8270778  43.1281178
  48.5919084  73.1167341  43.5912727  48.4158165  72.3557593  43.6577407
  53.7251295  71.6939889  56.1445394  54.1506366  71.2412416  55.5328921
  53.1108288  71.1399960  56.4210182  53.6979940  71.5453865  56.0950420
  43.2566145  78.5721561  47.0766019  43.7658374  79.1686068  47.4577325
  43.7300417  78.3047534  46.3942439  43.4009521  78.6207376  47.0320542
  52.1645518  68.1654989  49.5535971  51.5213836  68.0152635  50.1221110
  51.8244925  67.9197334  48.7885076  52.0190595  68.1067111  49.5238986
  56.7544864  76.1214416  48.9765980  56.0836054  76.6644118  48.8479045
  57.4484614  76.5909271  48.7347675  56.7573732  76.2712687  48.9221508
  56.9172992  72.5770299  51.8856353  57.2700602  72.1500022  52.5602152
  56.0587793  72.4921143  52.0157430  56.8422436  72.5015040  52.0051364
  45.6156677  75.2077819  49.9439200  44.8968666  75.6241952  50.2112063
  45.9869039  75.7732058  49.3930838  45.5648608  75.3527101  49.9022007
  54.9156257  75.8405668  55.8341195  54.8954185  75.6588963  56.6875974
  54.9635458  76.7117687  55.8100779  54.9190898  75.9422206  55.9564490
  51.3903251  74.2475819  45.2812579  50.7968090  74.5692816  44.7297146
  51.4278529  73.4016914  45.0733685  51.3077640  74.1700147  45.1695350
  58.3497052  67.6988711  52.8140666  57.8427916  66.9917851  52.7461843
  59.1464485  67.3681900  52.9441742  58.3924291  67.5461863  52.8239661
  54.2661068  74.2055324  48.7114329  54.0374761  74.2288025  47.8692688
  54.5259144  73.3812791  48.8309340  54.2707256  74.0871403  48.6039527
  48.5480296  76.0589797  58.3139430  48.0359199  75.4510980  58.6724461
  48.3759792  76.7746389  58.7813405  48.4469933  76.0753096  58.4355653
  43.3946011  74.5027372  60.9641791  43.2248601  75.1628747  60.4189998
  42.9511961  74.7133933  61.6854280  43.3045344  74.6313354  60.9903421
  47.3205830  72.7431870  50.0068525  47.7963196  73.1048950  49.3718706
  46.8194430  73.3988337  50.2868668  47.3171189  72.8926059  49.9545266
  52.4249366  73.9814041  60.7541685  52.9820797  73.7527851  60.1220151
  52.1010431  74.7419707  60.4776898  52.4595777  74.0597878  60.6198182
  40.2948075  77.4074237  56.2230281  39.7474795  76.7374883  56.3411150
  41.0840453  77.0404085  56.2873748  40.3300259  77.2539224  56.2498982
  49.3632483  74.8873070  43.3741909  49.7431448  74.9052699  42.5893024
  48.6225079  75.3327058  43.2532756  49.3101321  74.9554844  43.2405477
  56.9917774  73.1955261  48.9617488  56.9912000  73.0403917  49.8201764
  56.7873954  74.0418248  48.9058873  56.9617552  73.2975882  49.0805427
  39.0535045  76.6195045  53.3776304  38.8756806  76.1671654  54.1031220
  38.7654067  77.4221207  53.5614782  38.9847998  76.6717603  53.5119807
  54.7158626  77.8752763  52.6153695  55.2112291  77.1575758  52.5757715
  53.9058402  77.5723560  52.5008182  54.6702519  77.7250409  52.5927420
  50.1617237  81.7250576  44.7650699  49.3528560  81.4017249  44.7184008
  50.6692146  81.0183798  44.6978948  50.1166904  81.5731892  44.7480993
  40.7907515  79.1522769  50.4898063  39.9253034  79.1408459  50.3780835
  40.8906331  78.9652992  51.3369203  40.6781682  79.1228830  50.5987008
  56.7810445  80.6256450  55.3030823  57.2065516  80.1030872  54.7501248
  56.4167365  81.2237288  54.7819446  56.7897047  80.6366677  55.1439833
  53.3689044  84.3390714  51.6331981  53.8400222  85.0530977  51.8021966
  53.7049223  83.7389465  52.1691850  53.4884159  84.3562179  51.7364357
  50.2858539  69.1118185  58.5890076  50.4186445  68.3149178  58.9171051
  50.6703692  69.6384588  59.1688351  50.3614868  69.0718102  58.7233578
  53.3590894  66.0348511  55.1871169  52.5536858  65.9246241  55.5039007
  53.2297630  66.1360967  54.3301035  53.2211027  66.0332181  55.1079209
  56.8156855  72.1994003  55.7810866  56.2319844  72.7003209  55.3688433
  57.1361149  71.6923559  55.1475189  56.7770030  72.1985838  55.6269373
  49.3551654  71.1134598  46.0569541  50.1767348  71.2832911  45.8151235
  48.8921305  71.2681859  45.3335838  49.4082816  71.1616331  45.9141185
  47.9446986  69.1077360  56.8367969  48.4891399  68.7668487  57.4272311
  47.9983922  69.9662822  56.9789254  48.0336105  69.1832619  56.9449843
  25.8455457   7.6561472  34.8251938  25.8149461   8.5106109  34.9970207
  26.4436806   7.3556765  35.3838081  25.9292615   7.7377969  34.9326740
  19.0455142   6.7437123  39.5804868  18.1893037   6.9045622  39.6313985
  19.0922795   5.8729187  39.6009929  18.9254253   6.6387925  39.5910934
  13.4296281  16.2799841  35.3442100  12.6779181  15.9015380  35.1158145
  13.8782293  16.3118275  34.5960910  13.3845948  16.2285448  35.1999602
  22.3548858  13.0123649  49.1865324  23.0615625  12.5175680  49.3152259
  22.5436794  13.4532731  48.4567982  22.4876764  13.0041999  49.0974370
  18.8821241  16.7025211  30.7727647  18.5472610  17.3802132  30.3371869
  19.3948112  16.3130522  30.1844519  18.9086822  16.7449789  30.6214438
  18.4225533  18.6539479  36.7138758  18.8064912  19.2226378  36.1743534
  18.3584674  17.9288990  36.2344575  18.4698960  18.6314943  36.5632621
  21.8906963   8.8029167  42.2236520  22.4362923   9.4814254  42.2830490
  21.8323839   8.6616628  41.3638101  21.9622877   8.8821169  42.1048580
  15.0081038  16.2918233  37.6104872  15.1091400  15.4818587  37.9202000
  14.4122783  16.1975180  36.9804551  14.9353576  16.1583262  37.5631111
  23.6672031  10.2313774  33.0970248  23.5511557  10.9821460  33.5262386
  24.4627918   9.9737728  33.3466335  23.7676621  10.3048621  33.1974339
  14.8481777  21.2095823  39.0119728  15.4919233  21.6508987  39.4015887
  15.1738033  20.4049249  38.9249987  14.9913606  21.1561017  39.0565206
   8.2046082  12.3138520  37.2357206   7.9696266  11.4806172  37.1289475
   8.3431723  12.5943186  36.4218407   8.1901744  12.2322023  37.0999561
  15.5502357  14.2207797  34.3839590  15.8718198  14.7613005  33.7800898
  16.1974453  13.6504569  34.5161880  15.6928412  14.2166973  34.3146625
  17.6004065   6.2223792  34.4673977  18.2984230   6.4011920  34.9595440
  17.9156397   5.6994132  33.8444366  17.7499402   6.1717564  34.4475987
  10.2305302   8.0276532  42.3785083  10.1063999   8.6138978  43.0134901
  10.8823587   7.5336728  42.6797358  10.3078952   8.0415337  42.5171012
  15.2563643  11.2038249  41.6572594  15.9012646  10.7110692  41.3383542
  15.4965420  11.3463036  42.4838672  15.3874228  11.1515691  41.7322127
  17.7949735  14.0493155  41.3079486  18.0772978  13.2544561  41.0866242
  18.5235895  14.5273743  41.3284547  17.9439298  14.0027752  41.2782501
  21.3901337  10.9621419  31.4084537  21.3052632  11.8182385  31.5534106
  21.8785720  10.6865743  32.0766697  21.4490234  11.0478740  31.5286619
  22.9807336  -2.4198288  36.7944862  22.6660777  -1.7294809  37.2265284
  22.4634278  -2.4753506  36.0930363  22.8571807  -2.3263399  36.7541811
  22.3219770   7.5806213  32.9082273  21.7931242   7.7965846  33.5679579
  22.8444790   8.2742351  32.8283242  22.3208223   7.7149350  32.9937872
  14.2119378  11.4769430  31.7089741  13.6276593  11.9819461  32.1155604
  13.8089473  11.2511817  30.9686333  14.0658682  11.5177678  31.6594766
   9.7663406  17.1924191  38.5113412   9.2830985  17.9174680  38.4872996
  10.5786725  17.4900321  38.6223570   9.8154154  17.3426544  38.5240691
  15.8377561  15.9856371  41.1163227  15.3204502  15.6263786  40.5124535
  16.5351952  15.4618546  41.1269293  15.8643142  15.8554059  41.0293485
  19.4941153  16.4351186  47.0779400  19.5824498  16.2477326  47.9257610
  19.9230865  15.7888615  46.6784246  19.5703255  16.3114193  47.1451151
  17.0611612  15.7182346  46.0597062  16.4982447  15.3054955  46.5836723
  17.8232636  15.6435251  46.4790205  17.0906061  15.6459746  46.1990062
  18.6696592   7.7235082  30.1858661  18.9092596   7.9313065  29.3734004
  18.9912433   6.9192590  30.2947606  18.7533750   7.6349183  30.0819214
  12.6207604  17.7080367  38.6633692  13.3228183  17.1932356  38.7206449
  12.5405087  18.0354518  39.4680567  12.7131364  17.6794593  38.7906484
  27.2721781   5.8022918  42.0765738  26.4350202   5.8725105  42.3113333
  27.2410012   5.8047413  41.2040041  27.1440064   5.8133145  41.9825286
  13.6686510   7.9455954  47.7914107  13.8407014   7.8361848  48.6399388
  14.2055868   8.5910359  47.5545299  13.7731514   8.0247955  47.8819204
  11.9458379  13.8986719  38.1719300  12.7847279  14.1309651  38.2193062
  11.9770148  13.0291030  38.1026335  12.0740097  13.8043665  38.1683945
  12.5711082  14.3187594  42.4732606  13.1109307  14.1758725  43.1435978
  11.8881028  14.7184345  42.8416632  12.5503236  14.3567265  42.6267027
  21.9951967   9.9978594  37.6677630  22.7509482  10.4310109  37.7066539
  22.1014292   9.3483364  38.2412266  22.1222138   9.9656078  37.7575655
  19.6061212  15.8660205  49.7423183  20.3901628  15.9791052  50.1078925
  19.4057806  15.0401342  49.9381869  19.6927237  15.7606924  49.8257569
   7.9748227  10.5387885  42.6267027   7.7086642   9.7227001  42.7858017
   7.9886791  10.5841040  41.7562543   7.9372950  10.4244789  42.5220509
  24.9529621   0.8665700  40.6609461  25.5955530   0.9363804  41.2471376
  25.2052642   0.1994922  40.1589003  25.0851753   0.7792048  40.6736740
  11.8805974   5.3372969  29.2418785  11.1664151   5.0511149  29.6541218
  12.3649943   5.6769595  29.8825173  11.8465338   5.3454619  29.3974420
  19.7631605  17.7770307  43.3889639  18.9646851  17.5369807  43.6463507
  20.2117617  17.8284700  44.1356686  19.7106216  17.7492698  43.5374563
  28.1676484  10.5432792  37.3099670  28.8292919   9.9823460  37.2095579
  27.5267896  10.0484822  37.6352361  28.1705352  10.3869201  37.3432010
  19.0553292  13.8402923  29.6180593  19.4704441  13.5087947  28.9265089
  18.2245222  13.6071825  29.4900730  18.9941301  13.7574179  29.4971441
   8.3841641  11.3246664  39.9078771   8.2017214  11.2993550  39.0551064
   9.1191310  11.7945602  39.9467680   8.4655705  11.3908026  39.7876690
  24.4541315  11.5598174  37.0511659  24.6896904  11.7043373  36.2238510
  24.6030879  12.3240582  37.4443173  24.5107118  11.6937228  36.9875263
  11.4487393   8.0431667  46.4160880  12.1727365   8.0284698  46.9025775
  11.5503529   8.7527022  45.9182848  11.5705602   8.1456370  46.4139667
  26.2831772  10.3999840  34.8881263  26.6139989  10.9327480  34.2821358
  26.8564860  10.4538728  35.5443214  26.4165451  10.4869409  34.8959044
  18.8232342  11.5230752  51.2809827  18.0305323  11.8374263  51.4662447
  18.9381269  11.7382220  50.4430612  18.7227753  11.6014588  51.1848162
  21.4963661   8.2464743  35.5704843  21.5910515   8.9854037  36.0244468
  20.8722505   7.8182218  36.0039407  21.4172691   8.2926063  35.7012990
  19.7516135  11.4250955  46.2195124  20.3254996  10.7878199  46.3743688
  19.6730939  11.4255038  45.3504781  19.8249370  11.3316067  46.1141535
   8.3512551   8.2040165  40.0577838   8.9286054   8.0676616  40.6970083
   7.6526613   7.7475949  40.3123422   8.3333573   8.1162431  40.1900128
  21.7486682  10.0913482  28.8041795  21.6666845  10.1615670  29.6696782
  22.3866403  10.6543226  28.6125535  21.8306520  10.1852454  28.9031744
  15.1079853   9.8574220  38.2716321  14.8499098   9.0245955  38.2447621
  15.1628336  10.0831833  37.4308821  15.0779631   9.7671992  38.1436458
  20.1880904   1.9602671  38.3720414  19.4837230   1.4711857  38.5304333
  20.2365878   1.9725146  37.5008858  20.0910955   1.8892319  38.2659754
  14.0814566   7.4111983  38.7581216  13.5064157   7.5704151  39.3945177
  13.7050242   6.7747392  38.2949666  13.9417378   7.3409796  38.7835774
  17.7487854   5.8835332  43.6173594  17.3602287   5.4589550  42.9625785
  17.0842553   6.1317482  44.1250621  17.5934782   5.8574053  43.5961462
  27.3911123   5.6410337  36.3921424  27.1347688   4.8290278  36.2019307
  28.2340437   5.6487904  36.1651612  27.4777149   5.5222334  36.3306241
  21.5714216  -0.4190039  41.1297579  21.9524728  -1.1011868  41.5165453
  20.7677500  -0.7080437  40.9473243  21.5090677  -0.5622991  41.1601634
  18.8526792  10.1133937  31.8150401  19.6667431  10.4048830  31.7033173
  18.7885934   9.4593799  31.2408694  18.9629532  10.0599131  31.7139239
  25.0736283  12.7959933  46.2279977  24.8374920  11.9647998  46.1092038
  25.7179512  12.7445540  46.8134821  25.1330953  12.6657621  46.2965870
  14.7234701  13.5855454  36.9422713  15.3608648  13.3467202  37.4874507
  15.1489772  13.7892613  36.2075874  14.8810867  13.5806464  36.9139871
   9.4147343  15.8243791  40.8257017   9.4551488  16.0958642  39.9976797
   9.9741867  16.3485699  41.2414805   9.5030689  15.9419546  40.7648905
  15.3637516   8.8057744  31.2797603  15.7482669   8.5865451  32.0314148
  15.1149136   9.6320689  31.4098679  15.3839588   8.8955890  31.4098679
  26.0972703  12.5804382  42.2908271  25.7918520  13.3132438  42.6521587
  25.3778919  12.1742311  42.0101057  25.9460046  12.6286115  42.3021408
  17.1056173  14.0627877  38.6216500  17.1795181  13.9003049  39.4758350
  17.9225679  14.2518066  38.3776981  17.2372531  14.0664619  38.7114525
  31.7974495   9.2197382  41.6176616  31.7298996   9.2393341  40.7479202
  31.7830158  10.0627710  41.8432286  31.7853252   9.3471117  41.5229093
  10.8661929  14.4085740  35.6510943  10.0400047  14.6547477  35.5245222
  10.9273921  14.3297821  36.5173001  10.7536096  14.4330689  35.7599888
  22.2070842   0.6232540  44.9417705  22.9524434   0.4342350  44.5281130
  21.7908147   1.1490778  44.3831561  22.2555816   0.6734685  44.7982278
  15.6460758  17.0262620  33.3529973  15.9359057  16.6351601  32.6289200
  16.3764239  17.2079325  33.7935248  15.7967643  16.9956434  33.3112780
  29.5833113   7.9941769  39.8923210  30.1341034   7.3609838  40.1320302
  29.5677228   8.5257161  40.5838714  29.6618309   7.9790717  40.0302068
  16.2355504  11.8280366  44.4383103  15.7367197  12.5396134  44.5167992
  17.0455728  12.1481032  44.4001266  16.2811610  11.9807214  44.4439672
  13.5866674  19.0030002  36.4190123  13.3666969  18.7127357  37.2116790
  13.3661196  18.3444957  35.8908035  13.5214268  18.8629711  36.4579031
  12.4983621  11.0903319  38.6845824  12.2096870  10.4640790  39.2191552
  13.3666969  11.0323606  38.7510505  12.5843873  10.9890863  38.7736779
  23.2861519   6.2338102  39.0027806  22.9426285   5.5128437  39.3535056
  23.3854562   6.0251953  38.1606165  23.2503562   6.0962305  38.9299486
  15.7534630  20.3759392  35.2020815  16.4058688  19.8435835  35.4311841
  15.0560238  20.0228045  35.5888689  15.7465348  20.2448915  35.2932983
  12.7015895  12.7298570  34.6088189  13.4561863  13.1111609  34.8223652
  12.1086507  13.1809714  35.0634886  12.7252608  12.8527397  34.7071068
  23.7474548  12.6963806  34.5451794  24.3132581  13.3557016  34.4610337
  23.1002451  13.0413504  35.0168197  23.7353304  12.8445748  34.6024551
  15.1622562   4.6861410  49.7345402  14.3522337   4.9919190  49.6235244
  15.6397248   5.4066993  49.8497986  15.1126040   4.8376011  49.7352473
  14.0214121  13.9007131  39.9828305  13.4994875  14.0407423  40.6680170
  14.4088141  13.1417796  40.1730422  14.0017822  13.8092655  40.1129381
  20.2181126  15.6402590  33.9688874  19.9767802  14.9070451  33.5615939
  20.3982459  16.1889447  33.3155207  20.2088750  15.6124982  33.8119097
  15.4480447  10.9311150  35.3809796  15.2523229  11.5385885  34.7870099
  15.6714792  10.2379094  34.9001470  15.4515088  10.9188676  35.2225877
  13.8458977   7.8165888  35.4990664  14.5681629   7.9807046  35.0394470
  13.3666970   8.5375553  35.3930004  13.8822707   7.9464118  35.4156278
  21.8052484   4.1529687  40.8787349  20.9663585   4.1790966  40.6425612
  21.8756852   4.8000422  41.4592696  21.6920878   4.2525813  40.9296466
  11.4966593  10.2223961  44.6044804  12.0087690  10.5008214  43.9553564
  11.2102936  10.9613255  44.9707617  11.5301457  10.3726314  44.5634682
  20.2521763   1.0515064  35.6114965  20.9548115   0.8522812  35.1334923
  19.9865951   0.2791006  35.9183809  20.3168395   0.9078030  35.5860407
  25.6810008   9.3597674  38.1648591  25.5943983   9.5153100  39.0183370
  25.2260488  10.0035749  37.7907996  25.6013265   9.4773429  38.2355698
  15.0150319   2.3150349  44.6645846  14.8233516   2.3305484  45.5145269
  15.8648915   2.5114023  44.6412501  15.1126041   2.3464700  44.7869140
  19.5535824   6.6808421  36.7874150  19.3070539   6.6004172  37.6210939
  19.8820947   5.8961889  36.5936678  19.5657068   6.5534686  36.8821674
  23.4483873  13.3891780  40.5760932  23.3098232  14.0872826  41.0809674
  22.6683871  13.2340437  40.2197113  23.3127100  13.4691947  40.5987206
  21.7861958   9.6888156  46.8283313  21.7809997   8.8167972  46.8325740
  22.4922952   9.8876325  46.3552769  21.8906962   9.5892030  46.7590349
  15.5132852   9.4165139  46.1997133  15.6576227   9.9966348  45.5640244
  15.8608500   9.7941436  46.9046988  15.5860313   9.5585843  46.2096128
  17.6852769   8.6155308  43.9822265  16.9376083   8.8086322  43.5770543
  17.8394294   7.7900527  43.7446386  17.5975197   8.5220419  43.8867671
  14.5860607  17.6067911  43.0658160  14.7350170  17.0470827  42.4131565
  15.3660609  17.6859913  43.4490679  14.7234700  17.5353477  43.0255109
  17.1113907  17.7782554  44.3442651  17.0357578  17.1091365  44.8993439
  17.0403766  18.4800342  44.8583317  17.0894514  17.7827461  44.5019499
  17.9254546   2.5105859  44.8717669  18.3827160   3.2429833  44.9990461
  18.0010875   2.0872324  45.6304925  18.0045516   2.5563097  45.0018745
  17.7684154  16.2983553  35.1766257  18.5334045  16.0293197  34.8548921
  17.6662244  15.8133563  35.8936320  17.8665650  16.1873118  35.2346085
  15.8036924   4.5007962  41.7159493  15.0132999   4.3199423  42.0376829
  16.1997547   3.7234915  41.6989787  15.7453800   4.3595423  41.7612041
  20.2902815  13.3295737  27.1566206  21.0575800  13.3895862  26.7472058
  19.8434124  12.7576178  26.6722525  20.3376242  13.2532312  27.0243917
  21.1880610  12.1350393  39.4418939  20.5125612  11.9035625  39.9432326
  21.1972986  11.5271576  38.8161044  21.0899115  12.0109318  39.4235091
  18.3174754   6.9768222  46.1982992  18.2533895   7.8378178  46.0703128
  18.4571942   6.6600215  45.3978543  18.3290224   7.0568388  46.0611205
  23.1897345  14.9915525  31.6729117  23.2717182  15.7982511  31.3490568
  23.6747087  15.0111484  32.3969890  23.2734503  15.1136187  31.7316015
  16.9993848   9.6700361  40.3399195  16.5756097   9.8704860  39.6038213
  16.8238703   8.8229209  40.4523494  16.9104729   9.5749142  40.2472885
  16.5005541  21.1850874  42.8020652  16.9901472  20.4861663  42.6196317
  15.9289774  20.8874744  43.3896709  16.4890071  21.0377098  42.8621693
  12.2876293  10.1652412  35.7727167  12.4440912  10.0999215  36.6283159
  12.6276886  10.9400965  35.5605847  12.3609528  10.2701610  35.8681761
  18.8255438   9.5410296  34.6420530  19.3670983   9.0380677  35.1059151
  19.1401997   9.4875491  33.8310016  18.9519835   9.4589717  34.5904342
  22.6972545  13.7512943  51.7547443  23.5107410  13.4798092  51.9152575
  22.5367511  13.4520483  50.9507639  22.7942493  13.6667869  51.6592848
  16.9941887  14.9327647  31.9260558  17.0634708  14.0742186  32.0653559
  17.7730342  15.1499528  31.5979583  17.1194737  14.8380511  31.8977716
  19.9744707   4.4346600  44.6942831  20.1886677   3.7957515  44.1406185
  19.3578606   4.8792424  44.2650693  19.9150036   4.4056744  44.5493262
  21.3849375  17.3565349  36.1397052  20.9929167  17.0532064  35.4219918
  21.5402447  18.1934439  35.9502006  21.3502965  17.4349185  36.0053549
   8.8610555   7.3487363  36.0887934   9.2409519   7.7671908  35.4248202
   8.2865919   7.9300818  36.3956778   8.8321879   7.4965222  36.0364675
  22.1383795   6.0435666  45.6326138  21.3260477   5.7361556  45.7139311
  22.5973730   5.5634666  46.1968850  22.0864180   5.9272158  45.7280732
  21.5489050  13.9215338  36.0803082  21.1903704  14.0929980  36.8567115
  21.0627760  14.3828543  35.5231081  21.4247747  14.0154309  36.1128351
  16.3377415   9.6014503  28.6203317  16.6269940  10.3779385  28.8946891
  16.4249214   9.0903234  29.3217816  16.3931671   9.6406421  28.7645815
  19.2337303   7.4495737  50.4154840  19.7036934   8.0737853  50.8022714
  19.2799183   6.7812713  50.9748055  19.3105178   7.4430417  50.5554912
  22.7093789  14.8119234  47.0270283  23.3473510  14.3179429  46.6932739
  22.0667881  14.7396634  46.4422510  22.7088016  14.7278242  46.8912638
  24.4350789   6.6608379  41.5936199  24.0078397   6.5734728  40.8384298
  23.7976842   6.7686155  42.1791043  24.2780396   6.6641039  41.5681640
  17.9271866   1.7683905  47.5333168  18.7545296   1.4969054  47.5891783
  17.9479712   2.5644746  47.8896986  18.0524716   1.8463659  47.5948351
  22.7648046  15.5039042  43.6675640  23.5540424  15.1528107  43.7877722
  22.9391643  16.3175430  43.4052274  22.9068327  15.5724899  43.6463508
  12.5041356   8.9147768  40.7203429  11.6629363   8.8151642  40.9282323
  12.7131364   9.6843248  41.0717749  12.4106049   9.0139811  40.8030744
   9.9816923   6.5367304  38.5488179   9.5873621   6.6110316  37.7738289
   9.4257040   6.9225251  39.0996541   9.8419735   6.6049079  38.5155839
  21.6181870  -0.4851401  38.2292058  21.8231463  -0.5529094  39.0749055
  21.2908294   0.3207420  38.1613236  21.5997118  -0.3765461  38.3451713
  16.3158021   6.8429167  39.9701026  16.0121158   6.2885155  40.5711434
  15.6137442   7.0221377  39.4829061  16.1674231   6.7873949  39.9870732
  15.3724118   4.1529687  34.5345728  15.6483852   3.4348599  34.1223296
  15.9722787   4.7514606  34.3266834  15.5017383   4.1350057  34.4426489
  14.3776372  14.0578887  44.6773124  14.2696727  14.0680950  45.5435182
  14.5872153  14.8833668  44.4878078  14.3926483  14.1819962  44.7777216
  24.8715558   0.0680363  37.7094824  24.2589871   0.5550765  38.0948556
  24.9679732  -0.6076146  38.2532475  24.7953455   0.0398671  37.8473682
  18.8734638   1.8243204  32.8092323  19.3278385   1.9953764  33.5340168
  19.3474684   1.2111315  32.4090099  19.0102959   1.7594089  32.8566085
  12.3950164  11.3091530  42.1395062  11.8038097  11.9501028  42.1098077
  13.1571187  11.7329147  42.1126361  12.4198425  11.4667368  42.1310209
  14.4394136   3.1360222  47.3735106  14.0479702   2.4893570  47.8090884
  14.6079999   3.7271658  47.9929362  14.4065047   3.1274490  47.5297812
  22.1539680  16.7600841  39.5727086  21.9559369  17.2491656  38.8783297
  21.5327391  16.9642083  40.1511219  22.0327245  16.8617380  39.5550309
  16.2147658   8.5285738  33.9137330  16.9589703   8.9160015  34.1520280
  16.3608355   7.6843164  34.0777818  16.3458244   8.4616211  33.9731300
  19.2025534   4.1011212  39.8131250  18.7285489   3.5752974  40.3236561
  19.5743670   3.5540684  39.2446111  19.1875423   3.9427208  39.8046397
  25.4662265   9.1613587  41.2238030  25.2260488   8.3220002  41.2280457
  25.9454272   9.2413754  41.9478804  25.5014449   9.0494987  41.3312833
  21.1309034   4.9947766  32.8757004  20.6032053   5.0776510  32.1862712
  21.5904742   5.7365638  32.8721648  21.1210884   5.1168429  32.7731699
  27.4667452   5.9415044  39.1767289  27.2277222   5.9010879  38.3388074
  27.6301353   6.7886196  39.3033010  27.4557755   6.0607129  39.0720771
  24.0713482  10.3264994  45.1072334  24.7947681   9.8737520  44.9283354
  23.8063444  10.6069659  44.3244662  24.1394755  10.3015962  44.9651050
  12.9400350   4.9225167  41.8425214  12.3153421   4.9343559  41.2351166
  12.6045945   5.3985342  42.4916454  12.7985842   4.9943684  41.8481782
   9.6526026  12.9825627  43.2828978   9.1225951  12.2918066  43.3323953
   9.9251119  12.9735813  42.4541687   9.6150748  12.8792759  43.1676394
  20.6846117  13.5651330  32.0066661  21.4080315  14.0309443  31.8631234
  20.2446708  13.6324939  31.2564258  20.7261809  13.6435166  31.8751442
  19.8532272  10.4248872  43.2567350  19.2389265   9.8806922  43.5515985
  20.3699557   9.9113108  42.7773166  19.8387934  10.2685281  43.2291578
  19.0928569  11.4953142  40.9911648  18.6656177  10.8702861  40.5577084
  19.0853513  11.2128064  41.8170655  19.0287710  11.3605923  41.0491476
  12.2091096   6.5318315  44.0600082  12.3684583   5.7761639  44.4651804
  12.0283989   7.0809255  44.7140820  12.2056455   6.5012129  44.2162788
  20.1511399  -1.3020449  44.6150872  19.6551960  -1.1056775  43.9242438
  20.9080461  -0.9027781  44.4439673  20.1898224  -1.2142716  44.4871008
  17.4214278   2.3721897  41.2054182  17.4456766   1.8382009  40.5166962
  17.6725752   1.8639205  41.8679773  17.4624197   2.2182800  41.2018827
   4.9321868   9.6553392  40.6397326   4.8265317   9.6100236  39.7749410
   4.1822088  10.0007172  40.9211611   4.8057471   9.6994300  40.5534656
  15.8845214  10.6653455  48.6880221  15.0340844  10.8025169  48.8237866
  16.0473341   9.9317233  49.1327923  15.7829077  10.5767556  48.7735820
  15.1229964   7.6153225  42.8833826  14.2921894   7.7827043  42.6769074
  15.0681481   7.2389175  43.6682711  14.9919379   7.5842956  42.9682354
  13.4966008   5.8908816  33.4123943  13.6368969   6.3881280  34.1152585
  13.9948541   5.1895111  33.5538157  13.5907089   5.8610795  33.5375522
  13.5266230   6.7575927  30.7416520  14.1611310   7.3536352  30.6765982
  13.6091841   6.4579385  31.5562390  13.6322781   6.8016835  30.8519607
  26.5048796   9.2891405  43.6102884  27.0966636   9.9288655  43.6421082
  26.9407791   8.5914441  43.8994951  26.6567227   9.2809755  43.6583717
  15.1045213   2.6889903  30.7161962  15.4261054   2.2092985  30.0621224
  15.3672157   3.4989549  30.5252774  15.1911239   2.7379801  30.5917454
  20.5004368   2.0762097  43.0785441  20.9259440   1.6234623  42.4668968
  19.8861361   1.5222167  43.3550229  20.4733013   1.9276073  43.0290466
  10.0319218   8.9543768  34.0106066  10.5411447   9.5508275  34.3917372
  10.5053490   8.6869742  33.3282486  10.1762594   9.0029583  33.9660589
  20.9449966  17.6272035  32.1664722  20.2279276  17.4532897  31.7011959
  21.5956704  17.3924607  31.6340208  20.9351817  17.5667827  32.0193940
  23.5297937   6.5036623  35.9106027  22.8589127   7.0466325  35.7819092
  24.2237688   6.9731479  35.6687722  23.5326805   6.6534894  35.8561554
  17.5784671  18.6433335  41.1417785  17.3550326  17.8852164  41.5101811
  17.0894514  18.6731356  40.4198225  17.4728120  18.5355560  41.0894526
  23.6926065   2.9592507  38.8196400  24.0453675   2.5322230  39.4942199
  22.8340866   2.8743350  38.9497476  23.6175510   2.8837247  38.9391410
  12.3909750   5.5900027  36.8779246  11.6721739   6.0064159  37.1452110
  12.7622112   6.1554265  36.3270885  12.3401682   5.7349308  36.8362053
  21.6909331   6.2227875  42.7681242  21.6707258   6.0411171  43.6216021
  21.7388531   7.0939894  42.7440826  21.6943972   6.3244414  42.8904537
  19.6355661  12.8115067  48.6929719  19.5951515  12.1664744  48.1074875
  20.4478979  12.7551685  49.0055131  19.7498814  12.7074034  48.6526668
  16.2263128  18.8633793  38.5954870  15.8123527  18.2007924  38.2058711
  16.9110502  19.0111652  38.0750564  16.2661500  18.7874451  38.4611367
  19.5928422  18.0223879  39.3478486  19.1944705  18.1326149  38.5799307
  18.9779642  18.2305945  39.9305046  19.4427312  18.0697447  39.3209786
  18.1656324   4.6298026  32.2152626  17.5721164   4.9515023  31.6637193
  18.2031602   3.7839122  32.0073732  18.0830713   4.5522355  32.1035397
  25.1250125  -1.9189081  39.7480712  24.6180990  -2.6259942  39.6801890
  25.9217559  -2.2495893  39.8781789  25.1677364  -2.0715930  39.7579707
  21.0414141   4.5877531  35.6454376  20.8127834   4.6110232  34.8032734
  21.3012217   3.7634998  35.7649387  21.0460329   4.4693611  35.5379574
  15.3233369   6.4412004  45.2479476  14.8112272   5.8333187  45.6064508
  15.1512865   7.1568596  45.7153452  15.2223006   6.4575303  45.3695700
  14.0958903   3.1254077  36.9408572  14.5716270   3.4871157  36.3058753
  13.5947503   3.7810545  37.2208715  14.0924262   3.2748266  36.8885313
  19.2002440   4.3636249  47.6881732  19.7573870   4.1350058  47.0560197
  18.8763505   5.1241914  47.4116944  19.2348850   4.4420085  47.5538229
  16.9185557   7.4503902  48.6533739  17.6696884   7.7655579  48.9673293
  17.1108133   7.2483073  47.8267661  17.0576971   7.4671284  48.5777135
  16.1385556   5.2695277  30.3081956  16.5184521   5.2874906  29.5233071
  15.3978153   5.7149266  30.1872803  16.0854394   5.3377052  30.1745524
  23.7670847   3.5777468  35.8957535  23.7665073   3.4226125  36.7541811
  23.5627027   4.4240455  35.8398920  23.7370625   3.6798089  36.0145474
  21.4911699   8.2574970  39.5493741  21.9865364   7.5397965  39.5097762
  20.6811475   7.9545768  39.4348228  21.4455592   8.1072616  39.5267467
  16.9370311  12.1072783  31.6990746  16.1281633  11.7839457  31.6524055
  17.4445219  11.4006005  31.6318994  16.8919977  11.9554100  31.6821040
   7.5660588   9.5344976  37.4238110   6.7006107   9.5230667  37.3120881
   7.6659404   9.3475199  38.2709249   7.4534755   9.5051038  37.5327055
  23.5563518  11.0078658  42.2370870  23.9818589  10.4853079  41.6841295
  23.1920438  11.6059495  41.7159493  23.5650120  11.0188885  42.0779880
  13.1917598  19.3042875  40.9968216  13.5064157  20.1179263  41.0045997
  13.6011011  18.9193094  41.6650375  13.2985696  19.3671577  41.0972307
  20.1442117  14.7212922  38.5672028  20.6153296  15.4353184  38.7362013
  20.4802296  14.1211672  39.1031897  20.2637232  14.7384386  38.6704404
  22.2319102  16.3314235  50.7464100  22.3416067  15.5422796  51.1020847
  22.5609999  16.2420171  49.9438438  22.2971508  16.2020088  50.6806490
  20.7816064  14.5130856  45.3299720  20.2337010  13.8888740  45.0619786
  21.2429092  14.7025128  44.6143800  20.7683273  14.4489906  45.1850151
  23.5909928   2.5816210  42.7150913  23.0072917   3.0825417  42.3028480
  23.9114222   2.0745767  42.0815236  23.5523103   2.5808045  42.5609420
  16.1304727   1.4956805  32.9909587  16.9520422   1.6655118  32.7491282
  15.6674378   1.6504066  32.2675885  16.1835889   1.5438538  32.8481232
  10.5330618  13.2515983  40.6446824  11.1375475  13.2111818  40.0160645
  10.3257930  14.0987135  40.6750880  10.5919515  13.3703986  40.5562941
  20.3474390  15.5181929  41.8609061  21.1672764  15.3744895  42.1225357
  20.0668468  16.1428127  42.4025499  20.4271133  15.5892281  41.9797001
   5.7681900  12.2350601  40.5145747   5.6706178  11.4246872  40.8235804
   6.5510770  12.2142394  40.1292015   5.8698037  12.1117691  40.5032610
  19.1778665  27.8323828  37.2357206  18.9428850  26.9991480  37.1289475
  19.3164306  28.1128494  36.4218407  19.1634328  27.7507331  37.0999561
  21.4768753  20.0009559  40.1341514  20.8573784  19.4102206  39.9651528
  21.3752616  20.5920994  39.5005837  21.3706428  20.0013641  40.0146503
  21.2037886  23.5461840  42.3785083  21.0796583  24.1324286  43.0134901
  21.8556170  23.0522036  42.6797358  21.2811535  23.5600645  42.5171012
  33.9539920  13.0987020  36.7944862  33.6393361  13.7890498  37.2265284
  33.4366862  13.0431802  36.0930363  33.8304390  13.1921908  36.7541811
  28.0344196  31.2367653  46.0597062  27.4715031  30.8240263  46.5836723
  28.7965219  31.1620559  46.4790205  28.0638644  31.1645054  46.1990062
  29.6429176  23.2420390  30.1858661  29.8825180  23.4498373  29.3734004
  29.9645017  22.4377898  30.2947606  29.7266334  23.1534491  30.0819214
  24.6419094  23.4641262  47.7914107  24.8139598  23.3547156  48.6399388
  25.1788451  24.1095667  47.5545299  24.7464098  23.5433263  47.8819204
  23.3076531  17.5784104  30.7296312  23.1252104  17.7955985  29.9037305
  24.1702144  17.6923117  30.7854927  23.4081120  17.6274002  30.6150799
  23.5443666  29.8372902  42.4732606  24.0841891  29.6944033  43.1435978
  22.8613612  30.2369653  42.8416632  23.5235820  29.8752573  42.6267027
  18.9480811  26.0573193  42.6267027  18.6819226  25.2412309  42.7858017
  18.9619375  26.1026348  41.7562543  18.9105533  25.9430097  42.5220509
  35.9262205  16.3851007  40.6609461  36.5688113  16.4549112  41.2471376
  36.1785225  15.7180230  40.1589003  36.0584337  16.2977356  40.6736740
  23.6979417  19.5951571  45.2734035  23.0051214  19.1248551  45.5194766
  24.3139745  19.3689875  45.8475742  23.6863947  19.4918703  45.3943187
  19.3574224  26.8431972  39.9078771  19.1749798  26.8178858  39.0551064
  20.0923893  27.3130910  39.9467680  19.4388288  26.9093334  39.7876690
  22.4219976  23.5616975  46.4160880  23.1459948  23.5470006  46.9025775
  22.5236113  24.2712330  45.9182848  22.5438185  23.6641678  46.4139667
  29.7964926  27.0416059  51.2809827  29.0037906  27.3559571  51.4662447
  29.9113853  27.2567528  50.4430612  29.6960336  27.1199896  51.1848162
  19.3245135  23.7225473  40.0577838  19.9018637  23.5861923  40.6970083
  18.6259197  23.2661257  40.3123422  19.3066156  23.6347739  40.1900128
  14.8003968  22.5737366  36.7725656  14.8864220  22.1969234  37.5539186
  15.4279766  22.1997811  36.2945615  14.9060519  22.4622848  36.8171134
  20.3879927  31.3429099  40.8257017  20.4284072  31.6143950  39.9976797
  20.9474451  31.8671007  41.2414805  20.4763273  31.4604854  40.7648905
  26.5038640  17.6049467  50.9960187  26.1892081  18.3749030  50.7329750
  26.1828572  17.0419723  50.4112414  26.4097559  17.6359736  50.8701537
  33.1803425  16.1417848  44.9417705  33.9257017  15.9527658  44.5281130
  32.7640730  16.6676086  44.3831561  33.2288400  16.1919993  44.7982278
  23.4716205  26.6088627  38.6845824  23.1829453  25.9826098  39.2191552
  24.3399553  26.5508914  38.7510505  23.5576457  26.5076171  38.7736779
  26.1355145  20.2046718  49.7345402  25.3254921  20.5104498  49.6235244
  26.6129832  20.9252300  49.8497986  26.0858624  20.3561319  49.7352473
  22.4699177  25.7409268  44.6044804  22.9820274  26.0193522  43.9553564
  22.1835520  26.4798563  44.9707617  22.5034040  25.8911622  44.5634682
  19.5566083  20.2479460  34.9008541  19.6582220  21.0505622  35.2289516
  20.3521970  20.0466796  34.6031621  19.6893989  20.3365359  34.9043896
  20.3729815  20.3626639  42.6429662  20.2315307  19.5110579  42.7674170
  20.6570379  20.4055299  41.8191868  20.3937662  20.2426389  42.5397286
  25.5593190  33.1253219  43.0658160  25.7082754  32.5656135  42.4131565
  26.3393192  33.2045221  43.4490679  25.6967284  33.0538785  43.0255109
  28.0846491  33.2967862  44.3442651  28.0090162  32.6276673  44.8993439
  28.0136350  33.9985650  44.8583317  28.0627098  33.3012769  44.5019499
  21.1420121  18.2756986  45.9607113  20.6062310  17.6637344  46.2767880
  21.2037885  18.8505122  46.6140779  21.0715753  18.2703914  46.1042539
  33.3714455  11.2081042  38.7411512  33.4898024  11.6657505  38.0078814
  33.1976631  10.4026303  38.4547729  33.3633626  11.1574814  38.5912445
  23.2608877  25.6837720  35.7727167  23.4173496  25.6184523  36.6283159
  23.6009470  26.4586273  35.5605847  23.3342111  25.7886918  35.8681761
  33.6705129  29.2698251  51.7547443  34.4839994  28.9983400  51.9152575
  33.5100095  28.9705791  50.9507639  33.7675077  29.1853177  51.6592848
  19.8343138  22.8672671  36.0887934  20.2142103  23.2857216  35.4248202
  19.2598503  23.4486126  36.3956778  19.8054463  23.0150530  36.0364675
  30.2069886  22.9681045  50.4154840  30.6769517  23.5923161  50.8022714
  30.2531766  22.2998021  50.9748055  30.2837762  22.9615725  50.5554912
  29.0990535  12.4998018  45.2606757  29.7283653  13.0358318  44.9827827
  29.2676398  12.4075377  46.1120322  29.2168329  12.5659380  45.3455285
  28.9004450  17.2869213  47.5333168  29.7277879  17.0154362  47.5891783
  28.9212296  18.0830054  47.8896986  29.0257300  17.3648967  47.5948351
  23.4773940  24.4333075  40.7203429  22.6361946  24.3336950  40.9282323
  23.6863948  25.2028556  41.0717749  23.3838632  24.5325119  40.8030744
  20.9549507  22.0552612  38.5488179  20.5606204  22.1295624  37.7738289
  20.3989623  22.4410559  39.0996541  20.8152319  22.1234387  38.5155839
  25.3508955  29.5764195  44.6773124  25.2429310  29.5866258  45.5435182
  25.5604737  30.4018976  44.4878078  25.3659067  29.7005270  44.7777216
  35.8448141  15.5865671  37.7094824  35.2322455  16.0736073  38.0948556
  35.9412316  14.9109162  38.2532475  35.7686039  15.5583979  37.8473682
  23.3682747  26.8276838  42.1395062  22.7770681  27.4686336  42.1098077
  24.1303771  27.2514455  42.1126361  23.3931008  26.9852676  42.1310209
  23.7643370  17.9878836  42.8063079  24.2244852  18.0617765  43.5438203
  23.8099477  18.7860090  42.4562901  23.8393926  18.1172983  42.8635836
  25.4126720  18.6545530  47.3735106  25.0212285  18.0078878  47.8090884
  25.5812583  19.2456966  47.9929362  25.3797630  18.6459798  47.5297812
  20.5531148  21.6168026  45.1814796  21.4156761  21.5163735  45.0952125
  20.2222931  21.0362735  44.6200368  20.6316344  21.5159653  45.0860201
  24.0974683  18.7835594  27.8997899  23.7487487  19.4355319  28.3629448
  23.6171129  18.7692707  27.1721770  23.9744927  18.8778647  27.8608990
  20.6258610  28.5010935  43.2828978  20.0958534  27.8103374  43.3323953
  20.8983703  28.4921121  42.4541687  20.5883332  28.3978067  43.1676394
  23.1823679  22.0503623  44.0600082  23.3417166  21.2946947  44.4651804
  23.0016573  22.5994563  44.7140820  23.1789038  22.0197437  44.2162788
  31.1243982  14.2164859  44.6150872  30.6284544  14.4128533  43.9242438
  31.8813044  14.6157527  44.4439673  31.1630807  14.3042592  44.4871008
  15.9054452  25.1738699  40.6397326  15.7997901  25.1285544  39.7749410
  15.1554672  25.5192480  40.9211611  15.7790055  25.2179608  40.5534656
  26.8577797  26.1838763  48.6880221  26.0073428  26.3210477  48.8237866
  27.0205925  25.4502541  49.1327923  26.7561661  26.0952864  48.7735820
  23.9046331  16.6247425  48.5190236  24.5299034  16.0809558  48.7919669
  23.4496811  16.1442343  47.9498027  23.9294592  16.4736907  48.4751830
  21.0051802  24.4729076  34.0106066  21.5144031  25.0693583  34.3917372
  21.4786074  24.2055050  33.3282486  21.1495177  24.5214891  33.9660589
  36.0982709  13.5996227  39.7480712  35.5913573  12.8925366  39.6801890
  36.8950142  13.2689415  39.8781789  36.1409948  13.4469378  39.7579707
  21.1431668  20.4034887  47.8981838  20.9734258  21.0636262  47.3530045
  20.6997617  20.6141448  48.6194327  21.0531001  20.5320869  47.9243468
  30.1735023  19.8821557  47.6881732  30.7306453  19.6535366  47.0560197
  29.8496088  20.6427222  47.4116944  30.2081433  19.9605393  47.5538229
  18.0433732  23.3081753  43.1570328  17.4960451  22.6382398  43.2751196
  18.8326110  22.9411601  43.2213795  18.0785916  23.1546739  43.1839029
  27.8918140  22.9689210  48.6533739  28.6429467  23.2840887  48.9673293
  28.0840717  22.7668381  47.8267661  28.0309555  22.9856592  48.5777135
  16.8020702  22.5202561  40.3116351  16.6242463  22.0679170  41.0371267
  16.5139724  23.3228722  40.4954829  16.7333655  22.5725118  40.4459854
  18.5393171  25.0530284  37.4238110  17.6738691  25.0415975  37.3120881
  18.6391987  24.8660507  38.2709249  18.4267338  25.0236346  37.5327055
  24.1650181  34.8228183  40.9968216  24.4796740  35.6364571  41.0045997
  24.5743595  34.4378402  41.6650375  24.2718279  34.8856885  41.0972307
  28.0344196  15.0125700  45.5230122  28.1672102  14.2156694  45.8511098
  28.4189349  15.5392103  46.1028398  28.1100525  14.9725617  45.6573625
  25.6932643  15.0084875  43.7708016  26.2377056  14.6676002  44.3612358
  25.7469578  15.8670337  43.9129301  25.7821762  15.0840135  43.8789890
  21.5063201  28.7701291  40.6446824  22.1108059  28.7297126  40.0160645
  21.2990514  29.6172443  40.6750880  21.5652099  28.8889294  40.5562941
  16.7414484  27.7535909  40.5145747  16.6438762  26.9432180  40.8235804
  17.5243353  27.7327702  40.1292015  16.8430620  27.6302999  40.5032610
  55.2746609  59.5679573  49.1865324  55.9813376  59.0731604  49.3152259
  55.4634544  60.0088654  48.4567982  55.4074515  59.5597923  49.0974370
  51.3423283  65.2095403  36.7138758  51.7262663  65.7782302  36.1743534
  51.2782425  64.4844914  36.2344575  51.3896710  65.1870867  36.5632621
  47.7679528  67.7651746  39.0119728  48.4116983  68.2064910  39.4015887
  48.0935783  66.9605173  38.9249987  47.9111357  67.7116941  39.0565206
  50.7147485  60.6049079  41.3079486  50.9970728  59.8100485  41.0866242
  51.4433646  61.0829666  41.3284547  50.8637049  60.5583676  41.2782501
  60.6965574  59.7108441  38.2815317  59.8663277  59.9219085  38.4448734
  60.6474826  58.8845496  38.0057601  60.5672309  59.6198047  38.2652682
  42.6861157  63.7480115  38.5113412  42.2028735  64.4730604  38.4872996
  43.4984476  64.0456245  38.6223570  42.7351905  63.8982468  38.5240691
  48.7575311  62.5412295  41.1163227  48.2402253  62.1819710  40.5124535
  49.4549703  62.0174470  41.1269293  48.7840892  62.4109983  41.0293485
  52.4138903  62.9907109  47.0779400  52.5022249  62.8033250  47.9257610
  52.8428616  62.3444539  46.6784246  52.4901006  62.8670117  47.1451151
  49.9809363  62.2738269  46.0597062  49.4180198  61.8610879  46.5836723
  50.7430387  62.1991175  46.4790205  50.0103812  62.2015670  46.1990062
  45.5405355  64.2636290  38.6633692  46.2425934  63.7488280  38.7206449
  45.4602838  64.5910442  39.4680567  45.6329115  64.2350517  38.7906484
  45.4908833  60.8743518  42.4732606  46.0307058  60.7314649  43.1435978
  44.8078779  61.2740268  42.8416632  45.4700987  60.9123189  42.6267027
  57.9529889  60.3807796  38.4180033  57.5165121  60.3844538  39.1739004
  57.6192804  61.0613295  37.9859610  57.8392509  60.4820251  38.4660865
  52.5258963  62.4216128  49.7423183  53.3099379  62.5346976  50.1078925
  52.3255557  61.5957265  49.9381869  52.6124988  62.3162848  49.8257569
  52.6829356  64.3326230  43.3889639  51.8844602  64.0925730  43.6463507
  53.1315367  64.3840623  44.1356686  52.6303967  64.3048622  43.5374563
  59.2029523  56.9555764  34.8881263  59.5337740  57.4883404  34.2821358
  59.7762611  57.0094652  35.5443214  59.3363202  57.0425333  34.8959044
  51.7430093  58.0786675  51.2809827  50.9503074  58.3930187  51.4662447
  51.8579020  58.2938144  50.4430612  51.6425503  58.1570512  51.1848162
  52.6713886  57.9806879  46.2195124  53.2452747  57.3434123  46.3743688
  52.5928689  57.9810962  45.3504781  52.7447120  57.8871990  46.1141535
  57.9934033  59.3515857  46.2279977  57.7572671  58.5203921  46.1092038
  58.6377262  59.3001464  46.8134821  58.0528704  59.2213545  46.2965870
  59.0170454  59.1360305  42.2908271  58.7116271  59.8688362  42.6521587
  58.2976670  58.7298235  42.0101057  58.8657796  59.1842038  42.3021408
  64.7172246  55.7753306  41.6176616  64.6496746  55.7949265  40.7479202
  64.7027909  56.6183633  41.8432286  64.7051003  55.9027041  41.5229093
  48.5658509  63.5818544  33.3529973  48.8556808  63.1907525  32.6289200
  49.2961990  63.7635249  33.7935248  48.7165393  63.5512357  33.3112780
  46.5064425  65.5585926  36.4190123  46.2864720  65.2683281  37.2116790
  46.2858947  64.9000881  35.8908035  46.4412019  65.4185634  36.4579031
  48.6732380  66.9315316  35.2020815  49.3256438  66.3991758  35.4311841
  47.9757989  66.5783968  35.5888689  48.6663098  66.8004839  35.2932983
  56.6672299  59.2519730  34.5451794  57.2330331  59.9112940  34.4610337
  56.0200202  59.5969428  35.0168197  56.6551055  59.4001671  34.6024551
  53.1378877  62.1958514  33.9688874  52.8965553  61.4626375  33.5615939
  53.3180210  62.7445371  33.3155207  53.1286501  62.1680905  33.8119097
  56.3681624  59.9447704  40.5760932  56.2295983  60.6428750  41.0809674
  55.5881622  59.7896360  40.2197113  56.2324851  60.0247871  40.5987206
  54.7059709  56.2444079  46.8283313  54.7007747  55.3723896  46.8325740
  55.4120703  56.4432248  46.3552769  54.8104713  56.1447953  46.7590349
  47.5058357  64.1623835  43.0658160  47.6547921  63.6026751  42.4131565
  48.2858359  64.2415837  43.4490679  47.6432451  64.0909401  43.0255109
  57.8634997  59.3025958  31.3377431  57.4841805  58.5163096  31.3306720
  57.2001242  59.8512815  31.1949075  57.7093471  59.2670782  31.3158228
  50.0311658  64.3338478  44.3442651  49.9555329  63.6647288  44.8993439
  49.9601517  65.0356266  44.8583317  50.0092265  64.3383385  44.5019499
  50.6881905  62.8539477  35.1766257  51.4531796  62.5849121  34.8548921
  50.5859995  62.3689487  35.8936320  50.7863400  62.7429041  35.2346085
  56.1095095  61.5471449  31.6729117  56.1914933  62.3538435  31.3490568
  56.5944838  61.5667408  32.3969890  56.1932253  61.6692111  31.7316015
  49.4203292  67.7406798  42.8020652  49.9099223  67.0417587  42.6196317
  48.8487524  67.4430668  43.3896709  49.4087822  67.5933021  42.8621693
  55.6170296  60.3068867  51.7547443  56.4305161  60.0354016  51.9152575
  55.4565262  60.0076407  50.9507639  55.7140244  60.2223793  51.6592848
  54.3047126  63.9121273  36.1397052  53.9126917  63.6087988  35.4219918
  54.4600198  64.7490362  35.9502006  54.2700715  63.9905109  36.0053549
  54.4686800  60.4771261  36.0803082  54.1101455  60.6485904  36.8567115
  53.9825511  60.9384467  35.5231081  54.3445497  60.5710232  36.1128351
  55.6291540  61.3675157  47.0270283  56.2671260  60.8735353  46.6932739
  54.9865631  61.2952558  46.4422510  55.6285766  61.2834166  46.8912638
  55.6845796  62.0594966  43.6675640  56.4738175  61.7084030  43.7877722
  55.8589394  62.8731354  43.4052274  55.8266078  62.1280823  43.6463508
  47.2974123  60.6134811  44.6773124  47.1894478  60.6236873  45.5435182
  47.5069904  61.4389592  44.4878078  47.3124234  60.7375886  44.7777216
  55.0737431  63.3156765  39.5727086  54.8757120  63.8047580  38.8783297
  54.4525142  63.5198007  40.1511219  54.9524995  63.4173303  39.5550309
  56.9911233  56.8820918  45.1072334  57.7145432  56.4293444  44.9283354
  56.7261195  57.1625583  44.3244662  57.0592506  56.8571886  44.9651050
  53.6043867  60.1207254  32.0066661  54.3278066  60.5865367  31.8631234
  53.1644458  60.1880863  31.2564258  53.6459559  60.1991090  31.8751442
  37.8519619  56.2109315  40.6397326  37.7463068  56.1656160  39.7749410
  37.1019839  56.5563096  40.9211611  37.7255222  56.2550223  40.5534656
  51.2539937  60.2664701  44.2360778  50.7465028  60.8200548  44.6801409
  50.9566583  60.3272991  43.4179553  51.1344822  60.3571012  44.1809235
  53.8647717  64.1827958  32.1664722  53.1477027  64.0088821  31.7011959
  54.5154455  63.9480531  31.6340208  53.8549567  64.1223751  32.0193940
  50.4982422  65.1989259  41.1417785  50.2748076  64.4408088  41.5101811
  50.0092265  65.2287280  40.4198225  50.3925871  65.0911483  41.0894526
  52.5553411  59.3670991  48.6929719  52.5149266  58.7220668  48.1074875
  53.3676730  59.3107609  49.0055131  52.6696565  59.2629958  48.6526668
  49.1460879  65.4189717  38.5954870  48.7321277  64.7563847  38.2058711
  49.8308253  65.5667576  38.0750564  49.1859251  65.3430375  38.4611367
  52.5126173  64.5779802  39.3478486  52.1142456  64.6882073  38.5799307
  51.8977393  64.7861869  39.9305046  52.3625062  64.6253370  39.3209786
  60.2468016  59.1531769  32.7321577  60.6301621  59.9023125  32.9619674
  59.4512129  59.3997589  32.4733566  60.1861798  59.3001463  32.7279150
  46.1115348  65.8598799  40.9968216  46.4261907  66.6735187  41.0045997
  46.5208762  65.4749017  41.6650375  46.2183446  65.9227501  41.0972307
  53.0639868  61.2768846  38.5672028  53.5351046  61.9909108  38.7362013
  53.4000047  60.6767596  39.1031897  53.1834983  61.2940310  38.6704404
  55.1516853  62.8870159  50.7464100  55.2613818  62.0978720  51.1020847
  55.4807749  62.7976095  49.9438438  55.2169258  62.7576012  50.6806490
  53.7013814  61.0686780  45.3299720  53.1534760  60.4444663  45.0619786
  54.1626843  61.2581052  44.6143800  53.6881024  61.0045830  45.1850151
  53.2672141  62.0737852  41.8609061  54.0870515  61.9300818  42.1225357
  52.9866218  62.6984051  42.4025499  53.3468884  62.1448204  41.9797001
  38.6879651  58.7906525  40.5145747  38.5903929  57.9802796  40.8235804
  39.4708521  58.7698318  40.1292015  38.7895787  58.6673615  40.5032610
  69.7385791  69.7302704  34.8251938  69.7079795  70.5847341  34.9970207
  70.3367140  69.4297997  35.3838081  69.8222949  69.8119201  34.9326740
  62.9385476  68.8178355  39.5804868  62.0823371  68.9786853  39.6313985
  62.9853130  67.9470419  39.6009929  62.8184587  68.7129157  39.5910934
  57.3226616  78.3541073  35.3442100  56.5709515  77.9756611  35.1158145
  57.7712627  78.3859507  34.5960910  57.2776282  78.3026680  35.1999602
  66.2479192  75.0864881  49.1865324  66.9545960  74.5916911  49.3152259
  66.4367128  75.5273962  48.4567982  66.3807098  75.0783231  49.0974370
  65.7837297  70.8770399  42.2236520  66.3293257  71.5555486  42.2830490
  65.7254173  70.7357860  41.3638101  65.8553211  70.9562401  42.1048580
  58.9011372  78.3659465  37.6104872  59.0021735  77.5559819  37.9202000
  58.3053117  78.2716412  36.9804551  58.8283910  78.2324493  37.5631111
  67.5602366  72.3055006  33.0970248  67.4441892  73.0562692  33.5262386
  68.3558252  72.0478959  33.3466335  67.6606955  72.3789853  33.1974339
  52.0976416  74.3879752  37.2357206  51.8626601  73.5547404  37.1289475
  52.2362057  74.6684417  36.4218407  52.0832079  74.3063255  37.0999561
  54.3966504  66.5565482  40.1341514  53.7771535  65.9658130  39.9651528
  54.2950367  67.1476918  39.5005837  54.2904179  66.5569565  40.0146503
  59.4432691  76.2949029  34.3839590  59.7648532  76.8354236  33.7800898
  60.0904788  75.7245801  34.5161880  59.5858746  76.2908204  34.3146625
  61.4934399  68.2965024  34.4673977  62.1914564  68.4753152  34.9595440
  61.8086732  67.7735363  33.8444366  61.6429736  68.2458796  34.4475987
  54.1235637  70.1017764  42.3785083  53.9994333  70.6880210  43.0134901
  54.7753921  69.6077960  42.6797358  54.2009286  70.1156568  42.5171012
  61.6822335  74.6835469  34.4553768  62.1215970  74.0752570  34.9008541
  61.5326997  74.3042842  33.6839233  61.7243800  74.5373940  34.4072936
  59.1493978  73.2779481  41.6572594  59.7942980  72.7851924  41.3383542
  59.3895755  73.4204268  42.4838672  59.2804563  73.2256923  41.7322127
  61.6880069  76.1234387  41.3079486  61.9703312  75.3285793  41.0866242
  62.4166229  76.6014974  41.3284547  61.8369633  76.0768984  41.2782501
  59.6661263  63.6657421  38.5495251  59.3364593  64.1168564  37.8798950
  58.9906265  63.5873584  39.0968258  59.5171699  63.7208556  38.5318475
  65.2831671  73.0362650  31.4084537  65.1982966  73.8923617  31.5534106
  65.7716054  72.7606974  32.0766697  65.3420568  73.1219972  31.5286619
  66.8737671  59.6542944  36.7944862  66.5591112  60.3446422  37.2265284
  66.3564612  59.5987726  36.0930363  66.7502141  59.7477832  36.7541811
  66.2150104  69.6547445  32.9082273  65.6861576  69.8707078  33.5679579
  66.7375124  70.3483583  32.8283242  66.2138557  69.7890581  32.9937872
  58.1049712  73.5510661  31.7089741  57.5206927  74.0560693  32.1155604
  57.7019807  73.3253048  30.9686333  57.9589016  73.5918910  31.6594766
  53.6593741  79.2665422  38.5113412  53.1761319  79.9915912  38.4872996
  54.4717059  79.5641553  38.6223570  53.7084489  79.4167776  38.5240691
  59.7307895  78.0597603  41.1163227  59.2134837  77.7005018  40.5124535
  60.4282286  77.5359778  41.1269293  59.7573476  77.9295291  41.0293485
  60.9541947  77.7923577  46.0597062  60.3912781  77.3796187  46.5836723
  61.7162970  77.7176483  46.4790205  60.9836395  77.7200978  46.1990062
  62.5626927  69.7976313  30.1858661  62.8022930  70.0054297  29.3734004
  62.8842768  68.9933822  30.2947606  62.6464085  69.7090415  30.0819214
  57.8717217  61.7269709  34.0318199  58.6263185  62.0948026  33.7935249
  57.6944751  62.1009264  34.7997379  57.9571695  61.8367897  34.1103088
  56.5137938  79.7821598  38.6633692  57.2158517  79.2673587  38.7206449
  56.4335421  80.1095750  39.4680567  56.6061699  79.7535825  38.7906484
  71.1652116  67.8764150  42.0765738  70.3280537  67.9466337  42.3113333
  71.1340347  67.8788645  41.2040041  71.0370398  67.8874377  41.9825286
  57.5616845  70.0197185  47.7914107  57.7337348  69.9103080  48.6399388
  58.0986202  70.6651591  47.5545299  57.6661849  70.0989187  47.8819204
  56.2274282  64.1340028  30.7296312  56.0449855  64.3511909  29.9037305
  57.0899895  64.2479041  30.7854927  56.3278871  64.1829926  30.6150799
  55.8388713  75.9727950  38.1719300  56.6777613  76.2050883  38.2193062
  55.8700483  75.1032262  38.1026335  55.9670431  75.8784897  38.1683945
  56.4641417  76.3928826  42.4732606  57.0039641  76.2499957  43.1435978
  55.7811363  76.7925576  42.8416632  56.4433570  76.4308497  42.6267027
  61.9074001  61.1366439  33.7645336  62.6360161  60.9582394  33.3183492
  61.9968894  61.9784519  33.9752514  62.0280663  61.2350317  33.7298854
  65.8882301  72.0719826  37.6677630  66.6439816  72.5051341  37.7066539
  65.9944626  71.4224596  38.2412266  66.0152472  72.0397310  37.7575655
  51.8678562  72.6129116  42.6267027  51.6016977  71.7968233  42.7858017
  51.8817126  72.6582272  41.7562543  51.8303284  72.4986021  42.5220509
  68.8459955  62.9406931  40.6609461  69.4885864  63.0105036  41.2471376
  69.0982976  62.2736154  40.1589003  68.9782088  62.8533280  40.6736740
  55.7736309  67.4114201  29.2418785  55.0594486  67.1252380  29.6541218
  56.2580277  67.7510827  29.8825173  55.7395672  67.4195850  29.3974420
  56.6177168  66.1507495  45.2734035  55.9248965  65.6804474  45.5194766
  57.2337495  65.9245799  45.8475742  56.6061698  66.0474626  45.3943187
  62.9483626  75.9144155  29.6180593  63.3634775  75.5829179  28.9265089
  62.1175556  75.6813057  29.4900730  62.8871635  75.8315411  29.4971441
  52.2771975  73.3987896  39.9078771  52.0947548  73.3734782  39.0551064
  53.0121644  73.8686834  39.9467680  52.3586039  73.4649258  39.7876690
  68.3471649  73.6339406  37.0511659  68.5827239  73.7784605  36.2238510
  68.4961213  74.3981814  37.4443173  68.4037453  73.7678460  36.9875263
  55.3417727  70.1172899  46.4160880  56.0657699  70.1025929  46.9025775
  55.4433863  70.8268254  45.9182848  55.4635936  70.2197602  46.4139667
  70.1762106  72.4741072  34.8881263  70.5070323  73.0068712  34.2821358
  70.7495194  72.5279959  35.5443214  70.3095785  72.5610641  34.8959044
  62.7162676  73.5971983  51.2809827  61.9235657  73.9115495  51.4662447
  62.8311603  73.8123452  50.4430612  62.6158087  73.6755820  51.1848162
  65.3893995  70.3205974  35.5704843  65.4840850  71.0595268  36.0244468
  64.7652839  69.8923450  36.0039407  65.3103025  70.3667295  35.7012990
  63.6446469  73.4992187  46.2195124  64.2185331  72.8619431  46.3743688
  63.5661273  73.4996269  45.3504781  63.7179704  73.4057298  46.1141535
  52.2442886  70.2781396  40.0577838  52.8216388  70.1417847  40.6970083
  51.5456947  69.8217181  40.3123422  52.2263907  70.1903663  40.1900128
  65.6417017  72.1654714  28.8041795  65.5597179  72.2356901  29.6696782
  66.2796737  72.7284458  28.6125535  65.7236854  72.2593685  28.9031744
  59.0010188  71.9315452  38.2716321  58.7429432  71.0987187  38.2447621
  59.0558671  72.1573065  37.4308821  58.9709966  71.8413223  38.1436458
  64.0811238  64.0343903  38.3720414  63.3767565  63.5453088  38.5304333
  64.1296212  64.0466377  37.5008858  63.9841289  63.9633551  38.2659754
  57.9744900  69.4853215  38.7581216  57.3994491  69.6445383  39.3945177
  57.5980576  68.8488624  38.2949666  57.8347712  69.4151028  38.7835774
  61.6418189  67.9576564  43.6173594  61.2532621  67.5330782  42.9625785
  60.9772887  68.2058714  44.1250621  61.4865116  67.9315285  43.5961462
  71.2841458  67.7151569  36.3921424  71.0278023  66.9031510  36.2019307
  72.1270772  67.7229136  36.1651612  71.3707483  67.5963566  36.3306241
  47.7201719  69.1293289  36.7725656  47.8061971  68.7525158  37.5539186
  48.3477516  68.7553735  36.2945615  47.8258270  69.0178772  36.8171134
  65.4644550  61.6551193  41.1297579  65.8455062  60.9729364  41.5165453
  64.6607834  61.3660795  40.9473243  65.4021012  61.5118241  41.1601634
  62.7457127  72.1875168  31.8150401  63.5597766  72.4790061  31.7033173
  62.6816268  71.5335031  31.2408694  62.8559866  72.1340363  31.7139239
  58.6165035  75.6596686  36.9422713  59.2538982  75.4208433  37.4874507
  59.0420107  75.8633845  36.2075874  58.7741201  75.6547696  36.9139871
  53.3077677  77.8985022  40.8257017  53.3481823  78.1699874  39.9976797
  53.8672202  78.4226931  41.2414805  53.3961023  78.0160778  40.7648905
  59.2567850  70.8798976  31.2797603  59.6413003  70.6606682  32.0314148
  59.0079470  71.7061921  31.4098679  59.2769923  70.9697122  31.4098679
  59.4236390  64.1605391  50.9960187  59.1089832  64.9304954  50.7329750
  59.1026323  63.5975647  50.4112414  59.3295310  64.1915660  50.8701537
  60.9986507  76.1369109  38.6216500  61.0725515  75.9744280  39.4758350
  61.8156013  76.3259298  38.3776981  61.1302866  76.1405851  38.7114525
  54.7592264  76.4826971  35.6510943  53.9330381  76.7288709  35.5245222
  54.8204255  76.4039052  36.5173001  54.6466431  76.5071920  35.7599888
  56.9768287  62.5495912  36.6106383  56.1090713  62.6218512  36.6763992
  57.2643492  63.3517991  36.7994358  56.8908036  62.6790059  36.6481150
  66.1001176  62.6973772  44.9417705  66.8454768  62.5083582  44.5281130
  65.6838481  63.2232010  44.3831561  66.1486150  62.7475917  44.7982278
  59.5391093  79.1003852  33.3529973  59.8289391  78.7092833  32.6289200
  60.2694574  79.2820557  33.7935248  59.6897977  79.0697665  33.3112780
  73.4763447  70.0683000  39.8923210  74.0271369  69.4351069  40.1320302
  73.4607562  70.5998393  40.5838714  73.5548643  70.0531948  40.0302068
  60.1285838  73.9021598  44.4383103  59.6297532  74.6137365  44.5167992
  60.9386062  74.2222264  44.4001266  60.1741945  74.0548446  44.4439672
  57.4797008  81.0771234  36.4190123  57.2597304  80.7868589  37.2116790
  57.2591530  80.4186189  35.8908035  57.4144603  80.9370942  36.4579031
  56.3913956  73.1644551  38.6845824  56.1027204  72.5382022  39.2191552
  57.2597304  73.1064838  38.7510505  56.4774207  73.0632095  38.7736779
  67.1791853  68.3079334  39.0027806  66.8356619  67.5869669  39.3535056
  67.2784896  68.0993185  38.1606165  67.1433896  68.1703537  38.9299486
  56.5946229  74.8039802  34.6088189  57.3492197  75.1852841  34.8223652
  56.0016842  75.2550945  35.0634886  56.6182942  74.9268629  34.7071068
  59.0552896  66.7602642  49.7345402  58.2452672  67.0660422  49.6235244
  59.5327583  67.4808224  49.8497986  59.0056375  66.9117243  49.7352473
  57.9144456  75.9748363  39.9828305  57.3925209  76.1148655  40.6680170
  58.3018476  75.2159027  40.1730422  57.8948156  75.8833887  40.1129381
  54.9035640  66.0254172  34.0523259  54.6160435  65.6555442  33.3155207
  55.5906108  66.4949027  33.7906964  54.9624537  66.0401141  33.9038335
  59.3410781  73.0052382  35.3809796  59.1453564  73.6127116  34.7870099
  59.5645127  72.3120326  34.9001470  59.3445422  72.9929907  35.2225877
  57.7389311  69.8907120  35.4990664  58.4611963  70.0548278  35.0394470
  57.2597304  70.6116785  35.3930004  57.7753042  70.0205349  35.4156278
  65.6982819  66.2270919  40.8787349  64.8593919  66.2532198  40.6425612
  65.7687186  66.8741654  41.4592696  65.5851212  66.3267045  40.9296466
  55.3896928  72.2965192  44.6044804  55.9018025  72.5749446  43.9553564
  55.1033270  73.0354486  44.9707617  55.4231791  72.4467546  44.5634682
  64.1452097  63.1256296  35.6114965  64.8478450  62.9264044  35.1334923
  63.8796286  62.3532238  35.9183809  64.2098729  62.9819262  35.5860407
  69.5740343  71.4338905  38.1648591  69.4874317  71.5894331  39.0183370
  69.1190822  72.0776981  37.7907996  69.4943599  71.5514661  38.2355698
  52.4763834  66.8035384  34.9008541  52.5779971  67.6061546  35.2289516
  53.2719721  66.6022720  34.6031621  52.6091740  66.8921283  34.9043896
  58.9080653  64.3891581  44.6645846  58.7163850  64.4046715  45.5145269
  59.7579249  64.5855255  44.6412501  59.0056375  64.4205932  44.7869140
  53.2927566  66.9182562  42.6429662  53.1513058  66.0666503  42.7674170
  53.5768130  66.9611223  41.8191868  53.3135412  66.7982312  42.5397286
  63.4466159  68.7549653  36.7874150  63.2000873  68.6745403  37.6210939
  63.7751282  67.9703120  36.5936678  63.4587402  68.6275918  36.8821674
  65.6792293  71.7629387  46.8283313  65.6740331  70.8909204  46.8325740
  66.3853286  71.9617556  46.3552769  65.7837297  71.6633261  46.7590349
  59.4063186  71.4906371  46.1997133  59.5506562  72.0707579  45.5640244
  59.7538834  71.8682668  46.9046988  59.4790647  71.6327075  46.2096128
  61.5783103  70.6896540  43.9822265  60.8306417  70.8827554  43.5770543
  61.7324628  69.8641759  43.7446386  61.4905531  70.5961651  43.8867671
  58.4790941  79.6809143  43.0658160  58.6280505  79.1212059  42.4131565
  59.2590943  79.7601145  43.4490679  58.6165034  79.6094708  43.0255109
  61.8184880  64.5847090  44.8717669  62.2757494  65.3171065  44.9990461
  61.8941209  64.1613555  45.6304925  61.8975850  64.6304328  45.0018745
  54.0617871  64.8312910  45.9607113  53.5260061  64.2193268  46.2767880
  54.1235636  65.4061046  46.6140779  53.9913504  64.8259838  46.1042539
  66.2912206  57.7636965  38.7411512  66.4095774  58.2213429  38.0078814
  66.1174382  56.9582227  38.4547729  66.2831377  57.7130738  38.5912445
  61.6614488  78.3724785  35.1766257  62.4264380  78.1034428  34.8548921
  61.5592578  77.8874795  35.8936320  61.7595984  78.2614349  35.2346085
  59.6967258  66.5749194  41.7159493  58.9063333  66.3940654  42.0376829
  60.0927881  65.7976147  41.6989787  59.6384134  66.4336655  41.7612041
  64.1833149  75.4036968  27.1566206  64.9506134  75.4637093  26.7472058
  63.7364458  74.8317410  26.6722525  64.2306576  75.3273544  27.0243917
  65.0810944  74.2091624  39.4418939  64.4055946  73.9776857  39.9432326
  65.0903321  73.6012807  38.8161044  64.9829449  74.0850550  39.4235091
  62.2105088  69.0509453  46.1982992  62.1464230  69.9119410  46.0703128
  62.3502276  68.7341446  45.3978543  62.2220559  69.1309620  46.0611205
  60.8924182  71.7441593  40.3399195  60.4686431  71.9446092  39.6038213
  60.7169038  70.8970441  40.4523494  60.8035063  71.6490374  40.2472885
  56.1806627  72.2393644  35.7727167  56.3371246  72.1740447  36.6283159
  56.5207220  73.0142197  35.5605847  56.2539862  72.3442842  35.8681761
  62.7185772  71.6151528  34.6420530  63.2601317  71.1121909  35.1059151
  63.0332331  71.5616722  33.8310016  62.8450169  71.5330949  34.5904342
  60.8872222  77.0068879  31.9260558  60.9565042  76.1483418  32.0653559
  61.6660677  77.2240760  31.5979583  61.0125072  76.9121743  31.8977716
  63.8675041  66.5087832  44.6942831  64.0817011  65.8698746  44.1406185
  63.2508940  66.9533656  44.2650693  63.8080371  66.4797976  44.5493262
  52.7540889  69.4228595  36.0887934  53.1339854  69.8413139  35.4248202
  52.1796254  70.0042050  36.3956778  52.7252214  69.5706453  36.0364675
  66.0314129  68.1176897  45.6326138  65.2190811  67.8102788  45.7139311
  66.4904064  67.6375897  46.1968850  65.9794514  68.0013390  45.7280732
  65.4419384  75.9956569  36.0803082  65.0834039  76.1671212  36.8567115
  64.9558095  76.4569775  35.5231081  65.3178081  76.0895540  36.1128351
  63.2589770  59.6187768  39.6830174  62.3883328  59.5926489  39.6363483
  63.5130111  59.4464960  38.8656019  63.1683330  59.5897912  39.5550310
  60.2307749  71.6755735  28.6203317  60.5200274  72.4520617  28.8946891
  60.3179548  71.1644466  29.3217816  60.2862006  71.7147653  28.7645815
  63.1267637  69.5236969  50.4154840  63.5967268  70.1479085  50.8022714
  63.1729517  68.8553944  50.9748055  63.2035513  69.5171649  50.5554912
  60.2838910  61.6293996  41.1403644  59.7677399  60.9374188  41.2655223
  59.7232839  62.2964773  41.0866243  60.1245424  61.6257254  41.1509710
  62.3531144  62.1686956  42.9696497  61.9662897  62.1935988  43.7510027
  61.8664081  61.6028635  42.5171013  62.2243653  62.0882707  43.0184400
  68.3281123  68.7349611  41.5936199  67.9008731  68.6475960  40.8384298
  67.6907176  68.8427387  42.1791043  68.1710731  68.7382271  41.5681640
  62.0188286  59.0553942  45.2606757  62.6481404  59.5914242  44.9827827
  62.1874148  58.9631301  46.1120322  62.1366080  59.1215304  45.3455285
  61.8202200  63.8425136  47.5333168  62.6475630  63.5710285  47.5891783
  61.8410047  64.6385978  47.8896986  61.9455051  63.9204891  47.5948351
  56.3971690  70.9888999  40.7203429  55.5559697  70.8892873  40.9282323
  56.6061698  71.7584480  41.0717749  56.3036383  71.0881043  40.8030744
  53.8747257  68.6108536  38.5488179  53.4803955  68.6851548  37.7738289
  53.3187374  68.9966483  39.0996541  53.7350070  68.6790311  38.5155839
  65.5112204  61.5889830  38.2292058  65.7161797  61.5212138  39.0749055
  65.1838628  62.3948651  38.1613236  65.4927452  61.6975771  38.3451713
  60.2088355  68.9170398  39.9701026  59.9051493  68.3626387  40.5711434
  59.5067776  69.0962608  39.4829061  60.0604565  68.8615181  39.9870732
  59.2654452  66.2270918  34.5345728  59.5414187  65.5089831  34.1223296
  59.8653122  66.8255838  34.3266834  59.3947717  66.2091289  34.4426489
  58.2706706  76.1320119  44.6773124  58.1627061  76.1422181  45.5435182
  58.4802488  76.9574900  44.4878078  58.2856817  76.2561194  44.7777216
  68.7645892  62.1421595  37.7094824  68.1520205  62.6291997  38.0948556
  68.8610067  61.4665085  38.2532475  68.6883789  62.1139903  37.8473682
  62.7664973  63.8984436  32.8092323  63.2208719  64.0694996  33.5340168
  63.2405019  63.2852546  32.4090099  62.9033293  63.8335321  32.8566085
  56.2880498  73.3832762  42.1395062  55.6968431  74.0242260  42.1098077
  57.0501522  73.8070379  42.1126361  56.3128759  73.5408600  42.1310209
  56.6841121  64.5434759  42.8063079  57.1442603  64.6173689  43.5438203
  56.7297228  65.3416013  42.4562901  56.7591676  64.6728906  42.8635836
  58.3324471  65.2101454  47.3735106  57.9410036  64.5634801  47.8090884
  58.5010333  65.8012889  47.9929362  58.2995381  65.2015722  47.5297812
  60.1077993  70.6026970  33.9137330  60.8520038  70.9901246  34.1520280
  60.2538689  69.7584395  34.0777818  60.2388578  70.5357443  33.9731300
  62.0257568  62.3977229  38.9469192  61.1793613  62.5700037  38.8210542
  62.0228701  61.5926573  39.2835020  61.9004718  62.3038258  38.9780319
  63.0955869  66.1752443  39.8131250  62.6215823  65.6494205  40.3236561
  63.4674004  65.6281916  39.2446111  63.0805758  66.0168440  39.8046397
  53.4728899  68.1723950  45.1814796  54.3354512  68.0719659  45.0952125
  53.1420682  67.5918659  44.6200368  53.5514095  68.0715577  45.0860201
  69.3592599  71.2354819  41.2238030  69.1190822  70.3961234  41.2280457
  69.8384606  71.3154986  41.9478804  69.3944783  71.1236219  41.3312833
  65.0239368  67.0688998  32.8757004  64.4962387  67.1517742  32.1862712
  65.4835076  67.8106869  32.8721648  65.0141219  67.1909660  32.7731699
  71.3597786  68.0156276  39.1767289  71.1207556  67.9752110  38.3388074
  71.5231688  68.8627428  39.3033010  71.3488090  68.1348361  39.0720771
  67.9643816  72.4006225  45.1072334  68.6878015  71.9478752  44.9283354
  67.6993779  72.6810891  44.3244662  68.0325090  72.3757194  44.9651050
  56.8330685  66.9966399  41.8425214  56.2083755  67.0084791  41.2351166
  56.4976280  67.4726574  42.4916454  56.6916177  67.0684916  41.8481782
  57.0172433  65.3391517  27.8997899  56.6685238  65.9911243  28.3629448
  56.5368879  65.3248631  27.1721770  56.8942677  65.4334571  27.8608990
  53.5456360  75.0566859  43.2828978  53.0156285  74.3659298  43.3323953
  53.8181454  75.0477044  42.4541687  53.5081083  74.9533991  43.1676394
  64.5776451  75.6392561  32.0066661  65.3010650  76.1050674  31.8631234
  64.1377042  75.7066171  31.2564258  64.6192143  75.7176398  31.8751442
  63.7462606  72.4990104  43.2567350  63.1319599  71.9548154  43.5515985
  64.2629891  71.9854340  42.7773166  63.7318268  72.3426513  43.2291578
  62.9858903  73.5694374  40.9911648  62.5586511  72.9444092  40.5577084
  62.9783847  73.2869296  41.8170655  62.9218044  73.4347154  41.0491476
  56.1021430  68.6059547  44.0600082  56.2614917  67.8502871  44.4651804
  55.9214324  69.1550486  44.7140820  56.0986789  68.5753361  44.2162788
  64.0441733  60.7720782  44.6150872  63.5482294  60.9684457  43.9242438
  64.8010795  61.1713451  44.4439673  64.0828558  60.8598516  44.4871008
  61.3144613  64.4463128  41.2054182  61.3387100  63.9123241  40.5166962
  61.5656086  63.9380437  41.8679773  61.3554531  64.2924032  41.2018827
  48.8252203  71.7294623  40.6397326  48.7195652  71.6841468  39.7749410
  48.0752423  72.0748404  40.9211611  48.6987805  71.7735531  40.5534656
  57.5945935  63.1733947  40.5859927  57.6344307  63.6743153  41.2994634
  56.7695600  63.2644340  40.3165850  57.4785461  63.2615763  40.6510465
  59.7775548  72.7394686  48.6880221  58.9271178  72.8766401  48.8237866
  59.9403676  72.0058465  49.1327923  59.6759411  72.6508788  48.7735820
  59.0160298  69.6894456  42.8833826  58.1852228  69.8568274  42.6769074
  58.9611816  69.3130407  43.6682711  58.8849713  69.6584188  42.9682354
  56.8244082  63.1803349  48.5190236  57.4496785  62.6365482  48.7919669
  56.3694562  62.6998267  47.9498027  56.8492342  63.0292831  48.4751830
  57.3896342  67.9650048  33.4123943  57.5299303  68.4622512  34.1152585
  57.8878875  67.2636342  33.5538157  57.4837423  67.9352027  33.5375522
  57.4196565  68.8317159  30.7416520  58.0541644  69.4277584  30.6765982
  57.5022175  68.5320617  31.5562390  57.5253116  68.8758067  30.8519607
  70.3979130  71.3632636  43.6102884  70.9896971  72.0029887  43.6421082
  70.8338125  70.6655673  43.8994951  70.5497562  71.3550987  43.6583717
  58.9975547  64.7631134  30.7161962  59.3191388  64.2834217  30.0621224
  59.2602491  65.5730780  30.5252774  59.0841573  64.8121032  30.5917454
  62.2272520  75.7850009  44.2360778  61.7197611  76.3385856  44.6801409
  61.9299166  75.8458299  43.4179553  62.1077405  75.8756320  44.1809235
  64.3934702  64.1503328  43.0785441  64.8189774  63.6975855  42.4668968
  63.7791696  63.5963399  43.3550229  64.3663348  64.0017305  43.0290466
  53.9249552  71.0285000  34.0106066  54.4341782  71.6249507  34.3917372
  54.3983825  70.7610973  33.3282486  54.0692928  71.0770815  33.9660589
  62.8328925  60.6218428  36.4876018  62.1897243  60.4716074  37.0561157
  62.4928332  60.3760773  35.7225123  62.6874003  60.5630551  36.4579033
  67.4228272  68.5777855  35.9106027  66.7519462  69.1207557  35.7819092
  68.1168022  69.0472710  35.6687722  67.4257139  68.7276126  35.8561554
  67.5856399  65.0333739  38.8196400  67.9384009  64.6063461  39.4942199
  66.7271201  64.9484582  38.9497476  67.5105844  64.9578479  38.9391410
  56.2840084  67.6641258  36.8779246  55.5652073  68.0805391  37.1452110
  56.6552446  68.2295497  36.3270885  56.2332016  67.8090540  36.8362053
  65.5839665  68.2969107  42.7681242  65.5637592  68.1152402  43.6216021
  65.6318866  69.1681126  42.7440826  65.5874306  68.3985645  42.8904537
  63.5285995  74.8856299  48.6929719  63.4881850  74.2405976  48.1074875
  64.3409313  74.8292916  49.0055131  63.6429148  74.7815266  48.6526668
  62.0586659  66.7039258  32.2152626  61.4651498  67.0256255  31.6637193
  62.0961936  65.8580354  32.0073732  61.9761048  66.6263586  32.1035397
  69.0180459  60.1552150  39.7480712  68.5111324  59.4481290  39.6801890
  69.8147893  59.8245339  39.8781789  69.0607698  60.0025302  39.7579707
  64.9344475  66.6618763  35.6454376  64.7058168  66.6851464  34.8032734
  65.1942551  65.8376230  35.7649387  64.9390663  66.5434843  35.5379574
  59.2163704  68.5153236  45.2479476  58.7042607  67.9074419  45.6064508
  59.0443200  69.2309828  45.7153452  59.1153341  68.5316535  45.3695700
  54.0629418  66.9590811  47.8981838  53.8932009  67.6192186  47.3530045
  53.6195368  67.1697372  48.6194327  53.9728752  67.0876793  47.9243468
  57.9889238  65.1995309  36.9408572  58.4646604  65.5612389  36.3058753
  57.4877837  65.8551777  37.2208715  57.9854597  65.3489498  36.8885313
  63.0932774  66.4377480  47.6881732  63.6504204  66.2091290  47.0560197
  62.7693839  67.1983146  47.4116944  63.1279184  66.5161317  47.5538229
  50.9631483  69.8637677  43.1570328  50.4158202  69.1938322  43.2751196
  51.7523861  69.4967524  43.2213795  50.9983666  69.7102663  43.1839029
  60.8115891  69.5245134  48.6533739  61.5627218  69.8396810  48.9673293
  61.0038468  69.3224305  47.8267661  60.9507305  69.5412515  48.5777135
  60.0315891  67.3436509  30.3081956  60.4114856  67.3616138  29.5233071
  59.2908487  67.7890498  30.1872803  59.9784729  67.4118283  30.1745524
  67.6601181  65.6518700  35.8957535  67.6595408  65.4967356  36.7541811
  67.4557361  66.4981687  35.8398920  67.6300959  65.7539321  36.0145474
  49.7218452  69.0758484  40.3116351  49.5440213  68.6235093  41.0371267
  49.4337474  69.8784646  40.4954829  49.6531405  69.1281042  40.4459854
  65.3842033  70.3316202  39.5493741  65.8795699  69.6139197  39.5097762
  64.5741809  70.0286999  39.4348228  65.3385927  70.1813848  39.5267467
  60.8300645  74.1814015  31.6990746  60.0211968  73.8580689  31.6524055
  61.3375554  73.4747237  31.6318994  60.7850312  74.0295331  31.6821040
  51.4590922  71.6086208  37.4238110  50.5936442  71.5971899  37.3120881
  51.5589738  71.4216431  38.2709249  51.3465089  71.5792269  37.5327055
  67.4493852  73.0819889  42.2370870  67.8748924  72.5594311  41.6841295
  67.0850772  73.6800727  41.7159493  67.4580455  73.0930116  42.0779880
  57.0847932  81.3784107  40.9968216  57.3994491  82.1920495  41.0045997
  57.4941345  80.9934325  41.6650375  57.1916030  81.4412809  41.0972307
  64.0372452  76.7954153  38.5672028  64.5083630  77.5094416  38.7362013
  64.3732630  76.1952904  39.1031897  64.1567567  76.8125618  38.6704404
  60.9541947  61.5681624  45.5230122  61.0869852  60.7712617  45.8511098
  61.3387099  62.0948027  46.1028398  61.0298275  61.5281541  45.6573625
  64.6746398  76.5872088  45.3299720  64.1267344  75.9629971  45.0619786
  65.1359427  76.7766360  44.6143800  64.6613607  76.5231138  45.1850151
  64.0274302  58.4911950  42.1211216  63.2220266  58.3809680  42.4379054
  63.8981037  58.5924406  41.2641081  63.8894435  58.4895620  42.0419256
  67.4840262  64.6557442  42.7150913  66.9003251  65.1566649  42.3028480
  67.8044556  64.1486998  42.0815236  67.4453438  64.6549277  42.5609420
  60.0235061  63.5698037  32.9909587  60.8450756  63.7396350  32.7491282
  59.5604712  63.7245298  32.2675885  60.0766224  63.6179770  32.8481232
  58.6130393  61.5640799  43.7708016  59.1574806  61.2231926  44.3612358
  58.6667329  62.4226261  43.9129301  58.7019513  61.6396058  43.8789890
  54.4260952  75.3257215  40.6446824  55.0305810  75.2853049  40.0160645
  54.2188265  76.1728367  40.6750880  54.4849849  75.4445218  40.5562941
  49.6612234  74.3091833  40.5145747  49.5636512  73.4988104  40.8235804
  50.4441104  74.2883626  40.1292015  49.7628371  74.1858923  40.5032610
  36.5138864   0.1124911  21.7591985  36.4832869   0.9669548  21.9310254
  37.1120213  -0.1879796  22.3178128  36.5976022   0.1941408  21.8666787
  29.7138549  -0.7999438  26.5144915  28.8576445  -0.6390939  26.5654032
  29.7606203  -1.6707374  26.5349976  29.5937661  -0.9048636  26.5250981
  24.0979689   8.7363280  22.2782147  23.3462588   8.3578819  22.0498192
  24.5465701   8.7681714  21.5300957  24.0529356   8.6848888  22.1339649
  33.0232266   5.4687088  36.1205371  33.7299033   4.9739119  36.2492306
  33.2120201   5.9096170  35.3908029  33.1560171   5.4605438  36.0314417
  29.5504649   9.1588650  17.7067694  29.2156017   9.8365571  17.2711916
  30.0631519   8.7693961  17.1184565  29.5770230   9.2013228  17.5554485
  29.0908940  11.1102919  23.6478805  29.4748319  11.6789817  23.1083581
  29.0268081  10.3852429  23.1684621  29.1382367  11.0878382  23.4972668
  32.5590370   1.2592606  29.1576567  33.1046330   1.9377693  29.2170536
  32.5007247   1.1180067  28.2978148  32.6306285   1.3384608  29.0388627
  25.6764445   8.7481673  24.5444919  25.7774808   7.9382026  24.8542047
  25.0806190   8.6538619  23.9144598  25.6036984   8.6146701  24.4971158
  34.3355439   2.6877214  20.0310294  34.2194965   3.4384900  20.4602433
  35.1311326   2.4301167  20.2806382  34.4360028   2.7612060  20.1314386
  25.5165185  13.6659262  25.9459775  26.1602640  14.1072426  26.3355934
  25.8421440  12.8612688  25.8590034  25.6597013  13.6124456  25.9905252
  18.8729489   4.7701959  24.1697253  18.6379674   3.9369611  24.0629522
  19.0115130   5.0506625  23.3558454  18.8585152   4.6885462  24.0339608
  26.2185764   6.6771237  21.3179637  26.5401605   7.2176444  20.7140945
  26.8657861   6.1068008  21.4501927  26.3611820   6.6730412  21.2486672
  28.2687472  -1.3212769  21.4014024  28.9667637  -1.1424641  21.8935487
  28.5839805  -1.8442429  20.7784413  28.4182810  -1.3718996  21.3816034
  20.8988710   0.4839971  29.3125129  20.7747407   1.0702417  29.9474948
  21.5506994  -0.0099833  29.6137404  20.9762359   0.4978776  29.4511059
  28.4575408   5.0657677  21.3893815  28.8969043   4.4574777  21.8348588
  28.3080071   4.6865050  20.6179280  28.4996874   4.9196148  21.3412982
  25.9247051   3.6601688  28.5912641  26.5696053   3.1674131  28.2723589
  26.1648828   3.8026475  29.4178719  26.0557636   3.6079131  28.6662174
  28.4633142   6.5056594  28.2419533  28.7456385   5.7108000  28.0206289
  29.1919303   6.9837182  28.2624594  28.6122706   6.4591191  28.2122548
  32.0584744   3.4184858  18.3424584  31.9736039   4.2745824  18.4874153
  32.5469128   3.1429182  19.0106743  32.1173642   3.5042179  18.4626666
  32.9903178   0.0369652  19.8422319  32.4614649   0.2529285  20.5019626
  33.5128198   0.7305790  19.7623289  32.9891631   0.1712789  19.9277919
  38.4451231   5.6115956  25.2155364  37.6148934   5.8226600  25.3788780
  38.3960483   4.7853011  24.9397647  38.3157966   5.5205563  25.1992729
  20.4346814   9.6487630  25.4453459  19.9514392  10.3738120  25.4213043
  21.2470132   9.9463760  25.5563617  20.4837562   9.7989984  25.4580738
  26.5060968   8.4419811  28.0503273  25.9887910   8.0827226  27.4464581
  27.2035359   7.9181985  28.0609340  26.5326549   8.3117499  27.9633532
  30.1624560   8.8914625  34.0119446  30.2507906   8.7040765  34.8597657
  30.5914273   8.2452054  33.6124293  30.2386662   8.7677632  34.0791198
  27.7295020   8.1745785  32.9937109  27.1665855   7.7618394  33.5176770
  28.4916043   8.0998690  33.4130252  27.7589468   8.1023185  33.1330109
  23.2891011  10.1643806  25.5973739  23.9911591   9.6495795  25.6546495
  23.2088494  10.4917957  26.4020614  23.3814772  10.1358032  25.7246531
  37.9405189  -1.7413643  29.0105785  37.1033610  -1.6711456  29.2453380
  37.9093420  -1.7389148  28.1380088  37.8123471  -1.7303416  28.9165333
  24.3369918   0.4019393  34.7254154  24.5090422   0.2925287  35.5739435
  24.8739275   1.0473798  34.4885346  24.4414922   0.4811394  34.8159251
  22.6141787   6.3550158  25.1059347  23.4530686   6.5873091  25.1533108
  22.6453556   5.4854469  25.0366382  22.7423504   6.2607104  25.1023991
  23.2394490   6.7751033  29.4072652  23.7792715   6.6322164  30.0776025
  22.5564436   7.1747784  29.7756679  23.2186644   6.8130704  29.5607074
  32.6635375   2.4542034  24.6017677  33.4192890   2.8873548  24.6406585
  32.7697699   1.8046803  25.1752313  32.7905545   2.4219517  24.6915702
  35.7015546   6.2815311  25.3520080  35.2650778   6.2852053  26.1079051
  35.3678461   6.9620810  24.9199657  35.5878166   6.3827767  25.4000912
  30.2744619   8.3223644  36.6763230  31.0585036   8.4354491  37.0418972
  30.0741214   7.4964781  36.8721916  30.3610645   8.2170363  36.7597616
  18.6431635   2.9951324  29.5607074  18.3770050   2.1790440  29.7198064
  18.6570199   3.0404479  28.6902589  18.6056357   2.8808229  29.4560556
  30.4315013  10.2333746  30.3229686  29.6330258   9.9933246  30.5803554
  30.8801024  10.2848139  31.0696733  30.3789624  10.2056137  30.4714610
  38.8359892   2.9996231  24.2439717  39.4976326   2.4386899  24.1435625
  38.1951304   2.5048261  24.5692408  38.8388759   2.8432640  24.2772057
  29.7236700   6.2966362  16.5520640  30.1387848   5.9651386  15.8605136
  28.8928629   6.0635264  16.4240777  29.6624708   6.2137618  16.4311488
  19.0525048   3.7810103  26.8418818  18.8700622   3.7556989  25.9891110
  19.7874717   4.2509041  26.8807727  19.1339112   3.8471465  26.7216737
  35.1224723   4.0161613  23.9851706  35.3580312   4.1606812  23.1578556
  35.2714286   4.7804021  24.3783219  35.1790526   4.1500668  23.9215310
  22.1170800   0.4995106  33.3500927  22.8410772   0.4848137  33.8365821
  22.2186937   1.2090461  32.8522895  22.2389009   0.6019809  33.3479714
  36.9515179   2.8563279  21.8221309  37.2823396   3.3890919  21.2161404
  37.5248267   2.9102167  22.4783260  37.0848858   2.9432848  21.8299091
  29.4915750   3.9794191  38.2149874  28.6988730   4.2937702  38.4002493
  29.6064677   4.1945659  37.3770658  29.3911160   4.0578027  38.1188209
  32.1647068   0.7028182  22.5044890  32.2593923   1.4417476  22.9584515
  31.5405912   0.2745657  22.9379454  32.0856099   0.7489502  22.6353037
  30.4199542   3.8814394  33.1535170  30.9938404   3.2441639  33.3083734
  30.3414346   3.8818477  32.2844828  30.4932777   3.7879506  33.0481581
  19.0195959   0.6603604  26.9917885  19.5969461   0.5240055  27.6310130
  18.3210020   0.2039388  27.2463469  19.0016980   0.5725870  27.1240174
  25.7763261   2.3137660  25.2056368  25.5182505   1.4809394  25.1787667
  25.8311744   2.5395273  24.3648868  25.7463039   2.2235431  25.0776505
  24.7497973  -0.1324578  25.6921263  24.1747564   0.0267590  26.3285224
  24.3733649  -0.7689169  25.2289713  24.6100785  -0.2026765  25.7175821
  28.4171262  -1.6601229  30.5513641  28.0285694  -2.0847011  29.8965832
  27.7525960  -1.4119079  31.0590668  28.2618190  -1.6862508  30.5301509
  29.5210200   2.5697376  18.7490448  30.3350839   2.8612269  18.6373219
  29.4569341   1.9157238  18.1748741  29.6312939   2.5162571  18.6479285
  35.7419690   5.2523372  33.1620024  35.5058328   4.4211437  33.0432084
  36.3862919   5.2008979  33.7474868  35.8014361   5.1221060  33.2305917
  25.3918108   6.0418893  23.8762760  26.0292055   5.8030641  24.4214554
  25.8173180   6.2456052  23.1415921  25.5494275   6.0369904  23.8479917
  20.0830751   8.2807230  27.7597064  20.1234896   8.5522081  26.9316844
  20.6425275   8.8049138  28.1754852  20.1714097   8.3982985  27.6988952
  36.7656111   5.0367821  29.2248318  36.4601928   5.7695878  29.5861634
  36.0462326   4.6305750  28.9441104  36.6143453   5.0849554  29.2361455
  27.7739580   6.5191316  25.5556546  27.8478588   6.3566488  26.4098396
  28.5909087   6.7081506  25.3117028  27.9055939   6.5228058  25.6454572
  42.4657903   1.6760821  28.5516662  42.3982403   1.6956781  27.6819249
  42.4513565   2.5191149  28.7772333  42.4536659   1.8034556  28.4569139
  21.5345337   6.8649179  22.5850990  20.7083455   7.1110916  22.4585269
  21.5957328   6.7861260  23.4513048  21.4219504   6.8894128  22.6939934
  26.3144166   9.4826059  20.2870020  26.6042464   9.0915040  19.5629246
  27.0447647   9.6642764  20.7275295  26.4651050   9.4519873  20.2452827
  40.2516520   0.4505208  26.8263257  40.8024442  -0.1826723  27.0660349
  40.2360636   0.9820600  27.5178761  40.3301717   0.4354156  26.9642115
  26.9038911   4.2843805  31.3723150  26.4050605   4.9959573  31.4508039
  27.7139135   4.6044472  31.3341313  26.9495018   4.4370654  31.3779719
  24.2550082  11.4593441  23.3530170  24.0350377  11.1690796  24.1456837
  24.0344604  10.8008396  22.8248082  24.1897676  11.3193150  23.3919078
  23.1667029   3.5466758  25.6185871  22.8780277   2.9204229  26.1531598
  24.0350377   3.4887045  25.6850552  23.2527281   3.4454302  25.7076826
  33.9544927  -1.3098459  25.9367853  33.6109692  -2.0308123  26.2875103
  34.0537969  -1.5184608  25.0946211  33.9186969  -1.4474255  25.8639533
  26.4218037  12.8322831  22.1360862  27.0742095  12.2999274  22.3651888
  25.7243646  12.4791484  22.5228736  26.4148755  12.7012354  22.2273030
  23.3699302   5.1862009  21.5428236  24.1245270   5.5675048  21.7563699
  22.7769915   5.6373153  21.9974933  23.3936016   5.3090836  21.6411115
  34.4157956   5.1527245  21.4791841  34.9815988   5.8120455  21.3950384
  33.7685859   5.4976943  21.9508243  34.4036712   5.3009187  21.5364598
  25.8305969  -2.8575151  36.6685449  25.0205745  -2.5517371  36.5575291
  26.3080656  -2.1369568  36.7838033  25.7809448  -2.7060550  36.6692520
  24.6897529   6.3570570  26.9168352  24.1678282   6.4970862  27.6020216
  25.0771549   5.5981235  27.1070469  24.6701230   6.2656094  27.0469428
  30.8864534   8.0966030  20.9028920  30.6451210   7.3633890  20.4955985
  31.0665867   8.6452887  20.2495254  30.8772158   8.0688421  20.7459143
  26.1163854   3.3874589  22.3149843  25.9206637   3.9949324  21.7210146
  26.3398200   2.6942533  21.8341517  26.1198495   3.3752115  22.1565923
  24.5142384   0.2729327  22.4330711  25.2365036   0.4370485  21.9734517
  24.0350377   0.9938992  22.3270051  24.5506115   0.4027557  22.3496325
  32.4735892  -3.3906874  27.8127396  31.6346993  -3.3645595  27.5765659
  32.5440259  -2.7436138  28.3932743  32.3604285  -3.2910748  27.8636513
  22.1650001   2.6787400  31.5384851  22.6771098   2.9571653  30.8893611
  21.8786344   3.4176694  31.9047664  22.1984864   2.8289753  31.4974729
  36.3493416   1.8161113  25.0988638  36.2627390   1.9716539  25.9523417
  35.8943896   2.4599188  24.7248043  36.2696672   1.9336868  25.1695744
  25.6833726  -5.2286212  31.5985893  25.4916923  -5.2131077  32.4485316
  26.5332322  -5.0322537  31.5752547  25.7809448  -5.1971861  31.7209187
  30.2219232  -0.8628140  23.7214197  29.9753946  -0.9432389  24.5550986
  30.5504355  -1.6474672  23.5276725  30.2340475  -0.9901875  23.8161720
  34.1167281   5.8455219  27.5100978  33.9781640   6.5436265  28.0149721
  33.3367279   5.6903876  27.1537160  33.9810507   5.9255386  27.5327253
  32.4545366   2.1451595  33.7623360  32.4493404   1.2731411  33.7665787
  33.1606360   2.3439764  33.2892816  32.5590370   2.0455469  33.6930396
  26.1816259   1.8728579  33.1337180  26.3259635   2.4529787  32.4980290
  26.5291908   2.2504875  33.8387035  26.2543720   2.0149283  33.1436175
  28.3536176   1.0718747  30.9162312  27.6059490   1.2649761  30.5110590
  28.5077702   0.2463966  30.6786433  28.2658604   0.9783858  30.8207718
  25.2544014  10.0631350  29.9998207  25.4033578   9.5034266  29.3471612
  26.0344016  10.1423352  30.3830726  25.3918108   9.9916916  29.9595156
  35.6120653   5.2033473  18.2717478  35.2327462   4.4170611  18.2646767
  34.9486899   5.7520330  18.1289122  35.4579128   5.1678297  18.2498275
  27.7797315  10.2345993  31.2782698  27.7040986   9.5654804  31.8333486
  27.7087174  10.9363781  31.7923364  27.7577922  10.2390901  31.4359546
  28.5937953  -5.0330702  31.8057716  29.0510568  -4.3006728  31.9330508
  28.6694282  -5.4564237  32.5644971  28.6728923  -4.9873464  31.9358792
  28.4367562   8.7546992  22.1106304  29.2017453   8.4856636  21.7888968
  28.3345652   8.2697002  22.8276367  28.5349057   8.6436557  22.1686132
  26.4720331  -3.0428598  28.6499540  25.6816406  -3.2237138  28.9716875
  26.8680954  -3.8201646  28.6329834  26.4137208  -3.1841138  28.6952088
  31.8564018   4.5913832  26.3758986  31.1809019   4.3599064  26.8772373
  31.8656394   3.9835015  25.7501091  31.7582522   4.4672757  26.3575138
  28.9858162  -0.5668339  33.1323039  28.9217303   0.2941617  33.0043175
  29.1255349  -0.8836346  32.3318590  28.9973632  -0.4868173  32.9951251
  33.8580752   7.4478964  18.6069164  33.9400590   8.2545950  18.2830614
  34.3430494   7.4674923  19.3309937  33.9417910   7.5699626  18.6656062
  27.6677256   2.1263800  27.2739241  27.2439505   2.3268299  26.5378260
  27.4922111   1.2792648  27.3863541  27.5788136   2.0312581  27.1812932
  22.9559701   2.6215851  22.7067214  23.1124320   2.5562654  23.5623206
  23.2960294   3.3964404  22.4945894  23.0292935   2.7265050  22.8021808
  29.4938845   1.9973735  21.5760577  30.0354391   1.4944116  22.0399198
  29.8085404   1.9438930  20.7650062  29.6203242   1.9153156  21.5244389
  33.3655953   6.2076382  38.6887489  34.1790818   5.9361531  38.8492622
  33.2050919   5.9083922  37.8847685  33.4625901   6.1231308  38.5932895
  27.6625295   7.3891087  18.8600605  27.7318115   6.5305625  18.9993606
  28.4413750   7.6062967  18.5319630  27.7878145   7.2943951  18.8317763
  30.6428115  -3.1089960  31.6282878  30.8570084  -3.7479046  31.0746232
  30.0262014  -2.6644137  31.1990739  30.5833444  -3.1379817  31.4833309
  32.0532782   9.8128788  23.0737099  31.6612574   9.5095503  22.3559965
  32.2085855  10.6497878  22.8842052  32.0186372   9.8912625  22.9393596
  32.8067203  -1.5000895  32.5666185  31.9943884  -1.8075005  32.6479358
  33.2657137  -1.9801895  33.1308897  32.7547587  -1.6164403  32.6620779
  32.2172457   6.3778777  23.0143129  31.8587112   6.5493420  23.7907162
  31.7311168   6.8391982  22.4571128  32.0931154   6.4717748  23.0468398
  29.9020710  -0.0940824  37.3494887  30.3720341   0.5301293  37.7362761
  29.9482590  -0.7623848  37.9088102  29.9788586  -0.1006144  37.4894959
  33.3777197   7.2682673  33.9610330  34.0156917   6.7742868  33.6272786
  32.7351288   7.1960073  33.3762557  33.3771423   7.1841681  33.8252685
  35.1034197  -0.8828181  28.5276246  34.6761805  -0.9701833  27.7724345
  34.4660250  -0.7750406  29.1131090  34.9463804  -0.8795522  28.5021687
  33.4331453   7.9602481  30.6015687  34.2223831   7.6091546  30.7217768
  33.6075051   8.7738869  30.3392321  33.5751735   8.0288338  30.5803555
  23.1724764   1.3711207  27.6543476  22.3312770   1.2715081  27.8622369
  23.3814772   2.1406687  28.0057796  23.0789456   1.4703250  27.7370791
  20.6500331  -1.0069256  25.4828226  20.2557028  -0.9326245  24.7078336
  20.0940447  -0.6211310  26.0336588  20.5103143  -0.9387482  25.4495886
  26.9841428  -0.7007394  26.9041073  26.6804566  -1.2551406  27.5051481
  26.2820849  -0.5215184  26.4169107  26.8357638  -0.7562612  26.9210779
  25.0459779   6.5142327  31.6113171  24.9380134   6.5244389  32.4775229
  25.2555561   7.3397107  31.4218125  25.0609890   6.6383401  31.7117263
  23.0633571   3.7654969  29.0735109  22.4721505   4.4064467  29.0438124
  23.8254595   4.1892586  29.0466408  23.0881832   3.9230807  29.0650256
  25.1077544  -4.4076338  34.3075153  24.7163109  -5.0542991  34.7430931
  25.2763407  -3.8164903  34.9269409  25.0748454  -4.4162071  34.4637859
  39.1823993   3.5960739  30.0712387  39.2407117   4.0447387  30.8172363
  38.5490461   4.0059551  29.6342467  39.0975288   3.7234473  30.1164935
  32.8223088   9.2164281  26.5067133  32.6242776   9.7055095  25.8123344
  32.2010799   9.4205522  27.0851266  32.7010652   9.3180819  26.4890356
  26.8831066   0.9849177  20.8477377  27.6273111   1.3723454  21.0860327
  27.0291762   0.1406603  21.0117865  27.0141651   0.9179650  20.9071347
  29.8708942  -3.4425349  26.7471297  29.3968896  -3.9683587  27.2576607
  30.2427078  -3.9895876  26.1786158  29.8558831  -3.6009353  26.7386444
  36.1345672   1.6177026  28.1578077  35.8943895   0.7783442  28.1620504
  36.6137680   1.6977193  28.8818851  36.1697856   1.5058426  28.2652879
  38.1350859  -1.6021516  26.1107336  37.8960629  -1.6425682  25.2728121
  38.2984761  -0.7550364  26.2373057  38.1241163  -1.4829431  26.0060818
  34.7396890   2.7828433  32.0412381  35.4631088   2.3300959  31.8623401
  34.4746852   3.0633099  31.2584709  34.8078163   2.7579401  31.8991097
  23.6083758  -2.6211394  28.7765261  22.9836828  -2.6093002  28.1691213
  23.2729353  -2.1451218  29.4256501  23.4669250  -2.5492877  28.7821829
  20.3209434   5.4389066  30.2169025  19.7909358   4.7481505  30.2664000
  20.5934527   5.4299252  29.3881733  20.2834156   5.3356198  30.1016441
  31.3529524   6.0214769  18.9406707  32.0763723   6.4872882  18.7971281
  30.9130115   6.0888378  18.1904304  31.3945216   6.0998606  18.8091489
  30.5215679   2.8812311  30.1907396  29.9072672   2.3370361  30.4856032
  31.0382964   2.3676548  29.7113213  30.5071342   2.7248720  30.1631625
  29.7611976   3.9516581  27.9251695  29.3339584   3.3266300  27.4917130
  29.7536921   3.6691503  28.7510702  29.6971117   3.8169362  27.9831523
  22.8774503  -1.0118246  30.9940129  23.0367990  -1.7674922  31.3991851
  22.6967397  -0.4627306  31.6480867  22.8739862  -1.0424432  31.1502835
  28.0897686  -5.1714664  28.1394229  28.1140173  -5.7054552  27.4507009
  28.3409160  -5.6797356  28.8019820  28.1307605  -5.3253760  28.1358874
  15.6005276   2.1116831  27.5737373  15.4948725   2.0663675  26.7089457
  14.8505496   2.4570611  27.8551658  15.4740879   2.1557739  27.4874703
  26.5528621   3.1216894  35.6220268  25.7024252   3.2588608  35.7577913
  26.7156749   2.3880672  36.0667970  26.4512485   3.0330995  35.7075867
  25.7913372   0.0716664  29.8173872  24.9605301   0.2390482  29.6109120
  25.7364889  -0.3047385  30.6022758  25.6602786   0.0406395  29.9022400
  37.1732204   1.7454844  30.5442931  37.7650044   2.3852094  30.5761129
  37.6091198   1.0477880  30.8334998  37.3250635   1.7373194  30.5923764
  29.0025593   6.1672216  31.1700825  28.4950685   6.7208063  31.6141455
  28.7052240   6.2280506  30.3519599  28.8830478   6.2578527  31.1149282
  31.6133374  10.0835474  19.1004768  30.8962683   9.9096336  18.6352006
  32.2640111   9.8488046  18.5680254  31.6035224  10.0231266  18.9533986
  34.1981345  -1.0399938  22.8446074  33.5272535  -0.4970235  22.7159139
  34.8921095  -0.5705082  22.6027768  34.2010212  -0.8901666  22.7901601
  28.2468079  11.0996774  28.0757832  28.0233733  10.3415604  28.4441858
  27.7577922  11.1294796  27.3538272  28.1411528  10.9918999  28.0234573
  23.0593157  -1.9536534  23.8119293  22.3405147  -1.5372402  24.0792157
  23.4305520  -1.3882296  23.2610931  23.0085089  -1.8087253  23.7702100
  32.3592738  -1.3208685  29.7021289  32.3390666  -1.5025390  30.5556068
  32.4071939  -0.4496667  29.6780873  32.3627379  -1.2192147  29.8244584
  30.3039068   5.2678507  35.6269766  30.2634923   4.6228183  35.0414921
  31.1162386   5.2115124  35.9395178  30.4182222   5.1637473  35.5866715
  26.8946536  11.3197232  25.5294916  26.4806934  10.6571363  25.1398758
  27.5793910  11.4675091  25.0090611  26.9344907  11.2437891  25.3951414
  30.2611830  10.4787318  26.2818533  29.8628113  10.5889588  25.5139353
  29.6463049  10.6869384  26.8645093  30.1110719  10.5260886  26.2549832
  31.7097548  -2.9559030  22.5794423  31.4811241  -2.9326329  21.7372781
  31.9695625  -3.7801563  22.6989434  31.7143736  -3.0742950  22.4719621
  25.9916777  -1.1024557  32.1819523  25.4795680  -1.7103374  32.5404555
  25.8196273  -0.3867964  32.6493499  25.8906414  -1.0861258  32.3035747
  24.7642311  -4.4182484  23.8748619  25.2399677  -4.0565404  23.2398800
  24.2630910  -3.7626016  24.1548761  24.7607670  -4.2688295  23.8225360
  37.9953672   5.0539284  19.6661624  38.3787278   5.8030641  19.8959721
  37.1997786   5.3005104  19.4073613  37.9347455   5.2008978  19.6619197
  29.8685847  -3.1800312  34.6221779  30.4257277  -3.4086503  33.9900244
  29.5446912  -2.4194647  34.3456991  29.9032257  -3.1016476  34.4878276
  27.5868964  -0.0932659  35.5873786  28.3380291   0.2219018  35.9013340
  27.7791541  -0.2953488  34.7607708  27.7260379  -0.0765277  35.5117182
  32.1595107   0.7138409  26.4833788  32.6548772  -0.0038596  26.4437808
  31.3494882   0.4109207  26.3688275  32.1139000   0.5636055  26.4607514
  27.6053718   4.5636222  18.6330793  26.7965041   4.2402896  18.5864102
  28.1128627   3.8569444  18.5659041  27.5603385   4.4117539  18.6161087
  18.2343995   1.9908415  24.3578157  17.3689515   1.9794106  24.2460928
  18.3342811   1.8038638  25.2049296  18.1218162   1.9614477  24.4667101
  34.2246925   3.4642097  29.1710917  34.6501997   2.9416518  28.6181342
  33.8603845   4.0622934  28.6499540  34.2333528   3.4752324  29.0119927
  23.8601005  11.7606314  27.9308262  24.1747564  12.5742703  27.9386044
  24.2694419  11.3756533  28.5990422  23.9669103  11.8235016  28.0312354
  30.8125525   7.1776361  25.5012074  31.2836703   7.8916623  25.6702060
  31.1485703   6.5775111  26.0371944  30.9320640   7.1947825  25.6044450
  32.9002509   8.7877674  37.6804147  33.0099475   7.9986235  38.0360894
  33.2293406   8.6983610  36.8778485  32.9654915   8.6583527  37.6146537
  31.4499471   6.9694295  32.2639767  30.9020417   6.3452179  31.9959832
  31.9112500   7.1588567  31.5483846  31.4366681   6.9053345  32.1190198
  21.2014025   5.7079423  27.5786871  21.8058883   5.6675257  26.9500692
  20.9941338   6.5550575  27.6090927  21.2602923   5.8267425  27.4902987
  31.0157798   7.9745368  28.7949108  31.8356171   7.8308334  29.0565403
  30.7351875   8.5991567  29.3365546  31.0954541   8.0455720  28.9137048
  16.4365308   4.6914040  27.4485794  16.3389586   3.8810312  27.7575851
  17.2194177   4.6705833  27.0632062  16.5381444   4.5681130  27.4372657
  47.4871448  15.6310219  21.7591985  47.4565452  16.4854856  21.9310254
  48.0852797  15.3305512  22.3178128  47.5708606  15.7126716  21.8666787
  40.6871133  14.7185870  26.5144915  39.8309028  14.8794369  26.5654032
  40.7338786  13.8477934  26.5349976  40.5670244  14.6136672  26.5250981
  40.5237232  24.6773958  17.7067694  40.1888601  25.3550879  17.2711916
  41.0364103  24.2879269  17.1184565  40.5502813  24.7198536  17.5554485
  43.5322954  16.7777914  29.1576567  44.0778914  17.4563001  29.2170536
  43.4739830  16.6365375  28.2978148  43.6038868  16.8569916  29.0388627
  45.3088022  18.2062521  20.0310294  45.1927548  18.9570208  20.4602433
  46.1043909  17.9486475  20.2806382  45.4092612  18.2797368  20.1314386
  29.8462073  20.2887267  24.1697253  29.6112257  19.4554919  24.0629522
  29.9847714  20.5691933  23.3558454  29.8317735  20.2070770  24.0339608
  32.1452160  12.4572998  27.0681560  31.5257192  11.8665645  26.8991575
  32.0436024  13.0484433  26.4345884  32.0389836  12.4577080  26.9486550
  37.1918348  22.1956544  21.3179637  37.5134189  22.7361752  20.7140945
  37.8390444  21.6253316  21.4501927  37.3344403  22.1915720  21.2486672
  39.2420056  14.1972539  21.4014024  39.9400221  14.3760667  21.8935487
  39.5572389  13.6742879  20.7784413  39.3915393  14.1466312  21.3816034
  31.8721293  16.0025279  29.3125129  31.7479990  16.5887725  29.9474948
  32.5239578  15.5085475  29.6137404  31.9494943  16.0164084  29.4511059
  39.4307991  20.5842984  21.3893815  39.8701627  19.9760085  21.8348588
  39.2812654  20.2050358  20.6179280  39.4729457  20.4381456  21.3412982
  36.8979634  19.1786996  28.5912641  37.5428637  18.6859439  28.2723589
  37.1381411  19.3211783  29.4178719  37.0290219  19.1264438  28.6662174
  39.4365726  22.0241902  28.2419533  39.7188969  21.2293308  28.0206289
  40.1651886  22.5022490  28.2624594  39.5855289  21.9776499  28.2122548
  37.4146920   9.5664936  25.4835298  37.0850250  10.0176080  24.8138997
  36.7391921   9.4881099  26.0308305  37.2657356   9.6216071  25.4658521
  43.0317328  18.9370166  18.3424584  42.9468623  19.7931132  18.4874153
  43.5201711  18.6614490  19.0106743  43.0906225  19.0227487  18.4626666
  44.6223327   5.5550459  23.7284909  44.3076768   6.2453938  24.1605331
  44.1050269   5.4995241  23.0270410  44.4987798   5.6485348  23.6881858
  43.9635761  15.5554960  19.8422319  43.4347233  15.7714593  20.5019626
  44.4860781  16.2491098  19.7623289  43.9624214  15.6898097  19.9277919
  49.4183814  21.1301264  25.2155364  48.5881517  21.3411908  25.3788780
  49.3693066  20.3038319  24.9397647  49.2890549  21.0390871  25.1992729
  35.8535369  19.4518177  18.6429787  35.2692584  19.9568208  19.0495651
  35.4505464  19.2260564  17.9026379  35.7074673  19.4926425  18.5934813
  31.4079398  25.1672938  25.4453459  30.9246976  25.8923427  25.4213043
  32.2202716  25.4649068  25.5563617  31.4570145  25.3175292  25.4580738
  40.3112583  15.6983829  17.1198708  40.5508587  15.9061813  16.3074051
  40.6328424  14.8941337  17.2287653  40.3949741  15.6097930  17.0159261
  35.6202874   7.6277224  20.9658246  36.3748842   7.9955542  20.7275296
  35.4430408   8.0016779  21.7337426  35.7057352   7.7375412  21.0443134
  48.9137772  13.7771665  29.0105785  48.0766193  13.8473852  29.2453380
  48.8826003  13.7796160  28.1380088  48.7856055  13.7881892  28.9165333
  35.3102501  15.9204701  34.7254154  35.4823005  15.8110595  35.5739435
  35.8471859  16.5659106  34.4885346  35.4147505  15.9996702  34.8159251
  33.9759938  10.0347543  17.6636359  33.7935512  10.2519424  16.8377352
  34.8385551  10.1486556  17.7194973  34.0764528  10.0837441  17.5490846
  33.5874370  21.8735466  25.1059347  34.4263270  22.1058398  25.1533108
  33.6186139  21.0039777  25.0366382  33.7156088  21.7792412  25.1023991
  39.6559657   7.0373954  20.6985383  40.3845818   6.8589909  20.2523539
  39.7454550   7.8792034  20.9092561  39.7766320   7.1357833  20.6638900
  43.6367958  17.9727342  24.6017677  44.3925473  18.4058856  24.6406585
  43.7430283  17.3232111  25.1752313  43.7638129  17.9404825  24.6915702
  46.6748129  21.8000619  25.3520080  46.2383361  21.8037361  26.1079051
  46.3411045  22.4806118  24.9199657  46.5610749  21.9013075  25.4000912
  29.6164218  18.5136632  29.5607074  29.3502634  17.6975748  29.7198064
  29.6302782  18.5589787  28.6902589  29.5788941  18.3993536  29.4560556
  46.5945612   8.8414447  27.5949508  47.2371521   8.9112551  28.1811423
  46.8468633   8.1743669  27.0929050  46.7267744   8.7540795  27.6076787
  33.5221965  13.3121716  16.1758832  32.8080142  13.0259896  16.5881264
  34.0065934  13.6518342  16.8165219  33.4881329  13.3203366  16.3314467
  34.3662825  12.0515010  32.2074082  33.6734621  11.5811990  32.4534813
  34.9823152  11.8253314  32.7815789  34.3547355  11.9482142  32.3283234
  49.8092476  18.5181539  24.2439717  50.4708910  17.9572207  24.1435625
  49.1683887  18.0233569  24.5692408  49.8121343  18.3617948  24.2772057
  40.6969283  21.8151670  16.5520640  41.1120432  21.4836694  15.8605136
  39.8661213  21.5820572  16.4240777  40.6357292  21.7322926  16.4311488
  30.0257632  19.2995411  26.8418818  29.8433205  19.2742297  25.9891110
  30.7607301  19.7694349  26.8807727  30.1071696  19.3656773  26.7216737
  46.0957306  19.5346921  23.9851706  46.3312895  19.6792120  23.1578556
  46.2446870  20.2989329  24.3783219  46.1523109  19.6685975  23.9215310
  47.9247763  18.3748587  21.8221309  48.2555980  18.9076227  21.2161404
  48.4980851  18.4287475  22.4783260  48.0581442  18.4618156  21.8299091
  43.1379652  16.2213490  22.5044890  43.2326506  16.9602784  22.9584515
  42.5138496  15.7930965  22.9379454  43.0588682  16.2674810  22.6353037
  41.3932126  19.3999702  33.1535170  41.9670988  18.7626947  33.3083734
  41.3146930  19.4003785  32.2844828  41.4665361  19.3064814  33.0481581
  29.9928542  16.1788912  26.9917885  30.5702045  16.0425363  27.6310130
  29.2942604  15.7224696  27.2463469  29.9749564  16.0911178  27.1240174
  43.3902673  18.0662230  15.7381842  43.3082836  18.1364417  16.6036829
  44.0282394  18.6291973  15.5465582  43.4722511  18.1601201  15.8371791
  36.7495845  17.8322967  25.2056368  36.4915089  16.9994702  25.1787667
  36.8044327  18.0580580  24.3648868  36.7195622  17.7420739  25.0776505
  41.8296895   9.9351418  25.3060461  41.1253221   9.4460604  25.4644380
  41.8781869   9.9473893  24.4348905  41.7326946   9.8641066  25.1999800
  35.7230557  15.3860730  25.6921263  35.1480148  15.5452898  26.3285224
  35.3466233  14.7496139  25.2289713  35.5833369  15.3158543  25.7175821
  39.3903845  13.8584079  30.5513641  39.0018278  13.4338297  29.8965832
  38.7258544  14.1066229  31.0590668  39.2350773  13.8322800  30.5301509
  49.0327114  13.6159084  23.3261471  48.7763679  12.8039025  23.1359354
  49.8756428  13.6236651  23.0991658  49.1193140  13.4971081  23.2646288
  25.4687376  15.0300805  23.7065703  25.5547627  14.6532673  24.4879233
  26.0963173  14.6561250  23.2285662  25.5743927  14.9186287  23.7511181
  43.2130207   7.5558708  28.0637625  43.5940719   6.8736879  28.4505500
  42.4093491   7.2668310  27.8813290  43.1506669   7.4125756  28.0941681
  40.4942784  18.0882684  18.7490448  41.3083422  18.3797577  18.6373219
  40.4301925  17.4342546  18.1748741  40.6045523  18.0347879  18.6479285
  46.7152274  20.7708680  33.1620024  46.4790911  19.9396745  33.0432084
  47.3595503  20.7194287  33.7474868  46.7746945  20.6406368  33.2305917
  36.3650692  21.5604201  23.8762760  37.0024639  21.3215949  24.4214554
  36.7905763  21.7641360  23.1415921  36.5226858  21.5555211  23.8479917
  31.0563334  23.7992538  27.7597064  31.0967479  24.0707389  26.9316844
  31.6157858  24.3234446  28.1754852  31.1446680  23.9168293  27.6988952
  37.0053507  16.7806491  18.2137650  37.3898660  16.5614198  18.9654195
  36.7565127  17.6069436  18.3438726  37.0255579  16.8704637  18.3438726
  37.1722047  10.0612906  37.9300234  36.8575488  10.8312469  37.6669796
  36.8511980   9.4983162  37.3452461  37.0780966  10.0923175  37.8041584
  47.7388694  20.5553129  29.2248318  47.4334511  21.2881186  29.5861634
  47.0194910  20.1491058  28.9441104  47.5876037  20.6034862  29.2361455
  38.7472164  22.0376624  25.5556546  38.8211172  21.8751796  26.4098396
  39.5641670  22.2266813  25.3117028  38.8788522  22.0413366  25.6454572
  53.4390487  17.1946129  28.5516662  53.3714987  17.2142088  27.6819249
  53.4246149  18.0376457  28.7772333  53.4269243  17.3219864  28.4569139
  32.5077920  22.3834487  22.5850990  31.6816038  22.6296224  22.4585269
  32.5689912  22.3046568  23.4513048  32.3952087  22.4079436  22.6939934
  34.7253944   8.4503428  23.5446430  33.8576370   8.5226027  23.6104039
  35.0129149   9.2525507  23.7334405  34.6393692   8.5797575  23.5821197
  43.8486833   8.5981287  31.8757752  44.5940425   8.4091097  31.4621177
  43.4324138   9.1239525  31.3171608  43.8971807   8.6483432  31.7322325
  37.2876749  25.0011367  20.2870020  37.5775048  24.6100348  19.5629246
  38.0180230  25.1828072  20.7275295  37.4383634  24.9705181  20.2452827
  51.2249104  15.9690516  26.8263257  51.7757025  15.3358585  27.0660349
  51.2093219  16.5005908  27.5178761  51.3034300  15.9539464  26.9642115
  37.8771495  19.8029113  31.3723150  37.3783188  20.5144881  31.4508039
  38.6871719  20.1229779  31.3341313  37.9227601  19.9555961  31.3779719
  34.1399612  19.0652066  25.6185871  33.8512861  18.4389537  26.1531598
  35.0082960  19.0072353  25.6850552  34.2259864  18.9639610  25.7076826
  44.9277510  14.2086849  25.9367853  44.5842276  13.4877184  26.2875103
  45.0270553  14.0000700  25.0946211  44.8919553  14.0711052  25.8639533
  34.3431886  20.7047317  21.5428236  35.0977854  21.0860356  21.7563699
  33.7502498  21.1558461  21.9974933  34.3668599  20.8276144  21.6411115
  45.3890539  20.6712553  21.4791841  45.9548572  21.3305763  21.3950384
  44.7418443  21.0162251  21.9508243  45.3769296  20.8194495  21.5364598
  36.8038553  12.6610157  36.6685449  35.9938328  12.9667937  36.5575291
  37.2813239  13.3815740  36.7838033  36.7542031  12.8124758  36.6692520
  35.6630112  21.8755878  26.9168352  35.1410866  22.0156170  27.6020216
  36.0504133  21.1166543  27.1070469  35.6433813  21.7841402  27.0469428
  32.6521296  11.9261687  20.9863306  32.3646092  11.5562957  20.2495254
  33.3391765  12.3956542  20.7247011  32.7110194  11.9408656  20.8378382
  41.8597117  23.6151338  20.9028920  41.6183793  22.8819198  20.4955985
  42.0398450  24.1638194  20.2495254  41.8504741  23.5873729  20.7459143
  37.0896438  18.9059897  22.3149843  36.8939221  19.5134632  21.7210146
  37.3130783  18.2127841  21.8341517  37.0931079  18.8937423  22.1565923
  35.4874968  15.7914635  22.4330711  36.2097620  15.9555793  21.9734517
  35.0082961  16.5124300  22.3270051  35.5238699  15.9212865  22.3496325
  43.4468475  12.1278434  27.8127396  42.6079576  12.1539713  27.5765659
  43.5172843  12.7749169  28.3932743  43.3336869  12.2274560  27.8636513
  41.8937754   9.0263811  22.5455012  42.5964107   8.8271559  22.0674970
  41.6281942   8.2539753  22.8523855  41.9584386   8.8826777  22.5200453
  47.3225999  17.3346421  25.0988638  47.2359974  17.4901847  25.9523417
  46.8676479  17.9784496  24.7248043  47.2429256  17.4522176  25.1695744
  30.2249491  12.7042899  21.8348587  30.3265627  13.5069061  22.1629563
  31.0205378  12.5030235  21.5371668  30.3577397  12.7928798  21.8383943
  36.6566310  10.2899096  31.5985893  36.4649507  10.3054231  32.4485316
  37.5064906  10.4862770  31.5752547  36.7542032  10.3213447  31.7209187
  31.0413223  12.8190078  29.5769709  30.8998715  11.9674018  29.7014217
  31.3253786  12.8618738  28.7531915  31.0621069  12.6989828  29.4737333
  41.1951815  14.6557168  23.7214197  40.9486530  14.5752919  24.5550986
  41.5236938  13.8710636  23.5276725  41.2073059  14.5283433  23.8161720
  45.0899864  21.3640527  27.5100978  44.9514223  22.0621573  28.0149721
  44.3099862  21.2089184  27.1537160  44.9543091  21.4440694  27.5327253
  43.4277949  17.6636903  33.7623360  43.4225988  16.7916719  33.7665787
  44.1338943  17.8625072  33.2892816  43.5322953  17.5640777  33.6930396
  37.1548843  17.3913886  33.1337180  37.2992218  17.9715095  32.4980290
  37.5024491  17.7690183  33.8387035  37.2276304  17.5334590  33.1436175
  39.3268760  16.5904055  30.9162312  38.5792074  16.7835069  30.5110590
  39.4810285  15.7649274  30.6786433  39.2391188  16.4969166  30.8207718
  46.5853237  20.7218781  18.2717478  46.2060046  19.9355919  18.2646767
  45.9219482  21.2705638  18.1289122  46.4311712  20.6863605  18.2498275
  39.5670537  10.4854606  31.8057716  40.0243151  11.2178580  31.9330508
  39.6426866  10.0621071  32.5644971  39.6461507  10.5311844  31.9358792
  31.8103528  10.7320425  32.8947159  31.2745718  10.1200783  33.2107927
  31.8721293  11.3068561  33.5480826  31.7399161  10.7267353  33.0382586
  44.0397863   3.6644481  25.6751559  44.1581431   4.1220944  24.9418861
  43.8660039   2.8589742  25.3887776  44.0317034   3.6138253  25.5252492
  39.4100145  24.2732300  22.1106304  40.1750036  24.0041944  21.7888968
  39.3078235  23.7882310  22.8276367  39.5081641  24.1621865  22.1686132
  37.4452915  12.4756709  28.6499540  36.6548990  12.2948170  28.9716875
  37.8413538  11.6983662  28.6329834  37.3869791  12.3344170  28.6952088
  42.8296601  20.1099140  26.3758986  42.1541603  19.8784372  26.8772373
  42.8388977  19.5020323  25.7501091  42.7315106  19.9858065  26.3575138
  39.9590745  14.9516969  33.1323039  39.8949886  15.8126925  33.0043175
  40.0987933  14.6348962  32.3318590  39.9706215  15.0317135  32.9951251
  44.8313336  22.9664272  18.6069164  44.9133173  23.7731258  18.2830614
  45.3163078  22.9860231  19.3309937  44.9150494  23.0884934  18.6656062
  38.6409839  17.6449108  27.2739241  38.2172088  17.8453607  26.5378260
  38.4654694  16.7977956  27.3863541  38.5520720  17.5497889  27.1812932
  33.9292284  18.1401159  22.7067214  34.0856903  18.0747962  23.5623206
  34.2692877  18.9149712  22.4945894  34.0025519  18.2450358  22.8021808
  40.4671429  17.5159043  21.5760577  41.0086974  17.0129424  22.0399198
  40.7817988  17.4624238  20.7650062  40.5935826  17.4338464  21.5244389
  38.6357878  22.9076394  18.8600605  38.7050699  22.0490933  18.9993606
  39.4146334  23.1248275  18.5319630  38.7610729  22.8129258  18.8317763
  41.6160698  12.4095347  31.6282878  41.8302668  11.7706262  31.0746232
  40.9994597  12.8541171  31.1990739  41.5566027  12.3805491  31.4833309
  43.0265366  25.3314096  23.0737099  42.6345158  25.0280811  22.3559965
  43.1818438  26.1683186  22.8842052  42.9918956  25.4097932  22.9393596
  30.5026546  15.3236110  23.0227981  30.8825510  15.7420655  22.3588249
  29.9281910  15.9049566  23.3296825  30.4737870  15.4713969  22.9704722
  43.7799786  14.0184413  32.5666185  42.9676468  13.7110303  32.6479358
  44.2389721  13.5383413  33.1308897  43.7280171  13.9020905  32.6620779
  43.1905041  21.8964085  23.0143129  42.8319696  22.0678727  23.7907162
  42.7043752  22.3577290  22.4571128  43.0663738  21.9903056  23.0468398
  41.0075427   5.5195283  26.6170221  40.1368985   5.4934004  26.5703530
  41.2615768   5.3472475  25.7996066  40.9168987   5.4905427  26.4890357
  37.9793406  17.5763250  15.5543364  38.2685931  18.3528133  15.8286938
  38.0665205  17.0651981  16.2557863  38.0347662  17.6155168  15.6985861
  40.8753294  15.4244484  37.3494887  41.3452925  16.0486600  37.7362761
  40.9215174  14.7561460  37.9088102  40.9521169  15.4179164  37.4894959
  38.0324567   7.5301512  28.0743691  37.5163056   6.8381703  28.1995270
  37.4718496   8.1972289  28.0206290  37.8731080   7.5264769  28.0849757
  40.1016801   8.0694472  29.9036543  39.7148554   8.0943503  30.6850073
  39.6149738   7.5036150  29.4511060  39.9729310   7.9890222  29.9524447
  46.0766780  14.6357127  28.5276246  45.6494388  14.5483475  27.7724345
  45.4392833  14.7434902  29.1131090  45.9196387  14.6389786  28.5021687
  39.7673942   4.9561457  32.1946803  40.3967060   5.4921757  31.9167874
  39.9359805   4.8638816  33.0460369  39.8851737   5.0222819  32.2795331
  39.5687857   9.7432652  34.4673215  40.3961287   9.4717801  34.5231829
  39.5895703  10.5393493  34.8237033  39.6940707   9.8212406  34.5288398
  44.4064037  23.4787789  30.6015687  45.1956415  23.1276854  30.7217768
  44.5807635  24.2924177  30.3392321  44.5484318  23.5473646  30.5803555
  34.1457347  16.8896515  27.6543476  33.3045354  16.7900389  27.8622369
  34.3547355  17.6591995  28.0057796  34.0522040  16.9888558  27.7370791
  31.6232914  14.5116052  25.4828226  31.2289612  14.5859063  24.7078336
  31.0673031  14.8973998  26.0336588  31.4835726  14.5797826  25.4495886
  43.2597861   7.4897346  25.1632105  43.4647454   7.4219653  26.0089102
  42.9324285   8.2956167  25.0953283  43.2413109   7.5983286  25.2791760
  37.9574012  14.8177914  26.9041073  37.6537150  14.2633902  27.5051481
  37.2553433  14.9970124  26.4169107  37.8090222  14.7622696  26.9210779
  37.0140109  12.1278434  21.4685775  37.2899843  11.4097346  21.0563342
  37.6138778  12.7263353  21.2606881  37.1433374  12.1098804  21.3766536
  46.5131549   8.0429110  24.6434871  45.9005862   8.5299512  25.0288602
  46.6095723   7.3672601  25.1872522  46.4369446   8.0147419  24.7813729
  40.5150630   9.7991951  19.7432370  40.9694376   9.9702511  20.4680215
  40.9890675   9.1860062  19.3430146  40.6518950   9.7342836  19.7906132
  34.0366155  19.2840277  29.0735109  33.4454088  19.9249775  29.0438124
  34.7987179  19.7077894  29.0466408  34.0614416  19.4416115  29.0650256
  34.4326778  10.4442275  29.7403126  34.8928259  10.5181204  30.4778250
  34.4782885  11.2423529  29.3902947  34.5077333  10.5736422  29.7975883
  36.0810128  11.1108970  34.3075153  35.6895693  10.4642317  34.7430931
  36.2495990  11.7020405  34.9269409  36.0481038  11.1023237  34.4637859
  50.1556577  19.1146047  30.0712387  50.2139700  19.5632695  30.8172363
  49.5223044  19.5244859  29.6342467  50.0707872  19.2419781  30.1164935
  43.7955671  24.7349588  26.5067133  43.5975360  25.2240403  25.8123344
  43.1743382  24.9390830  27.0851266  43.6743236  24.8366127  26.4890356
  37.8563650  16.5034485  20.8477377  38.6005695  16.8908762  21.0860327
  38.0024346  15.6591911  21.0117865  37.9874235  16.4364958  20.9071347
  39.7743225   8.2984744  25.8809239  38.9279270   8.4707552  25.7550588
  39.7714358   7.4934088  26.2175067  39.6490375   8.2045773  25.9120366
  40.8441525  12.0759959  26.7471297  40.3701480  11.5501721  27.2576607
  41.2159661  11.5289431  26.1786158  40.8291414  11.9175955  26.7386444
  47.1078256  17.1362334  28.1578077  46.8676479  16.2968749  28.1620504
  47.5870263  17.2162501  28.8818851  47.1430440  17.0243734  28.2652879
  42.7725025  12.9696513  19.8097050  42.2448044  13.0525257  19.1202759
  43.2320733  13.7114385  19.8061695  42.7626876  13.0917176  19.7071746
  49.1083443  13.9163791  26.1107336  48.8693213  13.8759626  25.2728121
  49.2717344  14.7634944  26.2373057  49.0973747  14.0355876  26.0060818
  45.7129473  18.3013741  32.0412381  46.4363672  17.8486267  31.8623401
  45.4479436  18.5818406  31.2584709  45.7810746  18.2764709  31.8991097
  34.5816342  12.8973914  28.7765261  33.9569412  12.9092306  28.1691213
  34.2461936  13.3734089  29.4256501  34.4401833  12.9692431  28.7821829
  34.7658090  11.2399033  14.8337946  34.4170895  11.8918758  15.2969495
  34.2854536  11.2256146  14.1061817  34.6428334  11.3342086  14.7949037
  42.3262108  21.5400077  18.9406707  43.0496306  22.0058190  18.7971281
  41.8862699  21.6073686  18.1904304  42.3677800  21.6183913  18.8091489
  41.4948263  18.3997619  30.1907396  40.8805256  17.8555669  30.4856032
  42.0115548  17.8861855  29.7113213  41.4803925  18.2434028  30.1631625
  40.7344560  19.4701889  27.9251695  40.3072168  18.8451608  27.4917130
  40.7269504  19.1876811  28.7510702  40.6703701  19.3354670  27.9831523
  33.8507087  14.5067062  30.9940129  34.0100574  13.7510386  31.3991851
  33.6699981  15.0558002  31.6480867  33.8472446  14.4760876  31.1502835
  41.7927390   6.6728298  31.5490919  41.2967951   6.8691972  30.8582485
  42.5496452   7.0720966  31.3779720  41.8314215   6.7606031  31.4211055
  39.0630270  10.3470644  28.1394229  39.0872757   9.8130756  27.4507009
  39.3141743   9.8387952  28.8019820  39.1040188  10.1931548  28.1358874
  26.5737859  17.6302139  27.5737373  26.4681308  17.5848983  26.7089457
  25.8238079  17.9755919  27.8551658  26.4473462  17.6743047  27.4874703
  35.3431592   9.0741462  27.5199973  35.3829963   9.5750668  28.2334681
  34.5181256   9.1651856  27.2505896  35.2271118   9.1623278  27.5850512
  37.5261205  18.6402202  35.6220268  36.6756835  18.7773916  35.7577913
  37.6889332  17.9065980  36.0667970  37.4245068  18.5516303  35.7075867
  36.7645955  15.5901972  29.8173872  35.9337885  15.7575790  29.6109120
  36.7097472  15.2137922  30.6022758  36.6335370  15.5591703  29.9022400
  34.5729738   9.0810865  35.4530283  35.1982442   8.5372997  35.7259715
  34.1180218   8.6005782  34.8838073  34.5977999   8.9300346  35.4091877
  35.1381999  13.8657563  20.3463990  35.2784960  14.3630027  21.0492631
  35.6364532  13.1643858  20.4878204  35.2323080  13.8359542  20.4715569
  35.1682221  14.7324674  17.6756567  35.8027301  15.3285099  17.6106029
  35.2507832  14.4328132  18.4902437  35.2738772  14.7765582  17.7859653
  48.1464787  17.2640152  30.5442931  48.7382627  17.9037402  30.5761129
  48.5823782  16.5663188  30.8334998  48.2983218  17.2558502  30.5923764
  36.7461204  10.6638650  17.6502009  37.0677045  10.1841732  16.9961271
  37.0088148  11.4738296  17.4592821  36.8327230  10.7128548  17.5257501
  42.1420359  10.0510844  30.0125488  42.5675431   9.5983370  29.4009014
  41.5277352   9.4970914  30.2890275  42.1149005   9.9024820  29.9630513
  31.6735209  16.9292515  20.9446113  32.1827439  17.5257023  21.3257418
  32.1469482  16.6618489  20.2622533  31.8178585  16.9778330  20.9000636
  42.5865957  25.6020782  19.1004768  41.8695267  25.4281644  18.6352006
  43.2372695  25.3673354  18.5680254  42.5767808  25.5416574  18.9533986
  40.5814582   6.5225943  23.4216065  39.9382900   6.3723590  23.9901203
  40.2413989   6.2768289  22.6565170  40.4359659   6.4638066  23.3919080
  45.1713929  14.4785370  22.8446074  44.5005118  15.0215072  22.7159139
  45.8653679  14.9480226  22.6027768  45.1742796  14.6283641  22.7901601
  39.2200662  26.6182082  28.0757832  38.9966317  25.8600911  28.4441858
  38.7310506  26.6480103  27.3538272  39.1144111  26.5104307  28.0234573
  45.3342056  10.9341254  25.7536447  45.6869666  10.5070977  26.4282246
  44.4756857  10.8492097  25.8837523  45.2591501  10.8585995  25.8731457
  34.0325741  13.5648774  23.8119293  33.3137730  13.9812906  24.0792157
  34.4038103  14.1303012  23.2610931  33.9817673  13.7098055  23.7702100
  43.3325322  14.1976622  29.7021289  43.3123249  14.0159918  30.5556068
  43.3804523  15.0688641  29.6780873  43.3359963  14.2993161  29.8244584
  41.2344413  25.9972626  26.2818533  40.8360697  26.1074896  25.5139353
  40.6195633  26.2054692  26.8645093  41.0843303  26.0446194  26.2549832
  39.8072315  12.6046773  19.1492673  39.2137155  12.9263770  18.5977240
  39.8447593  11.7587869  18.9413779  39.7246704  12.5271102  19.0375444
  46.7666116   6.0559666  26.6820759  46.2596981   5.3488805  26.6141937
  47.5633550   5.7252855  26.8121836  46.8093355   5.9032817  26.6919754
  42.6830132  12.5626278  22.5794423  42.4543825  12.5858979  21.7372781
  42.9428208  11.7383745  22.6989434  42.6876320  12.4442358  22.4719621
  36.9649360  14.4160751  32.1819523  36.4528263  13.8081934  32.5404555
  36.7928857  15.1317344  32.6493499  36.8638997  14.4324050  32.3035747
  31.8115075  12.8598326  34.8321885  31.6417665  13.5199701  34.2870092
  31.3681025  13.0704888  35.5534374  31.7214409  12.9884308  34.8583514
  35.7374894  11.1002824  23.8748619  36.2132261  11.4619904  23.2398800
  35.2363494  11.7559292  24.1548761  35.7340253  11.2497013  23.8225360
  48.9686256  20.5724592  19.6661624  49.3519862  21.3215948  19.8959721
  48.1730369  20.8190412  19.4073613  48.9080038  20.7194286  19.6619197
  40.8418431  12.3384996  34.6221779  41.3989861  12.1098805  33.9900244
  40.5179496  13.0990661  34.3456991  40.8764841  12.4168832  34.4878276
  38.5601548  15.4252649  35.5873786  39.3112875  15.7404326  35.9013340
  38.7524124  15.2231820  34.7607708  38.6992962  15.4420031  35.5117182
  37.7801548  13.2444024  17.2422003  38.1600512  13.2623653  16.4573117
  37.0394144  13.6898013  17.1212850  37.7270385  13.3125799  17.1085571
  45.4086838  11.5526215  22.8297581  45.4081065  11.3974872  23.6881858
  45.2043018  12.3989202  22.7738967  45.3786616  11.6546836  22.9485521
  27.4704109  14.9766000  27.2456398  27.2925870  14.5242609  27.9711313
  27.1823131  15.7792161  27.4294875  27.4017062  15.0288557  27.3799901
  43.1327690  16.2323717  26.4833788  43.6281355  15.5146712  26.4437808
  42.3227466  15.9294515  26.3688275  43.0871583  16.0821363  26.4607514
  38.5786302  20.0821530  18.6330793  37.7697624  19.7588204  18.5864102
  39.0861211  19.3754752  18.5659041  38.5335968  19.9302847  18.6161087
  29.2076579  17.5093723  24.3578157  28.3422098  17.4979414  24.2460928
  29.3075395  17.3223946  25.2049296  29.0950746  17.4799785  24.4667101
  45.1979509  18.9827405  29.1710917  45.6234581  18.4601826  28.6181342
  44.8336429  19.5808242  28.6499540  45.2066112  18.9937632  29.0119927
  41.7858108  22.6961669  25.5012074  42.2569287  23.4101931  25.6702060
  42.1218287  22.0960419  26.0371944  41.9053224  22.7133133  25.6044450
  38.7027603   7.4689139  32.4570169  38.8355509   6.6720133  32.7851145
  39.0872756   7.9955542  33.0368445  38.7783932   7.4289056  32.5913672
  41.7759959   4.3919466  29.0551262  40.9705922   4.2817195  29.3719101
  41.6466694   4.4931921  28.1981128  41.6380091   4.3903136  28.9759303
  45.2325919  10.5564957  29.6490959  44.6488908  11.0574164  29.2368527
  45.5530213  10.0494514  29.0155283  45.1939094  10.5556792  29.4949467
  37.7720718   9.4705552  19.9249634  38.5936413   9.6403865  19.6831329
  37.3090369   9.6252813  19.2015932  37.8251881   9.5187285  19.7821278
  36.3616050   7.4648314  30.7048063  36.9060463   7.1239441  31.2952405
  36.4152986   8.3233776  30.8469348  36.4505170   7.5403574  30.8129936
  32.1746609  21.2264730  27.5786871  32.7791466  21.1860565  26.9500692
  31.9673921  22.0735883  27.6090927  32.2335506  21.3452733  27.4902987
  41.9890381  23.4930676  28.7949108  42.8088755  23.3493642  29.0565403
  41.7084459  24.1176875  29.3365546  42.0687124  23.5641028  28.9137048
  27.4097891  20.2099348  27.4485794  27.3122169  19.3995619  27.7575851
  28.1926761  20.1891141  27.0632062  27.5114028  20.0866438  27.4372657
  58.4604031  31.1495527  21.7591985  58.4298036  32.0040164  21.9310254
  59.0585380  30.8490820  22.3178128  58.5441189  31.2312024  21.8666787
  51.6603716  30.2371178  26.5144915  50.8041612  30.3979677  26.5654032
  51.7071370  29.3663242  26.5349976  51.5402828  30.1321980  26.5250981
  51.4969816  40.1959266  17.7067694  51.1621184  40.8736187  17.2711916
  52.0096686  39.8064577  17.1184565  51.5235397  40.2383844  17.5554485
  54.5055537  32.2963222  29.1576567  55.0511497  32.9748309  29.2170536
  54.4472414  32.1550683  28.2978148  54.5771452  32.3755224  29.0388627
  56.2820606  33.7247829  20.0310294  56.1660132  34.4755515  20.4602433
  57.0776493  33.4671783  20.2806382  56.3825195  33.7982676  20.1314386
  40.8194657  35.8072575  24.1697253  40.5844841  34.9740227  24.0629522
  40.9580297  36.0877241  23.3558454  40.8050319  35.7256078  24.0339608
  43.1184744  27.9758306  27.0681560  42.4989776  27.3850953  26.8991575
  43.0168608  28.5669741  26.4345884  43.0122419  27.9762388  26.9486550
  48.1650932  37.7141852  21.3179637  48.4866773  38.2547060  20.7140945
  48.8123028  37.1438624  21.4501927  48.3076987  37.7101028  21.2486672
  50.2152640  29.7157847  21.4014024  50.9132804  29.8945975  21.8935487
  50.5304972  29.1928187  20.7784413  50.3647977  29.6651619  21.3816034
  50.4040575  36.1028292  21.3893815  50.8434210  35.4945393  21.8348588
  50.2545238  35.7235666  20.6179280  50.4462041  35.9566763  21.3412982
  48.3879503  25.0850244  25.4835298  48.0582833  25.5361388  24.8138997
  47.7124505  25.0066407  26.0308305  48.2389939  25.1401379  25.4658521
  54.0049912  34.4555474  18.3424584  53.9201207  35.3116440  18.4874153
  54.4934295  34.1799798  19.0106743  54.0638809  34.5412795  18.4626666
  55.5955911  21.0735767  23.7284909  55.2809352  21.7639246  24.1605331
  55.0782853  21.0180549  23.0270410  55.4720381  21.1670655  23.6881858
  54.9368345  31.0740268  19.8422319  54.4079816  31.2899901  20.5019626
  55.4593365  31.7676406  19.7623289  54.9356798  31.2083405  19.9277919
  60.3916398  36.6486572  25.2155364  59.5614101  36.8597216  25.3788780
  60.3425650  35.8223627  24.9397647  60.2623133  36.5576179  25.1992729
  46.8267953  34.9703485  18.6429787  46.2425168  35.4753516  19.0495651
  46.4238048  34.7445872  17.9026379  46.6807256  35.0111733  18.5934813
  51.2845167  31.2169137  17.1198708  51.5241171  31.4247120  16.3074051
  51.6061008  30.4126645  17.2287653  51.3682325  31.1283238  17.0159261
  46.5935457  23.1462532  20.9658246  47.3481425  23.5140849  20.7275296
  46.4162992  23.5202087  21.7337426  46.6789936  23.2560720  21.0443134
  59.8870356  29.2956973  29.0105785  59.0498777  29.3659160  29.2453380
  59.8558587  29.2981468  28.1380088  59.7588638  29.3067200  28.9165333
  44.9492522  25.5532851  17.6636359  44.7668095  25.7704732  16.8377352
  45.8118135  25.6671864  17.7194973  45.0497111  25.6022749  17.5490846
  50.6292241  22.5559262  20.6985383  51.3578402  22.3775217  20.2523539
  50.7187134  23.3977342  20.9092561  50.7498903  22.6543140  20.6638900
  54.6100542  33.4912649  24.6017677  55.3658057  33.9244164  24.6406585
  54.7162866  32.8417419  25.1752313  54.7370712  33.4590133  24.6915702
  57.6480713  37.3185927  25.3520080  57.2115945  37.3222669  26.1079051
  57.3143628  37.9991426  24.9199657  57.5343333  37.4198382  25.4000912
  57.5678196  24.3599755  27.5949508  58.2104104  24.4297859  28.1811423
  57.8201216  23.6928977  27.0929050  57.7000328  24.2726103  27.6076787
  44.4954549  28.8307024  16.1758832  43.7812726  28.5445204  16.5881264
  44.9798518  29.1703650  16.8165219  44.4613912  28.8388674  16.3314467
  60.7825059  34.0366847  24.2439717  61.4441493  33.4757515  24.1435625
  60.1416471  33.5418877  24.5692408  60.7853927  33.8803256  24.2772057
  51.6701867  37.3336978  16.5520640  52.0853015  37.0022002  15.8605136
  50.8393796  37.1005880  16.4240777  51.6089876  37.2508234  16.4311488
  57.0689890  35.0532229  23.9851706  57.3045479  35.1977428  23.1578556
  57.2179453  35.8174637  24.3783219  57.1255693  35.1871283  23.9215310
  58.8980347  33.8933895  21.8221309  59.2288564  34.4261535  21.2161404
  59.4713435  33.9472783  22.4783260  59.0314026  33.9803464  21.8299091
  54.1112236  31.7398798  22.5044890  54.2059090  32.4788092  22.9584515
  53.4871079  31.3116273  22.9379454  54.0321266  31.7860118  22.6353037
  54.3635257  33.5847537  15.7381842  54.2815419  33.6549725  16.6036829
  55.0014977  34.1477281  15.5465582  54.4455094  33.6786509  15.8371791
  52.8029478  25.4536726  25.3060461  52.0985805  24.9645912  25.4644380
  52.8514453  25.4659201  24.4348905  52.7059530  25.3826374  25.1999800
  46.6963140  30.9046038  25.6921263  46.1212732  31.0638206  26.3285224
  46.3198817  30.2681447  25.2289713  46.5565953  30.8343851  25.7175821
  60.0059698  29.1344392  23.3261471  59.7496263  28.3224333  23.1359354
  60.8489012  29.1421959  23.0991658  60.0925723  29.0156389  23.2646288
  54.1862790  23.0744016  28.0637625  54.5673302  22.3922187  28.4505500
  53.3826075  22.7853618  27.8813290  54.1239252  22.9311064  28.0941681
  51.4675367  33.6067992  18.7490448  52.2816006  33.8982885  18.6373219
  51.4034508  32.9527854  18.1748741  51.5778106  33.5533186  18.6479285
  47.3383275  37.0789509  23.8762760  47.9757222  36.8401257  24.4214554
  47.7638347  37.2826668  23.1415921  47.4959442  37.0740519  23.8479917
  47.9786090  32.2991799  18.2137650  48.3631243  32.0799506  18.9654195
  47.7297711  33.1254744  18.3438726  47.9988163  32.3889945  18.3438726
  58.7121278  36.0738437  29.2248318  58.4067095  36.8066493  29.5861634
  57.9927494  35.6676366  28.9441104  58.5608620  36.1220170  29.2361455
  64.4123070  32.7131437  28.5516662  64.3447570  32.7327396  27.6819249
  64.3978733  33.5561765  28.7772333  64.4001827  32.8405172  28.4569139
  45.6986528  23.9688736  23.5446430  44.8308953  24.0411335  23.6104039
  45.9861732  24.7710815  23.7334405  45.6126276  24.0982883  23.5821197
  54.8219417  24.1166595  31.8757752  55.5673009  23.9276405  31.4621177
  54.4056721  24.6424833  31.3171608  54.8704391  24.1668740  31.7322325
  48.2609333  40.5196675  20.2870020  48.5507631  40.1285656  19.5629246
  48.9912814  40.7013380  20.7275295  48.4116217  40.4890489  20.2452827
  62.1981687  31.4875824  26.8263257  62.7489609  30.8543893  27.0660349
  62.1825803  32.0191216  27.5178761  62.2766884  31.4724772  26.9642115
  55.9010094  29.7272157  25.9367853  55.5574860  29.0062492  26.2875103
  56.0003136  29.5186008  25.0946211  55.8652136  29.5896360  25.8639533
  48.3683204  43.8693447  22.1360862  49.0207262  43.3369890  22.3651888
  47.6708813  43.5162100  22.5228736  48.3613922  43.7382970  22.2273030
  45.3164469  36.2232625  21.5428236  46.0710437  36.6045664  21.7563699
  44.7235082  36.6743768  21.9974933  45.3401183  36.3461452  21.6411115
  56.3623123  36.1897861  21.4791841  56.9281155  36.8491071  21.3950384
  55.7151026  36.5347559  21.9508243  56.3501879  36.3379803  21.5364598
  43.6253880  27.4446995  20.9863306  43.3378676  27.0748265  20.2495254
  44.3124348  27.9141850  20.7247011  43.6842777  27.4593964  20.8378382
  52.8329701  39.1336645  20.9028920  52.5916377  38.4004506  20.4955985
  53.0131034  39.6823502  20.2495254  52.8237325  39.1059037  20.7459143
  48.0629021  34.4245205  22.3149843  47.8671804  35.0319940  21.7210146
  48.2863367  33.7313149  21.8341517  48.0663662  34.4122731  22.1565923
  46.4607551  31.3099943  22.4330711  47.1830203  31.4741101  21.9734517
  45.9815544  32.0309608  22.3270051  46.4971282  31.4398173  22.3496325
  54.4201059  27.6463742  27.8127396  53.5812160  27.6725021  27.5765659
  54.4905426  28.2934477  28.3932743  54.3069453  27.7459868  27.8636513
  52.8670337  24.5449119  22.5455012  53.5696690  24.3456867  22.0674970
  52.6014526  23.7725061  22.8523855  52.9316970  24.4012085  22.5200453
  58.2958583  32.8531729  25.0988638  58.2092557  33.0087155  25.9523417
  57.8409063  33.4969804  24.7248043  58.2161840  32.9707484  25.1695744
  41.1982074  28.2228207  21.8348587  41.2998211  29.0254369  22.1629563
  41.9937961  28.0215543  21.5371668  41.3309980  28.3114106  21.8383943
  52.1684399  30.1742476  23.7214197  51.9219113  30.0938227  24.5550986
  52.4969522  29.3895944  23.5276725  52.1805643  30.0468741  23.8161720
  56.0632448  36.8825835  27.5100978  55.9246807  37.5806881  28.0149721
  55.2832446  36.7274492  27.1537160  55.9275675  36.9626002  27.5327253
  50.3001344  32.1089363  30.9162312  49.5524658  32.3020377  30.5110590
  50.4542869  31.2834582  30.6786433  50.2123771  32.0154474  30.8207718
  57.5585821  36.2404089  18.2717478  57.1792629  35.4541227  18.2646767
  56.8952066  36.7890946  18.1289122  57.4044295  36.2048913  18.2498275
  55.0130447  19.1829789  25.6751559  55.1314015  19.6406252  24.9418861
  54.8392622  18.3775050  25.3887776  55.0049618  19.1323561  25.5252492
  50.3832729  39.7917608  22.1106304  51.1482620  39.5227252  21.7888968
  50.2810819  39.3067618  22.8276367  50.4814224  39.6807173  22.1686132
  48.4185499  27.9942017  28.6499540  47.6281573  27.8133478  28.9716875
  48.8146121  27.2168970  28.6329834  48.3602375  27.8529478  28.6952088
  52.9051389  36.8229792  14.0906253  53.6724374  36.8829917  13.6812105
  52.4582698  36.2510233  13.6062572  52.9524817  36.7466367  13.9583964
  53.8029185  35.6284448  26.3758986  53.1274187  35.3969680  26.8772373
  53.8121561  35.0205630  25.7501091  53.7047689  35.5043373  26.3575138
  55.8045919  38.4849580  18.6069164  55.8865757  39.2916566  18.2830614
  56.2895662  38.5045539  19.3309937  55.8883077  38.6070242  18.6656062
  44.9024868  33.6586467  22.7067214  45.0589487  33.5933270  23.5623206
  45.2425461  34.4335020  22.4945894  44.9758103  33.7635665  22.8021808
  51.4404012  33.0344351  21.5760577  51.9819558  32.5314732  22.0399198
  51.7550571  32.9809546  20.7650062  51.5668409  32.9523772  21.5244389
  49.6090462  38.4261702  18.8600605  49.6783282  37.5676241  18.9993606
  50.3878917  38.6433583  18.5319630  49.7343312  38.3314566  18.8317763
  53.9997950  40.8499404  23.0737099  53.6077741  40.5466119  22.3559965
  54.1551022  41.6868494  22.8842052  53.9651539  40.9283240  22.9393596
  54.7532370  29.5369721  32.5666185  53.9409051  29.2295611  32.6479358
  55.2122304  29.0568721  33.1308897  54.7012754  29.4206213  32.6620779
  54.1637624  37.4149393  23.0143129  53.8052279  37.5864035  23.7907162
  53.6776335  37.8762598  22.4571128  54.0396321  37.5088364  23.0468398
  51.9808010  21.0380591  26.6170221  51.1101568  21.0119312  26.5703530
  52.2348352  20.8657783  25.7996066  51.8901570  21.0090735  26.4890357
  48.9525990  33.0948558  15.5543364  49.2418515  33.8713440  15.8286938
  49.0397789  32.5837289  16.2557863  49.0080246  33.1340476  15.6985861
  49.0057151  23.0486819  28.0743691  48.4895639  22.3567011  28.1995270
  48.4451080  23.7157597  28.0206290  48.8463664  23.0450077  28.0849757
  51.0749384  23.5879780  29.9036543  50.6881137  23.6128811  30.6850073
  50.5882322  23.0221458  29.4511060  50.9461893  23.5075530  29.9524447
  57.0499364  30.1542434  28.5276246  56.6226972  30.0668783  27.7724345
  56.4125417  30.2620210  29.1131090  56.8928971  30.1575094  28.5021687
  50.7406526  20.4746765  32.1946803  51.3699644  21.0107065  31.9167874
  50.9092389  20.3824124  33.0460369  50.8584321  20.5408127  32.2795331
  42.5965498  30.0301359  25.4828226  42.2022195  30.1044371  24.7078336
  42.0405615  30.4159306  26.0336588  42.4568310  30.0983134  25.4495886
  54.2330444  23.0082653  25.1632105  54.4380038  22.9404961  26.0089102
  53.9056868  23.8141475  25.0953283  54.2145692  23.1168594  25.2791760
  48.9306596  30.3363222  26.9041073  48.6269733  29.7819210  27.5051481
  48.2286016  30.5155432  26.4169107  48.7822805  30.2808004  26.9210779
  47.9872693  27.6463741  21.4685775  48.2632427  26.9282654  21.0563342
  48.5871362  28.2448661  21.2606881  48.1165957  27.6284112  21.3766536
  57.4864132  23.5614418  24.6434871  56.8738446  24.0484820  25.0288602
  57.5828307  22.8857909  25.1872522  57.4102030  23.5332726  24.7813729
  51.4883213  25.3177259  19.7432370  51.9426960  25.4887819  20.4680215
  51.9623259  24.7045370  19.3430146  51.6251533  25.2528144  19.7906132
  45.4059361  25.9627583  29.7403126  45.8660843  26.0366512  30.4778250
  45.4515468  26.7608837  29.3902947  45.4809917  26.0921730  29.7975883
  61.1289160  34.6331355  30.0712387  61.1872284  35.0818003  30.8172363
  60.4955628  35.0430167  29.6342467  61.0440455  34.7605089  30.1164935
  54.7688255  40.2534896  26.5067133  54.5707943  40.7425711  25.8123344
  54.1475966  40.4576138  27.0851266  54.6475819  40.3551435  26.4890356
  48.8296233  32.0219793  20.8477377  49.5738278  32.4094070  21.0860327
  48.9756929  31.1777219  21.0117865  48.9606818  31.9550266  20.9071347
  50.7475809  23.8170052  25.8809239  49.9011854  23.9892860  25.7550588
  50.7446941  23.0119396  26.2175067  50.6222959  23.7231081  25.9120366
  51.8174109  27.5945267  26.7471297  51.3434063  27.0687029  27.2576607
  52.1892245  27.0474739  26.1786158  51.8023998  27.4361263  26.7386444
  58.0810840  32.6547642  28.1578077  57.8409062  31.8154057  28.1620504
  58.5602847  32.7347809  28.8818851  58.1163023  32.5429042  28.2652879
  53.7457609  28.4881821  19.8097050  53.2180627  28.5710565  19.1202759
  54.2053317  29.2299693  19.8061695  53.7359459  28.6102484  19.7071746
  60.0816027  29.4349099  26.1107336  59.8425797  29.3944934  25.2728121
  60.2449928  30.2820251  26.2373057  60.0706330  29.5541184  26.0060818
  56.6862057  33.8199049  32.0412381  57.4096256  33.3671575  31.8623401
  56.4212019  34.1003714  31.2584709  56.7543330  33.7950017  31.8991097
  45.5548925  28.4159222  28.7765261  44.9301995  28.4277614  28.1691213
  45.2194520  28.8919397  29.4256501  45.4134417  28.4877739  28.7821829
  45.7390674  26.7584341  14.8337946  45.3903478  27.4104066  15.2969495
  45.2587120  26.7441454  14.1061817  45.6160918  26.8527394  14.7949037
  53.2994691  37.0585385  18.9406707  54.0228890  37.5243498  18.7971281
  52.8595282  37.1258994  18.1904304  53.3410383  37.1369221  18.8091489
  52.7659974  22.1913606  31.5490919  52.2700535  22.3877280  30.8582485
  53.5229036  22.5906274  31.3779720  52.8046798  22.2791339  31.4211055
  50.0362853  25.8655952  28.1394229  50.0605340  25.3316064  27.4507009
  50.2874327  25.3573260  28.8019820  50.0772772  25.7116855  28.1358874
  46.3164175  24.5926770  27.5199973  46.3562547  25.0935976  28.2334681
  45.4913840  24.6837163  27.2505896  46.2003701  24.6808586  27.5850512
  46.1114583  29.3842871  20.3463990  46.2517544  29.8815335  21.0492631
  46.6097115  28.6829166  20.4878204  46.2055663  29.3544850  20.4715569
  46.1414805  30.2509982  17.6756567  46.7759884  30.8470407  17.6106029
  46.2240416  29.9513440  18.4902437  46.2471356  30.2950890  17.7859653
  59.1197371  32.7825460  30.5442931  59.7115211  33.4222710  30.5761129
  59.5556365  32.0848496  30.8334998  59.2715802  32.7743810  30.5923764
  47.7193788  26.1823958  17.6502009  48.0409629  25.7027040  16.9961271
  47.9820732  26.9923604  17.4592821  47.8059813  26.2313855  17.5257501
  53.1152943  25.5696152  30.0125488  53.5408014  25.1168678  29.4009014
  52.5009936  25.0156222  30.2890275  53.0881588  25.4210128  29.9630513
  42.6467793  32.4477823  20.9446113  43.1560022  33.0442330  21.3257418
  43.1202065  32.1803797  20.2622533  42.7911169  32.4963638  20.9000636
  53.5598541  41.1206090  19.1004768  52.8427851  40.9466952  18.6352006
  54.2105278  40.8858662  18.5680254  53.5500391  41.0601882  18.9533986
  51.5547166  22.0411251  23.4216065  50.9115484  21.8908898  23.9901203
  51.2146573  21.7953597  22.6565170  51.4092243  21.9823374  23.3919080
  56.1446512  29.9970678  22.8446074  55.4737702  30.5400380  22.7159139
  56.8386262  30.4665533  22.6027768  56.1475380  30.1468949  22.7901601
  56.3074640  26.4526562  25.7536447  56.6602250  26.0256285  26.4282246
  55.4489441  26.3677405  25.8837523  56.2324084  26.3771302  25.8731457
  45.0058325  29.0834081  23.8119293  44.2870314  29.4998214  24.0792157
  45.3770687  29.6488320  23.2610931  44.9550256  29.2283363  23.7702100
  54.3057905  29.7161930  29.7021289  54.2855833  29.5345226  30.5556068
  54.3537106  30.5873949  29.6780873  54.3092546  29.8178469  29.8244584
  50.7804899  28.1232081  19.1492673  50.1869738  28.4449078  18.5977240
  50.8180177  27.2773177  18.9413779  50.6979288  28.0456410  19.0375444
  57.7398700  21.5744974  26.6820759  57.2329564  20.8674113  26.6141937
  58.5366133  21.2438162  26.8121836  57.7825939  21.4218125  26.6919754
  53.6562716  28.0811586  22.5794423  53.4276409  28.1044287  21.7372781
  53.9160792  27.2569053  22.6989434  53.6608904  27.9627666  22.4719621
  46.7107478  26.6188132  23.8748619  47.1864844  26.9805212  23.2398800
  46.2096078  27.2744600  24.1548761  46.7072837  26.7682321  23.8225360
  59.9418840  36.0909900  19.6661624  60.3252445  36.8401256  19.8959721
  59.1462953  36.3375720  19.4073613  59.8812622  36.2379594  19.6619197
  48.7534131  28.7629332  17.2422003  49.1333096  28.7808961  16.4573117
  48.0126727  29.2083321  17.1212850  48.7002969  28.8311107  17.1085571
  56.3819422  27.0711523  22.8297581  56.3813648  26.9160180  23.6881858
  56.1775602  27.9174510  22.7738967  56.3519200  27.1732144  22.9485521
  54.1060274  31.7509025  26.4833788  54.6013939  31.0332020  26.4437808
  53.2960049  31.4479823  26.3688275  54.0604167  31.6006671  26.4607514
  49.5518885  35.6006838  18.6330793  48.7430208  35.2773512  18.5864102
  50.0593794  34.8940060  18.5659041  49.5068552  35.4488155  18.6161087
  56.1712093  34.5012712  29.1710917  56.5967164  33.9787134  28.6181342
  55.8069012  35.0993550  28.6499540  56.1798695  34.5122939  29.0119927
  52.7590692  38.2146977  25.5012074  53.2301870  38.9287239  25.6702060
  53.0950871  37.6145727  26.0371944  52.8785807  38.2318441  25.6044450
  49.6760187  22.9874447  32.4570169  49.8088093  22.1905441  32.7851145
  50.0605340  23.5140850  33.0368445  49.7516516  22.9474364  32.5913672
  52.7492542  19.9104773  29.0551262  51.9438506  19.8002503  29.3719101
  52.6199278  20.0117229  28.1981128  52.6112675  19.9088444  28.9759303
  56.2058503  26.0750265  29.6490959  55.6221492  26.5759472  29.2368527
  56.5262797  25.5679822  29.0155283  56.1671678  26.0742100  29.4949467
  48.7453302  24.9890860  19.9249634  49.5668996  25.1589173  19.6831329
  48.2822953  25.1438121  19.2015932  48.7984464  25.0372593  19.7821278
  47.3348634  22.9833622  30.7048063  47.8793047  22.6424749  31.2952405
  47.3885570  23.8419084  30.8469348  47.4237753  23.0588882  30.8129936
  69.4336615  46.6680835  21.7591985  69.4030619  47.5225472  21.9310254
  70.0317964  46.3676128  22.3178128  69.5173773  46.7497332  21.8666787
  62.6336300  45.7556486  26.5144915  61.7774195  45.9164985  26.5654032
  62.6803954  44.8848550  26.5349976  62.5135411  45.6507288  26.5250981
  57.0177440  55.2919204  22.2782147  56.2660339  54.9134742  22.0498192
  57.4663451  55.3237638  21.5300957  56.9727106  55.2404811  22.1339649
  65.9430016  52.0243012  36.1205371  66.6496784  51.5295043  36.2492306
  66.1317952  52.4652093  35.3908029  66.0757922  52.0161362  36.0314417
  62.4702399  55.7144574  17.7067694  62.1353768  56.3921495  17.2711916
  62.9829270  55.3249885  17.1184565  62.4967981  55.7569152  17.5554485
  62.0106691  57.6658842  23.6478805  62.3946070  58.2345741  23.1083581
  61.9465832  56.9408353  23.1684621  62.0580118  57.6434306  23.4972668
  65.4788121  47.8148530  29.1576567  66.0244081  48.4933617  29.2170536
  65.4204997  47.6735991  28.2978148  65.5504035  47.8940532  29.0388627
  58.5962196  55.3037596  24.5444919  58.6972559  54.4937950  24.8542047
  58.0003941  55.2094543  23.9144598  58.5234734  55.1702624  24.4971158
  67.2553190  49.2433137  20.0310294  67.1392715  49.9940823  20.4602433
  68.0509076  48.9857091  20.2806382  67.3557779  49.3167984  20.1314386
  58.4362935  60.2215185  25.9459775  59.0800391  60.6628350  26.3355934
  58.7619191  59.4168612  25.8590034  58.5794764  60.1680380  25.9905252
  51.7927240  51.3257883  24.1697253  51.5577424  50.4925535  24.0629522
  51.9312881  51.6062549  23.3558454  51.7782903  51.2441386  24.0339608
  59.1383515  53.2327160  21.3179637  59.4599356  53.7732368  20.7140945
  59.7855612  52.6623932  21.4501927  59.2809570  53.2286335  21.2486672
  61.1885223  45.2343155  21.4014024  61.8865388  45.4131283  21.8935487
  61.5037556  44.7113495  20.7784413  61.3380560  45.1836927  21.3816034
  61.3773159  51.6213600  21.3893815  61.8166794  51.0130701  21.8348588
  61.2277821  51.2420974  20.6179280  61.4194624  51.4752071  21.3412982
  61.3830893  53.0612518  28.2419533  61.6654136  52.2663924  28.0206289
  62.1117053  53.5393105  28.2624594  61.5320457  53.0147115  28.2122548
  59.3612087  40.6035552  25.4835298  59.0315417  41.0546696  24.8138997
  58.6857089  40.5251715  26.0308305  59.2122523  40.6586687  25.4658521
  64.9782495  49.9740782  18.3424584  64.8933790  50.8301748  18.4874153
  65.4666878  49.6985106  19.0106743  65.0371392  50.0598103  18.4626666
  66.5688495  36.5921075  23.7284909  66.2541936  37.2824553  24.1605331
  66.0515436  36.5365857  23.0270410  66.4452965  36.6855963  23.6881858
  65.9100928  46.5925576  19.8422319  65.3812400  46.8085209  20.5019626
  66.4325948  47.2861714  19.7623289  65.9089381  46.7268713  19.9277919
  71.3648981  52.1671880  25.2155364  70.5346684  52.3782524  25.3788780
  71.3158234  51.3408935  24.9397647  71.2355717  52.0761487  25.1992729
  57.8000536  50.4888793  18.6429787  57.2157751  50.9938824  19.0495651
  57.3970631  50.2631179  17.9026379  57.6539840  50.5297041  18.5934813
  59.4258719  54.9975734  28.0503273  58.9085660  54.6383149  27.4464581
  60.1233110  54.4737909  28.0609340  59.4524300  54.8673422  27.9633532
  63.0822311  55.4470548  34.0119446  63.1705657  55.2596689  34.8597657
  63.5112023  54.8007978  33.6124293  63.1584413  55.3233556  34.0791198
  60.6492771  54.7301708  32.9937109  60.0863605  54.3174318  33.5176770
  61.4113794  54.6554614  33.4130252  60.6787219  54.6579109  33.1330109
  62.2577751  46.7354445  17.1198708  62.4973754  46.9432428  16.3074051
  62.5793592  45.9311953  17.2287653  62.3414908  46.6468546  17.0159261
  57.5668041  38.6647840  20.9658246  58.3214009  39.0326157  20.7275296
  57.3895575  39.0387395  21.7337426  57.6522519  38.7746028  21.0443134
  56.2088762  56.7199730  25.5973739  56.9109341  56.2051719  25.6546495
  56.1286245  57.0473881  26.4020614  56.3012522  56.6913956  25.7246531
  70.8602940  44.8142281  29.0105785  70.0231361  44.8844468  29.2453380
  70.8291170  44.8166776  28.1380088  70.7321222  44.8252508  28.9165333
  55.9225105  41.0718159  17.6636359  55.7400679  41.2890040  16.8377352
  56.7850718  41.1857172  17.7194973  56.0229695  41.1208057  17.5490846
  55.5339537  52.9106082  25.1059347  56.3728437  53.1429014  25.1533108
  55.5651307  52.0410393  25.0366382  55.6621255  52.8163028  25.1023991
  61.6024825  38.0744570  20.6985383  62.3310985  37.8960525  20.2523539
  61.6919718  38.9162650  20.9092561  61.7231487  38.1728448  20.6638900
  65.5833125  49.0097957  24.6017677  66.3390640  49.4429472  24.6406585
  65.6895450  48.3602727  25.1752313  65.7103296  48.9775441  24.6915702
  68.6213296  52.8371235  25.3520080  68.1848528  52.8407977  26.1079051
  68.2876212  53.5176734  24.9199657  68.5075916  52.9383690  25.4000912
  68.5410779  39.8785062  27.5949508  69.1836688  39.9483167  28.1811423
  68.7933800  39.2114285  27.0929050  68.6732911  39.7911411  27.6076787
  55.4687132  44.3492332  16.1758832  54.7545310  44.0630511  16.5881264
  55.9531101  44.6888958  16.8165219  55.4346496  44.3573982  16.3314467
  63.3512763  56.7889670  30.3229686  62.5528009  56.5489170  30.5803554
  63.7998775  56.8404062  31.0696733  63.2987375  56.7612061  30.4714610
  71.7557643  49.5552155  24.2439717  72.4174077  48.9942823  24.1435625
  71.1149055  49.0604185  24.5692408  71.7586510  49.3988564  24.2772057
  62.6434450  52.8522286  16.5520640  63.0585599  52.5207310  15.8605136
  61.8126380  52.6191188  16.4240777  62.5822459  52.7693542  16.4311488
  68.0422473  50.5717537  23.9851706  68.2778063  50.7162736  23.1578556
  68.1912037  51.3359945  24.3783219  68.0988277  50.7056591  23.9215310
  69.8712930  49.4119203  21.8221309  70.2021147  49.9446843  21.2161404
  70.4446018  49.4658091  22.4783260  70.0046609  49.4988772  21.8299091
  65.0844819  47.2584106  22.5044890  65.1791674  47.9973400  22.9584515
  64.4603663  46.8301581  22.9379454  65.0053849  47.3045426  22.6353037
  63.3397293  50.4370318  33.1535170  63.9136155  49.7997562  33.3083734
  63.2612097  50.4374401  32.2844828  63.4130528  50.3435430  33.0481581
  65.3367841  49.1032845  15.7381842  65.2548003  49.1735032  16.6036829
  65.9747561  49.6662589  15.5465582  65.4187678  49.1971816  15.8371791
  58.6961012  48.8693583  25.2056368  58.4380256  48.0365318  25.1787667
  58.7509495  49.0951196  24.3648868  58.6660790  48.7791355  25.0776505
  63.7762062  40.9722034  25.3060461  63.0718389  40.4831219  25.4644380
  63.8247036  40.9844508  24.4348905  63.6792113  40.9011682  25.1999800
  57.6695724  46.4231346  25.6921263  57.0945315  46.5823514  26.3285224
  57.2931400  45.7866755  25.2289713  57.5298536  46.3529159  25.7175821
  70.9792282  44.6529700  23.3261471  70.7228846  43.8409641  23.1359354
  71.8221596  44.6607267  23.0991658  71.0658307  44.5341697  23.2646288
  65.1595374  38.5929324  28.0637625  65.5405886  37.9107495  28.4505500
  64.3558658  38.3038926  27.8813290  65.0971836  38.4496372  28.0941681
  62.4407951  49.1253300  18.7490448  63.2548590  49.4168192  18.6373219
  62.3767092  48.4713162  18.1748741  62.5510690  49.0718494  18.6479285
  68.6617441  51.8079296  33.1620024  68.4256078  50.9767361  33.0432084
  69.3060670  51.7564903  33.7474868  68.7212112  51.6776984  33.2305917
  58.3115859  52.5974817  23.8762760  58.9489806  52.3586565  24.4214554
  58.7370931  52.8011976  23.1415921  58.4692025  52.5925827  23.8479917
  58.9518674  47.8177107  18.2137650  59.3363827  47.5984814  18.9654195
  58.7030294  48.6440052  18.3438726  58.9720747  47.9075253  18.3438726
  69.6853862  51.5923745  29.2248318  69.3799679  52.3251801  29.5861634
  68.9660077  51.1861674  28.9441104  69.5341204  51.6405478  29.2361455
  60.6937331  53.0747240  25.5556546  60.7676339  52.9122412  26.4098396
  61.5106837  53.2637429  25.3117028  60.8253690  53.0783982  25.6454572
  75.3855654  48.2316745  28.5516662  75.3180154  48.2512704  27.6819249
  75.3711316  49.0747072  28.7772333  75.3734410  48.3590480  28.4569139
  54.4543088  53.4205103  22.5850990  53.6281205  53.6666840  22.4585269
  54.5155079  53.3417183  23.4513048  54.3417255  53.4450052  22.6939934
  56.6719111  39.4874044  23.5446430  55.8041537  39.5596643  23.6104039
  56.9594316  40.2896122  23.7334405  56.5858859  39.6168191  23.5821197
  65.7952000  39.6351903  31.8757752  66.5405592  39.4461713  31.4621177
  65.3789305  40.1610141  31.3171608  65.8436974  39.6854048  31.7322325
  59.2341917  56.0381983  20.2870020  59.5240215  55.6470964  19.5629246
  59.9645398  56.2198688  20.7275295  59.3848801  56.0075797  20.2452827
  57.1747832  58.0149365  23.3530170  56.9548128  57.7246720  24.1456837
  56.9542354  57.3564320  22.8248082  57.1095426  57.8749074  23.3919078
  56.0864779  50.1022682  25.6185871  55.7978028  49.4760153  26.1531598
  56.9548128  50.0442969  25.6850552  56.1725031  50.0010226  25.7076826
  66.8742677  45.2457465  25.9367853  66.5307443  44.5247800  26.2875103
  66.9735720  45.0371316  25.0946211  66.8384720  45.1081668  25.8639533
  59.3415788  59.3878755  22.1360862  59.9939846  58.8555197  22.3651888
  58.6441397  59.0347407  22.5228736  59.3346506  59.2568278  22.2273030
  56.2897053  51.7417933  21.5428236  57.0443021  52.1230972  21.7563699
  55.6967665  52.1929076  21.9974933  56.3133766  51.8646760  21.6411115
  67.3355706  51.7083169  21.4791841  67.9013739  52.3676379  21.3950384
  66.6883610  52.0532867  21.9508243  67.3234463  51.8565110  21.5364598
  54.5986463  42.9632303  20.9863306  54.3111259  42.5933573  20.2495254
  55.2856932  43.4327158  20.7247011  54.6575361  42.9779272  20.8378382
  63.8062284  54.6521953  20.9028920  63.5648960  53.9189814  20.4955985
  63.9863617  55.2008810  20.2495254  63.7969908  54.6244345  20.7459143
  59.0361605  49.9430513  22.3149843  58.8404388  50.5505248  21.7210146
  59.2595951  49.2498457  21.8341517  59.0396246  49.9308039  22.1565923
  57.4340135  46.8285251  22.4330711  58.1562787  46.9926409  21.9734517
  56.9548128  47.5494916  22.3270051  57.4703866  46.9583481  22.3496325
  65.3933643  43.1649050  27.8127396  64.5544743  43.1910329  27.5765659
  65.4638010  43.8119785  28.3932743  65.2802036  43.2645176  27.8636513
  63.8402921  40.0634427  22.5455012  64.5429274  39.8642175  22.0674970
  63.5747110  39.2910369  22.8523855  63.9049553  39.9197393  22.5200453
  69.2691166  48.3717037  25.0988638  69.1825141  48.5272463  25.9523417
  68.8141646  49.0155112  24.7248043  69.1894423  48.4892792  25.1695744
  52.1714658  43.7413515  21.8348587  52.2730795  44.5439677  22.1629563
  52.9670545  43.5400851  21.5371668  52.3042564  43.8299414  21.8383943
  63.1416983  45.6927784  23.7214197  62.8951697  45.6123535  24.5550986
  63.4702106  44.9081252  23.5276725  63.1538226  45.5654049  23.8161720
  67.0365031  52.4011143  27.5100978  66.8979391  53.0992189  28.0149721
  66.2565029  52.2459800  27.1537160  66.9008258  52.4811310  27.5327253
  65.3743116  48.7007518  33.7623360  65.3691155  47.8287335  33.7665787
  66.0804110  48.8995688  33.2892816  65.4788120  48.6011393  33.6930396
  58.1741765  56.6187274  29.9998207  58.3231329  56.0590190  29.3471612
  58.9541767  56.6979276  30.3830726  58.3115858  56.5472840  29.9595156
  68.5318404  51.7589397  18.2717478  68.1525213  50.9726535  18.2646767
  67.8684650  52.3076254  18.1289122  68.3776879  51.7234221  18.2498275
  60.6995065  56.7901917  31.2782698  60.6238737  56.1210728  31.8333486
  60.6284925  57.4919705  31.7923364  60.6775672  56.7946824  31.4359546
  65.9863030  34.7015097  25.6751559  66.1046598  35.1591560  24.9418861
  65.8125206  33.8960358  25.3887776  65.9782201  34.6508869  25.5252492
  61.3565312  55.3102916  22.1106304  62.1215203  55.0412560  21.7888968
  61.2543402  54.8252926  22.8276367  61.4546808  55.1992481  22.1686132
  63.8783973  52.3415100  14.0906253  64.6456958  52.4015225  13.6812105
  63.4315282  51.7695541  13.6062572  63.9257400  52.2651675  13.9583964
  64.7761768  51.1469756  26.3758986  64.1006770  50.9154988  26.8772373
  64.7854145  50.5390938  25.7501091  64.6780273  51.0228681  26.3575138
  66.7778503  54.0034888  18.6069164  66.8598340  54.8101874  18.2830614
  67.2628245  54.0230847  19.3309937  66.8615661  54.1255550  18.6656062
  60.0886700  60.1970237  29.7360699  60.5782630  59.4981026  29.5536363
  59.5170932  59.8994107  30.3236756  60.0771230  60.0496460  29.7961740
  55.8757451  49.1771775  22.7067214  56.0322070  49.1118578  23.5623206
  56.2158044  49.9520328  22.4945894  55.9490686  49.2820973  22.8021808
  62.4136596  48.5529659  21.5760577  62.9552141  48.0500040  22.0399198
  62.7283155  48.4994853  20.7650062  62.5400993  48.4709080  21.5244389
  66.2853703  52.7632306  38.6887489  67.0988569  52.4917455  38.8492622
  66.1248670  52.4639846  37.8847685  66.3823652  52.6787232  38.5932895
  60.5823046  53.9447010  18.8600605  60.6515866  53.0861549  18.9993606
  61.3611501  54.1618891  18.5319630  60.7075896  53.8499874  18.8317763
  64.9730533  56.3684712  23.0737099  64.5810325  56.0651427  22.3559965
  65.1283605  57.2053802  22.8842052  64.9384123  56.4468548  22.9393596
  52.4491713  46.3606726  23.0227981  52.8290678  46.7791271  22.3588249
  51.8747078  46.9420181  23.3296825  52.4203038  46.5084585  22.9704722
  65.1370208  52.9334700  23.0143129  64.7784863  53.1049343  23.7907162
  64.6508919  53.3947906  22.4571128  65.0128905  53.0273672  23.0468398
  62.9540594  36.5565899  26.6170221  62.0834152  36.5304620  26.5703530
  63.2080935  36.3843091  25.7996066  62.8634154  36.5276043  26.4890357
  59.9258573  48.6133866  15.5543364  60.2151098  49.3898748  15.8286938
  60.0130372  48.1022597  16.2557863  59.9812830  48.6525784  15.6985861
  59.9789734  38.5672127  28.0743691  59.4628223  37.8752319  28.1995270
  59.4183663  39.2342904  28.0206290  59.8196248  38.5635385  28.0849757
  62.0481968  39.1065087  29.9036543  61.6613721  39.1314119  30.6850073
  61.5614905  38.5406766  29.4511060  61.9194477  39.0260838  29.9524447
  66.2974947  53.8238596  33.9610330  66.9354668  53.3298792  33.6272786
  65.6549039  53.7515997  33.3762557  66.2969174  53.7397605  33.8252685
  68.0231947  45.6727742  28.5276246  67.5959555  45.5854091  27.7724345
  67.3858000  45.7805518  29.1131090  67.8661555  45.6760402  28.5021687
  61.7139110  35.9932073  32.1946803  62.3432228  36.5292373  31.9167874
  61.8824972  35.9009432  33.0460369  61.8316904  36.0593435  32.2795331
  66.3529204  54.5158405  30.6015687  67.1421582  54.1647469  30.7217768
  66.5272802  55.3294793  30.3392321  66.4949486  54.5844262  30.5803555
  53.5698081  45.5486667  25.4828226  53.1754779  45.6229679  24.7078336
  53.0138198  45.9344614  26.0336588  53.4300894  45.6168442  25.4495886
  65.2063028  38.5267961  25.1632105  65.4112621  38.4590269  26.0089102
  64.8789452  39.3326783  25.0953283  65.1878276  38.6353902  25.2791760
  58.9605276  43.1649049  21.4685775  59.2365011  42.4467962  21.0563342
  59.5603946  43.7633969  21.2606881  59.0898541  43.1469420  21.3766536
  68.4596716  39.0799726  24.6434871  67.8471029  39.5670128  25.0288602
  68.5560891  38.4043217  25.1872522  68.3834613  39.0518034  24.7813729
  62.4615797  40.8362567  19.7432370  62.9159543  41.0073127  20.4680215
  62.9355842  40.2230677  19.3430146  62.5984117  40.7713452  19.7906132
  72.1021744  50.1516662  30.0712387  72.1604867  50.6003311  30.8172363
  71.4688211  50.5615475  29.6342467  72.0173039  50.2790397  30.1164935
  65.7420838  55.7720204  26.5067133  65.5440527  56.2611019  25.8123344
  65.1208549  55.9761446  27.0851266  65.6208403  55.8736743  26.4890356
  59.8028817  47.5405101  20.8477377  60.5470862  47.9279377  21.0860327
  59.9489513  46.6962527  21.0117865  59.9339402  47.4735574  20.9071347
  61.7208392  39.3355360  25.8809239  60.8744437  39.5078168  25.7550588
  61.7179525  38.5304704  26.2175067  61.5955542  39.2416389  25.9120366
  62.7906693  43.1130574  26.7471297  62.3166647  42.5872337  27.2576607
  63.1624828  42.5660047  26.1786158  62.7756582  42.9546571  26.7386444
  69.0543423  48.1732950  28.1578077  68.8141646  47.3339365  28.1620504
  69.5335430  48.2533117  28.8818851  69.0895607  48.0614350  28.2652879
  64.7190192  44.0067129  19.8097050  64.1913211  44.0895873  19.1202759
  65.1785900  44.7485000  19.8061695  64.7092043  44.1287791  19.7071746
  71.0548610  44.9534407  26.1107336  70.8158380  44.9130241  25.2728121
  71.2182511  45.8005559  26.2373057  71.0438914  45.0726492  26.0060818
  67.6594640  49.3384357  32.0412381  68.3828839  48.8856883  31.8623401
  67.3944603  49.6189022  31.2584709  67.7275914  49.3135325  31.8991097
  56.7123257  42.2769649  14.8337946  56.3636062  42.9289374  15.2969495
  56.2319703  42.2626762  14.1061817  56.5893501  42.3712702  14.7949037
  64.2727275  52.5770693  18.9406707  64.9961474  53.0428806  18.7971281
  63.8327866  52.6444302  18.1904304  64.3142967  52.6554529  18.8091489
  63.4413430  49.4368235  30.1907396  62.8270423  48.8926285  30.4856032
  63.9580715  48.9232471  29.7113213  63.4269092  49.2804644  30.1631625
  62.6809727  50.5072505  27.9251695  62.2537335  49.8822224  27.4917130
  62.6734671  50.2247427  28.7510702  62.6168868  50.3725286  27.9831523
  63.7392557  37.7098914  31.5490919  63.2433118  37.9062588  30.8582485
  64.4961619  38.1091582  31.3779720  63.7779382  37.7976647  31.4211055
  61.0095437  41.3841259  28.1394229  61.0337924  40.8501372  27.4507009
  61.2606910  40.8758568  28.8019820  61.0505355  41.2302163  28.1358874
  57.2896759  40.1112078  27.5199973  57.3295131  40.6121284  28.2334681
  56.4646424  40.2022471  27.2505896  57.1736285  40.1993894  27.5850512
  57.0847166  44.9028179  20.3463990  57.2250127  45.4000643  21.0492631
  57.5829699  44.2014473  20.4878204  57.1788247  44.8730158  20.4715569
  57.1147389  45.7695290  17.6756567  57.7492468  46.3655715  17.6106029
  57.1972999  45.4698748  18.4902437  57.2203939  45.8136198  17.7859653
  70.0929954  48.3010767  30.5442931  70.6847795  48.9408018  30.5761129
  70.5288949  47.6033804  30.8334998  70.2448386  48.2929118  30.5923764
  58.6926371  41.7009265  17.6502009  59.0142212  41.2212348  16.9961271
  58.9553315  42.5108912  17.4592821  58.7792397  41.7499163  17.5257501
  61.9223344  52.7228140  31.1700825  61.4148435  53.2763987  31.6141455
  61.6249990  52.7836430  30.3519599  61.8028229  52.8134451  31.1149282
  53.6200376  47.9663131  20.9446113  54.1292606  48.5627638  21.3257418
  54.0934649  47.6989104  20.2622533  53.7643752  48.0148946  20.9000636
  64.5331124  56.6391398  19.1004768  63.8160434  56.4652260  18.6352006
  65.1837862  56.4043970  18.5680254  64.5232975  56.5787190  18.9533986
  62.5279749  37.5596559  23.4216065  61.8848067  37.4094206  23.9901203
  62.1879156  37.3138905  22.6565170  62.3824827  37.5008682  23.3919080
  67.1179096  45.5155986  22.8446074  66.4470286  46.0585688  22.7159139
  67.8118846  45.9850841  22.6027768  67.1207963  45.6654257  22.7901601
  61.1665829  57.6552698  28.0757832  60.9431484  56.8971527  28.4441858
  60.6775673  57.6850719  27.3538272  61.0609278  57.5474923  28.0234573
  67.2807223  41.9711870  25.7536447  67.6334833  41.5441593  26.4282246
  66.4222025  41.8862713  25.8837523  67.2056668  41.8956610  25.8731457
  55.9790908  44.6019389  23.8119293  55.2602897  45.0183522  24.0792157
  56.3503270  45.1673628  23.2610931  55.9282840  44.7468671  23.7702100
  65.2790489  45.2347238  29.7021289  65.2588416  45.0530533  30.5556068
  65.3269690  46.1059257  29.6780873  65.2825130  45.3363777  29.8244584
  59.8144286  57.8753156  25.5294916  59.4004685  57.2127286  25.1398758
  60.4991661  58.0231015  25.0090611  59.8542658  57.7993814  25.3951414
  63.1809580  57.0343241  26.2818533  62.7825864  57.1445512  25.5139353
  62.5660800  57.2425308  26.8645093  63.0308470  57.0816809  26.2549832
  61.7537483  43.6417389  19.1492673  61.1602322  43.9634386  18.5977240
  61.7912760  42.7958485  18.9413779  61.6711872  43.5641718  19.0375444
  68.7131283  37.0930282  26.6820759  68.2062148  36.3859421  26.6141937
  69.5098717  36.7623470  26.8121836  68.7558522  36.9403433  26.6919754
  64.6295299  43.5996894  22.5794423  64.4008992  43.6229595  21.7372781
  64.8893375  42.7754361  22.6989434  64.6341487  43.4812974  22.4719621
  57.6840062  42.1373440  23.8748619  58.1597428  42.4990520  23.2398800
  57.1828661  42.7929908  24.1548761  57.6805421  42.2867629  23.8225360
  70.9151423  51.6095208  19.6661624  71.2985029  52.3586564  19.8959721
  70.1195536  51.8561028  19.4073613  70.8545205  51.7564902  19.6619197
  59.7266715  44.2814640  17.2422003  60.1065680  44.2994269  16.4573117
  58.9859311  44.7268629  17.1212850  59.6735552  44.3496415  17.1085571
  67.3552005  42.5896831  22.8297581  67.3546232  42.4345488  23.6881858
  67.1508185  43.4359818  22.7738967  67.3251783  42.6917452  22.9485521
  65.0792857  47.2694333  26.4833788  65.5746523  46.5517328  26.4437808
  64.2692633  46.9665131  26.3688275  65.0336751  47.1191979  26.4607514
  60.5251469  51.1192146  18.6330793  59.7162792  50.7958820  18.5864102
  61.0326378  50.4125368  18.5659041  60.4801136  50.9673463  18.6161087
  67.1444676  50.0198020  29.1710917  67.5699748  49.4972442  28.6181342
  66.7801596  50.6178858  28.6499540  67.1531279  50.0308247  29.0119927
  56.7798756  58.3162238  27.9308262  57.0945315  59.1298626  27.9386044
  57.1892169  57.9312457  28.5990422  56.8866854  58.3790940  28.0312354
  63.7323276  53.7332285  25.5012074  64.2034454  54.4472547  25.6702060
  64.0683454  53.1331035  26.0371944  63.8518391  53.7503749  25.6044450
  65.8200260  55.3433598  37.6804147  65.9297226  54.5542159  38.0360894
  66.1491157  55.2539534  36.8778485  65.8852666  55.2139451  37.6146537
  64.3697222  53.5250219  32.2639767  63.8218168  52.9008102  31.9959832
  64.8310251  53.7144491  31.5483846  64.3564431  53.4609269  32.1190198
  63.7225126  35.4290081  29.0551262  62.9171089  35.3187811  29.3719101
  63.5931861  35.5302537  28.1981128  63.5845259  35.4273751  28.9759303
  67.1791086  41.5935573  29.6490959  66.5954075  42.0944780  29.2368527
  67.4995380  41.0865129  29.0155283  67.1404262  41.5927408  29.4949467
  59.7185885  40.5076168  19.9249634  60.5401580  40.6774481  19.6831329
  59.2555536  40.6623429  19.2015932  59.7717048  40.5557901  19.7821278
  63.9355548  54.5301291  28.7949108  64.7553922  54.3864258  29.0565403
  63.6549626  55.1547490  29.3365546  64.0152292  54.6011644  28.9137048
  73.6068883  61.2741794  26.5144915  72.7506779  61.4350292  26.5654032
  73.6536537  60.4033858  26.5349976  73.4867995  61.1692596  26.5250981
  67.9910023  70.8104512  22.2782147  67.2392923  70.4320050  22.0498192
  68.4396035  70.8422946  21.5300957  67.9459690  70.7590119  22.1339649
  76.9162600  67.5428320  36.1205371  77.6229367  67.0480351  36.2492306
  77.1050535  67.9837401  35.3908029  77.0490506  67.5346670  36.0314417
  76.4520704  63.3333838  29.1576567  76.9976665  64.0118925  29.2170536
  76.3937581  63.1921299  28.2978148  76.5236619  63.4125840  29.0388627
  69.5694779  70.8222904  24.5444919  69.6705142  70.0123258  24.8542047
  68.9736525  70.7279851  23.9144598  69.4967318  70.6887932  24.4971158
  62.7659824  66.8443191  24.1697253  62.5310008  66.0110843  24.0629522
  62.9045464  67.1247856  23.3558454  62.7515486  66.7626694  24.0339608
  65.0649911  59.0128921  27.0681560  64.4454943  58.4221569  26.8991575
  64.9633775  59.6040357  26.4345884  64.9587587  59.0133004  26.9486550
  72.1617807  60.7528463  21.4014024  72.8597971  60.9316591  21.8935487
  72.4770139  60.2298803  20.7784413  72.3113144  60.7022235  21.3816034
  64.7919044  62.5581203  29.3125129  64.6677741  63.1443649  29.9474948
  65.4437329  62.0641399  29.6137404  64.8692693  62.5720008  29.4511059
  72.3505742  67.1398908  21.3893815  72.7899378  66.5316009  21.8348588
  72.2010405  66.7606282  20.6179280  72.3927208  66.9937379  21.3412982
  69.8177385  65.7342920  28.5912641  70.4626388  65.2415363  28.2723589
  70.0579162  65.8767707  29.4178719  69.9487970  65.6820362  28.6662174
  72.3563476  68.5797826  28.2419533  72.6386719  67.7849232  28.0206289
  73.0849637  69.0578413  28.2624594  72.5053040  68.5332423  28.2122548
  70.3344670  56.1220860  25.4835298  70.0048000  56.5732003  24.8138997
  69.6589672  56.0437023  26.0308305  70.1855107  56.1771995  25.4658521
  77.5421078  52.1106383  23.7284909  77.2274519  52.8009861  24.1605331
  77.0248020  52.0551165  23.0270410  77.4185549  52.2041271  23.6881858
  64.3277148  71.7228862  25.4453459  63.8444727  72.4479351  25.4213043
  65.1400467  72.0204992  25.5563617  64.3767896  71.8731215  25.4580738
  70.3991302  70.5161042  28.0503273  69.8818244  70.1568457  27.4464581
  71.0965694  69.9923217  28.0609340  70.4256884  70.3858730  27.9633532
  71.6225354  70.2487016  32.9937109  71.0596189  69.8359626  33.5176770
  72.3846378  70.1739922  33.4130252  71.6519803  70.1764417  33.1330109
  68.5400624  54.1833148  20.9658246  69.2946592  54.5511465  20.7275296
  68.3628159  54.5572703  21.7337426  68.6255103  54.2931336  21.0443134
  67.1821346  72.2385038  25.5973739  67.8841925  71.7237027  25.6546495
  67.1018829  72.5659189  26.4020614  67.2745106  72.2099264  25.7246531
  68.2300252  62.4760624  34.7254154  68.4020756  62.3666519  35.5739435
  68.7669610  63.1215030  34.4885346  68.3345256  62.5552626  34.8159251
  66.8957689  56.5903467  17.6636359  66.7133262  56.8075348  16.8377352
  67.7583302  56.7042480  17.7194973  66.9962279  56.6393365  17.5490846
  66.5072121  68.4291389  25.1059347  67.3461020  68.6614322  25.1533108
  66.5383890  67.5595701  25.0366382  66.6353839  68.3348336  25.1023991
  67.1324824  68.8492265  29.4072652  67.6723049  68.7063396  30.0776025
  66.4494770  69.2489015  29.7756679  67.1116978  68.8871936  29.5607074
  72.5757408  53.5929878  20.6985383  73.3043569  53.4145833  20.2523539
  72.6652301  54.4347958  20.9092561  72.6964070  53.6913756  20.6638900
  76.5565709  64.5283265  24.6017677  77.3123224  64.9614780  24.6406585
  76.6628033  63.8788035  25.1752313  76.6835880  64.4960749  24.6915702
  62.5361969  65.0692555  29.5607074  62.2700384  64.2531672  29.7198064
  62.5500533  65.1145711  28.6902589  62.4986691  64.9549460  29.4560556
  66.4419716  59.8677640  16.1758832  65.7277893  59.5815819  16.5881264
  66.9263685  60.2074266  16.8165219  66.4079079  59.8759290  16.3314467
  67.2860575  58.6070934  32.2074082  66.5932372  58.1367913  32.4534813
  67.9020903  58.3809238  32.7815789  67.2745105  58.5038066  32.3283234
  62.9455383  65.8551335  26.8418818  62.7630956  65.8298221  25.9891110
  63.6805052  66.3250273  26.8807727  63.0269447  65.9212697  26.7216737
  66.0101134  62.5736338  33.3500927  66.7341107  62.5589368  33.8365821
  66.1117271  63.2831693  32.8522895  66.1319343  62.6761041  33.3479714
  73.3846084  66.0535422  38.2149874  72.5919065  66.3678934  38.4002493
  73.4995011  66.2686891  37.3770658  73.2841494  66.1319259  38.1188209
  76.0577403  62.7769414  22.5044890  76.1524257  63.5158708  22.9584515
  75.4336246  62.3486889  22.9379454  75.9786433  62.8230734  22.6353037
  74.3129877  65.9555626  33.1535170  74.8868738  65.3182870  33.3083734
  74.2344680  65.9559709  32.2844828  74.3863111  65.8620738  33.0481581
  62.9126293  62.7344836  26.9917885  63.4899796  62.5981286  27.6310130
  62.2140355  62.2780620  27.2463469  62.8947314  62.6467102  27.1240174
  69.6693595  64.3878891  25.2056368  69.4112840  63.5550626  25.1787667
  69.7242078  64.6136504  24.3648868  69.6393373  64.2976662  25.0776505
  74.7494645  56.4907342  25.3060461  74.0450972  56.0016527  25.4644380
  74.7979620  56.5029816  24.4348905  74.6524697  56.4196990  25.1999800
  68.6428307  61.9416654  25.6921263  68.0677899  62.1008822  26.3285224
  68.2663984  61.3052063  25.2289713  68.5031120  61.8714467  25.7175821
  72.3101596  60.4140003  30.5513641  71.9216029  59.9894221  29.8965832
  71.6456294  60.6622153  31.0590668  72.1548524  60.3878724  30.5301509
  58.3885126  61.5856728  23.7065703  58.4745378  61.2088597  24.4879233
  59.0160924  61.2117174  23.2285662  58.4941677  61.4742211  23.7511181
  76.1327958  54.1114632  28.0637625  76.5138469  53.4292803  28.4505500
  75.3291242  53.8224234  27.8813290  76.0704419  53.9681680  28.0941681
  69.2848443  68.1160125  23.8762760  69.9222390  67.8771873  24.4214554
  69.7103514  68.3197284  23.1415921  69.4424609  68.1111135  23.8479917
  63.9761085  70.3548462  27.7597064  64.0165230  70.6263313  26.9316844
  64.5355609  70.8790370  28.1754852  64.0644431  70.4724217  27.6988952
  69.9251258  63.3362415  18.2137650  70.3096410  63.1170122  18.9654195
  69.6762878  64.1625360  18.3438726  69.9453330  63.4260561  18.3438726
  70.0919798  56.6168830  37.9300234  69.7773239  57.3868393  37.6669796
  69.7709731  56.0539086  37.3452461  69.9978717  56.6479099  37.8041584
  71.6669915  68.5932548  25.5556546  71.7408923  68.4307720  26.4098396
  72.4839421  68.7822737  25.3117028  71.7986273  68.5969290  25.6454572
  65.4275671  68.9390410  22.5850990  64.6013789  69.1852148  22.4585269
  65.4887662  68.8602491  23.4513048  65.3149838  68.9635359  22.6939934
  67.6451695  55.0059351  23.5446430  66.7774120  55.0781951  23.6104039
  67.9326899  55.8081430  23.7334405  67.5591443  55.1353499  23.5821197
  76.7684584  55.1537211  31.8757752  77.5138176  54.9647021  31.4621177
  76.3521888  55.6795449  31.3171608  76.8169558  55.2039356  31.7322325
  70.7969245  66.3585037  31.3723150  70.2980939  67.0700804  31.4508039
  71.6069470  66.6785703  31.3341313  70.8425352  66.5111885  31.3779719
  68.1480416  73.5334673  23.3530170  67.9280711  73.2432028  24.1456837
  67.9274938  72.8749628  22.8248082  68.0828010  73.3934382  23.3919078
  67.0597363  65.6207990  25.6185871  66.7710612  64.9945461  26.1531598
  67.9280711  65.5628277  25.6850552  67.1457615  65.5195534  25.7076826
  77.8475261  60.7642773  25.9367853  77.5040027  60.0433108  26.2875103
  77.9468303  60.5556624  25.0946211  77.8117304  60.6266976  25.8639533
  67.2629636  67.2603241  21.5428236  68.0175604  67.6416280  21.7563699
  66.6700249  67.7114384  21.9974933  67.2866350  67.3832068  21.6411115
  69.7236303  59.2166081  36.6685449  68.9136079  59.5223861  36.5575291
  70.2010990  59.9371663  36.7838033  69.6739782  59.3680682  36.6692520
  68.5827863  68.4311802  26.9168352  68.0608617  68.5712094  27.6020216
  68.9701883  67.6722466  27.1070469  68.5631564  68.3397326  27.0469428
  65.5719047  58.4817611  20.9863306  65.2843843  58.1118881  20.2495254
  66.2589515  58.9512466  20.7247011  65.6307944  58.4964580  20.8378382
  70.0094189  65.4615821  22.3149843  69.8136971  66.0690556  21.7210146
  70.2328534  64.7683765  21.8341517  70.0128830  65.4493347  22.1565923
  68.4072719  62.3470559  22.4330711  69.1295371  62.5111717  21.9734517
  67.9280711  63.0680224  22.3270051  68.4436449  62.4768789  22.3496325
  76.3666226  58.6834358  27.8127396  75.5277327  58.7095637  27.5765659
  76.4370593  59.3305093  28.3932743  76.2534620  58.7830484  27.8636513
  66.0580335  64.7528631  31.5384851  66.5701432  65.0312885  30.8893611
  65.7716678  65.4917925  31.9047664  66.0915198  64.9030985  31.4974729
  74.8135504  55.5819735  22.5455012  75.5161857  55.3827483  22.0674970
  74.5479693  54.8095677  22.8523855  74.8782137  55.4382701  22.5200453
  63.1447242  59.2598823  21.8348587  63.2463378  60.0624985  22.1629563
  63.9403128  59.0586159  21.5371668  63.2775147  59.3484722  21.8383943
  69.5764061  56.8455020  31.5985893  69.3847258  56.8610154  32.4485316
  70.4262657  57.0418694  31.5752547  69.6739783  56.8769371  31.7209187
  63.9610974  59.3746001  29.5769709  63.8196466  58.5229942  29.7014217
  64.2451537  59.4174662  28.7531915  63.9818820  59.2545751  29.4737333
  74.1149566  61.2113092  23.7214197  73.8684280  61.1308843  24.5550986
  74.4434689  60.4266559  23.5276725  74.1270810  61.0839357  23.8161720
  76.3475700  64.2192826  33.7623360  76.3423739  63.3472643  33.7665787
  77.0536694  64.4180996  33.2892816  76.4520704  64.1196701  33.6930396
  70.0746593  63.9469810  33.1337180  70.2189969  64.5271018  32.4980290
  70.4222242  64.3246107  33.8387035  70.1474055  64.0890514  33.1436175
  72.2466511  63.1459979  30.9162312  71.4989825  63.3390993  30.5110590
  72.4008036  62.3205198  30.6786433  72.1588938  63.0525090  30.8207718
  69.1474348  72.1372582  29.9998207  69.2963912  71.5775498  29.3471612
  69.9274350  72.2164584  30.3830726  69.2848442  72.0658148  29.9595156
  72.4868288  57.0410529  31.8057716  72.9440902  57.7734504  31.9330508
  72.5624617  56.6176995  32.5644971  72.5659258  57.0867767  31.9358792
  64.7301279  57.2876349  32.8947159  64.1943468  56.6756707  33.2107927
  64.7919044  57.8624485  33.5480826  64.6596912  57.2823277  33.0382586
  76.9595614  50.2200405  25.6751559  77.0779182  50.6776868  24.9418861
  76.7857789  49.4145666  25.3887776  76.9514785  50.1694177  25.5252492
  70.3650666  59.0312633  28.6499540  69.5746740  58.8504093  28.9716875
  70.7611289  58.2539586  28.6329834  70.3067542  58.8900094  28.6952088
  75.7494352  66.6655063  26.3758986  75.0739354  66.4340296  26.8772373
  75.7586728  66.0576246  25.7501091  75.6512857  66.5413989  26.3575138
  72.8788496  61.5072892  33.1323039  72.8147637  62.3682849  33.0043175
  73.0185684  61.1904886  32.3318590  72.8903966  61.5873059  32.9951251
  71.5607590  64.2005032  27.2739241  71.1369839  64.4009531  26.5378260
  71.3852445  63.3533880  27.3863541  71.4718470  64.1053813  27.1812932
  66.8490035  64.6957083  22.7067214  67.0054654  64.6303886  23.5623206
  67.1890628  65.4705636  22.4945894  66.9223270  64.8006281  22.8021808
  73.3869179  64.0714967  21.5760577  73.9284725  63.5685348  22.0399198
  73.7015738  64.0180161  20.7650062  73.5133577  63.9894388  21.5244389
  74.5358449  58.9651271  31.6282878  74.7500418  58.3262185  31.0746232
  73.9192348  59.4097095  31.1990739  74.4763778  58.9361415  31.4833309
  63.4224296  61.8792034  23.0227981  63.8023261  62.2976579  22.3588249
  62.8479661  62.4605489  23.3296825  63.3935621  62.0269892  22.9704722
  76.6997537  60.5740336  32.5666185  75.8874219  60.2666227  32.6479358
  77.1587471  60.0939337  33.1308897  76.6477922  60.4576829  32.6620779
  73.9273177  52.0751207  26.6170221  73.0566735  52.0489928  26.5703530
  74.1813519  51.9028399  25.7996066  73.8366738  52.0461351  26.4890357
  73.7951044  61.9800408  37.3494887  74.2650675  62.6042524  37.7362761
  73.8412924  61.3117383  37.9088102  73.8718920  61.9735088  37.4894959
  70.9522318  54.0857435  28.0743691  70.4360807  53.3937627  28.1995270
  70.3916247  54.7528212  28.0206290  70.7928831  54.0820693  28.0849757
  73.0214551  54.6250395  29.9036543  72.6346305  54.6499427  30.6850073
  72.5347489  54.0592074  29.4511060  72.8927060  54.5446146  29.9524447
  72.6871693  51.5117381  32.1946803  73.3164811  52.0477681  31.9167874
  72.8557556  51.4194740  33.0460369  72.8049488  51.5778743  32.2795331
  72.4885608  56.2988576  34.4673215  73.3159037  56.0273724  34.5231829
  72.5093454  57.0949417  34.8237033  72.6138458  56.3768330  34.5288398
  67.0655098  63.4452438  27.6543476  66.2243104  63.3456313  27.8622369
  67.2745106  64.2147919  28.0057796  66.9719790  63.5444482  27.7370791
  64.5430665  61.0671975  25.4828226  64.1487363  61.1414987  24.7078336
  63.9870782  61.4529922  26.0336588  64.4033477  61.1353750  25.4495886
  76.1795612  54.0453269  25.1632105  76.3845205  53.9775577  26.0089102
  75.8522036  54.8512091  25.0953283  76.1610860  54.1539210  25.2791760
  70.8771763  61.3733838  26.9041073  70.5734900  60.8189826  27.5051481
  70.1751183  61.5526048  26.4169107  70.7287973  61.3178620  26.9210779
  69.9337860  58.6834357  21.4685775  70.2097594  57.9653270  21.0563342
  70.5336529  59.2819277  21.2606881  70.0631124  58.6654728  21.3766536
  68.9390114  68.5883558  31.6113171  68.8310469  68.5985620  32.4775229
  69.1485895  69.4138339  31.4218125  68.9540225  68.7124633  31.7117263
  73.4348380  56.3547875  19.7432370  73.8892127  56.5258435  20.4680215
  73.9088426  55.7415985  19.3430146  73.5716700  56.2898760  19.7906132
  66.9563906  65.8396201  29.0735109  66.3651839  66.4805699  29.0438124
  67.7184929  66.2633818  29.0466408  66.9812166  65.9972039  29.0650256
  67.3524529  56.9998198  29.7403126  67.8126010  57.0737128  30.4778250
  67.3980635  57.7979452  29.3902947  67.4275084  57.1292345  29.7975883
  69.0007878  57.6664893  34.3075153  68.6093443  57.0198240  34.7430931
  69.1693741  58.2576329  34.9269409  68.9678789  57.6579161  34.4637859
  70.7761400  63.0590409  20.8477377  71.5203445  63.4464685  21.0860327
  70.9222096  62.2147834  21.0117865  70.9071985  62.9920882  20.9071347
  72.6940976  54.8540668  25.8809239  71.8477021  55.0263476  25.7550588
  72.6912108  54.0490012  26.2175067  72.5688126  54.7601697  25.9120366
  73.7639276  58.6315882  26.7471297  73.2899230  58.1057644  27.2576607
  74.1357412  58.0845355  26.1786158  73.7489165  58.4731879  26.7386444
  64.1412306  60.6287389  32.1154842  65.0037919  60.5283098  32.0292172
  63.8104089  60.0482098  31.5540414  64.2197503  60.5279016  32.0200248
  75.6922776  59.5252437  19.8097050  75.1645794  59.6081181  19.1202759
  76.1518484  60.2670308  19.8061695  75.6824626  59.6473099  19.7071746
  67.5014092  59.4529838  28.7765261  66.8767162  59.4648230  28.1691213
  67.1659687  59.9290013  29.4256501  67.3599584  59.5248355  28.7821829
  67.6855841  57.7954957  14.8337946  67.3368645  58.4474682  15.2969495
  67.2052287  57.7812070  14.1061817  67.5626085  57.8898010  14.7949037
  64.2139768  67.5130298  30.2169025  63.6839692  66.8222737  30.2664000
  64.4864861  67.5040484  29.3881733  64.1764490  67.4097430  30.1016441
  74.4146013  64.9553543  30.1907396  73.8003007  64.4111593  30.4856032
  74.9313298  64.4417779  29.7113213  74.4001676  64.7989952  30.1631625
  73.6542311  66.0257813  27.9251695  73.2269919  65.4007531  27.4917130
  73.6467255  65.7432735  28.7510702  73.5901452  65.8910593  27.9831523
  66.7704838  61.0622986  30.9940129  66.9298324  60.3066310  31.3991851
  66.5897731  61.6113925  31.6480867  66.7670197  61.0316800  31.1502835
  74.7125141  53.2284221  31.5490919  74.2165702  53.4247896  30.8582485
  75.4694203  53.6276890  31.3779720  74.7511965  53.3161955  31.4211055
  71.9828020  56.9026567  28.1394229  72.0070507  56.3686680  27.4507009
  72.2339494  56.3943876  28.8019820  72.0237939  56.7487471  28.1358874
  59.4935610  64.1858062  27.5737373  59.3879059  64.1404907  26.7089457
  58.7435830  64.5311843  27.8551658  59.3671213  64.2298970  27.4874703
  68.2629342  55.6297386  27.5199973  68.3027714  56.1306592  28.2334681
  67.4379007  55.7207779  27.2505896  68.1468868  55.7179202  27.5850512
  70.4458955  65.1958126  35.6220268  69.5954586  65.3329840  35.7577913
  70.6087083  64.4621904  36.0667970  70.3442819  65.1072227  35.7075867
  69.6843706  62.1457895  29.8173872  68.8535636  62.3131713  29.6109120
  69.6295223  61.7693846  30.6022758  69.5533121  62.1147627  29.9022400
  67.4927489  55.6366788  35.4530283  68.1180193  55.0928921  35.7259715
  67.0377969  55.1561706  34.8838073  67.5175750  55.4856270  35.4091877
  68.0579750  60.4213487  20.3463990  68.1982711  60.9185951  21.0492631
  68.5562283  59.7199781  20.4878204  68.1520831  60.3915466  20.4715569
  68.0879972  61.2880598  17.6756567  68.7225052  61.8841023  17.6106029
  68.1705583  60.9884056  18.4902437  68.1936523  61.3321506  17.7859653
  69.6658955  57.2194573  17.6502009  69.9874796  56.7397656  16.9961271
  69.9285899  58.0294219  17.4592821  69.7524980  57.2684471  17.5257501
  72.8955928  68.2413448  31.1700825  72.3881019  68.7949295  31.6141455
  72.5982574  68.3021738  30.3519599  72.7760813  68.3319759  31.1149282
  75.0618110  56.6066767  30.0125488  75.4873181  56.1539294  29.4009014
  74.4475103  56.0526838  30.2890275  75.0346755  56.4580744  29.9630513
  64.5932960  63.4848439  20.9446113  65.1025189  64.0812946  21.3257418
  65.0667232  63.2174412  20.2622533  64.7376336  63.5334254  20.9000636
  73.5012333  53.0781867  23.4216065  72.8580651  52.9279514  23.9901203
  73.1611740  52.8324212  22.6565170  73.3557410  53.0193990  23.3919080
  78.2539807  57.4897178  25.7536447  78.6067417  57.0626901  26.4282246
  77.3954608  57.4048021  25.8837523  78.1789251  57.4141918  25.8731457
  66.9523492  60.1204697  23.8119293  66.2335481  60.5368830  24.0792157
  67.3235854  60.6858936  23.2610931  66.9015423  60.2653979  23.7702100
  76.2523073  60.7532546  29.7021289  76.2321000  60.5715841  30.5556068
  76.3002273  61.6244565  29.6780873  76.2557714  60.8549084  29.8244584
  74.1969402  67.3419738  35.6269766  74.1565257  66.6969415  35.0414921
  75.0092721  67.2856356  35.9395178  74.3112556  67.2378705  35.5866715
  72.7270066  59.1602697  19.1492673  72.1334905  59.4819694  18.5977240
  72.7645344  58.3143793  18.9413779  72.6444455  59.0827025  19.0375444
  75.6027883  59.1182202  22.5794423  75.3741576  59.1414903  21.7372781
  75.8625959  58.2939669  22.6989434  75.6074071  58.9998282  22.4719621
  69.8847111  60.9716675  32.1819523  69.3726014  60.3637858  32.5404555
  69.7126607  61.6873267  32.6493499  69.7836748  60.9879974  32.3035747
  64.7312826  59.4154250  34.8321885  64.5615416  60.0755625  34.2870092
  64.2878776  59.6260811  35.5534374  64.6412159  59.5440232  34.8583514
  68.6572645  57.6558748  23.8748619  69.1330011  58.0175828  23.2398800
  68.1561245  58.3115216  24.1548761  68.6538004  57.8052937  23.8225360
  73.7616181  58.8940919  34.6221779  74.3187612  58.6654729  33.9900244
  73.4377246  59.6546585  34.3456991  73.7962592  58.9724756  34.4878276
  61.6314890  62.3201116  30.0910375  61.0841610  61.6501761  30.2091243
  62.4207268  61.9530964  30.1553842  61.6667074  62.1666102  30.1179075
  71.4799299  61.9808573  35.5873786  72.2310626  62.2960250  35.9013340
  71.6721875  61.7787744  34.7607708  71.6190713  61.9975955  35.5117182
  70.6999298  59.7999948  17.2422003  71.0798263  59.8179577  16.4573117
  69.9591894  60.2453937  17.1212850  70.6468136  59.8681722  17.1085571
  78.3284589  58.1082139  22.8297581  78.3278815  57.9530796  23.6881858
  78.1240769  58.9545126  22.7738967  78.2984367  58.2102760  22.9485521
  60.3901860  61.5321923  27.2456398  60.2123621  61.0798532  27.9711313
  60.1020882  62.3348085  27.4294875  60.3214813  61.5844481  27.3799901
  76.0525441  62.7879641  26.4833788  76.5479106  62.0702636  26.4437808
  75.2425217  62.4850438  26.3688275  76.0069334  62.6377287  26.4607514
  62.1274330  64.0649647  24.3578157  61.2619849  64.0535338  24.2460928
  62.2273146  63.8779870  25.2049296  62.0148497  64.0355708  24.4667101
  78.1177260  65.5383328  29.1710917  78.5432331  65.0157750  28.6181342
  77.7534180  66.1364166  28.6499540  78.1263862  65.5493555  29.0119927
  67.7531340  73.8347546  27.9308262  68.0677899  74.6483934  27.9386044
  68.1624753  73.4497764  28.5990422  67.8599438  73.8976248  28.0312354
  74.7055859  69.2517593  25.5012074  75.1767037  69.9657855  25.6702060
  75.0416038  68.6516343  26.0371944  74.8250974  69.2689057  25.6044450
  71.6225354  54.0245063  32.4570169  71.7553260  53.2276057  32.7851145
  72.0070507  54.5511466  33.0368445  71.6981683  53.9844980  32.5913672
  75.3429806  69.0435527  32.2639767  74.7950752  68.4193410  31.9959832
  75.8042834  69.2329799  31.5483846  75.3297015  68.9794577  32.1190198
  74.6957709  50.9475389  29.0551262  73.8903673  50.8373119  29.3719101
  74.5664445  51.0487845  28.1981128  74.5577842  50.9459059  28.9759303
  78.1523670  57.1120881  29.6490959  77.5686659  57.6130088  29.2368527
  78.4727964  56.6050437  29.0155283  78.1136845  57.1112716  29.4949467
  70.6918469  56.0261476  19.9249634  71.5134163  56.1959789  19.6831329
  70.2288120  56.1808737  19.2015932  70.7449631  56.0743209  19.7821278
  69.2813801  54.0204238  30.7048063  69.8258214  53.6795365  31.2952405
  69.3350737  54.8789700  30.8469348  69.3702920  54.0959498  30.8129936
  65.0944360  67.7820654  27.5786871  65.6989217  67.7416488  26.9500692
  64.8871672  68.6291806  27.6090927  65.1533257  67.9008657  27.4902987
  60.3295642  66.7655272  27.4485794  60.2319920  65.9551543  27.7575851
  61.1124512  66.7447065  27.0632062  60.4311778  66.6422362  27.4372657
  36.1848592   6.1222701  12.8799822  36.8286048   6.5635865  13.2695980
  36.5104848   5.3176127  12.7930081  36.3280421   6.0687896  12.9245299
  40.8307968   1.3478064  20.9459493  40.9191313   1.1604204  21.7937704
  41.2597680   0.7015493  20.5464340  40.9070070   1.2241071  21.0131245
  38.3978427   0.6309224  19.9277155  37.8349262   0.2181834  20.4516817
  39.1599451   0.5562129  20.3470299  38.4272876   0.5586624  20.0670156
  40.9428027   0.7787083  23.6103277  41.7268443   0.8917931  23.9759019
  40.7424621  -0.0471780  23.8061963  41.0294052   0.6733802  23.6937663
  41.0998420   2.6897185  17.2569732  40.3013666   2.4496685  17.5143601
  41.5484432   2.7411578  18.0036780  41.0473031   2.6619576  17.4054657
  35.9227422   2.5194789  16.9338254  36.0716985   1.9597705  16.2811658
  36.7027424   2.5986791  17.3170773  36.0601515   2.4480355  16.8935203
  38.4480722   2.6909432  18.2122745  38.3724393   2.0218243  18.7673533
  38.3770581   3.3927220  18.7263411  38.4261329   2.6954340  18.3699593
  37.8372357   6.0977752  16.6700746  38.3268287   5.3988541  16.4876410
  37.2656589   5.8001622  17.2576803  37.8256886   5.9503976  16.7301786
  35.7143187  -1.0294234  18.5453218  35.6063542  -1.0192172  19.4115276
  35.9238968  -0.2039454  18.3558171  35.7293298  -0.9053160  18.6457309
  43.4906495   1.6727720  13.4407180  43.2926184   2.1618534  12.7463391
  42.8694206   1.8768961  14.0191313  43.3694060   1.7744258  13.4230403
  39.6709001  -1.3764345  18.1040872  39.1634092  -0.8228498  18.5481502
  39.3735647  -1.3156055  17.2859646  39.5513886  -1.2858034  18.0489328
  38.9151486   3.5560213  15.0097879  38.6917141   2.7979043  15.3781905
  38.4261329   3.5858235  14.2878318  38.8094935   3.4482438  14.9574620
  40.9295237   2.9350757  13.2158580  40.5311520   3.0453027  12.4479400
  40.3146457   3.1432823  13.7985140  40.7794127   2.9824325  13.1889879
  34.5284413   4.2169753  14.8648309  34.8430972   5.0306142  14.8726091
  34.9377826   3.8319972  15.5330468  34.6352511   4.2798456  14.9652401
  43.5685917   1.2441113  24.6144193  43.6782882   0.4549674  24.9700940
  43.8976814   1.1547050  23.8118531  43.6338323   1.1146966  24.5486584
  41.6841205   0.4308807  15.7289155  42.5039579   0.2871773  15.9905450
  41.4035283   1.0555006  16.2705593  41.7637948   0.5019159  15.8477094
  51.3554540   7.1749310  13.4484962  50.4992436   7.3357808  13.4994079
  51.4022194   6.3041373  13.4690023  51.2353652   7.0700111  13.4591028
  45.7395680  16.7112027   9.2122193  44.9878580  16.3327566   8.9838238
  46.1881692  16.7430461   8.4641004  45.6945347  16.6597635   9.0679696
  54.6648257  13.4435835  23.0545418  55.3715024  12.9487866  23.1832352
  54.8536192  13.8844917  22.3248076  54.7976162  13.4354186  22.9654463
  51.1920640  17.1337397   4.6407741  50.8572008  17.8114319   4.2051963
  51.7047510  16.7442708   4.0524612  51.2186221  17.1761975   4.4894532
  50.7324931  19.0851666  10.5818852  51.1164310  19.6538564  10.0423627
  50.6684072  18.3601176  10.1024668  50.7798358  19.0627129  10.4312715
  54.2006361   9.2341353  16.0916613  54.7462321   9.9126440  16.1510583
  54.1423238   9.0928814  15.2318195  54.2722276   9.3133355  15.9728674
  47.3180436  16.7230420  11.4784966  47.4190799  15.9130774  11.7882094
  46.7222181  16.6287366  10.8484644  47.2452975  16.5895448  11.4311204
  55.9771430  10.6625961   6.9650341  55.8610956  11.4133647   7.3942479
  56.7727317  10.4049914   7.2146428  56.0776019  10.7360807   7.0654433
  47.1581176  21.6408009  12.8799822  47.8018631  22.0821173  13.2695980
  47.4837431  20.8361435  12.7930081  47.3013004  21.5873203  12.9245299
  40.5145480  12.7450706  11.1037300  40.2795665  11.9118359  10.9969568
  40.6531121  13.0255372  10.2898501  40.5001143  12.6634210  10.9679655
  42.8135568   4.9136437  14.0021607  42.1940600   4.3229084  13.8331622
  42.7119431   5.5047872  13.3685930  42.7073243   4.9140519  13.8826597
  47.8601755  14.6519984   8.2519684  48.1817597  15.1925191   7.6480992
  48.5073852  14.0816755   8.3841973  48.0027811  14.6479159   8.1826719
  49.9103464   6.6535979   8.3354070  50.6083628   6.8324106   8.8275534
  50.2255796   6.1306318   7.7124460  50.0598801   6.6029751   8.3156081
  42.5404701   8.4588718  16.2465176  42.4163398   9.0451164  16.8814995
  43.1922985   7.9648914  16.5477451  42.6178350   8.4727523  16.3851106
  50.0991399  13.0406424   8.3233862  50.5385034  12.4323524   8.7688635
  49.9496062  12.6613797   7.5519327  50.1412865  12.8944895   8.2753029
  47.5663042  11.6350435  15.5252687  48.2112044  11.1422879  15.2063636
  47.8064819  11.7775222  16.3518766  47.6973627  11.5827878  15.6002221
  50.1049133  14.4805341  15.1759580  50.3872376  13.6856747  14.9546336
  50.8335294  14.9585929  15.1964641  50.2538697  14.4339938  15.1462595
  48.0830327   2.0228375  12.4175345  47.7533657   2.4739519  11.7479044
  47.4075329   1.9444539  12.9648351  47.9340763   2.0779510  12.3998568
  53.7000735  11.3933605   5.2764631  53.6152031  12.2494571   5.4214200
  54.1885119  11.1177929   5.9446790  53.7589633  11.4790926   5.3966713
  54.6319169   8.0118399   6.7762366  54.1030640   8.2278033   7.4359672
  55.1544189   8.7054537   6.6963336  54.6307622   8.1461536   6.8617965
  60.0867222  13.5864703  12.1495411  59.2564925  13.7975347  12.3128827
  60.0376474  12.7601758  11.8737694  59.9573957  13.4954310  12.1332776
  42.0762805  17.6236377  12.3793506  41.5930383  18.3486867  12.3553089
  42.8886123  17.9212507  12.4903663  42.1253553  17.7738731  12.3920785
  48.1476959  16.4168558  14.9843320  47.6303901  16.0575973  14.3804628
  48.8451350  15.8930732  14.9949386  48.1742540  16.2866246  14.8973579
  51.8040551  16.8663372  20.9459493  51.8923897  16.6789512  21.7937704
  52.2330264  16.2200801  20.5464340  51.8802654  16.7426379  21.0131245
  49.3711011  16.1494532  19.9277155  48.8081846  15.7367141  20.4516817
  50.1332034  16.0747437  20.3470299  49.4005460  16.0771932  20.0670156
  44.9307002  18.1392553  12.5313786  45.6327582  17.6244542  12.5886542
  44.8504485  18.4666704  13.3360661  45.0230763  18.1106779  12.6586578
  59.5821180   6.2335104  15.9445832  58.7449601   6.3037291  16.1793426
  59.5509411   6.2359599  15.0720134  59.4539462   6.2445331  15.8505380
  45.9785909   8.3768140  21.6594201  46.1506413   8.2674034  22.5079482
  46.5155266   9.0222545  21.4225393  46.0830913   8.4560141  21.7499297
  44.2557778  14.3298905  12.0399394  45.0946677  14.5621838  12.0873155
  44.2869547  13.4603216  11.9706429  44.3839495  14.2355851  12.0364038
  44.8810481  14.7499780  16.3412699  45.4208706  14.6070911  17.0116071
  44.1980427  15.1496531  16.7096725  44.8602635  14.7879451  16.4947121
  54.3051366  10.4290781  11.5357723  55.0608881  10.8622295  11.5746632
  54.4113690   9.7795550  12.1092360  54.4321536  10.3968264  11.6255749
  57.3431537  14.2564058  12.2860126  56.9066769  14.2600800  13.0419098
  57.0094452  14.9369557  11.8539704  57.2294157  14.3576514  12.3340959
  51.9160610  16.2972391  23.6103277  52.7001027  16.4103238  23.9759019
  51.7157205  15.4713528  23.8061963  52.0026636  16.1919110  23.6937663
  40.2847626  10.9700071  16.4947121  40.0186041  10.1539187  16.6538111
  40.2986190  11.0153226  15.6242636  40.2472348  10.8556976  16.3900603
  45.0346232   4.5078449  19.1414128  44.3418029   4.0375429  19.3874860
  45.6506560   4.2816754  19.7155836  45.0230762   4.4045581  19.2623281
  52.0731004  18.2082493  17.2569732  51.2746250  17.9681993  17.5143601
  52.5217015  18.2596886  18.0036780  52.0205615  18.1804884  17.4054657
  60.4775883  10.9744978  11.1779764  61.1392317  10.4135646  11.0775672
  59.8367295  10.4797009  11.5032455  60.4804751  10.8181387  11.2112104
  51.3652691  14.2715109   3.4860687  51.7803839  13.9400133   2.7945183
  50.5344620  14.0384011   3.3580824  51.3040699  14.1886365   3.3651534
  40.6941040  11.7558850  13.7758865  40.5116613  11.7305736  12.9231157
  41.4290708  12.2257788  13.8147774  40.7755103  11.8220212  13.6556783
  56.7640714  11.9910360  10.9191752  56.9996303  12.1355559  10.0918603
  56.9130277  12.7552768  11.3123266  56.8206517  12.1249415  10.8555356
  43.7586791   8.4743853  20.2840974  44.4826764   8.4596884  20.7705868
  43.8602928   9.1839208  19.7862942  43.8805000   8.5768556  20.2819760
  58.5931170  10.8312026   8.7561356  58.9239388  11.3639666   8.1501451
  59.1664259  10.8850914   9.4123307  58.7264850  10.9181595   8.7639138
  51.1331741  11.9542938  25.1489921  50.3404721  12.2686450  25.3342540
  51.2480668  12.1694406  24.3110705  51.0327151  12.0326774  25.0528255
  53.8063060   8.6776929   9.4384936  53.9009914   9.4166223   9.8924562
  53.1821903   8.2494404   9.8719501  53.7272090   8.7238249   9.5693084
  52.0615533  11.8563141  20.0875217  52.6354395  11.2190386  20.2423781
  51.9830337  11.8567224  19.2184875  52.1348768  11.7628253  19.9821628
  40.6611950   8.6352351  13.9257932  41.2385452   8.4988802  14.5650177
  39.9626012   8.1788135  14.1803516  40.6432971   8.5474617  14.0580221
  47.4179252  10.2886407  12.1396415  47.1598496   9.4558141  12.1127714
  47.4727735  10.5144020  11.2988915  47.3879030  10.1984178  12.0116551
  46.3913964   7.8424169  12.6261309  45.8163555   8.0016337  13.2625270
  46.0149640   7.2059578  12.1629760  46.2516777   7.7721982  12.6515868
  50.0587253   6.3147518  17.4853688  49.6701686   5.8901736  16.8305879
  49.3941951   6.5629668  17.9930715  49.9034181   6.2886239  17.4641556
  51.1626191  10.5446123   5.6830495  51.9766830  10.8361016   5.5713266
  51.0985332   9.8905985   5.1088788  51.2728930  10.4911318   5.5819332
  57.3835681  13.2272119  20.0960071  57.1474319  12.3960184  19.9772131
  58.0278910  13.1757726  20.6814915  57.4430352  13.0969807  20.1645964
  47.0334099  14.0167640  10.8102807  47.6708046  13.7779388  11.3554600
  47.4589171  14.2204799  10.0755968  47.1910266  14.0118651  10.7819964
  41.7246742  16.2555977  14.6937111  41.7650887  16.5270828  13.8656890
  42.2841266  16.7797885  15.1094899  41.8130088  16.3731732  14.6328999
  47.8405455   2.5176345  24.8640281  47.5258896   3.2875908  24.6009843
  47.5195387   1.9546601  24.2792508  47.7464374   2.5486614  24.7381631
  58.4072102  13.0116568  16.1588365  58.1017919  13.7444625  16.5201681
  57.6878318  12.6054497  15.8781151  58.2559444  13.0598301  16.1701502
  49.4155571  14.4940063  12.4896593  49.4894580  14.3315235  13.3438443
  50.2325078  14.6830253  12.2457075  49.5471930  14.4976805  12.5794619
  64.1073894   9.6509568  15.4856709  64.0398394   9.6705528  14.6159296
  64.0929556  10.4939896  15.7112380  64.0952650   9.7783303  15.3909186
  43.1761328  14.8397926   9.5191037  42.3499446  15.0859663   9.3925315
  43.2373319  14.7610007  10.3853095  43.0635495  14.8642875   9.6279981
  47.9560157  17.4574806   7.2210067  48.2458455  17.0663787   6.4969293
  48.6863638  17.6391511   7.6615342  48.1067041  17.4268620   7.1792874
  61.8932511   8.4253955  13.7603304  62.4440433   7.7922024  14.0000396
  61.8776627   8.9569347  14.4518808  61.9717708   8.4102903  13.8982162
  48.5454902  12.2592552  18.3063197  48.0466596  12.9708320  18.3848086
  49.3555126  12.5793219  18.2681360  48.5911009  12.4119401  18.3119766
  45.8966073  19.4342188  10.2870216  45.6766368  19.1439543  11.0796883
  45.6760595  18.7757143   9.7588129  45.8313667  19.2941897  10.3259125
  44.8083020  11.5215505  12.5525918  44.5196268  10.8952976  13.0871645
  45.6766368  11.4635792  12.6190598  44.8943272  11.4203049  12.6416873
  55.5960918   6.6650288  12.8707900  55.2525683   5.9440624  13.2215150
  55.6953960   6.4564140  12.0286258  55.5602960   6.5274492  12.7979580
  48.0634028  20.8071578   9.0700909  48.7158086  20.2748021   9.2991935
  47.3659637  20.4540231   9.4568783  48.0564746  20.6761101   9.1613076
  45.0115293  13.1610756   8.4768283  45.7661261  13.5423795   8.6903746
  44.4185906  13.6121900   8.9314980  45.0352007  13.2839583   8.5751161
  56.0573947  13.1275992   8.4131888  56.6231979  13.7869202   8.3290431
  55.4101850  13.4725691   8.8848290  56.0452703  13.2757934   8.4704644
  47.4721960   5.1173596  23.6025495  46.6621736   5.4231376  23.4915338
  47.9496647   5.8379179  23.7178079  47.4225439   5.2688198  23.6032566
  46.3313520  14.3319317  13.8508398  45.8094273  14.4719609  14.5360263
  46.7187540  13.5729982  14.0410516  46.3117221  14.2404841  13.9809475
  52.5280525  16.0714777   7.8368967  52.2867201  15.3382637   7.4296032
  52.7081858  16.6201634   7.1835301  52.5188149  16.0437168   7.6799190
  47.7579845  11.3623336   9.2489889  47.5622628  11.9698071   8.6550192
  47.9814191  10.6691280   8.7681563  47.7614486  11.3500862   9.0905970
  46.1558375   8.2478074   9.3670758  46.8781027   8.4119232   8.9074564
  45.6766368   8.9687739   9.2610098  46.1922106   8.3776304   9.2836372
  54.1151883   4.5841873  14.7467443  53.2762984   4.6103152  14.5105706
  54.1856250   5.2312609  15.3272789  54.0020276   4.6837999  14.7976560
  43.8065992  10.6536147  18.4724898  44.3187089  10.9320400  17.8233657
  43.5202335  11.3925441  18.8387711  43.8400855  10.8038500  18.4314776
  57.9909407   9.7909860  12.0328685  57.9043381   9.9465286  12.8863463
  57.5359887  10.4347935  11.6588090  57.9112663   9.9085615  12.1035791
  47.3249717   2.7462535  18.5325939  47.1332915   2.7617670  19.3825363
  48.1748313   2.9426210  18.5092594  47.4225439   2.7776887  18.6549234
  41.7096631   5.2753517  16.5109756  41.5682122   4.4237457  16.6354264
  41.9937194   5.3182177  15.6871962  41.7304477   5.1553267  16.4077380
  51.8635223   7.1120607  10.6554244  51.6169937   7.0316358  11.4891033
  52.1920346   6.3274075  10.4616772  51.8756466   6.9846872  10.7501767
  55.7583272  13.8203966  14.4441025  55.6197631  14.5185012  14.9489768
  54.9783270  13.6652623  14.0877207  55.6226499  13.9004133  14.4667299
  54.0961357  10.1200342  20.6963407  54.0909395   9.2480158  20.7005833
  54.8022351  10.3188511  20.2232863  54.2006361  10.0204216  20.6270442
  47.8232250   9.8477326  20.0677227  47.9675626  10.4278534  19.4320337
  48.1707899  10.2253622  20.7727082  47.8959712   9.9898030  20.0776222
  49.9952168   9.0467494  17.8502359  49.2475482   9.2398508  17.4450637
  50.1493693   8.2212713  17.6126480  49.9074595   8.9532605  17.7547765
  46.8960005  18.0380097  16.9338254  47.0449569  17.4783013  16.2811658
  47.6760007  18.1172099  17.3170773  47.0334099  17.9665663  16.8935203
  49.4213306  18.2094740  18.2122745  49.3456977  17.5403551  18.7673533
  49.3503165  18.9112528  18.7263411  49.3993913  18.2139648  18.3699593
  50.2353945   2.9418045  18.7397762  50.6926559   3.6742019  18.8670555
  50.3110273   2.5184510  19.4985018  50.3144914   2.9875283  18.8698839
  42.4786936   3.1883864  19.8287206  41.9429125   2.5764223  20.1447973
  42.5404701   3.7632000  20.4820873  42.4082568   3.1830792  19.9722633
  50.0783553  16.7295739   9.0446351  50.8433444  16.4605383   8.7229015
  49.9761643  16.2445749   9.7616414  50.1765048  16.6185304   9.1026178
  48.1136322   4.9320149  15.5839586  47.3232397   4.7511609  15.9056922
  48.5096945   4.1547101  15.5669881  48.0553199   4.7907610  15.6292135
  53.4980009  12.5662579  13.3099032  52.8225011  12.3347811  13.8112419
  53.5072385  11.9583762  12.6841137  53.3998513  12.4421504  13.2915185
  50.6274153   7.4080408  20.0663085  50.5633294   8.2690364  19.9383222
  50.7671340   7.0912401  19.2658637  50.6389623   7.4880574  19.9291298
  55.4996743  15.4227711   5.5409210  55.5816581  16.2294697   5.2170661
  55.9846486  15.4423670   6.2649984  55.5833901  15.5448374   5.5996109
  49.3093247  10.1012547  14.2079288  48.8855496  10.3017046  13.4718307
  49.1338102   9.2541395  14.3203588  49.2204127  10.0061329  14.1152978
  48.8104940  21.6163060  16.6700746  49.3000870  20.9173849  16.4876410
  48.2389172  21.3186930  17.2576803  48.7989470  21.4689284  16.7301786
  44.5975692  10.5964598   9.6407261  44.7540311  10.5311401  10.4963253
  44.9376285  11.3713151   9.4285940  44.6708926  10.7013797   9.7361855
  51.1354836   9.9722482   8.5100624  51.6770382   9.4692863   8.9739245
  51.4501395   9.9187677   7.6990109  51.2619233   9.8901903   8.4584436
  55.0071944  14.1825129  25.6227536  55.8206809  13.9110278  25.7832669
  54.8466910  13.8832669  24.8187732  55.1041892  14.0980055  25.5272942
  49.3041286  15.3639834   5.7940652  49.3734106  14.5054372   5.9333652
  50.0829741  15.5811714   5.4659677  49.4294136  15.2692698   5.7657809
  52.2844106   4.8658787  18.5622925  52.4986075   4.2269701  18.0086278
  51.6678005   5.3104610  18.1330786  52.2249435   4.8368930  18.4173356
  53.6948774  17.7877535  10.0077145  53.3028565  17.4844250   9.2900012
  53.8501846  18.6246625   9.8182099  53.6602363  17.8661372   9.8733642
  41.1709953   7.7799549   9.9568028  41.5508918   8.1984094   9.2928295
  40.5965318   8.3613005  10.2636871  41.1421278   7.9277408   9.9044769
  54.4483194   6.4747852  19.5006232  53.6359875   6.1673742  19.5819404
  54.9073128   5.9946852  20.0648944  54.3963578   6.3584344  19.5960826
  53.8588448  14.3527524   9.9483176  53.5003103  14.5242167  10.7247208
  53.3727159  14.8140729   9.3911174  53.7347145  14.4466495   9.9808445
  51.5436701   7.8807923  24.2834934  52.0136332   8.5050040  24.6702808
  51.5898581   7.2124899  24.8428149  51.6204577   7.8742603  24.4235005
  55.0193188  15.2431420  20.8950377  55.6572908  14.7491615  20.5612833
  54.3767279  15.1708820  20.3102604  55.0187414  15.1590428  20.7592732
  56.7450188   7.0920566  15.4616292  56.3177796   7.0046914  14.7064392
  56.1076241   7.1998341  16.0471137  56.5879795   7.0953225  15.4361734
  55.0747444  15.9351228  17.5355734  55.8639822  15.5840293  17.6557815
  55.2491042  16.7487616  17.2732367  55.2167726  16.0037085  17.5143602
  44.8140755   9.3459954  14.5883522  43.9728761   9.2463828  14.7962416
  45.0230763  10.1155434  14.9397843  44.7205447   9.4451997  14.6710837
  42.2916322   6.9679491  12.4168273  41.8973019   7.0422502  11.6418383
  41.7356438   7.3537437  12.9676635  42.1519134   7.0361265  12.3835933
  48.6257420   7.2741353  13.8381120  48.3220557   6.7197341  14.4391528
  47.9236840   7.4533563  13.3509154  48.4773629   7.2186135  13.8550826
  46.6875771  14.4891074  18.5453218  46.5796125  14.4993136  19.4115276
  46.8971552  15.3145854  18.3558171  46.7025882  14.6132148  18.6457309
  44.7049563  11.7403716  16.0075155  44.1137496  12.3813214  15.9778170
  45.4670586  12.1641333  15.9806455  44.7297823  11.8979554  15.9990303
  45.1010185   2.9005714  16.6743173  45.5611667   2.9744643  17.4118297
  45.1466292   3.6986968  16.3242994  45.1760741   3.0299861  16.7315929
  46.7493535   3.5672409  21.2415200  46.3579100   2.9205756  21.6770978
  46.9179398   4.1583844  21.8609455  46.7164445   3.5586676  21.3977906
  60.8239984  11.5709486  17.0052434  60.8823108  12.0196134  17.7512410
  60.1906452  11.9808298  16.5682514  60.7391279  11.6983220  17.0504982
  54.4639079  17.1913028  13.4407180  54.2658767  17.6803842  12.7463391
  53.8426790  17.3954269  14.0191313  54.3426643  17.2929566  13.4230403
  48.5247057   8.9597924   7.7817424  49.2689102   9.3472201   8.0200374
  48.6707753   8.1155350   7.9457912  48.6557642   8.8928397   7.8411394
  51.5124933   4.5323398  13.6811343  51.0384887   4.0065160  14.1916654
  51.8843069   3.9852871  13.1126205  51.4974822   4.3739394  13.6726491
  41.8897963   6.5294904  19.0494889  42.7523576   6.4290614  18.9632219
  41.5589746   5.9489614  18.4880461  41.9683159   6.4286531  18.9540295
  57.7761664   9.5925773  15.0918124  57.5359886   8.7532189  15.0960550
  58.2553671   9.6725940  15.8158897  57.8113847   9.4807173  15.1992926
  59.7766851   6.3727231  13.0447383  59.5376621   6.3323065  12.2068168
  59.9400752   7.2198383  13.1713104  59.7657154   6.4919316  12.9400865
  56.3812881  10.7577180  18.9752428  57.1047080  10.3049706  18.7963448
  56.1162843  11.0381846  18.1924756  56.4494154  10.7328148  18.8331143
  45.2499749   5.3537353  15.7105307  44.6252819   5.3655745  15.1031260
  44.9145344   5.8297529  16.3596548  45.1085241   5.4255870  15.7161876
  41.9625425  13.4137814  17.1509072  41.4325349  12.7230252  17.2004046
  42.2350518  13.4047999  16.3221780  41.9250147  13.3104945  17.0356488
  52.9945515  13.9963516   5.8746754  53.7179714  14.4621629   5.7311327
  52.5546106  14.0637125   5.1244351  53.0361207  14.0747353   5.7431536
  52.1631670  10.8561058  17.1247443  51.5488663  10.3119108  17.4196078
  52.6798955  10.3425295  16.6453259  52.1487333  10.6997467  17.0971672
  51.4027967  11.9265328  14.8591742  50.9755575  11.3015047  14.4257177
  51.3952912  11.6440250  15.6850749  51.3387109  11.7918109  14.9171569
  44.5190494   6.9630501  17.9280176  44.6783981   6.2073825  18.3331898
  44.3383388   7.5121441  18.5820913  44.5155853   6.9324315  18.0842882
  49.7313677   2.8034083  15.0734276  49.7556164   2.2694195  14.3847056
  49.9825151   2.2951392  15.7359866  49.7723596   2.6494987  15.0698920
  37.2421267  10.0865578  14.5077420  37.1364716  10.0412422  13.6429504
  36.4921487  10.4319358  14.7891705  37.1156870  10.1306486  14.4214750
  46.0114999   1.5304901  14.4540020  46.0513371   2.0314108  15.1674728
  45.1864664   1.6215295  14.1845943  45.8954525   1.6186717  14.5190558
  48.1944612  11.0965641  22.5560315  47.3440243  11.2337355  22.6917960
  48.3572740  10.3629419  23.0008016  48.0928476  11.0079742  22.6415914
  47.4329363   8.0465411  16.7513919  46.6021292   8.2139229  16.5449167
  47.3780880   7.6701362  17.5362804  47.3018778   8.0155142  16.8362447
  45.2413146   1.5374304  22.3870330  45.8665849   0.9936436  22.6599762
  44.7863626   1.0569221  21.8178120  45.2661407   1.3863785  22.3431924
  58.8148195   9.7203591  17.4782978  59.4066035  10.3600841  17.5101176
  59.2507189   9.0226627  17.7675045  58.9666626   9.7121941  17.5263810
  50.6441585  14.1420963  18.1040872  50.1366676  14.6956810  18.5481502
  50.3468231  14.2029253  17.2859646  50.5246469  14.2327274  18.0489328
  53.2549365  18.0584221   6.0344815  52.5378675  17.8845083   5.5692053
  53.9056102  17.8236793   5.5020301  53.2451215  17.9980013   5.8874033
  55.8397336   6.9348809   9.7786120  55.1688526   7.4778512   9.6499186
  56.5337086   7.4043665   9.5367815  55.8426204   7.0847081   9.7241648
  49.8884070  19.0745521  15.0097879  49.6649724  18.3164351  15.3781905
  49.3993913  19.1043543  14.2878318  49.7827519  18.9667746  14.9574620
  44.7009148   6.0212213  10.7459340  43.9821138   6.4376345  11.0132204
  45.0721511   6.5866451  10.1950978  44.6501080   6.1661494  10.7042147
  54.0008729   6.6540062  16.6361336  53.9806657   6.4723357  17.4896115
  54.0487930   7.5252080  16.6120919  54.0043370   6.7556600  16.7584631
  51.9455059  13.2427254  22.5609812  51.9050914  12.5976931  21.9754968
  52.7578377  13.1863871  22.8735224  52.0598213  13.1386220  22.5206762
  48.5362527  19.2945979  12.4634963  48.1222925  18.6320110  12.0738805
  49.2209901  19.4423838  11.9430657  48.5760898  19.2186638  12.3291460
  51.9027821  18.4536065  13.2158580  51.5044104  18.5638335  12.4479400
  51.2879040  18.6618131  13.7985140  51.7526710  18.5009633  13.1889879
  53.3513539   5.0189717   9.5134470  53.1227232   5.0422419   8.6712828
  53.6111616   4.1947184   9.6329480  53.3559727   4.9005797   9.4059668
  47.6332768   6.8724190  19.1159570  47.1211671   6.2645373  19.4744601
  47.4612264   7.5880783  19.5833546  47.5322405   6.8887489  19.2375794
  42.4798483   5.3161765  21.7661932  42.3101073   5.9763140  21.2210138
  42.0364432   5.5268327  22.4874421  42.3897816   5.4447748  21.7923561
  46.4058302   3.5566263  10.8088665  46.8815668   3.9183343  10.1738847
  45.9046902   4.2122731  11.0888808  46.4023661   3.7060452  10.7565406
  51.5101838   4.7948435  21.5561826  52.0673268   4.5662244  20.9240291
  51.1862903   5.5554100  21.2797038  51.5448248   4.8732271  21.4218323
  39.3800547   8.2208631  17.0250422  38.8327267   7.5509277  17.1431290
  40.1692925   7.8538479  17.0893889  39.4152731   8.0673617  17.0519122
  49.2284955   7.8816088  22.5213833  49.9796282   8.1967765  22.8353387
  49.4207532   7.6795259  21.6947754  49.3676370   7.8983470  22.4457228
  38.1387517   7.4329439  14.1796445  37.9609278   6.9806048  14.9051360
  37.8506539   8.2355600  14.3634922  38.0700470   7.4851997  14.3139948
  53.8011098   8.6887156  13.4173835  54.2964763   7.9710151  13.3777855
  52.9910873   8.3857954  13.3028322  53.7554991   8.5384802  13.3947561
  49.2469709  12.5384969   5.5670839  48.4381032  12.2151643   5.5204149
  49.7544618  11.8318191   5.4999088  49.2019376  12.3866286   5.5501134
  39.8759986   9.9657163  11.2918204  39.0105506   9.9542853  11.1800975
  39.9758802   9.7787385  12.1389343  39.7634153   9.9363224  11.4007148
  55.8662917  11.4390844  16.1050964  56.2917988  10.9165265  15.5521389
  55.5019836  12.0371681  15.5839587  55.8749519  11.4501071  15.9459974
  45.5016996  19.7355061  14.8648309  45.8163555  20.5491450  14.8726091
  45.9110410  19.3505280  15.5330468  45.6085094  19.7983764  14.9652401
  52.4541516  15.1525108  12.4352121  52.9252694  15.8665371  12.6042106
  52.7901695  14.5523858  12.9711991  52.5736631  15.1696572  12.5384497
  54.5418501  16.7626421  24.6144193  54.6515466  15.9734982  24.9700940
  54.8709397  16.6732357  23.8118531  54.6070906  16.6332274  24.5486584
  53.0915462  14.9443042  19.1979814  52.5436408  14.3200926  18.9299879
  53.5528491  15.1337314  18.4823893  53.0782672  14.8802092  19.0530245
  42.8430016  13.6828170  14.5126918  43.4474874  13.6424004  13.8840738
  42.6357329  14.5299322  14.5430974  42.9018914  13.8016172  14.4243034
  52.6573789  15.9494115  15.7289155  53.4772162  15.8057081  15.9905450
  52.3767866  16.5740314  16.2705593  52.7370532  16.0204467  15.8477094
  38.0781299  12.6662787  14.3825841  37.9805577  11.8559059  14.6915897
  38.8610168  12.6454580  13.9972109  38.1797435  12.5429877  14.3712704
  62.3287124  22.6934617  13.4484962  61.4725019  22.8543116  13.4994079
  62.3754778  21.8226681  13.4690023  62.2086235  22.5885419  13.4591028
  56.7128264  32.2297335   9.2122193  55.9611163  31.8512874   8.9838238
  57.1614275  32.2615769   8.4641004  56.6677930  32.1782942   9.0679696
  65.6380840  28.9621143  23.0545418  66.3447608  28.4673174  23.1832352
  65.8268776  29.4030225  22.3248076  65.7708746  28.9539493  22.9654463
  62.1653223  32.6522705   4.6407741  61.8304592  33.3299626   4.2051963
  62.6780094  32.2628016   4.0524612  62.1918805  32.6947283   4.4894532
  61.7057515  34.6036974  10.5818852  62.0896894  35.1723872  10.0423627
  61.6416656  33.8786484  10.1024668  61.7530942  34.5812437  10.4312715
  65.1738945  24.7526661  16.0916613  65.7194905  25.4311748  16.1510583
  65.1155821  24.6114122  15.2318195  65.2454859  24.8318663  15.9728674
  58.2913020  32.2415727  11.4784966  58.3923383  31.4316081  11.7882094
  57.6954765  32.1472674  10.8484644  58.2185558  32.1080756  11.4311204
  66.9504014  26.1811268   6.9650341  66.8343539  26.9318955   7.3942479
  67.7459900  25.9235222   7.2146428  67.0508603  26.2546115   7.0654433
  58.1313759  37.1593317  12.8799822  58.7751215  37.6006481  13.2695980
  58.4570015  36.3546743  12.7930081  58.2745588  37.1058511  12.9245299
  51.4878064  28.2636014  11.1037300  51.2528248  27.4303666  10.9969568
  51.6263705  28.5440680  10.2898501  51.4733726  28.1819517  10.9679655
  53.7868151  20.4321745  14.0021607  53.1673183  19.8414392  13.8331622
  53.6852015  21.0233180  13.3685930  53.6805827  20.4325827  13.8826597
  58.8334339  30.1705292   8.2519684  59.1550180  30.7110499   7.6480992
  59.4806436  29.6002063   8.3841973  58.9760394  30.1664467   8.1826719
  60.8836047  22.1721286   8.3354070  61.5816212  22.3509414   8.8275534
  61.1988380  21.6491626   7.7124460  61.0331384  22.1215059   8.3156081
  53.5137284  23.9774026  16.2465176  53.3895981  24.5636472  16.8814995
  54.1655569  23.4834222  16.5477451  53.5910934  23.9912831  16.3851106
  61.0723982  28.5591731   8.3233862  61.5117618  27.9508832   8.7688635
  60.9228645  28.1799105   7.5519327  61.1145448  28.4130203   8.2753029
  58.5395625  27.1535743  15.5252687  59.1844628  26.6608186  15.2063636
  58.7797403  27.2960530  16.3518766  58.6706211  27.1013186  15.6002221
  61.0781717  29.9990649  15.1759580  61.3604960  29.2042055  14.9546336
  61.8067877  30.4771237  15.1964641  61.2271281  29.9525246  15.1462595
  59.0562911  17.5413683  12.4175345  58.7266241  17.9924827  11.7479044
  58.3807912  17.4629846  12.9648351  58.9073347  17.5964818  12.3998568
  64.6733319  26.9118913   5.2764631  64.5884614  27.7679879   5.4214200
  65.1617702  26.6363237   5.9446790  64.7322216  26.9976234   5.3966713
  65.6051752  23.5303707   6.7762366  65.0763224  23.7463340   7.4359672
  66.1276772  24.2239845   6.6963336  65.6040205  23.6646844   6.8617965
  71.0599805  29.1050011  12.1495411  70.2297508  29.3160655  12.3128827
  71.0109057  28.2787066  11.8737694  70.9306541  29.0139618  12.1332776
  57.4951360  27.4266924   5.5769834  56.9108575  27.9316955   5.9835698
  57.0921455  27.2009311   4.8366426  57.3490664  27.4675172   5.5274859
  53.0495389  33.1421685  12.3793506  52.5662967  33.8672174  12.3553089
  53.8618707  33.4397815  12.4903663  53.0986136  33.2924039  12.3920785
  59.1209543  31.9353866  14.9843320  58.6036484  31.5761281  14.3804628
  59.8183934  31.4116040  14.9949386  59.1475124  31.8051553  14.8973579
  62.7773135  32.3848680  20.9459493  62.8656481  32.1974820  21.7937704
  63.2062847  31.7386109  20.5464340  62.8535237  32.2611687  21.0131245
  60.3443594  31.6679840  19.9277155  59.7814429  31.2552449  20.4516817
  61.1064618  31.5932745  20.3470299  60.3738043  31.5957240  20.0670156
  57.2618865  15.6025972   7.8998293  58.0164833  15.9704289   7.6615343
  57.0846399  15.9765526   8.6677472  57.3473343  15.7124159   7.9783181
  55.9039586  33.6577861  12.5313786  56.6060165  33.1429850  12.5886542
  55.8237069  33.9852012  13.3360661  55.9963346  33.6292087  12.6586578
  70.5553763  21.7520412  15.9445832  69.7182185  21.8222599  16.1793426
  70.5241994  21.7544907  15.0720134  70.4272046  21.7630639  15.8505380
  56.9518492  23.8953448  21.6594201  57.1238996  23.7859342  22.5079482
  57.4887850  24.5407853  21.4225393  57.0563496  23.9745449  21.7499297
  55.6175929  18.0096290   4.5976406  55.4351503  18.2268171   3.7717398
  56.4801542  18.1235303   4.6535020  55.7180519  18.0586188   4.4830893
  55.2290361  29.8484213  12.0399394  56.0679261  30.0807146  12.0873155
  55.2602131  28.9788524  11.9706429  55.3572079  29.7541159  12.0364038
  55.8543064  30.2685088  16.3412699  56.3941289  30.1256219  17.0116071
  55.1713011  30.6681839  16.7096725  55.8335218  30.3064759  16.4947121
  65.2783949  25.9476089  11.5357723  66.0341464  26.3807603  11.5746632
  65.3846274  25.2980858  12.1092360  65.4054120  25.9153572  11.6255749
  68.3164120  29.7749366  12.2860126  67.8799352  29.7786108  13.0419098
  67.9827036  30.4554865  11.8539704  68.2026740  29.8761822  12.3340959
  62.8893194  31.8157699  23.6103277  63.6733611  31.9288546  23.9759019
  62.6889789  30.9898836  23.8061963  62.9759219  31.7104418  23.6937663
  51.2580209  26.4885379  16.4947121  50.9918625  25.6724495  16.6538111
  51.2718774  26.5338534  15.6242636  51.2204932  26.3742284  16.3900603
  68.2361603  16.8163194  14.5289554  68.8787512  16.8861298  15.1151470
  68.4884624  16.1492417  14.0269096  68.3683735  16.7289542  14.5416834
  55.1637956  21.2870463   3.1098879  54.4496134  21.0008643   3.5221311
  55.6481925  21.6267089   3.7505266  55.1297320  21.2952113   3.2654514
  56.0078816  20.0263757  19.1414128  55.3150613  19.5560737  19.3874860
  56.6239143  19.8002062  19.7155836  55.9963346  19.9230889  19.2623281
  63.0463587  33.7267801  17.2569732  62.2478833  33.4867301  17.5143601
  63.4949599  33.7782194  18.0036780  62.9938199  33.6990192  17.4054657
  71.4508467  26.4930286  11.1779764  72.1124901  25.9320954  11.0775672
  70.8099879  25.9982316  11.5032455  71.4537334  26.3366695  11.2112104
  62.3385274  29.7900417   3.4860687  62.7536423  29.4585441   2.7945183
  61.5077204  29.5569319   3.3580824  62.2773283  29.7071673   3.3651534
  51.6673623  27.2744158  13.7758865  51.4849196  27.2491044  12.9231157
  52.4023292  27.7443096  13.8147774  51.7487687  27.3405520  13.6556783
  67.7373297  27.5095668  10.9191752  67.9728886  27.6540867  10.0918603
  67.8862861  28.2738076  11.3123266  67.7939101  27.6434722  10.8555356
  54.7319375  23.9929161  20.2840974  55.4559347  23.9782192  20.7705868
  54.8335511  24.7024516  19.7862942  54.8537584  24.0953864  20.2819760
  69.5663754  26.3497334   8.7561356  69.8971971  26.8824974   8.1501451
  70.1396842  26.4036222   9.4123307  69.6997433  26.4366903   8.7639138
  62.1064324  27.4728246  25.1489921  61.3137305  27.7871757  25.3342540
  62.2213251  27.6879714  24.3110705  62.0059735  27.5512082  25.0528255
  64.7795643  24.1962237   9.4384936  64.8742498  24.9351531   9.8924562
  64.1554487  23.7679712   9.8719501  64.7004673  24.2423557   9.5693084
  63.0348117  27.3748449  20.0875217  63.6086979  26.7375694  20.2423781
  62.9562921  27.3752532  19.2184875  63.1081352  27.2813561  19.9821628
  51.6344533  24.1537659  13.9257932  52.2118036  24.0174110  14.5650177
  50.9358595  23.6973443  14.1803516  51.6165555  24.0659925  14.0580221
  58.3911836  25.8071714  12.1396415  58.1331080  24.9743449  12.1127714
  58.4460318  26.0329327  11.2988915  58.3611613  25.7169486  12.0116551
  63.4712886  17.9100165  12.2400507  62.7669212  17.4209351  12.3984427
  63.5197860  17.9222640  11.3688952  63.3742937  17.8389813  12.1339847
  57.3646548  23.3609477  12.6261309  56.7896139  23.5201645  13.2625270
  56.9882224  22.7244886  12.1629760  57.2249360  23.2907290  12.6515868
  61.0319836  21.8332826  17.4853688  60.6434269  21.4087044  16.8305879
  60.3674535  22.0814976  17.9930715  60.8766764  21.8071547  17.4641556
  47.1103367  23.0049552  10.6405750  47.1963618  22.6281420  11.4219280
  47.7379164  22.6309997  10.1625708  47.2159918  22.8935034  10.6851227
  64.8546198  15.5307455  14.9977672  65.2356710  14.8485626  15.3845546
  64.0509482  15.2417057  14.8153337  64.7922660  15.3874503  15.0281728
  62.1358775  26.0631431   5.6830495  62.9499413  26.3546324   5.5713266
  62.0717916  25.4091293   5.1088788  62.2461514  26.0096626   5.5819332
  68.3568265  28.7457427  20.0960071  68.1206902  27.9145492  19.9772131
  69.0011494  28.6943034  20.6814915  68.4162936  28.6155115  20.1645964
  58.0066683  29.5352948  10.8102807  58.6440630  29.2964696  11.3554600
  58.4321754  29.7390107  10.0755968  58.1642849  29.5303958  10.7819964
  52.6979325  31.7741285  14.6937111  52.7383471  32.0456136  13.8656890
  53.2573849  32.2983193  15.1094899  52.7862671  31.8917040  14.6328999
  58.6469498  24.7555238   5.1477696  59.0314651  24.5362945   5.8994241
  58.3981118  25.5818183   5.2778773  58.6671571  24.8453384   5.2778773
  58.8138038  18.0361653  24.8640281  58.4991479  18.8061216  24.6009843
  58.4927971  17.4731909  24.2792508  58.7196957  18.0671922  24.7381631
  69.3804685  28.5301876  16.1588365  69.0750503  29.2629933  16.5201681
  68.6610901  28.1239805  15.8781151  69.2292028  28.5783609  16.1701502
  60.3888155  30.0125371  12.4896593  60.4627163  29.8500543  13.3438443
  61.2057661  30.2015560  12.2457075  60.5204513  30.0162113  12.5794619
  75.0806478  25.1694876  15.4856709  75.0130978  25.1890836  14.6159296
  75.0662140  26.0125204  15.7112380  75.0685234  25.2968611  15.3909186
  54.1493912  30.3583234   9.5191037  53.3232029  30.6044971   9.3925315
  54.2105903  30.2795315  10.3853095  54.0368079  30.3828183   9.6279981
  56.3669935  16.4252175  10.4786477  55.4992361  16.4974774  10.5444086
  56.6545140  17.2274254  10.6674452  56.2809683  16.5546322  10.5161243
  65.4902824  16.5730034  18.8097799  66.2356416  16.3839844  18.3961224
  65.0740129  17.0988272  18.2511655  65.5387798  16.6232179  18.6662372
  58.9292741  32.9760114   7.2210067  59.2191039  32.5849095   6.4969293
  59.6596221  33.1576819   7.6615342  59.0799625  32.9453928   7.1792874
  72.8665095  23.9439263  13.7603304  73.4173016  23.3107332  14.0000396
  72.8509210  24.4754655  14.4518808  72.9450291  23.9288211  13.8982162
  59.5187486  27.7777860  18.3063197  59.0199179  28.4893628  18.3848086
  60.3287710  28.0978526  18.2681360  59.5643592  27.9304708  18.3119766
  56.8698656  34.9527496  10.2870216  56.6498952  34.6624851  11.0796883
  56.6493178  34.2942451   9.7588129  56.8046250  34.8127205  10.3259125
  55.7815603  27.0400813  12.5525918  55.4928852  26.4138284  13.0871645
  56.6498951  26.9821100  12.6190598  55.8675855  26.9388357  12.6416873
  66.5693501  22.1835596  12.8707900  66.2258267  21.4625931  13.2215150
  66.6686544  21.9749447  12.0286258  66.5335544  22.0459800  12.7979580
  59.0366612  36.3256886   9.0700909  59.6890670  35.7933329   9.2991935
  58.3392221  35.9725539   9.4568783  59.0297330  36.1946409   9.1613076
  55.9847877  28.6796064   8.4768283  56.7393845  29.0609103   8.6903746
  55.3918489  29.1307208   8.9314980  56.0084590  28.8024891   8.5751161
  67.0306530  28.6461300   8.4131888  67.5964563  29.3054510   8.3290431
  66.3834434  28.9910998   8.8848290  67.0185287  28.7943242   8.4704644
  58.4454544  20.6358904  23.6025495  57.6354320  20.9416684  23.4915338
  58.9229230  21.3564487  23.7178079  58.3958023  20.7873505  23.6032566
  57.3046103  29.8504625  13.8508398  56.7826857  29.9904917  14.5360263
  57.6920124  29.0915290  14.0410516  57.2849804  29.7590149  13.9809475
  54.2937287  19.9010434   7.9203353  54.0062083  19.5311704   7.1835300
  54.9807756  20.3705289   7.6587058  54.3526185  19.9157403   7.7718429
  63.5013108  31.5900085   7.8368967  63.2599784  30.8567945   7.4296032
  63.6814441  32.1386942   7.1835301  63.4920732  31.5622476   7.6799190
  58.7312429  26.8808644   9.2489889  58.5355212  27.4883379   8.6550192
  58.9546775  26.1876588   8.7681563  58.7347070  26.8686170   9.0905970
  57.1290959  23.7663382   9.3670758  57.8513611  23.9304540   8.9074564
  56.6498952  24.4873047   9.2610098  57.1654690  23.8961612   9.2836372
  65.0884467  20.1027181  14.7467443  64.2495567  20.1288460  14.5105706
  65.1588834  20.7497916  15.3272789  64.9752860  20.2023307  14.7976560
  54.7798576  26.1721455  18.4724898  55.2919673  26.4505708  17.8233657
  54.4934918  26.9110749  18.8387711  54.8133439  26.3223808  18.4314776
  68.9641990  25.3095168  12.0328685  68.8775965  25.4650594  12.8863463
  68.5092470  25.9533243  11.6588090  68.8845247  25.4270923  12.1035791
  51.8665482  20.6791646   8.7688634  51.9681618  21.4817808   9.0969610
  52.6621369  20.4778982   8.4711715  51.9993388  20.7677545   8.7723990
  58.2982301  18.2647843  18.5325939  58.1065498  18.2802978  19.3825363
  59.1480897  18.4611518  18.5092594  58.3958023  18.2962194  18.6549234
  52.6829214  20.7938825  16.5109756  52.5414706  19.9422765  16.6354264
  52.9669777  20.8367485  15.6871962  52.7037060  20.6738575  16.4077380
  62.8367806  22.6305915  10.6554244  62.5902521  22.5501666  11.4891033
  63.1652930  21.8459383  10.4616772  62.8489050  22.5032180  10.7501767
  66.7315855  29.3389274  14.4441025  66.5930215  30.0370320  14.9489768
  65.9515853  29.1837931  14.0877207  66.5959082  29.4189441  14.4667299
  65.0693940  25.6385650  20.6963407  65.0641979  24.7665466  20.7005833
  65.7754934  25.8373819  20.2232863  65.1738944  25.5389524  20.6270442
  58.7964834  25.3662633  20.0677227  58.9408209  25.9463842  19.4320337
  59.1440482  25.7438930  20.7727082  58.8692295  25.5083338  20.0776222
  60.9684751  24.5652802  17.8502359  60.2208065  24.7583816  17.4450637
  61.1226276  23.7398021  17.6126480  60.8807179  24.4717913  17.7547765
  57.8692589  33.5565405  16.9338254  58.0182152  32.9968321  16.2811658
  58.6492591  33.6357407  17.3170773  58.0066682  33.4850971  16.8935203
  60.3945889  33.7280048  18.2122745  60.3189560  33.0588859  18.7673533
  60.3235748  34.4297836  18.7263411  60.3726496  33.7324956  18.3699593
  61.2086528  18.4603353  18.7397762  61.6659142  19.1927327  18.8670555
  61.2842857  18.0369818  19.4985018  61.2877498  18.5060591  18.8698839
  53.4519519  18.7069172  19.8287206  52.9161709  18.0949530  20.1447973
  53.5137284  19.2817308  20.4820873  53.3815152  18.7016100  19.9722633
  61.0516136  32.2481047   9.0446351  61.8166027  31.9790691   8.7229015
  60.9494226  31.7631057   9.7616414  61.1497632  32.1370612   9.1026178
  59.0868906  20.4505457  15.5839586  58.2964981  20.2696917  15.9056922
  59.4829529  19.6732409  15.5669881  59.0285782  20.3092917  15.6292135
  64.4712592  28.0847887  13.3099032  63.7957594  27.8533119  13.8112419
  64.4804968  27.4769070  12.6841137  64.3731097  27.9606812  13.2915185
  61.6006736  22.9265716  20.0663085  61.5365878  23.7875672  19.9383222
  61.7403924  22.6097709  19.2658637  61.6122206  23.0065882  19.9291298
  66.4729327  30.9413019   5.5409210  66.5549164  31.7480005   5.2170661
  66.9579069  30.9608978   6.2649984  66.5566485  31.0633681   5.5996109
  60.2825830  25.6197855  14.2079288  59.8588079  25.8202354  13.4718307
  60.1070685  24.7726703  14.3203588  60.1936711  25.5246636  14.1152978
  59.7837524  37.1348368  16.6700746  60.2733454  36.4359157  16.4876410
  59.2121756  36.8372238  17.2576803  59.7722054  36.9874592  16.7301786
  55.5708275  26.1149906   9.6407261  55.7272894  26.0496709  10.4963253
  55.9108868  26.8898459   9.4285940  55.6441510  26.2199105   9.7361855
  62.1087420  25.4907790   8.5100624  62.6502965  24.9878171   8.9739245
  62.4233979  25.4372985   7.6990109  62.2351817  25.4087211   8.4584436
  65.9804527  29.7010437  25.6227536  66.7939392  29.4295586  25.7832669
  65.8199494  29.4017977  24.8187732  66.0774476  29.6165363  25.5272942
  60.2773870  30.8825142   5.7940652  60.3466690  30.0239680   5.9333652
  61.0562325  31.0997022   5.4659677  60.4026720  30.7878005   5.7657809
  63.2576689  20.3844094  18.5622925  63.4718659  19.7455009  18.0086278
  62.6410588  20.8289918  18.1330786  63.1982018  20.3554238  18.4173356
  64.6681357  33.3062843  10.0077145  64.2761149  33.0029558   9.2900012
  64.8234429  34.1431933   9.8182099  64.6334947  33.3846680   9.8733642
  52.1442537  23.2984857   9.9568028  52.5241502  23.7169402   9.2928295
  51.5697901  23.8798313  10.2636871  52.1153862  23.4462716   9.9044769
  65.4215777  21.9933160  19.5006232  64.6092459  21.6859050  19.5819404
  65.8805712  21.5132160  20.0648944  65.3696162  21.8769652  19.5960826
  64.8321032  29.8712832   9.9483176  64.4735687  30.0427475  10.7247208
  64.3459743  30.3326037   9.3911174  64.7079729  29.9651803   9.9808445
  62.6491418  13.4944030  13.5510267  61.7784976  13.4682751  13.5043577
  62.9031759  13.3221222  12.7336113  62.5584978  13.4654174  13.4230404
  59.6209397  25.5511997   2.4883410  59.9101922  26.3276880   2.7626985
  59.7081196  25.0400728   3.1897910  59.6763654  25.5903915   2.6325908
  62.5169285  23.3993231  24.2834934  62.9868916  24.0235348  24.6702808
  62.5631165  22.7310207  24.8428149  62.5937161  23.3927911  24.4235005
  59.6740558  15.5050259  15.0083738  59.1579047  14.8130450  15.1335317
  59.1134487  16.1721036  14.9546336  59.5147072  15.5013516  15.0189804
  61.7432792  16.0443219  16.8376590  61.3564545  16.0692250  17.6190120
  61.2565729  15.4784897  16.3851107  61.6145301  15.9638969  16.8864494
  65.9925771  30.7616728  20.8950377  66.6305492  30.2676923  20.5612833
  65.3499863  30.6894128  20.3102604  65.9919998  30.6775736  20.7592732
  67.7182771  22.6105874  15.4616292  67.2910379  22.5232222  14.7064392
  67.0808824  22.7183649  16.0471137  67.5612379  22.6138533  15.4361734
  61.4089934  12.9310204  19.1286850  62.0383051  13.4670504  18.8507921
  61.5775796  12.8387563  19.9800416  61.5267728  12.9971566  19.2135378
  61.2103848  17.7181399  21.4013262  62.0377278  17.4466548  21.4571876
  61.2311694  18.5142241  21.7577080  61.3356698  17.7961153  21.4628445
  66.0480028  31.4536536  17.5355734  66.8372406  31.1025601  17.6557815
  66.2223626  32.2672924  17.2732367  66.1900309  31.5222393  17.5143602
  55.7873338  24.8645262  14.5883522  54.9461345  24.7649136  14.7962416
  55.9963346  25.6340742  14.9397843  55.6938031  24.9637305  14.6710837
  53.2648905  22.4864799  12.4168273  52.8705603  22.5607810  11.6418383
  52.7089022  22.8722745  12.9676635  53.1251718  22.5546573  12.3835933
  64.9013852  15.4646093  12.0972152  65.1063445  15.3968400  12.9429149
  64.5740276  16.2704914  12.0293329  64.8829100  15.5732033  12.2131807
  59.5990003  22.7926661  13.8381120  59.2953141  22.2382649  14.4391528
  58.8969424  22.9718871  13.3509154  59.4506213  22.7371443  13.8550826
  58.6556100  20.1027181   8.4025822  58.9315835  19.3846093   7.9903389
  59.2554770  20.7012101   8.1946928  58.7849365  20.0847551   8.3106583
  57.6608354  30.0076382  18.5453218  57.5528709  30.0178444  19.4115276
  57.8704136  30.8331162  18.3558171  57.6758465  30.1317456  18.6457309
  55.6782146  27.2589024  16.0075155  55.0870079  27.8998522  15.9778170
  56.4403170  27.6826641  15.9806455  55.7030407  27.4164862  15.9990303
  56.0742769  18.4191022  16.6743173  56.5344250  18.4929951  17.4118297
  56.1198876  19.2172276  16.3242994  56.1493324  18.5485169  16.7315929
  57.7226119  19.0857717  21.2415200  57.3311684  18.4391064  21.6770978
  57.8911981  19.6769152  21.8609455  57.6897029  19.0771984  21.3977906
  71.7972568  27.0894794  17.0052434  71.8555691  27.5381442  17.7512410
  71.1639035  27.4993606  16.5682514  71.7123863  27.2168528  17.0504982
  65.4371662  32.7098336  13.4407180  65.2391351  33.1989150  12.7463391
  64.8159373  32.9139577  14.0191313  65.3159227  32.8114874  13.4230403
  59.4979641  24.4783232   7.7817424  60.2421686  24.8657509   8.0200374
  59.6440337  23.6340658   7.9457912  59.6290226  24.4113705   7.8411394
  61.4159216  16.2733491  12.8149285  60.5695261  16.4456299  12.6890635
  61.4130349  15.4682835  13.1515114  61.2906366  16.1794520  12.8460412
  62.4857517  20.0508706  13.6811343  62.0117471  19.5250468  14.1916654
  62.8575652  19.5038178  13.1126205  62.4707405  19.8924702  13.6726491
  52.8630547  22.0480212  19.0494889  53.7256160  21.9475922  18.9632219
  52.5322330  21.4674922  18.4880461  52.9415743  21.9471839  18.9540295
  68.7494247  25.1111081  15.0918124  68.5092470  24.2717496  15.0960550
  69.2286254  25.1911248  15.8158897  68.7846431  24.9992481  15.1992926
  70.7499434  21.8912539  13.0447383  70.5109204  21.8508373  12.2068168
  70.9133335  22.7383691  13.1713104  70.7389738  22.0104624  12.9400865
  67.3545464  26.2762488  18.9752428  68.0779663  25.8235014  18.7963448
  67.0895427  26.5567153  18.1924756  67.4226738  26.2513456  18.8331143
  56.2232333  20.8722661  15.7105307  55.5985403  20.8841053  15.1031260
  55.8877928  21.3482836  16.3596548  56.0817825  20.9441178  15.7161876
  56.4074081  19.2147780   1.7677992  56.0586886  19.8667505   2.2309542
  55.9270527  19.2004893   1.0401864  56.2844325  19.3090833   1.7289084
  52.9358008  28.9323121  17.1509072  52.4057933  28.2415560  17.2004046
  53.2083102  28.9233307  16.3221780  52.8982731  28.8290253  17.0356488
  63.9678099  29.5148824   5.8746754  64.6912298  29.9806937   5.7311327
  63.5278690  29.5822433   5.1244351  64.0093791  29.5932661   5.7431536
  63.1364254  26.3746366  17.1247443  62.5221247  25.8304416  17.4196078
  63.6531539  25.8610603  16.6453259  63.1219916  26.2182775  17.0971672
  62.3760551  27.4450636  14.8591742  61.9488159  26.8200355  14.4257177
  62.3685495  27.1625558  15.6850749  62.3119692  27.3103417  14.9171569
  55.4923078  22.4815809  17.9280176  55.6516565  21.7259133  18.3331898
  55.3115972  23.0306749  18.5820913  55.4888437  22.4509623  18.0842882
  63.4343381  14.6477045  18.4830965  62.9383942  14.8440719  17.7922532
  64.1912443  15.0469713  18.3119767  63.4730206  14.7354779  18.3551102
  60.7046261  18.3219391  15.0734276  60.7288748  17.7879503  14.3847056
  60.9557734  17.8136699  15.7359866  60.7456179  18.1680295  15.0698920
  48.2153850  25.6050886  14.5077420  48.1097300  25.5597730  13.6429504
  47.4654070  25.9504666  14.7891705  48.0889453  25.6491794  14.4214750
  56.9847583  17.0490209  14.4540020  57.0245954  17.5499415  15.1674728
  56.1597248  17.1400603  14.1845943  56.8687109  17.1372025  14.5190558
  59.1677196  26.6150949  22.5560315  58.3172826  26.7522663  22.6917960
  59.3305323  25.8814727  23.0008016  59.0661059  26.5265050  22.6415914
  58.4061946  23.5650719  16.7513919  57.5753876  23.7324537  16.5449167
  58.3513463  23.1886669  17.5362804  58.2751361  23.5340450  16.8362447
  56.2145729  17.0559612  22.3870330  56.8398433  16.5121744  22.6599762
  55.7596209  16.5754529  21.8178120  56.2393990  16.9049093  22.3431924
  56.7797990  21.8406310   7.2804037  56.9200951  22.3378774   7.9832678
  57.2780523  21.1392605   7.4218251  56.8739071  21.8108289   7.4055616
  56.8098212  22.7073421   4.6096614  57.4443292  23.3033846   4.5446075
  56.8923823  22.4076879   5.4242484  56.9154763  22.7514329   4.7199700
  69.7880778  25.2388899  17.4782978  70.3798619  25.8786149  17.5101176
  70.2239773  24.5411935  17.7675045  69.9399209  25.2307249  17.5263810
  58.3877195  18.6387397   4.5842056  58.7093036  18.1590479   3.9301318
  58.6504139  19.4487043   4.3932867  58.4743221  18.6877295   4.4597548
  61.6174168  29.6606271  18.1040872  61.1099259  30.2142118  18.5481502
  61.3200814  29.7214561  17.2859646  61.4979053  29.7512582  18.0489328
  63.7836350  18.0259591  16.9465535  64.2091422  17.5732117  16.3349061
  63.1693343  17.4719661  17.2230322  63.7564996  17.8773567  16.8970560
  53.3151200  24.9041262   7.8786160  53.8243430  25.5005770   8.2597465
  53.7885473  24.6367236   7.1962579  53.4594576  24.9527077   7.8340682
  64.2281948  33.5769529   6.0344815  63.5111258  33.4030391   5.5692053
  64.8788686  33.3422101   5.5020301  64.2183799  33.5165321   5.8874033
  62.2230573  14.4974690  10.3556112  61.5798891  14.3472337  10.9241250
  61.8829980  14.2517036   9.5905216  62.0775650  14.4386813  10.3259127
  66.8129920  22.4534117   9.7786120  66.1421109  22.9963820   9.6499186
  67.5069670  22.9228973   9.5367815  66.8158787  22.6032388   9.7241648
  60.8616653  34.5930829  15.0097879  60.6382308  33.8349659  15.3781905
  60.3726497  34.6228850  14.2878318  60.7560102  34.4853054  14.9574620
  66.9758047  18.9090001  12.6876494  67.3285657  18.4819724  13.3622292
  66.1172849  18.8240844  12.8177570  66.9007492  18.8334742  12.8071504
  55.6741732  21.5397521  10.7459340  54.9553721  21.9561653  11.0132204
  56.0454094  22.1051759  10.1950978  55.6233664  21.6846802  10.7042147
  64.9741313  22.1725369  16.6361336  64.9539240  21.9908665  17.4896115
  65.0220514  23.0437388  16.6120919  64.9775954  22.2741908  16.7584631
  62.9187643  28.7612561  22.5609812  62.8783498  28.1162238  21.9754968
  63.7310961  28.7049179  22.8735224  63.0330796  28.6571528  22.5206762
  59.5095110  34.8131287  12.4634963  59.0955509  34.1505418  12.0738805
  60.1942485  34.9609146  11.9430657  59.5493482  34.7371946  12.3291460
  62.8760404  33.9721373  13.2158580  62.4776688  34.0823643  12.4479400
  62.2611624  34.1803439  13.7985140  62.7259294  34.0194941  13.1889879
  61.4488306  20.5795520   6.0832720  60.8553146  20.9012517   5.5317287
  61.4863584  19.7336616   5.8753826  61.3662696  20.5019849   5.9715491
  64.3246123  20.5375025   9.5134470  64.0959816  20.5607726   8.6712828
  64.5844199  19.7132492   9.6329480  64.3292311  20.4191105   9.4059668
  58.6065351  22.3909498  19.1159570  58.0944255  21.7830681  19.4744601
  58.4344848  23.1066091  19.5833546  58.5054988  22.4072797  19.2375794
  53.4531066  20.8347073  21.7661932  53.2833656  21.4948448  21.2210138
  53.0097016  21.0453635  22.4874421  53.3630400  20.9633055  21.7923561
  57.3790886  19.0751571  10.8088665  57.8548252  19.4368651  10.1738847
  56.8779485  19.7308039  11.0888808  57.3756245  19.2245760  10.7565406
  62.4834422  20.3133743  21.5561826  63.0405852  20.0847552  20.9240291
  62.1595487  21.0739408  21.2797038  62.5180832  20.3917579  21.4218323
  50.3533131  23.7393939  17.0250422  49.8059850  23.0694584  17.1431290
  51.1425509  23.3723787  17.0893889  50.3885314  23.5858925  17.0519122
  60.2017539  23.4001396  22.5213833  60.9528866  23.7153073  22.8353387
  60.3940116  23.1980567  21.6947754  60.3408953  23.4168778  22.4457228
  59.4217539  21.2192771   4.1762049  59.8016504  21.2372400   3.3913164
  58.6810135  21.6646760   4.0552897  59.3686376  21.2874546   4.0425618
  67.0502829  19.5274962   9.7637628  67.0497056  19.3723619  10.6221904
  66.8459009  20.3737949   9.7079014  67.0202607  19.6295583   9.8825568
  49.1120100  22.9514747  14.1796445  48.9341861  22.4991356  14.9051360
  48.8239122  23.7540908  14.3634922  49.0433053  23.0037305  14.3139948
  64.7743681  24.2072464  13.4173835  65.2697347  23.4895459  13.3777855
  63.9643457  23.9043262  13.3028322  64.7287575  24.0570110  13.3947561
  60.2202293  28.0570277   5.5670839  59.4113615  27.7336951   5.5204149
  60.7277202  27.3503499   5.4999088  60.1751960  27.9051594   5.5501134
  50.8492570  25.4842470  11.2918204  49.9838090  25.4728161  11.1800975
  50.9491386  25.2972693  12.1389343  50.7366737  25.4548532  11.4007148
  66.8395500  26.9576152  16.1050964  67.2650572  26.4350573  15.5521389
  66.4752420  27.5556989  15.5839587  66.8482103  26.9686379  15.9459974
  56.4749580  35.2540369  14.8648309  56.7896139  36.0676758  14.8726091
  56.8842993  34.8690588  15.5330468  56.5817678  35.3169071  14.9652401
  63.4274100  30.6710416  12.4352121  63.8985278  31.3850678  12.6042106
  63.7634278  30.0709166  12.9711991  63.5469215  30.6881880  12.5384497
  65.5151084  32.2811729  24.6144193  65.6248050  31.4920290  24.9700940
  65.8441981  32.1917665  23.8118531  65.5803490  32.1517582  24.5486584
  60.3443595  15.4437886  19.3910216  60.4771500  14.6468880  19.7191192
  60.7288747  15.9704289  19.9708492  60.4199923  15.4037803  19.5253719
  64.0648046  30.4628350  19.1979814  63.5168992  29.8386234  18.9299879
  64.5261075  30.6522622  18.4823893  64.0515255  30.3987400  19.0530245
  63.4175950  12.3668213  15.9891309  62.6121913  12.2565942  16.3059148
  63.2882685  12.4680668  15.1321175  63.2796083  12.3651883  15.9099350
  66.8741910  18.5313704  16.5831006  66.2904899  19.0322911  16.1708574
  67.1946204  18.0243261  15.9495329  66.8355086  18.5305539  16.4289513
  59.4136709  17.4454299   6.8589681  60.2352404  17.6152612   6.6171376
  58.9506360  17.6001560   6.1355979  59.4667872  17.4936032   6.7161325
  58.0032041  15.4397061  17.6388110  58.5476454  15.0988188  18.2292451
  58.0568977  16.2982523  17.7809394  58.0921161  15.5152321  17.7469983
  53.8162600  29.2013478  14.5126918  54.4207457  29.1609312  13.8840738
  53.6089913  30.0484630  14.5430974  53.8751497  29.3201480  14.4243034
  63.6306372  31.4679423  15.7289155  64.4504746  31.3242389  15.9905450
  63.3500450  32.0925622  16.2705593  63.7103116  31.5389775  15.8477094
  49.0513882  28.1848095  14.3825841  48.9538160  27.3744367  14.6915897
  49.8342752  28.1639888  13.9972109  49.1530019  28.0615185  14.3712704
  73.3019707  38.2119925  13.4484962  72.4457603  38.3728424  13.4994079
  73.3487361  37.3411989  13.4690023  73.1818819  38.1070727  13.4591028
  67.6860847  47.7482643   9.2122193  66.9343747  47.3698182   8.9838238
  68.1346859  47.7801077   8.4641004  67.6410514  47.6968250   9.0679696
  76.6113424  44.4806451  23.0545418  77.3180191  43.9858482  23.1832352
  76.8001359  44.9215533  22.3248076  76.7441330  44.4724801  22.9654463
  76.1471528  40.2711969  16.0916613  76.6927488  40.9497056  16.1510583
  76.0888405  40.1299430  15.2318195  76.2187443  40.3503971  15.9728674
  69.2645603  47.7601035  11.4784966  69.3655966  46.9501389  11.7882094
  68.6687349  47.6657982  10.8484644  69.1918142  47.6266064  11.4311204
  69.1046343  52.6778625  12.8799822  69.7483798  53.1191789  13.2695980
  69.4302598  51.8732051  12.7930081  69.2478172  52.6243819  12.9245299
  62.4610648  43.7821322  11.1037300  62.2260832  42.9488974  10.9969568
  62.5996288  44.0625988  10.2898501  62.4466310  43.7004825  10.9679655
  64.7600735  35.9507053  14.0021607  64.1405767  35.3599700  13.8331622
  64.6584599  36.5418488  13.3685930  64.6538411  35.9511135  13.8826597
  71.8568631  37.6906594   8.3354070  72.5548795  37.8694722   8.8275534
  72.1720963  37.1676934   7.7124460  72.0063968  37.6400366   8.3156081
  64.4869868  39.4959334  16.2465176  64.3628565  40.0821780  16.8814995
  65.1388153  39.0019530  16.5477451  64.5643517  39.5098139  16.3851106
  72.0456566  44.0777039   8.3233862  72.4850202  43.4694140   8.7688635
  71.8961229  43.6984413   7.5519327  72.0878032  43.9315511   8.2753029
  69.5128209  42.6721051  15.5252687  70.1577212  42.1793494  15.2063636
  69.7529986  42.8145838  16.3518766  69.6438794  42.6198493  15.6002221
  72.0514300  45.5175957  15.1759580  72.3337543  44.7227363  14.9546336
  72.7800461  45.9956545  15.1964641  72.2003864  45.4710554  15.1462595
  70.0295494  33.0598991  12.4175345  69.6998824  33.5110135  11.7479044
  69.3540496  32.9815154  12.9648351  69.8805931  33.1150126  12.3998568
  64.0227972  48.6606993  12.3793506  63.5395551  49.3857482  12.3553089
  64.8351291  48.9583123  12.4903663  64.0718720  48.8109346  12.3920785
  70.0942126  47.4539173  14.9843320  69.5769068  47.0946588  14.3804628
  70.7916518  46.9301348  14.9949386  70.1207707  47.3236861  14.8973579
  73.7505718  47.9033988  20.9459493  73.8389064  47.7160128  21.7937704
  74.1795431  47.2571417  20.5464340  73.8267821  47.7796995  21.0131245
  71.3176178  47.1865148  19.9277155  70.7547013  46.7737757  20.4516817
  72.0797202  47.1118053  20.3470299  71.3470627  47.1142548  20.0670156
  68.2351448  31.1211279   7.8998293  68.9897416  31.4889597   7.6615343
  68.0578983  31.4950834   8.6677472  68.3205927  31.2309467   7.9783181
  66.8772170  49.1763169  12.5313786  67.5792749  48.6615158  12.5886542
  66.7969653  49.5037320  13.3360661  66.9695930  49.1477395  12.6586578
  67.9251076  39.4138756  21.6594201  68.0971580  39.3044650  22.5079482
  68.4620434  40.0593161  21.4225393  68.0296080  39.4930757  21.7499297
  66.5908513  33.5281598   4.5976406  66.4084086  33.7453479   3.7717398
  67.4534126  33.6420611   4.6535020  66.6913102  33.5771496   4.4830893
  66.2022945  45.3669521  12.0399394  67.0411844  45.5992453  12.0873155
  66.2334714  44.4973832  11.9706429  66.3304663  45.2726467  12.0364038
  66.8275648  45.7870396  16.3412699  67.3673873  45.6441527  17.0116071
  66.1445594  46.1867147  16.7096725  66.8067802  45.8250067  16.4947121
  76.2516533  41.4661396  11.5357723  77.0074048  41.8992911  11.5746632
  76.3578857  40.8166166  12.1092360  76.3786703  41.4338880  11.6255749
  73.8625778  47.3343007  23.6103277  74.6466194  47.4473854  23.9759019
  73.6622372  46.5084144  23.8061963  73.9491803  47.2289726  23.6937663
  62.2312793  42.0070687  16.4947121  61.9651208  41.1909803  16.6538111
  62.2451357  42.0523842  15.6242636  62.1937515  41.8927591  16.3900603
  66.1370540  36.8055771   3.1098879  65.4228717  36.5193951   3.5221311
  66.6214509  37.1452397   3.7505266  66.1029903  36.8137421   3.2654514
  66.9811399  35.5449065  19.1414128  66.2883196  35.0746045  19.3874860
  67.5971727  35.3187369  19.7155836  66.9695929  35.4416197  19.2623281
  62.6406207  42.7929466  13.7758865  62.4581780  42.7676352  12.9231157
  63.3755876  43.2628404  13.8147774  62.7220271  42.8590828  13.6556783
  65.7051958  39.5114469  20.2840974  66.4291931  39.4967500  20.7705868
  65.8068095  40.2209824  19.7862942  65.8270167  39.6139172  20.2819760
  73.0796908  42.9913554  25.1489921  72.2869889  43.3057065  25.3342540
  73.1945835  43.2065022  24.3110705  72.9792318  43.0697390  25.0528255
  75.7528227  39.7147545   9.4384936  75.8475081  40.4536839   9.8924562
  75.1287070  39.2865020   9.8719501  75.6737257  39.7608865   9.5693084
  74.0080701  42.8933757  20.0875217  74.5819562  42.2561001  20.2423781
  73.9295504  42.8937840  19.2184875  74.0813935  42.7998869  19.9821628
  62.6077117  39.6722967  13.9257932  63.1850620  39.5359418  14.5650177
  61.9091179  39.2158751  14.1803516  62.5898138  39.5845233  14.0580221
  69.3644419  41.3257022  12.1396415  69.1063663  40.4928757  12.1127714
  69.4192902  41.5514635  11.2988915  69.3344197  41.2354794  12.0116551
  74.4445469  33.4285473  12.2400507  73.7401796  32.9394659  12.3984427
  74.4930444  33.4407948  11.3688952  74.3475521  33.3575121  12.1339847
  68.3379131  38.8794785  12.6261309  67.7628723  39.0386953  13.2625270
  67.9614808  38.2430194  12.1629760  68.1981944  38.8092598  12.6515868
  72.0052420  37.3518134  17.4853688  71.6166853  36.9272352  16.8305879
  71.3407118  37.6000284  17.9930715  71.8499348  37.3256855  17.4641556
  58.0835950  38.5234860  10.6405750  58.1696202  38.1466728  11.4219280
  58.7111748  38.1495305  10.1625708  58.1892501  38.4120342  10.6851227
  75.8278782  31.0492763  14.9977672  76.2089293  30.3670934  15.3845546
  75.0242066  30.7602365  14.8153337  75.7655243  30.9059811  15.0281728
  68.9799267  45.0538256  10.8102807  69.6173213  44.8150004  11.3554600
  69.4054338  45.2575415  10.0755968  69.1375433  45.0489266  10.7819964
  63.6711909  47.2926593  14.6937111  63.7116054  47.5641444  13.8656890
  64.2306433  47.8168501  15.1094899  63.7595255  47.4102348  14.6328999
  69.6202082  40.2740546   5.1477696  70.0047234  40.0548253   5.8994241
  69.3713702  41.1003491   5.2778773  69.6404154  40.3638692   5.2778773
  69.7870622  33.5546961  24.8640281  69.4724063  34.3246524  24.6009843
  69.4660555  32.9917217  24.2792508  69.6929541  33.5857230  24.7381631
  71.3620738  45.5310679  12.4896593  71.4359747  45.3685851  13.3438443
  72.1790245  45.7200868  12.2457075  71.4937097  45.5347421  12.5794619
  65.1226495  45.8768542   9.5191037  64.2964613  46.1230279   9.3925315
  65.1838486  45.7980623  10.3853095  65.0100662  45.9013491   9.6279981
  67.3402519  31.9437483  10.4786477  66.4724944  32.0160082  10.5444086
  67.6277723  32.7459562  10.6674452  67.2542267  32.0731630  10.5161243
  76.4635408  32.0915342  18.8097799  77.2089000  31.9025152  18.3961224
  76.0472712  32.6173580  18.2511655  76.5120382  32.1417487  18.6662372
  70.4920069  43.2963168  18.3063197  69.9931763  44.0078936  18.3848086
  71.3020294  43.6163834  18.2681360  70.5376176  43.4490016  18.3119766
  67.8431240  50.4712804  10.2870216  67.6231535  50.1810159  11.0796883
  67.6225762  49.8127759   9.7588129  67.7778834  50.3312513  10.3259125
  66.7548187  42.5586121  12.5525918  66.4661436  41.9323592  13.0871645
  67.6231535  42.5006408  12.6190598  66.8408439  42.4573665  12.6416873
  77.5426085  37.7020904  12.8707900  77.1990851  36.9811239  13.2215150
  77.6419127  37.4934755  12.0286258  77.5068128  37.5645107  12.7979580
  66.9580460  44.1981372   8.4768283  67.7126428  44.5794411   8.6903746
  66.3651073  44.6492516   8.9314980  66.9817174  44.3210199   8.5751161
  69.4187127  36.1544212  23.6025495  68.6086903  36.4601992  23.4915338
  69.8961814  36.8749795  23.7178079  69.3690606  36.3058813  23.6032566
  68.2778687  45.3689933  13.8508398  67.7559440  45.5090225  14.5360263
  68.6652707  44.6100598  14.0410516  68.2582388  45.2775457  13.9809475
  65.2669871  35.4195742   7.9203353  64.9794667  35.0497012   7.1835300
  65.9540339  35.8890597   7.6587058  65.3258768  35.4342711   7.7718429
  69.7045013  42.3993952   9.2489889  69.5087795  43.0068687   8.6550192
  69.9279358  41.7061896   8.7681563  69.7079654  42.3871478   9.0905970
  68.1023543  39.2848690   9.3670758  68.8246194  39.4489848   8.9074564
  67.6231535  40.0058355   9.2610098  68.1387273  39.4146920   9.2836372
  76.0617050  35.6212489  14.7467443  75.2228151  35.6473768  14.5105706
  76.1321417  36.2683224  15.3272789  75.9485444  35.7208615  14.7976560
  65.7531159  41.6906763  18.4724898  66.2652256  41.9691016  17.8233657
  65.4667502  42.4296057  18.8387711  65.7866022  41.8409116  18.4314776
  62.8398066  36.1976954   8.7688634  62.9414202  37.0003116   9.0969610
  63.6353952  35.9964290   8.4711715  62.9725971  36.2862853   8.7723990
  69.2714885  33.7833151  18.5325939  69.0798082  33.7988286  19.3825363
  70.1213481  33.9796825  18.5092594  69.3690607  33.8147502  18.6549234
  63.6561798  36.3124133  16.5109756  63.5147289  35.4608073  16.6354264
  63.9402361  36.3552793  15.6871962  63.6769644  36.1923883  16.4077380
  73.8100390  38.1491223  10.6554244  73.5635104  38.0686974  11.4891033
  74.1385513  37.3644691  10.4616772  73.8221634  38.0217488  10.7501767
  77.7048439  44.8574582  14.4441025  77.5662798  45.5555628  14.9489768
  76.9248437  44.7023239  14.0877207  77.5691666  44.9374749  14.4667299
  76.0426524  41.1570958  20.6963407  76.0374562  40.2850774  20.7005833
  76.7487518  41.3559127  20.2232863  76.1471528  41.0574832  20.6270442
  69.7697417  40.8847941  20.0677227  69.9140793  41.4649150  19.4320337
  70.1173066  41.2624238  20.7727082  69.8424879  41.0268645  20.0776222
  71.9417335  40.0838110  17.8502359  71.1940649  40.2769124  17.4450637
  72.0958860  39.2583329  17.6126480  71.8539762  39.9903221  17.7547765
  68.8425172  49.0750713  16.9338254  68.9914736  48.5153629  16.2811658
  69.6225174  49.1542715  17.3170773  68.9799266  49.0036279  16.8935203
  71.3678473  49.2465356  18.2122745  71.2922144  48.5774167  18.7673533
  71.2968332  49.9483144  18.7263411  71.3459080  49.2510263  18.3699593
  72.1819112  33.9788660  18.7397762  72.6391726  34.7112635  18.8670555
  72.2575440  33.5555126  19.4985018  72.2610082  34.0245899  18.8698839
  64.4252103  34.2254480  19.8287206  63.8894292  33.6134838  20.1447973
  64.4869868  34.8002616  20.4820873  64.3547736  34.2201408  19.9722633
  70.0601490  35.9690764  15.5839586  69.2697564  35.7882225  15.9056922
  70.4562112  35.1917717  15.5669881  70.0018366  35.8278225  15.6292135
  75.4445176  43.6033195  13.3099032  74.7690178  43.3718427  13.8112419
  75.4537552  42.9954378  12.6841137  75.3463680  43.4792120  13.2915185
  72.5739320  38.4451024  20.0663085  72.5098461  39.3060980  19.9383222
  72.7136508  38.1283017  19.2658637  72.5854790  38.5251190  19.9291298
  71.2558414  41.1383163  14.2079288  70.8320663  41.3387662  13.4718307
  71.0803269  40.2912011  14.3203588  71.1669294  41.0431944  14.1152978
  70.7570107  52.6533676  16.6700746  71.2466038  51.9544465  16.4876410
  70.1854340  52.3557546  17.2576803  70.7454637  52.5059900  16.7301786
  66.5440859  41.6335214   9.6407261  66.7005478  41.5682017  10.4963253
  66.8841452  42.4083767   9.4285940  66.6174094  41.7384412   9.7361855
  73.0820003  41.0093098   8.5100624  73.6235549  40.5063479   8.9739245
  73.3966562  40.9558293   7.6990109  73.2084400  40.9272519   8.4584436
  76.9537111  45.2195745  25.6227536  77.7671976  44.9480894  25.7832669
  76.7932077  44.9203285  24.8187732  77.0507059  45.1350671  25.5272942
  74.2309273  35.9029402  18.5622925  74.4451242  35.2640317  18.0086278
  73.6143172  36.3475226  18.1330786  74.1714602  35.8739546  18.4173356
  63.1175120  38.8170165   9.9568028  63.4974085  39.2354710   9.2928295
  62.5430485  39.3983620  10.2636871  63.0886445  38.9648024   9.9044769
  76.3948361  37.5118468  19.5006232  75.5825042  37.2044358  19.5819404
  76.8538295  37.0317468  20.0648944  76.3428746  37.3954960  19.5960826
  73.6224001  29.0129338  13.5510267  72.7517559  28.9868059  13.5043577
  73.8764343  28.8406530  12.7336113  73.5317561  28.9839482  13.4230404
  73.4901868  38.9178539  24.2834934  73.9601499  39.5420655  24.6702808
  73.5363748  38.2495515  24.8428149  73.5669744  38.9113219  24.4235005
  70.6473142  31.0235566  15.0083738  70.1311630  30.3315758  15.1335317
  70.0867071  31.6906344  14.9546336  70.4879655  31.0198824  15.0189804
  72.7165375  31.5628527  16.8376590  72.3297128  31.5877558  17.6190120
  72.2298313  30.9970205  16.3851107  72.5877884  31.4824277  16.8864494
  76.9658355  46.2802036  20.8950377  77.6038075  45.7862231  20.5612833
  76.3232446  46.2079436  20.3102604  76.9652581  46.1961044  20.7592732
  78.6915355  38.1291181  15.4616292  78.2642963  38.0417530  14.7064392
  78.0541408  38.2368957  16.0471137  78.5344962  38.1323841  15.4361734
  72.3822517  28.4495512  19.1286850  73.0115635  28.9855812  18.8507921
  72.5508380  28.3572871  19.9800416  72.5000312  28.5156874  19.2135378
  72.1836432  33.2366707  21.4013262  73.0109861  32.9651856  21.4571876
  72.2044278  34.0327548  21.7577080  72.3089282  33.3146461  21.4628445
  77.0212611  46.9721844  17.5355734  77.8104990  46.6210909  17.6557815
  77.1956209  47.7858232  17.2732367  77.1632893  47.0407701  17.5143602
  66.7605922  40.3830570  14.5883522  65.9193928  40.2834444  14.7962416
  66.9695930  41.1526050  14.9397843  66.6670614  40.4822613  14.6710837
  64.2381489  38.0050106  12.4168273  63.8438186  38.0793118  11.6418383
  63.6821606  38.3908053  12.9676635  64.0984301  38.0731881  12.3835933
  75.8746436  30.9831400  12.0972152  76.0796029  30.9153708  12.9429149
  75.5472860  31.7890222  12.0293329  75.8561683  31.0917341  12.2131807
  70.5722587  38.3111969  13.8381120  70.2685724  37.7567957  14.4391528
  69.8702007  38.4904179  13.3509154  70.4238796  38.2556751  13.8550826
  69.6288684  35.6212489   8.4025822  69.9048418  34.9031401   7.9903389
  70.2287353  36.2197408   8.1946928  69.7581948  35.6032859   8.3106583
  68.6340938  45.5261689  18.5453218  68.5261293  45.5363752  19.4115276
  68.8436719  46.3516470  18.3558171  68.6491049  45.6502764  18.6457309
  66.6514730  42.7774332  16.0075155  66.0602663  43.4183830  15.9778170
  67.4135753  43.2011949  15.9806455  66.6762990  42.9350170  15.9990303
  67.0475352  33.9376330  16.6743173  67.5076834  34.0115259  17.4118297
  67.0931459  34.7357584  16.3242994  67.1225908  34.0670477  16.7315929
  68.6958702  34.6043024  21.2415200  68.3044267  33.9576372  21.6770978
  68.8644565  35.1954460  21.8609455  68.6629613  34.5957292  21.3977906
  76.4104246  48.2283643  13.4407180  76.2123935  48.7174458  12.7463391
  75.7891957  48.4324885  14.0191313  76.2891810  48.3300182  13.4230403
  70.4712224  39.9968540   7.7817424  71.2154269  40.3842817   8.0200374
  70.6172920  39.1525966   7.9457912  70.6022809  39.9299013   7.8411394
  72.3891800  31.7918799  12.8149285  71.5427845  31.9641607  12.6890635
  72.3862932  30.9868143  13.1515114  72.2638950  31.6979828  12.8460412
  73.4590100  35.5694014  13.6811343  72.9850054  35.0435776  14.1916654
  73.8308236  35.0223486  13.1126205  73.4439989  35.4110010  13.6726491
  63.8363130  37.5665520  19.0494889  64.6988743  37.4661229  18.9632219
  63.5054913  36.9860230  18.4880461  63.9148327  37.4657147  18.9540295
  67.1964916  36.3907969  15.7105307  66.5717986  36.4026361  15.1031260
  66.8610511  36.8668144  16.3596548  67.0550408  36.4626486  15.7161876
  67.3806665  34.7333088   1.7677992  67.0319469  35.3852813   2.2309542
  66.9003111  34.7190201   1.0401864  67.2576909  34.8276141   1.7289084
  63.9090592  44.4508429  17.1509072  63.3790516  43.7600868  17.2004046
  64.1815685  44.4418615  16.3221780  63.8715314  44.3475561  17.0356488
  74.1096837  41.8931674  17.1247443  73.4953830  41.3489724  17.4196078
  74.6264122  41.3795910  16.6453259  74.0952500  41.7368083  17.0971672
  73.3493135  42.9635944  14.8591742  72.9220743  42.3385663  14.4257177
  73.3418079  42.6810866  15.6850749  73.2852276  42.8288725  14.9171569
  66.4655662  38.0001117  17.9280176  66.6249148  37.2444441  18.3331898
  66.2848555  38.5492057  18.5820913  66.4621021  37.9694931  18.0842882
  74.4075965  30.1662353  18.4830965  73.9116526  30.3626027  17.7922532
  75.1645027  30.5655021  18.3119767  74.4462789  30.2540086  18.3551102
  71.6778844  33.8404699  15.0734276  71.7021331  33.3064811  14.3847056
  71.9290318  33.3322007  15.7359866  71.7188763  33.6865602  15.0698920
  59.1886434  41.1236194  14.5077420  59.0829883  41.0783038  13.6429504
  58.4386654  41.4689974  14.7891705  59.0622037  41.1677102  14.4214750
  67.9580166  32.5675517  14.4540020  67.9978538  33.0684723  15.1674728
  67.1329831  32.6585910  14.1845943  67.8419692  32.6557333  14.5190558
  70.1409779  42.1336257  22.5560315  69.2905410  42.2707971  22.6917960
  70.3037907  41.4000035  23.0008016  70.0393643  42.0450358  22.6415914
  69.3794530  39.0836027  16.7513919  68.5486459  39.2509845  16.5449167
  69.3246047  38.7071977  17.5362804  69.2483945  39.0525758  16.8362447
  67.1878313  32.5744920  22.3870330  67.8131016  32.0307052  22.6599762
  66.7328793  32.0939837  21.8178120  67.2126574  32.4234401  22.3431924
  67.7530574  37.3591618   7.2804037  67.8933535  37.8564082   7.9832678
  68.2513106  36.6577913   7.4218251  67.8471655  37.3293597   7.4055616
  67.7830796  38.2258729   4.6096614  68.4175875  38.8219154   4.5446075
  67.8656407  37.9262187   5.4242484  67.8887347  38.2699637   4.7199700
  69.3609779  34.1572705   4.5842056  69.6825620  33.6775787   3.9301318
  69.6236723  34.9672351   4.3932867  69.4475804  34.2062603   4.4597548
  72.5906752  45.1791579  18.1040872  72.0831843  45.7327426  18.5481502
  72.2933398  45.2399869  17.2859646  72.4711637  45.2697890  18.0489328
  74.7568934  33.5444899  16.9465535  75.1824005  33.0917425  16.3349061
  74.1425927  32.9904969  17.2230322  74.7297579  33.3958875  16.8970560
  64.2883784  40.4226570   7.8786160  64.7976013  41.0191077   8.2597465
  64.7618056  40.1552544   7.1962579  64.4327160  40.4712385   7.8340682
  73.1963157  30.0159998  10.3556112  72.5531475  29.8657645  10.9241250
  72.8562564  29.7702344   9.5905216  73.0508234  29.9572121  10.3259127
  77.7862503  37.9719425   9.7786120  77.1153693  38.5149127   9.6499186
  78.4802253  38.4414281   9.5367815  77.7891371  38.1217696   9.7241648
  71.8349237  50.1116137  15.0097879  71.6114891  49.3534966  15.3781905
  71.3459080  50.1414158  14.2878318  71.7292686  50.0038362  14.9574620
  77.9490631  34.4275309  12.6876494  78.3018241  34.0005032  13.3622292
  77.0905432  34.3426152  12.8177570  77.8740075  34.3520049  12.8071504
  66.6474316  37.0582829  10.7459340  65.9286305  37.4746961  11.0132204
  67.0186678  37.6237067  10.1950978  66.5966247  37.2032110  10.7042147
  75.9473896  37.6910677  16.6361336  75.9271824  37.5093973  17.4896115
  75.9953097  38.5622696  16.6120919  75.9508537  37.7927216  16.7584631
  73.8920226  44.2797869  22.5609812  73.8516081  43.6347546  21.9754968
  74.7043545  44.2234487  22.8735224  74.0063380  44.1756836  22.5206762
  70.4827694  50.3316595  12.4634963  70.0688092  49.6690726  12.0738805
  71.1675068  50.4794454  11.9430657  70.5226066  50.2557253  12.3291460
  73.8492988  49.4906681  13.2158580  73.4509271  49.6008951  12.4479400
  73.2344208  49.6988747  13.7985140  73.6991877  49.5380249  13.1889879
  72.4220890  36.0980828   6.0832720  71.8285729  36.4197825   5.5317287
  72.4596168  35.2521924   5.8753826  72.3395279  36.0205157   5.9715491
  75.2978707  36.0560333   9.5134470  75.0692400  36.0793034   8.6712828
  75.5576783  35.2317800   9.6329480  75.3024895  35.9376413   9.4059668
  69.5797935  37.9094806  19.1159570  69.0676838  37.3015989  19.4744601
  69.4077431  38.6251398  19.5833546  69.4787572  37.9258105  19.2375794
  64.4263650  36.3532381  21.7661932  64.2566240  37.0133756  21.2210138
  63.9829600  36.5638942  22.4874421  64.3362983  36.4818363  21.7923561
  68.3523469  34.5936879  10.8088665  68.8280835  34.9553959  10.1738847
  67.8512069  35.2493347  11.0888808  68.3488828  34.7431068  10.7565406
  73.4567005  35.8319051  21.5561826  74.0138436  35.6032860  20.9240291
  73.1328070  36.5924716  21.2797038  73.4913416  35.9102887  21.4218323
  61.3265714  39.2579247  17.0250422  60.7792434  38.5879892  17.1431290
  62.1158092  38.8909095  17.0893889  61.3617898  39.1044233  17.0519122
  71.1750123  38.9186704  22.5213833  71.9261450  39.2338381  22.8353387
  71.3672699  38.7165875  21.6947754  71.3141537  38.9354086  22.4457228
  70.3950122  36.7378079   4.1762049  70.7749087  36.7557708   3.3913164
  69.6542718  37.1832068   4.0552897  70.3418960  36.8059854   4.0425618
  78.0235413  35.0460270   9.7637628  78.0229639  34.8908927  10.6221904
  77.8191593  35.8923257   9.7079014  77.9935191  35.1480891   9.8825568
  60.0852684  38.4700055  14.1796445  59.9074445  38.0176664  14.9051360
  59.7971706  39.2726216  14.3634922  60.0165637  38.5222612  14.3139948
  75.7476265  39.7257772  13.4173835  76.2429930  39.0080767  13.3777855
  74.9376041  39.4228570  13.3028322  75.7020158  39.5755418  13.3947561
  61.8225154  41.0027778  11.2918204  60.9570673  40.9913469  11.1800975
  61.9223969  40.8158001  12.1389343  61.7099321  40.9733840  11.4007148
  77.8128084  42.4761459  16.1050964  78.2383155  41.9535881  15.5521389
  77.4485004  43.0742297  15.5839587  77.8214686  42.4871687  15.9459974
  67.4482163  50.7725677  14.8648309  67.7628722  51.5862065  14.8726091
  67.8575577  50.3875896  15.5330468  67.5550261  50.8354379  14.9652401
  74.4006683  46.1895724  12.4352121  74.8717861  46.9035986  12.6042106
  74.7366862  45.5894474  12.9711991  74.5201798  46.2067188  12.5384497
  76.4883668  47.7997037  24.6144193  76.5980633  47.0105598  24.9700940
  76.8174564  47.7102973  23.8118531  76.5536074  47.6702890  24.5486584
  71.3176178  30.9623194  19.3910216  71.4504084  30.1654188  19.7191192
  71.7021331  31.4889597  19.9708492  71.3932507  30.9223111  19.5253719
  75.0380629  45.9813658  19.1979814  74.4901575  45.3571542  18.9299879
  75.4993658  46.1707930  18.4823893  75.0247839  45.9172708  19.0530245
  74.3908533  27.8853520  15.9891309  73.5854497  27.7751250  16.3059148
  74.2615269  27.9865976  15.1321175  74.2528666  27.8837191  15.9099350
  77.8474494  34.0499012  16.5831006  77.2637483  34.5508219  16.1708574
  78.1678788  33.5428569  15.9495329  77.8087669  34.0490847  16.4289513
  70.3869293  32.9639607   6.8589681  71.2084987  33.1337920   6.6171376
  69.9238944  33.1186868   6.1355979  70.4400455  33.0121340   6.7161325
  68.9764625  30.9582369  17.6388110  69.5209038  30.6173496  18.2292451
  69.0301561  31.8167831  17.7809394  69.0653744  31.0337629  17.7469983
  64.7895184  44.7198785  14.5126918  65.3940041  44.6794620  13.8840738
  64.5822496  45.5669937  14.5430974  64.8484081  44.8386788  14.4243034
  74.6038956  46.9864731  15.7289155  75.4237330  46.8427697  15.9905450
  74.3233033  47.6110929  16.2705593  74.6835699  47.0575083  15.8477094
  60.0246466  43.7033403  14.3825841  59.9270744  42.8929674  14.6915897
  60.8075336  43.6825196  13.9972109  60.1262602  43.5800493  14.3712704
  75.4602452  55.0144642  16.2465176  75.3361148  55.6007088  16.8814995
  76.1120736  54.5204838  16.5477451  75.5376101  55.0283447  16.3851106
  73.2045377  57.5255995  16.4947121  72.9383792  56.7095111  16.6538111
  73.2183941  57.5709150  15.6242636  73.1670099  57.4112899  16.3900603
  77.9543983  51.0634373  19.1414128  77.2615780  50.5931353  19.3874860
  78.5704310  50.8372677  19.7155836  77.9428513  50.9601505  19.2623281
  76.6784542  55.0299777  20.2840974  77.4024514  55.0152807  20.7705868
  76.7800678  55.7395132  19.7862942  76.8002751  55.1324480  20.2819760
  76.7263743  57.2092070  18.4724898  77.2384840  57.4876324  17.8233657
  76.4400085  57.9481365  18.8387711  76.7598606  57.3594424  18.4314776
  74.6294381  51.8309441  16.5109756  74.4879873  50.9793381  16.6354264
  74.9134945  51.8738101  15.6871962  74.6502227  51.7109191  16.4077380
  75.3984687  49.7439788  19.8287206  74.8626876  49.1320146  20.1447973
  75.4602451  50.3187924  20.4820873  75.3280319  49.7386716  19.9722633
  78.0207936  49.4561638  16.6743173  78.4809418  49.5300567  17.4118297
  78.0664043  50.2542892  16.3242994  78.0958491  49.5855785  16.7315929
  74.8095714  53.0850828  19.0494889  75.6721327  52.9846537  18.9632219
  74.4787497  52.5045537  18.4880461  74.8880910  52.9842455  18.9540295
  78.1697500  51.9093277  15.7105307  77.5450570  51.9211669  15.1031260
  77.8343095  52.3853452  16.3596548  78.0282992  51.9811794  15.7161876
  77.4388245  53.5186425  17.9280176  77.5981732  52.7629749  18.3331898
  77.2581139  54.0677365  18.5820913  77.4353604  53.4880239  18.0842882
  75.3996233  51.8717689  21.7661932  75.2298824  52.5319064  21.2210138
  74.9562183  52.0824250  22.4874421  75.3095567  52.0003671  21.7923561
  72.2998298  54.7764555  17.0250422  71.7525017  54.1065200  17.1431290
  73.0890676  54.4094403  17.0893889  72.3350481  54.6229541  17.0519122
  71.0585267  53.9885363  14.1796445  70.8807028  53.5361972  14.9051360
  70.7704289  54.7911524  14.3634922  70.9898220  54.0407920  14.3139948
   4.5904999  45.9635304  47.6177251   4.5599003  46.8179941  47.7895521
   5.1886348  45.6630597  48.1763395   4.6742157  46.0451801  47.7252054
   1.0998400  51.3197481  61.9790638   1.8065168  50.8249512  62.1077572
   1.2886336  51.7606562  61.2493296   1.2326306  51.3115831  61.8899683
   0.6356505  47.1102999  55.0161833   1.1812465  47.7888086  55.0755803
   0.5773381  46.9690460  54.1563415   0.7072419  47.1895001  54.8973894
   2.4121574  48.5387606  45.8895561   2.2961099  49.2895292  46.3187699
   3.2077460  48.2811560  46.1391648   2.5126163  48.6122453  45.9899653
   1.7256878  35.8875544  49.5870176   1.4110319  36.5779022  50.0190598
   1.2083820  35.8320326  48.8855676   1.6021349  35.9810432  49.5467125
   1.0669312  45.8880045  45.7007586   0.5380784  46.1039678  46.3604892
   1.5894332  46.5816183  45.6208556   1.0657765  46.0223182  45.7863185
   6.5217365  51.4626349  51.0740631   5.6915068  51.6736993  51.2374047
   6.4726617  50.6363404  50.7982914   6.3924101  51.3715956  51.0577996
   6.0171323  44.1096750  54.8691052   5.1799745  44.1798937  55.1038647
   5.9859554  44.1121245  53.9965354   5.8889606  44.1206977  54.7750600
   0.7401509  48.3052426  50.4602943   1.4959024  48.7383941  50.4991852
   0.8463834  47.6557196  51.0337580   0.8671680  48.2729910  50.5500969
   3.7781680  52.1325704  51.2105346   3.3416912  52.1362446  51.9664318
   3.4444596  52.8131203  50.7784924   3.6644300  52.2338159  51.2586179
   3.6979163  39.1739532  53.4534774   4.3405072  39.2437636  54.0396690
   3.9502184  38.5068754  52.9514316   3.8301295  39.0865880  53.4662054
   6.9126027  48.8506624  50.1024984   7.5742461  48.2897292  50.0020892
   6.2717439  48.3558654  50.4277675   6.9154894  48.6943033  50.1357324
   3.1990857  49.8672006  49.8436972   3.4346446  50.0117205  49.0163823
   3.3480421  50.6314414  50.2368486   3.2556661  50.0011060  49.7800576
   5.0281314  48.7073672  47.6806576   5.3589531  49.2401312  47.0746671
   5.6014402  48.7612560  48.3368527   5.1614993  48.7943241  47.6884358
   0.4936224  48.3987314  41.5967108   0.4116387  48.4689502  42.4622095
   1.1315945  48.9617058  41.4050849   0.5756062  48.4926286  41.6957058
   6.1360666  43.9484169  49.1846738   5.8797230  43.1364110  48.9944621
   6.9789980  43.9561736  48.9576925   6.2226691  43.8296166  49.1231555
   3.8185825  51.1033765  59.0205291   3.5824462  50.2721830  58.9017351
   4.4629054  51.0519372  59.6060135   3.8780496  50.9731453  59.0891184
   4.8422245  50.8878214  55.0833585   4.5368063  51.6206270  55.4446901
   4.1228461  50.4816143  54.8026371   4.6909588  50.9359947  55.0946722
  10.5424038  47.5271214  54.4101929  10.4748538  47.5467173  53.5404516
  10.5279700  48.3701542  54.6357600  10.5302794  47.6544949  54.3154406
   0.9520384  38.9306372  57.7343019   1.6973976  38.7416182  57.3206444
   0.5357689  39.4564610  57.1756875   1.0005358  38.9808517  57.5907592
   8.3282655  46.3015600  52.6848524   8.8790576  45.6683670  52.9245616
   8.3126770  46.8330993  53.3764028   8.4067851  46.2864549  52.8227382
   2.0311061  44.5411934  51.7953120   1.6875827  43.8202269  52.1460370
   2.1304104  44.3325785  50.9531478   1.9953104  44.4036137  51.7224800
   2.4924090  51.0037638  47.3377108   3.0582123  51.6630848  47.2535651
   1.8451994  51.3487336  47.8093510   2.4802847  51.1519580  47.3949865
   4.4259550  47.6671506  50.9573905   4.3393525  47.8226932  51.8108683
   3.9710030  48.3109581  50.5833310   4.3462807  47.7847261  51.0281011
   2.1933415  51.6965612  53.3686245   2.0547775  52.3946658  53.8734988
   1.4133413  51.5414269  53.0122427   2.0576642  51.7765779  53.3912519
   0.5311500  47.9961987  59.6208627   0.5259539  47.1241804  59.6251053
   1.2372494  48.1950157  59.1478083   0.6356504  47.8965862  59.5515662
   3.6886788  51.0543866  44.1302745   3.3093597  50.2681004  44.1232034
   3.0253034  51.6030723  43.9874389   3.5345263  51.0188690  44.1083541
   1.1431414  33.9969566  51.5336825   1.2614982  34.4546029  50.8004128
   0.9693590  33.1914827  51.2473043   1.1350585  33.9463338  51.3837759
   1.9346887  53.2989357  44.4654430   2.0166724  54.1056343  44.1415881
   2.4196629  53.3185316  45.1895204   2.0184045  53.4210019  44.5241329
   1.4422087  52.0586775  64.5472756   2.2556953  51.7871924  64.7077889
   1.2817054  51.7594315  63.7432952   1.5392036  51.9741701  64.4518162
   1.4543331  53.1193065  59.8195597   2.0923052  52.6253261  59.4858053
   0.8117423  53.0470466  59.2347824   1.4537558  53.0352074  59.6837952
   3.1800331  44.9682211  54.3861512   2.7527939  44.8808560  53.6309612
   2.5426384  45.0759987  54.9716357   3.0229939  44.9714871  54.3606954
   1.5097588  53.8112874  56.4600954   2.2989966  53.4601938  56.5803035
   1.6841186  54.6249262  56.1977587   1.6517869  53.8798731  56.4388822
   3.6165100  38.3754195  50.5020137   3.0039413  38.8624597  50.8873869
   3.7129275  37.6997686  51.0457789   3.5402997  38.3472503  50.6398996
   7.2590128  49.4471131  55.9297654   7.3173251  49.8957780  56.6757630
   6.6256595  49.8569944  55.4927734   7.1741423  49.5744866  55.9750202
   4.2111807  47.4687419  54.0163344   3.9710030  46.6293834  54.0205770
   4.6903814  47.5487586  54.7404117   4.2463991  47.3568819  54.1238146
   6.2116994  44.2488876  51.9692603   5.9726764  44.2084711  51.1313388
   6.3750895  45.0960028  52.0958324   6.2007298  44.3680961  51.8646085
   2.8163024  48.6338826  57.8997648   3.5397223  48.1811352  57.7208668
   2.5512987  48.9143491  57.1169976   2.8844298  48.6089794  57.7576363
   5.2498338  47.5965237  56.4028198   5.8416179  48.2362487  56.4346396
   5.6857333  46.8988273  56.6920265   5.4016769  47.5883587  56.4509030
   2.2747480  44.8110455  48.7031340   1.6038669  45.3540157  48.5744406
   2.9687230  45.2805310  48.4613035   2.2776347  44.9608726  48.6486868
   2.4375607  41.2666339  51.6121714   2.7903217  40.8396062  52.2867512
   1.5790409  41.1817182  51.7422790   2.3625052  41.1911079  51.7316724
   0.4358873  44.5301707  55.5606556   0.4156800  44.3485003  56.4141335
   0.4838074  45.4013726  55.5366139   0.4393514  44.6318246  55.6829851
   3.8699667  36.3884751  52.5406026   3.3630532  35.6813890  52.4727204
   4.6667101  36.0577939  52.6707103   3.9126906  36.2357902  52.5505021
   6.0719807  50.9049677  45.5246891   6.4553413  51.6541033  45.7544988
   5.2763920  51.1515497  45.2658880   6.0113589  51.0519371  45.5204464
   2.5120389  41.8851300  48.6882848   2.5114616  41.7299957  49.5467124
   2.3076569  42.7314287  48.6324234   2.4820167  41.9871921  48.8070788
   2.3013060  49.3152489  55.0296184   2.7268132  48.7926911  54.4766609
   1.9369980  49.9133327  54.5084807   2.3099663  49.3262716  54.8705194
   2.3359470  40.8890042  55.5076226   1.7522459  41.3899249  55.0953794
   2.6563764  40.3819599  54.8740549   2.2972646  40.8881877  55.3534733
  15.5637583  61.4820612  47.6177251  15.5331587  62.3365249  47.7895521
  16.1618931  61.1815905  48.1763395  15.6474740  61.5637109  47.7252054
   8.7637267  60.5696263  52.3730182   7.9075163  60.7304762  52.4239299
   8.8104921  59.6988327  52.3935243   8.6436379  60.4647065  52.3836248
  12.0730984  66.8382789  61.9790638  12.7797751  66.3434820  62.1077572
  12.2618919  67.2791870  61.2493296  12.2058890  66.8301139  61.8899683
  11.6089088  62.6288307  55.0161833  12.1545048  63.3073394  55.0755803
  11.5505965  62.4875768  54.1563415  11.6805003  62.7080309  54.8973894
  13.3854157  64.0572914  45.8895561  13.2693683  64.8080600  46.3187699
  14.1810044  63.7996868  46.1391648  13.4858747  64.1307761  45.9899653
   5.2684483  68.0466937  47.1764904   5.5900324  68.5872145  46.5726212
   5.9156579  67.4763709  47.3087193   5.4110538  68.0426112  47.1071939
   7.3186191  60.0482932  47.2599290   8.0166355  60.2271060  47.7520754
   7.6338523  59.5253272  46.6369680   7.4681528  59.9976704  47.2401301
   7.5074126  66.4353377  47.2479082   7.9467762  65.8270478  47.6933855
   7.3578789  66.0560751  46.4764547   7.5495592  66.2891848  47.1998249
   4.9745769  65.0297389  54.4497907   5.6194772  64.5369832  54.1308856
   5.2147546  65.1722176  55.2763986   5.1056354  64.9774831  54.5247441
   7.5131860  67.8752295  54.1004800   7.7955103  67.0803701  53.8791556
   8.2418021  68.3532882  54.1209861   7.6621424  67.8286892  54.0707815
   5.4913054  55.4175329  51.3420565   5.1616384  55.8686473  50.6724264
   4.8158056  55.3391492  51.8893571   5.3423491  55.4726464  51.3243788
  11.1083463  64.7880559  44.2009851  11.0234758  65.6441525  44.3459420
  11.5967846  64.5124883  44.8692010  11.1672360  64.8737880  44.3211933
  12.6989462  51.4060852  49.5870176  12.3842903  52.0964330  50.0190598
  12.1816404  51.3505634  48.8855676  12.5753932  51.4995740  49.5467125
  12.0401896  61.4065353  45.7007586  11.5113367  61.6224986  46.3604892
  12.5626916  62.1001491  45.6208556  12.0390349  61.5408490  45.7863185
  17.4949949  66.9811657  51.0740631  16.6647652  67.1922301  51.2374047
  17.4459201  66.1548712  50.7982914  17.3656684  66.8901264  51.0577996
   3.9301504  65.3028570  44.5015054   3.3458719  65.8078601  44.9080918
   3.5271599  65.0770956  43.7611646   3.7840807  65.3436818  44.4520079
   9.2123278  70.2610325  59.8704713   9.3006624  70.0736466  60.7182924
   9.6412991  69.6147755  59.4709560   9.2885381  70.1373333  59.9376465
   8.3878718  61.5494222  42.9783975   8.6274722  61.7572205  42.1659318
   8.7094559  60.7451730  43.0872919   8.4715876  61.4608323  42.8744528
   3.6969008  53.4787617  46.8243513   4.4514976  53.8465934  46.5860563
   3.5196543  53.8527172  47.5922692   3.7823487  53.5885805  46.9028401
  16.9903907  59.6282058  54.8691052  16.1532328  59.6984245  55.1038647
  16.9592138  59.6306553  53.9965354  16.8622189  59.6392285  54.7750600
   3.3868636  61.7715093  60.5839421   3.5589140  61.6620988  61.4324702
   3.9237994  62.4169499  60.3470613   3.4913640  61.8507095  60.6744517
   2.0526073  55.8857936  43.5221626   1.8701646  56.1029817  42.6962619
   2.9151686  55.9996949  43.5780240   2.1530662  55.9347834  43.4076113
   1.6640505  67.7245859  50.9644614   2.5029404  67.9568791  51.0118375
   1.6952274  66.8550170  50.8951649   1.7922223  67.6302805  50.9609258
   7.7325792  52.8884347  46.5570650   8.4611953  52.7100302  46.1108806
   7.8220685  53.7302427  46.7677828   7.8532454  52.9868225  46.5224167
  11.7134093  63.8237734  50.4602943  12.4691608  64.2569249  50.4991852
  11.8196417  63.1742504  51.0337580  11.8404263  63.7915218  50.5500969
  14.7514264  67.6511012  51.2105346  14.3149496  67.6547754  51.9664318
  14.4177179  68.3316511  50.7784924  14.6376884  67.7523467  51.2586179
  14.6711747  54.6924839  53.4534774  15.3137655  54.7622944  54.0396690
  14.9234768  54.0254062  52.9514316  14.8033879  54.6051188  53.4662054
   1.5988100  59.1632109  42.0344099   0.8846277  58.8770288  42.4466531
   2.0832069  59.5028735  42.6750486   1.5647463  59.1713759  42.1899734
   2.4428959  57.9025403  58.0659348   1.7500756  57.4322383  58.3120080
   3.0589287  57.6763707  58.6401056   2.4313489  57.7992535  58.1868501
  17.8858610  64.3691932  50.1024984  18.5475044  63.8082600  50.0020892
  17.2450022  63.8743962  50.4277675  17.8887478  64.2128341  50.1357324
   8.7735418  67.6662063  42.4105907   9.1886566  67.3347087  41.7190403
   7.9427348  67.4330965  42.2826044   8.7123427  67.5833319  42.2896754
  14.1723441  65.3857314  49.8436972  14.4079030  65.5302513  49.0163823
  14.3213005  66.1499722  50.2368486  14.2289244  65.5196368  49.7800576
   1.1669518  61.8690807  59.2086194   1.8909491  61.8543837  59.6951088
   1.2685655  62.5786162  58.7108162   1.2887727  61.9715510  59.2064980
  16.0013898  64.2258980  47.6806576  16.3322115  64.7586620  47.0746671
  16.5746986  64.2797868  48.3368527  16.1347577  64.3128549  47.6884358
  11.2145787  62.0723883  48.3630156  11.3092641  62.8113177  48.8169782
  10.5904630  61.6441358  48.7964721  11.1354817  62.1185203  48.4938304
   9.4698261  65.2510095  59.0120437  10.0437122  64.6137339  59.1669001
   9.3913064  65.2514178  58.1430095   9.5431495  65.1575207  58.9066848
  11.4668808  63.9172622  41.5967108  11.3848971  63.9874809  42.4622095
  12.1048529  64.4802366  41.4050849  11.5488645  64.0111593  41.6957058
   4.8261979  63.6833360  51.0641635   4.5681223  62.8505095  51.0372934
   4.8810462  63.9090973  50.2234135   4.7961757  63.5931132  50.9361771
   9.9063029  55.7861811  51.1645727   9.2019356  55.2970996  51.3229647
   9.9548004  55.7984285  50.2934172   9.8093081  55.7151459  51.0585067
   3.7996691  61.2371123  51.5506529   3.2246283  61.3963291  52.1870490
   3.4232368  60.6006532  51.0874980   3.6599504  61.1668936  51.5761088
   7.4669980  59.7094472  56.4098908   7.0784413  59.2848690  55.7551099
   6.8024678  59.9576622  56.9175935   7.3116908  59.6833193  56.3886776
  17.1093249  59.4669477  49.1846738  16.8529814  58.6549418  48.9944621
  17.9522563  59.4747044  48.9576925  17.1959275  59.3481474  49.1231555
  11.2896342  53.4069101  53.9222892  11.6706853  52.7247272  54.3090766
  10.4859626  53.1178703  53.7398557  11.2272803  53.2636149  53.9526948
   8.5708918  63.9393077  44.6075715   9.3849557  64.2307969  44.4958486
   8.5068060  63.2852939  44.0334008   8.6811657  63.8858271  44.5064552
  14.7918408  66.6219073  59.0205291  14.5557046  65.7907138  58.9017351
  15.4361637  66.5704680  59.6060135  14.8513079  66.4916761  59.0891184
   4.4416827  67.4114594  49.7348027   5.0790773  67.1726342  50.2799820
   4.8671898  67.6151753  49.0001188   4.5992993  67.4065604  49.7065184
   5.0819642  62.6316884  44.0722916   5.4664794  62.4124591  44.8239461
   4.8331262  63.4579829  44.2023993   5.1021714  62.7215030  44.2023993
   5.2488182  55.9123299  63.7885501   4.9341623  56.6822862  63.5255063
   4.9278115  55.3493555  63.2037728   5.1547101  55.9433568  63.6626851
  15.8154829  66.4063522  55.0833585  15.5100646  67.1391578  55.4446901
  15.0961045  66.0001451  54.8026371  15.6642171  66.4545255  55.0946722
   6.8238298  67.8887017  51.4141813   6.8977307  67.7262189  52.2683663
   7.6407805  68.0777206  51.1702295   6.9554657  67.8923759  51.5039839
  21.5156621  63.0456522  54.4101929  21.4481121  63.0652481  53.5404516
  21.5012284  63.8886849  54.6357600  21.5035378  63.1730257  54.3154406
   2.8020079  54.3013821  49.4031697   1.9342504  54.3736420  49.4689306
   3.0895283  55.1035899  49.5919672   2.7159827  54.4307968  49.4406463
  11.9252968  54.4491680  57.7343019  12.6706560  54.2601490  57.3206444
  11.5090272  54.9749918  57.1756875  11.9737942  54.4993825  57.5907592
  19.3015239  61.8200908  52.6848524  19.8523160  61.1868977  52.9245616
  19.2859354  62.3516301  53.3764028  19.3800435  61.8049857  52.8227382
   5.9537629  65.6539506  57.2308417   5.4549323  66.3655273  57.3093306
   6.7637854  65.9740172  57.1926580   5.9993736  65.8066354  57.2364986
   2.2165747  64.9162459  51.4771138   1.9278996  64.2899930  52.0116865
   3.0849095  64.8582746  51.5435818   2.3025999  64.8150003  51.5662093
  13.0043645  60.0597242  51.7953120  12.6608411  59.3387577  52.1460370
  13.1036687  59.8511093  50.9531478  12.9685688  59.9221445  51.7224800
   2.4198020  66.5557710  47.4013503   3.1743988  66.9370749  47.6148966
   1.8268633  67.0068853  47.8560200   2.4434734  66.6786537  47.4996381
  13.4656674  66.5222946  47.3377108  14.0314706  67.1816156  47.2535651
  12.8184577  66.8672644  47.8093510  13.4535430  66.6704887  47.3949865
   4.8804687  58.5120550  62.5270715   4.0704463  58.8178330  62.4160558
   5.3579374  59.2326132  62.6423299   4.8308166  58.6635151  62.5277786
   3.7396247  67.7266271  52.7753618   3.2177000  67.8666563  53.4605483
   4.1270267  66.9676935  52.9655736   3.7199948  67.6351795  52.9054695
   0.7287431  57.7772080  46.8448573   0.4412227  57.4073350  46.1080520
   1.4157899  58.2466935  46.5832278   0.7876328  57.7919049  46.6963649
   9.9363252  69.4661730  46.7614187   9.6949928  68.7329591  46.3541252
  10.1164585  70.0148587  46.1080521   9.9270876  69.4384122  46.6044410
   5.1662573  64.7570290  48.1735110   4.9705355  65.3645025  47.5795412
   5.3896918  64.0638234  47.6926783   5.1697214  64.7447816  48.0151190
   3.5641103  61.6425028  48.2915978   4.2863754  61.8066186  47.8319784
   3.0849095  62.3634693  48.1855318   3.6004833  61.7723258  48.2081592
  11.5234610  57.9788827  53.6712663  10.6845711  58.0050106  53.4350926
  11.5938977  58.6259562  54.2518009  11.4103004  58.0784953  53.7221780
   9.9703888  54.8774204  48.4040279  10.6730241  54.6781952  47.9260237
   9.7048077  54.1050146  48.7109122  10.0350521  54.7337170  48.3785720
  15.3992134  63.1856814  50.9573905  15.3126109  63.3412240  51.8108683
  14.9442614  63.8294889  50.5833310  15.3195391  63.3032569  51.0281011
   4.7332445  56.1409489  57.4571159   4.5415642  56.1564623  58.3070583
   5.5831041  56.3373163  57.4337814   4.8308167  56.1723840  57.5794454
   9.2717950  60.5067561  49.5799464   9.0252664  60.4263312  50.4136253
   9.6003073  59.7221029  49.3861992   9.2839194  60.3793826  49.6746987
  13.1665999  67.2150920  53.3686245  13.0280358  67.9131966  53.8734988
  12.3865997  67.0599577  53.0122427  13.0309226  67.2951087  53.3912519
  11.5044084  63.5147295  59.6208627  11.4992122  62.6427112  59.6251053
  12.2105078  63.7135465  59.1478083  11.6089088  63.4151170  59.5515662
   5.2314977  63.2424279  58.9922447   5.3758353  63.8225487  58.3565557
   5.5790626  63.6200576  59.6972302   5.3042439  63.3844983  59.0021442
   7.4034895  62.4414448  56.7747579   6.6558209  62.6345462  56.3695857
   7.5576420  61.6159667  56.5371700   7.3157322  62.3479559  56.6792985
  14.6619372  66.5729174  44.1302745  14.2826180  65.7866312  44.1232034
  13.9985617  67.1216031  43.9874389  14.5077846  66.5373998  44.1083541
   7.6436672  56.3364998  57.6642982   8.1009286  57.0688973  57.7915775
   7.7193000  55.9131464  58.4230238   7.7227642  56.3822236  57.7944059
  12.1163998  49.5154874  51.5336825  12.2347566  49.9731337  50.8004128
  11.9426173  48.7100135  51.2473043  12.1083169  49.4648646  51.3837759
   5.5219050  58.3267102  54.5084807   4.7315124  58.1458562  54.8302142
   5.9179672  57.5494055  54.4915101   5.4635926  58.1854563  54.5537355
  10.0084940  67.1554877  39.9491520  10.7757926  67.2155002  39.5397372
   9.5616249  66.5835318  39.4647839  10.0558368  67.0791452  39.8169230
  10.9062736  65.9609532  52.2344252  10.2307738  65.7294765  52.7357639
  10.9155112  65.3530715  51.6086357  10.8081240  65.8368458  52.2160405
   8.0356880  60.8027361  58.9908305   7.9716021  61.6637318  58.8628442
   8.1754068  60.4859355  58.1903857   8.0472350  60.8827528  58.8536518
  12.9079470  68.8174665  44.4654430  12.9899308  69.6241651  44.1415881
  13.3929213  68.8370624  45.1895204  12.9916628  68.9395327  44.5241329
   6.7175974  63.4959501  53.1324508   6.2938223  63.6964000  52.3963527
   6.5420829  62.6488349  53.2448808   6.6286854  63.4008282  53.0398198
   2.0058419  63.9911552  48.5652481   2.1623038  63.9258355  49.4208473
   2.3459012  64.7660105  48.3531160   2.0791654  64.0960750  48.6607075
   8.5437563  63.3669436  47.4345844   9.0853109  62.8639817  47.8984465
   8.8584122  63.3134630  46.6235329   8.6701960  63.2848857  47.3829656
  12.4154671  67.5772083  64.5472756  13.2289536  67.3057232  64.7077889
  12.2549637  67.2779623  63.7432952  12.5124619  67.4927009  64.4518162
   6.7124013  68.7586787  44.7185872   6.7816833  67.9001326  44.8578872
   7.4912468  68.9758668  44.3904897   6.8376863  68.6639651  44.6903029
   9.6926833  58.2605740  57.4868145   9.9068802  57.6216655  56.9331498
   9.0760732  58.7051564  57.0576006   9.6332162  58.2315884  57.3418576
  11.8565921  59.8694805  58.4251452  11.0442602  59.5620696  58.5064624
  12.3155855  59.3893806  58.9894164  11.8046306  59.7531298  58.5206046
  11.2671175  67.7474477  48.8728396  10.9085830  67.9189120  49.6492428
  10.7809886  68.2087683  48.3156394  11.1429872  67.8413449  48.9053665
   9.0841561  51.3705676  52.4755487   8.2135119  51.3444397  52.4288797
   9.3381903  51.1982868  51.6581333   8.9935121  51.3415820  52.3475624
   6.0559541  63.4273643  41.4128630   6.3452066  64.2038525  41.6872205
   6.1431340  62.9162374  42.1143130   6.1113797  63.4665561  41.5571128
   8.9519428  61.2754877  63.2080154   9.4219059  61.8996993  63.5948028
   8.9981308  60.6071852  63.7673369   9.0287304  61.2689557  63.3480225
   6.1090702  53.3811904  53.9328958   5.5929190  52.6892096  54.0580537
   5.5484631  54.0482681  53.8791556   5.9497215  53.3775162  53.9435024
   8.1782935  53.9204864  55.7621810   7.7914688  53.9453896  56.5435340
   7.6915873  53.3546543  55.3096327   8.0495444  53.8400615  55.8109714
  12.4275915  68.6378373  59.8195597  13.0655635  68.1438569  59.4858053
  11.7850006  68.5655774  59.2347824  12.4270141  68.5537382  59.6837952
  14.1532915  60.4867519  54.3861512  13.7260523  60.3993868  53.6309612
  13.5158968  60.5945295  54.9716357  13.9962522  60.4900179  54.3606954
   7.8440077  50.8071850  58.0532070   8.4733195  51.3432150  57.7753141
   8.0125940  50.7149209  58.9045636   7.9617872  50.8733212  58.1380598
   7.6453992  55.5943045  60.3258482   8.4727421  55.3228194  60.3817096
   7.6661838  56.3903886  60.6822300   7.7706842  55.6722799  60.3873665
  12.4830171  69.3298182  56.4600954  13.2722550  68.9787246  56.5803035
  12.6573769  70.1434570  56.1977587  12.6250453  69.3984039  56.4388822
  11.3363996  53.3407738  51.0217372  11.5413589  53.2730046  51.8674369
  11.0090420  54.1466560  50.9538549  11.3179243  53.4493679  51.1377027
   6.0340147  60.6688307  52.7626340   5.7303284  60.1144295  53.3636748
   5.3319567  60.8480517  52.2754374   5.8856356  60.6133089  52.7796046
   5.0906244  57.9788826  47.3271042   5.3665978  57.2607739  46.9148609
   5.6904913  58.5773746  47.1192148   5.2199508  57.9609197  47.2351803
  14.5897683  53.8939503  50.5020137  13.9771997  54.3809905  50.8873869
  14.6861858  53.2182994  51.0457789  14.5135581  53.8657811  50.6398996
   8.5916764  55.6502344  45.6017637   9.0460511  55.8212904  46.3265481
   9.0656810  55.0370454  45.2015413   8.7285084  55.5853229  45.6491398
   2.1132290  65.1350670  54.9320375   1.5220223  65.7760168  54.9023390
   2.8753313  65.5588287  54.9051675   2.1380550  65.2926508  54.9235523
   2.5092912  56.2952667  55.5988393   2.9694394  56.3691597  56.3363517
   2.5549019  57.0933922  55.2488214   2.5843468  56.4246815  55.6561149
   4.1576262  56.9619362  60.1660420   3.7661827  56.3152709  60.6016198
   4.3262125  57.5530798  60.7854675   4.1247173  56.9533630  60.3223126
  18.2322711  64.9656439  55.9297654  18.2905835  65.4143088  56.6757630
  17.5989179  65.3755252  55.4927734  18.1474006  65.0930174  55.9750202
  11.8721806  70.5859981  52.3652400  11.6741495  71.0750796  51.6708611
  11.2509517  70.7901223  52.9436533  11.7509370  70.6876520  52.3475623
   5.9329784  62.3544878  46.7062644   6.6771829  62.7419154  46.9445594
   6.0790480  61.5102304  46.8703132   6.0640369  62.2875351  46.7656614
   7.8509360  54.1495137  51.7394505   7.0045405  54.3217945  51.6135855
   7.8480492  53.3444481  52.0760334   7.7256510  54.0556166  51.7705632
   8.9207660  57.9270351  52.6056563   8.4467614  57.4012113  53.1161874
   9.2925796  57.3799824  52.0371425   8.9057549  57.7686348  52.5971711
  15.1844391  62.9872727  54.0163344  14.9442614  62.1479142  54.0205770
  15.6636398  63.0672894  54.7404117  15.2196574  62.8754127  54.1238146
  10.8491160  58.8206906  45.6682317  10.3214178  58.9035650  44.9788026
  11.3086868  59.5624777  45.6646962  10.8393010  58.9427568  45.5657012
  17.1849578  59.7674184  51.9692603  16.9459348  59.7270018  51.1313388
  17.3483479  60.6145336  52.0958324  17.1739881  59.8866269  51.8646085
  13.7895608  64.1524134  57.8997648  14.5129807  63.6996660  57.7208668
  13.5245570  64.4328799  57.1169976  13.8576881  64.1275102  57.7576363
   2.6582476  58.7484307  54.6350527   2.0335546  58.7602699  54.0276480
   2.3228071  59.2244482  55.2841768   2.5167968  58.8202824  54.6407096
   2.8424225  57.0909426  40.6923212   2.4937029  57.7429151  41.1554762
   2.3620671  57.0766539  39.9647084   2.7194469  57.1852479  40.6534304
  10.4028242  67.3910470  44.7991974  11.1262441  67.8568583  44.6556548
   9.9628833  67.4584079  44.0489571  10.4443934  67.4694306  44.6676756
   9.5714397  64.2508012  56.0492663   8.9571390  63.7066062  56.3441299
  10.0881682  63.7372248  55.5698479   9.5570060  64.0944421  56.0216892
   8.8110695  65.3212282  53.7836962   8.3838303  64.6962001  53.3502397
   8.8035639  65.0387204  54.6095969   8.7469836  65.1865063  53.8416789
   1.9273222  60.3577455  56.8525396   2.0866708  59.6020779  57.2577118
   1.7466115  60.9068394  57.5066133   1.9238581  60.3271269  57.0088102
   9.8693525  52.5238691  57.4076185   9.3734086  52.7202365  56.7167752
  10.6262587  52.9231359  57.2364987   9.9080349  52.6116424  57.2796322
   7.1396404  56.1981036  53.9979496   7.1638891  55.6641149  53.3092276
   7.3907878  55.6898345  54.6605086   7.1806323  56.0441940  53.9944141
   3.4197726  54.9251855  53.3785240   3.4596098  55.4261061  54.0919948
   2.5947391  55.0162248  53.1091163   3.3037252  55.0133671  53.4435778
   4.8412090  61.4412364  55.6759139   4.0104019  61.6086182  55.4694387
   4.7863607  61.0648315  56.4608024   4.7101505  61.4102096  55.7607667
   2.6495873  54.9321257  61.3115550   3.2748576  54.3883390  61.5844982
   2.1946353  54.4516175  60.7423340   2.6744134  54.7810739  61.2677144
   3.2148134  59.7167956  46.2049257   3.3551095  60.2140420  46.9077898
   3.7130666  59.0154250  46.3463471   3.3089215  59.6869935  46.3300836
   3.2448356  60.5835067  43.5341834   3.8793435  61.1795492  43.4691295
   3.3273967  60.2838525  44.3487704   3.3504907  60.6275975  43.6444920
  16.2230922  63.1150544  56.4028198  16.8148762  63.7547795  56.4346396
  16.6589916  62.4173581  56.6920265  16.3749353  63.1068895  56.4509030
   4.8227339  56.5149042  43.5087276   5.1443180  56.0352125  42.8546538
   5.0854283  57.3248689  43.3178087   4.9093364  56.5638940  43.3842768
   8.0524312  67.5367917  57.0286092   7.5449403  68.0903764  57.4726722
   7.7550958  67.5976207  56.2104866   7.9329197  67.6274228  56.9734548
  10.2186494  55.9021236  55.8710755  10.6441565  55.4493763  55.2594281
   9.6043487  55.3481307  56.1475542  10.1915139  55.7535213  55.8215780
   8.6580717  52.3736336  49.2801332   8.0149035  52.2233983  49.8486470
   8.3180124  52.1278682  48.5150436   8.5125794  52.3148459  49.2504347
  13.2480063  60.3295763  48.7031340  12.5771253  60.8725465  48.5744406
  13.9419813  60.7990618  48.4613035  13.2508931  60.4794034  48.6486868
  13.4108191  56.7851647  51.6121714  13.7635801  56.3581370  52.2867512
  12.5522992  56.7002490  51.7422790  13.3357635  56.7096387  51.7316724
   2.1091876  59.4159166  49.6704560   1.3903865  59.8323299  49.9377424
   2.4804238  59.9813405  49.1196198   2.0583807  59.5608448  49.6287367
  11.4091456  60.0487015  55.5606556  11.3889384  59.8670310  56.4141335
  11.4570657  60.9199034  55.5366139  11.4126097  60.1503554  55.6829851
   9.3537786  66.6374207  61.4855032   9.3133641  65.9923884  60.9000188
  10.1661105  66.5810825  61.7980444   9.4680940  66.5333174  61.4451982
   7.8838450  58.4557166  45.0077940   7.2903289  58.7774163  44.4562507
   7.9213728  57.6098262  44.7999046   7.8012839  58.3781495  44.8960711
  14.8432251  51.9070059  52.5406026  14.3363115  51.1999198  52.4727204
  15.6399684  51.5763247  52.6707103  14.8859490  51.7543210  52.5505021
  10.7596267  58.4136671  48.4379690  10.5309960  58.4369372  47.5958048
  11.0194343  57.5894138  48.5574700  10.7642455  58.2952751  48.3304888
   5.0415495  60.2671144  58.0404790   4.5294398  59.6592327  58.3989821
   4.8694991  60.9827736  58.5078766   4.9405132  60.2834443  58.1621014
   3.8141029  56.9513217  49.7333885   4.2898395  57.3130297  49.0984067
   3.3129629  57.6069685  50.0134028   3.8106388  57.1007406  49.6810626
  17.0452391  66.4234985  45.5246891  17.4285996  67.1726341  45.7544988
  16.2496504  66.6700805  45.2658880  16.9846173  66.5704679  45.5204464
   8.9184565  58.1895388  60.4807046   9.4755996  57.9609198  59.8485511
   8.5945630  58.9501054  60.2042258   8.9530976  58.2679225  60.3463543
   6.6367683  61.2763042  61.4459053   7.3879010  61.5914719  61.7598607
   6.8290259  61.0742213  60.6192974   6.7759097  61.2930424  61.3702448
   5.8567682  59.0954417  43.1007269   6.2366647  59.1134046  42.3158384
   5.1160278  59.5408406  42.9798117   5.8036520  59.1636192  42.9670838
  13.4852973  57.4036608  48.6882848  13.4847199  57.2485265  49.5467124
  13.2809153  58.2499595  48.6324234  13.4552751  57.5057229  48.8070788
  11.2093825  62.0834110  52.3419055  11.7047490  61.3657105  52.3023075
  10.3993601  61.7804908  52.2273542  11.1637718  61.9331756  52.3192781
   6.6552436  65.9331923  44.4916059   5.8463759  65.6098597  44.4449369
   7.1627345  65.2265145  44.4244308   6.6102103  65.7813239  44.4746354
  13.2745644  64.8337797  55.0296184  13.7000715  64.3112219  54.4766609
  12.9102564  65.4318635  54.5084807  13.2832246  64.8448024  54.8705194
   9.8624243  68.5472062  51.3597341  10.3335421  69.2612324  51.5287326
  10.1984422  67.9470812  51.8957211   9.9819358  68.5643526  51.4629717
   6.7793738  53.3199532  58.3155436   6.9121644  52.5230526  58.6436412
   7.1638891  53.8465935  58.8953712   6.8550067  53.2799449  58.4498939
  10.4998189  68.3389996  58.1225034   9.9519135  67.7147879  57.8545099
  10.9611218  68.5284268  57.4069113  10.4865399  68.2749046  57.9775465
   9.8526093  50.2429858  54.9136529   9.0472057  50.1327588  55.2304368
   9.7232829  50.3442314  54.0566395   9.7146226  50.2413528  54.8344570
  13.3092054  56.4075350  55.5076226  12.7255043  56.9084557  55.0953794
  13.6296348  55.9004906  54.8740549  13.2705229  56.4067185  55.3534733
   5.8486853  55.3215945  45.7834901   6.6702547  55.4914258  45.5416596
   5.3856504  55.4763206  45.0601199   5.9018015  55.3697678  45.6406545
   4.4382185  53.3158707  56.5633330   4.9826598  52.9749834  57.1537671
   4.4919121  54.1744169  56.7054614   4.5271304  53.3913967  56.6715203
  10.0656516  69.3441068  54.6534375  10.8854890  69.2004035  54.9150670
   9.7850593  69.9687267  55.1950813  10.1453259  69.4151421  54.7722314
  16.4645638  70.9360637  51.3420565  16.1348968  71.3871780  50.6724264
  15.7890640  70.8576800  51.8893571  16.3156074  70.9911772  51.3243788
  23.6722046  66.9246160  49.5870176  23.3575487  67.6149638  50.0190598
  23.1548987  66.8690942  48.8855676  23.5486516  67.0181048  49.5467125
  14.6701592  68.9972925  46.8243513  15.4247560  69.3651242  46.5860563
  14.4929127  69.3712480  47.5922692  14.7556070  69.1071113  46.9028401
  27.9636491  75.1467366  54.8691052  27.1264912  75.2169553  55.1038647
  27.9324722  75.1491861  53.9965354  27.8354773  75.1577593  54.7750600
  13.0258657  71.4043244  43.5221626  12.8434230  71.6215125  42.6962619
  13.8884270  71.5182257  43.5780240  13.1263246  71.4533142  43.4076113
  18.7058376  68.4069655  46.5570650  19.4344536  68.2285610  46.1108806
  18.7953269  69.2487735  46.7677828  18.8265038  68.5053533  46.5224167
  25.6444330  70.2110147  53.4534774  26.2870239  70.2808252  54.0396690
  25.8967351  69.5439370  52.9514316  25.7766463  70.1236496  53.4662054
  20.8795613  71.3047119  51.1645727  20.1751940  70.8156304  51.3229647
  20.9280587  71.3169593  50.2934172  20.7825665  71.2336767  51.0585067
  28.0825833  74.9854785  49.1846738  27.8262398  74.1734726  48.9944621
  28.9255147  74.9932352  48.9576925  28.1691858  74.8666782  49.1231555
  22.2628925  68.9254409  53.9222892  22.6439437  68.2432580  54.3090766
  21.4592209  68.6364011  53.7398557  22.2005387  68.7821457  53.9526948
  16.2220766  71.4308607  63.7885501  15.9074207  72.2008170  63.5255063
  15.9010698  70.8678863  63.2037728  16.1279685  71.4618876  63.6626851
  13.7752662  69.8199128  49.4031697  12.9075088  69.8921728  49.4689306
  14.0627867  70.6221207  49.5919672  13.6892411  69.9493276  49.4406463
  22.8985551  69.9676988  57.7343019  23.6439143  69.7786798  57.3206444
  22.4822856  70.4935226  57.1756875  22.9470525  70.0179133  57.5907592
  30.2747822  77.3386216  52.6848524  30.8255744  76.7054285  52.9245616
  30.2591937  77.8701609  53.3764028  30.3533018  77.3235164  52.8227382
  23.9776228  75.5782550  51.7953120  23.6340994  74.8572885  52.1460370
  24.0769271  75.3696401  50.9531478  23.9418271  75.4406753  51.7224800
  22.4967194  73.4974135  53.6712663  21.6578294  73.5235414  53.4350926
  22.5671561  74.1444870  54.2518009  22.3835587  73.5970261  53.7221780
  20.9436472  70.3959512  48.4040279  21.6462825  70.1967260  47.9260237
  20.6780661  69.6235454  48.7109122  21.0083104  70.2522478  48.3785720
  15.7065028  71.6594797  57.4571159  15.5148225  71.6749931  58.3070583
  16.5563624  71.8558471  57.4337814  15.8040750  71.6909148  57.5794454
  18.6169255  71.8550306  57.6642982  19.0741869  72.5874281  57.7915775
  18.6925584  71.4316772  58.4230238  18.6960225  71.9007544  57.7944059
  20.6659416  73.7791048  57.4868145  20.8801386  73.1401962  56.9331498
  20.0493316  74.2236872  57.0576006  20.6064746  73.7501192  57.3418576
  22.8298504  75.3880113  58.4251452  22.0175186  75.0806004  58.5064624
  23.2888439  74.9079114  58.9894164  22.7778889  75.2716606  58.5206046
  20.0574145  66.8890984  52.4755487  19.1867703  66.8629705  52.4288797
  20.3114486  66.7168176  51.6581333  19.9667705  66.8601128  52.3475624
  17.0823285  68.8997212  53.9328958  16.5661774  68.2077404  54.0580537
  16.5217214  69.5667989  53.8791556  16.9229799  68.8960470  53.9435024
  19.1515519  69.4390172  55.7621810  18.7647272  69.4639204  56.5435340
  18.6648456  68.8731851  55.3096327  19.0228028  69.3585923  55.8109714
  18.8172661  66.3257158  58.0532070  19.4465779  66.8617458  57.7753141
  18.9858523  66.2334517  58.9045636  18.9350455  66.3918520  58.1380598
  18.6186576  71.1128353  60.3258482  19.4460005  70.8413501  60.3817096
  18.6394422  71.9089194  60.6822300  18.7439426  71.1908107  60.3873665
  22.3096579  68.8593046  51.0217372  22.5146173  68.7915354  51.8674369
  21.9823003  69.6651868  50.9538549  22.2911827  68.9678987  51.1377027
  25.5630267  69.4124811  50.5020137  24.9504580  69.8995213  50.8873869
  25.6594442  68.7368301  51.0457789  25.4868164  69.3843119  50.6398996
  19.5649348  71.1687652  45.6017637  20.0193094  71.3398212  46.3265481
  20.0389394  70.5555762  45.2015413  19.7017668  71.1038537  45.6491398
  18.8241943  69.6680445  51.7394505  17.9777988  69.8403253  51.6135855
  18.8213076  68.8629789  52.0760334  18.6989093  69.5741474  51.7705632
  19.8940244  73.4455659  52.6056563  19.4200198  72.9197421  53.1161874
  20.2658380  72.8985132  52.0371425  19.8790133  73.2871656  52.5971711
  21.8223743  74.3392214  45.6682317  21.2946762  74.4220958  44.9788026
  22.2819452  75.0810085  45.6646962  21.8125594  74.4612876  45.5657012
  28.1582161  75.2859492  51.9692603  27.9191931  75.2455326  51.1313388
  28.3216063  76.1330644  52.0958324  28.1472465  75.4051577  51.8646085
  20.8426108  68.0423998  57.4076185  20.3466669  68.2387673  56.7167752
  21.5995170  68.4416667  57.2364987  20.8812933  68.1301732  57.2796322
  18.1128988  71.7166344  53.9979496  18.1371475  71.1826457  53.3092276
  18.3640461  71.2083653  54.6605086  18.1538906  71.5627248  53.9944141
  14.3930310  70.4437163  53.3785240  14.4328682  70.9446369  54.0919948
  13.5679975  70.5347556  53.1091163  14.2769836  70.5318979  53.4435778
  13.6228457  70.4506565  61.3115550  14.2481160  69.9068698  61.5844982
  13.1678937  69.9701483  60.7423340  13.6476717  70.2996047  61.2677144
  15.7959922  72.0334350  43.5087276  16.1175764  71.5537433  42.8546538
  16.0586866  72.8433996  43.3178087  15.8825948  72.0824248  43.3842768
  21.1919077  71.4206544  55.8710755  21.6174149  70.9679071  55.2594281
  20.5776071  70.8666615  56.1475542  21.1647723  71.2720521  55.8215780
  19.6313300  67.8921644  49.2801332  18.9881618  67.7419291  49.8486470
  19.2912707  67.6463989  48.5150436  19.4858378  67.8333767  49.2504347
  24.3840774  72.3036955  51.6121714  24.7368384  71.8766678  52.2867512
  23.5255576  72.2187798  51.7422790  24.3090219  72.2281695  51.7316724
  25.8164834  67.4255366  52.5406026  25.3095699  66.7184506  52.4727204
  26.6132268  67.0948555  52.6707103  25.8592074  67.2728518  52.5505021
  21.7328850  73.9321979  48.4379690  21.5042543  73.9554680  47.5958048
  21.9926926  73.1079446  48.5574700  21.7375038  73.8138059  48.3304888
  24.4585556  72.9221916  48.6882848  24.4579783  72.7670573  49.5467124
  24.2541736  73.7684903  48.6324234  24.4285334  73.0242537  48.8070788
  17.7526322  68.8384840  58.3155436  17.8854227  68.0415834  58.6436412
  18.1371474  69.3651243  58.8953712  17.8282651  68.7984757  58.4498939
  20.8258677  65.7615166  54.9136529  20.0204641  65.6512896  55.2304368
  20.6965412  65.8627622  54.0566395  20.6878810  65.7598836  54.8344570
  24.2824637  71.9260658  55.5076226  23.6987626  72.4269865  55.0953794
  24.6028931  71.4190214  54.8740549  24.2437813  71.9252493  55.3534733
  16.8219437  70.8401253  45.7834901  17.6435131  71.0099566  45.5416596
  16.3589087  70.9948514  45.0601199  16.8750599  70.8882986  45.6406545
  15.4114768  68.8344015  56.5633330  15.9559181  68.4935142  57.1537671
  15.4651704  69.6929477  56.7054614  15.5003888  68.9099275  56.6715203
   4.2855823  22.9013435  34.5517298   4.2549827  23.7558072  34.7235568
   4.8837172  22.6008728  35.1103442   4.3692981  22.9829932  34.6592101
   0.7949224  28.2575612  48.9130685   1.5015992  27.7627643  49.0417619
   0.9837160  28.6984694  48.1833343   0.9277130  28.2493962  48.8239730
   2.1072397  25.4765738  32.8235608   1.9911923  26.2273424  33.2527746
   2.9028284  25.2189691  33.0731695   2.2076987  25.5500584  32.9239700
   1.4207702  12.8253675  36.5210222   1.1061143  13.5157154  36.9530645
   0.9034644  12.7698457  35.8195723   1.2972173  12.9188564  36.4807172
   6.2168189  28.4004480  38.0080678   5.3865892  28.6115124  38.1714094
   6.1677441  27.5741535  37.7322961   6.0874925  28.3094087  37.9918043
   5.7122147  21.0474881  41.8031099   4.8750568  21.1177068  42.0378693
   5.6810378  21.0499376  40.9305401   5.5840430  21.0585108  41.7090647
   0.4352333  25.2430558  37.3942990   1.1909848  25.6762072  37.4331899
   0.5414658  24.5935327  37.9677626   0.5622504  25.2108041  37.4841016
   3.4732504  29.0703835  38.1445393   3.0367736  29.0740577  38.9004365
   3.1395420  29.7509334  37.7124971   3.3595124  29.1716291  38.1926226
   3.3929987  16.1117663  40.3874821   4.0355896  16.1815767  40.9736737
   3.6453008  15.4446886  39.8854363   3.5252119  16.0244011  40.4002100
   6.6076851  25.7884755  37.0365031   7.2693285  25.2275423  36.9360939
   5.9668263  25.2936785  37.3617722   6.6105718  25.6321164  37.0697371
   2.8941681  26.8050137  36.7777019   3.1297270  26.9495336  35.9503870
   3.0431245  27.5692545  37.1708533   2.9507485  26.9389192  36.7140623
   4.7232138  25.6451803  34.6146623   5.0540355  26.1779443  34.0086718
   5.2965226  25.6990691  35.2708574   4.8565817  25.7321372  34.6224405
   5.8311490  20.8862300  36.1186785   5.5748054  20.0742241  35.9284668
   6.6740803  20.8939867  35.8916972   5.9177515  20.7674297  36.0571602
   3.5136649  28.0411896  45.9545337   3.2775286  27.2099961  45.8357398
   4.1579878  27.9897503  46.5400182   3.5731320  27.9109584  46.0231231
   4.5373069  27.8256345  42.0173632   4.2318886  28.5584402  42.3786947
   3.8179285  27.4194274  41.7366418   4.3860412  27.8738078  42.0286769
  10.2374862  24.4649345  41.3441976  10.1699362  24.4845305  40.4744563
  10.2230524  25.3079673  41.5697647  10.2253618  24.5923080  41.2494453
   8.0233479  23.2393732  39.6188570   8.5741400  22.6061801  39.8585663
   8.0077594  23.7709124  40.3104075   8.1018675  23.2242680  39.7567429
   1.7261885  21.4790065  38.7293167   1.3826651  20.7580401  39.0800416
   1.8254928  21.2703917  37.8871525   1.6903928  21.3414269  38.6564847
   4.1210374  24.6049637  37.8913951   4.0344349  24.7605063  38.7448730
   3.6660854  25.2487712  37.5173356   4.0413631  24.7225392  37.9621058
   1.8884239  28.6343743  40.3026292   1.7498599  29.3324789  40.8075034
   1.1084237  28.4792400  39.9462474   1.7527466  28.7143910  40.3252566
   3.3837612  27.9921997  31.0642791   3.0044421  27.2059135  31.0572081
   2.7203857  28.5408854  30.9214436   3.2296087  27.9566821  31.0423588
   1.6297711  30.2367488  31.3994477   1.7117548  31.0434474  31.0755928
   2.1147453  30.2563447  32.1235251   1.7134869  30.3588151  31.4581376
   1.1372911  28.9964906  51.4812803   1.9507776  28.7250055  51.6417936
   0.9767877  28.6972446  50.6772999   1.2342860  28.9119832  51.3858209
   1.1494155  30.0571197  46.7535644   1.7873876  29.5631392  46.4198100
   0.5068247  29.9848597  46.1687870   1.1488382  29.9730205  46.6177999
   2.8751155  21.9060343  41.3201559   2.4478763  21.8186691  40.5649659
   2.2377208  22.0138118  41.9056403   2.7180762  21.9093002  41.2947001
   1.2048412  30.7491005  43.3941000   1.9940790  30.3980070  43.5143082
   1.3792010  31.5627393  43.1317634   1.3468693  30.8176862  43.3728868
   3.3115924  15.3132326  37.4360184   2.6990237  15.8002728  37.8213916
   3.4080099  14.6375817  37.9797835   3.2353821  15.2850635  37.5739042
   6.9540952  26.3849263  42.8637700   7.0124075  26.8335911  43.6097677
   6.3207419  26.7948075  42.4267780   6.8692247  26.5122997  42.9090249
   3.9062631  24.4065550  40.9503391   3.6660854  23.5671966  40.9545817
   4.3854638  24.4865717  41.6744164   3.9414815  24.2946950  41.0578193
   5.9067818  21.1867008  38.9032650   5.6677588  21.1462842  38.0653434
   6.0701719  22.0338160  39.0298371   5.8958122  21.3059093  38.7986132
   2.5113848  25.5716957  44.8337695   3.2348047  25.1189483  44.6548715
   2.2463811  25.8521623  44.0510023   2.5795122  25.5467925  44.6916410
   4.9449162  24.5343368  43.3368245   5.5367002  25.1740618  43.3686443
   5.3808157  23.8366404  43.6260311   5.0967593  24.5261718  43.3849077
   1.9698304  21.7488586  35.6371387   1.2989493  22.2918289  35.5084453
   2.6638054  22.2183442  35.3953082   1.9727171  21.8986858  35.5826915
   2.1326431  18.2044470  38.5461760   2.4854041  17.7774193  39.2207559
   1.2741233  18.1195314  38.6762837   2.0575876  18.1289211  38.6656771
   3.5650491  13.3262882  39.4746073   3.0581356  12.6192021  39.4067250
   4.3617925  12.9956071  39.6047149   3.6077730  13.1736033  39.4845068
   5.7670631  27.8427808  32.4586937   6.1504237  28.5919165  32.6885034
   4.9714744  28.0893628  32.1998926   5.7064413  27.9897502  32.4544511
   2.2071213  18.8229431  35.6222895   2.2065440  18.6678088  36.4807171
   2.0027393  19.6692418  35.5664281   2.1770991  18.9250052  35.7410834
   1.9963884  26.2530621  41.9636231   2.4218956  25.7305042  41.4106656
   1.6320804  26.8511458  41.4424854   2.0050487  26.2640848  41.8045240
   0.6719468  31.5766198  50.4729460   0.7816434  30.7874759  50.8286207
   1.0010365  31.4872134  49.6703798   0.7371874  31.4472051  50.4071851
   2.0310294  17.8268174  42.4416273   1.4473283  18.3277380  42.0293840
   2.3514588  17.3197730  41.8080596   1.9923470  17.8260009  42.2874780
  15.2588407  38.4198743  34.5517298  15.2282411  39.2743380  34.7235568
  15.8569755  38.1194036  35.1103442  15.3425564  38.5015240  34.6592101
   8.4588091  37.5074394  39.3070229   7.6025987  37.6682893  39.3579345
   8.5055745  36.6366458  39.3275290   8.3387203  37.4025196  39.3176295
   2.8429231  47.0437112  35.0707460   2.0912131  46.6652651  34.8423505
   3.2915243  47.0755546  34.3226271   2.7978898  46.9922719  34.9264962
  11.7681808  43.7760920  48.9130685  12.4748575  43.2812951  49.0417619
  11.9569743  44.2170002  48.1833343  11.9009714  43.7679270  48.8239730
   8.2954191  47.4662482  30.4993007   7.9605559  48.1439403  30.0637229
   8.8081061  47.0767793  29.9109879   8.3219772  47.5087060  30.3479799
   7.8358482  49.4176751  36.4404119   8.2197862  49.9863649  35.9008894
   7.7717623  48.6926261  35.9609935   7.8831909  49.3952214  36.2897981
  11.3039912  39.5666438  41.9501880  11.8495872  40.2451525  42.0095850
  11.2456789  39.4253899  41.0903462  11.3755827  39.6458440  41.8313941
   4.4213987  47.0555504  37.3370233   4.5224350  46.2455858  37.6467360
   3.8255733  46.9612451  36.7069911   4.3486526  46.9220533  37.2896471
  13.0804981  40.9951045  32.8235608  12.9644507  41.7458732  33.2527746
  13.8760868  40.7374999  33.0731695  13.1809570  41.0685892  32.9239700
   4.2614727  51.9733094  38.7385089   4.9052182  52.4146258  39.1281247
   4.5870982  51.1686520  38.6515348   4.4046556  51.9198288  38.7830566
   4.9635307  44.9845068  34.1104950   5.2851148  45.5250276  33.5066259
   5.6107403  44.4141840  34.2427240   5.1061362  44.9804244  34.0411986
   7.0137015  36.9861063  34.1939337   7.7117179  37.1649191  34.6860800
   7.3289347  36.4631403  33.5709727   7.1632352  36.9354836  34.1741347
   7.2024950  43.3731508  34.1819129   7.6418586  42.7648609  34.6273901
   7.0529613  42.9938882  33.4104594   7.2446416  43.2269980  34.1338296
   4.6696593  41.9675520  41.3837954   5.3145596  41.4747963  41.0648903
   4.9098370  42.1100307  42.2104032   4.8007178  41.9152963  41.4587487
   7.2082684  44.8130426  41.0344847   7.4905927  44.0181832  40.8131603
   7.9368845  45.2911014  41.0549908   7.3572248  44.7665023  41.0047862
   5.1863878  32.3553460  38.2760612   4.8567208  32.8064604  37.6064311
   4.5108880  32.2769623  38.8233618   5.0374315  32.4104595  38.2583835
  10.8034287  41.7258690  31.1349898  10.7185582  42.5819656  31.2799467
  11.2918670  41.4503014  31.8032057  10.8623184  41.8116011  31.2551979
  12.3940286  28.3438983  36.5210222  12.0793727  29.0342462  36.9530645
  11.8767228  28.2883765  35.8195723  12.2704756  28.4373872  36.4807172
  11.7352720  38.3443484  32.6347633  11.2064191  38.5603117  33.2944939
  12.2577740  39.0379622  32.5548602  11.7341173  38.4786621  32.7203232
  17.1900773  43.9189788  38.0080678  16.3598476  44.1300432  38.1714094
  17.1410025  43.0926843  37.7322961  17.0607508  43.8279395  37.9918043
   3.6252328  42.2406701  31.4355101   3.0409543  42.7456732  31.8420965
   3.2222423  42.0149088  30.6951693   3.4791631  42.2814949  31.3860126
   5.2510510  46.7493643  40.8428587   4.7337452  46.3901058  40.2389895
   5.9484902  46.2255817  40.8534653   5.2776091  46.6191330  40.7558846
   8.9074102  47.1988457  46.8044760   8.9957448  47.0114597  47.6522970
   9.3363815  46.5525886  46.4049607   8.9836205  47.0751464  46.8716512
   6.4744562  46.4819617  45.7862422   5.9115397  46.0692226  46.3102083
   7.2365586  46.4072522  46.2055566   6.5039011  46.4097017  45.9255423
   8.0829542  38.4872353  29.9124022   8.3225546  38.6950337  29.0999365
   8.4045383  37.6829861  30.0212966   8.1666700  38.3986454  29.8084575
   3.3919832  30.4165749  33.7583560   4.1465800  30.7844066  33.5200610
   3.2147367  30.7905303  34.5262739   3.4774311  30.5263936  33.8368448
   2.0340553  48.4717638  38.3899052   2.7361133  47.9569627  38.4471809
   1.9538037  48.7991789  39.1945928   2.1264314  48.4431864  38.5171845
  16.6854731  36.5660189  41.8031099  15.8483152  36.6362376  42.0378693
  16.6542962  36.5684684  40.9305401  16.5573013  36.5770416  41.7090647
   3.0819460  38.7093225  47.5179468   3.2539964  38.5999119  48.3664749
   3.6188818  39.3547630  47.2810660   3.1864464  38.7885226  47.6084564
   1.7476897  32.8236067  30.4561673   1.5652470  33.0407948  29.6302665
   2.6102510  32.9375080  30.5120287   1.8481486  32.8725965  30.3416160
   1.3591329  44.6623990  37.8984660   2.1980228  44.8946923  37.9458422
   1.3903098  43.7928301  37.8291696   1.4873046  44.5680936  37.8949305
   1.9844032  45.0824865  42.1997966   2.5242257  44.9395996  42.8701338
   1.3013978  45.4821616  42.5681992   1.9636186  45.1204536  42.3532388
   7.4276616  29.8262478  33.4910696   8.1562777  29.6478433  33.0448853
   7.5171509  30.6680558  33.7017875   7.5483278  29.9246357  33.4564214
  11.4084917  40.7615866  37.3942990  12.1642432  41.1947380  37.4331899
  11.5147241  40.1120635  37.9677626  11.5355087  40.7293349  37.4841016
  14.4465088  44.5889143  38.1445393  14.0100320  44.5925885  38.9004365
  14.1128003  45.2694642  37.7124971  14.3327708  44.6901599  38.1926226
   9.0194162  46.6297476  49.4688544   9.8034578  46.7428323  49.8344286
   8.8190756  45.8038613  49.6647229   9.1060187  46.5244195  49.5522930
  14.3662571  31.6302971  40.3874821  15.0088479  31.7001075  40.9736737
  14.6185592  30.9632194  39.8854363  14.4984703  31.5429319  40.4002100
   1.2938924  36.1010240  28.9684146   0.5797101  35.8148420  29.3806578
   1.7782893  36.4406866  29.6090533   1.2598287  36.1091890  29.1239781
   2.1379783  34.8403534  44.9999395   1.4451580  34.3700514  45.2460127
   2.7540111  34.6141839  45.5741102   2.1264313  34.7370666  45.1208548
   9.1764555  48.5407578  43.1154999   8.3779801  48.3007078  43.3728868
   9.6250566  48.5921971  43.8622047   9.1239166  48.5129969  43.2639923
   8.4686242  44.6040194  29.3445954   8.8837390  44.2725218  28.6530450
   7.6378171  44.3709096  29.2166090   8.4074251  44.5211450  29.2236801
  13.8674265  42.3235445  36.7777019  14.1029854  42.4680644  35.9503870
  14.0163828  43.0877853  37.1708533  13.9240068  42.4574499  36.7140623
   0.8620342  38.8068938  46.1426240   1.5860315  38.7921969  46.6291135
   0.9636479  39.5164293  45.6448209   0.9838551  38.9093641  46.1405027
  15.6964722  41.1637111  34.6146623  16.0272939  41.6964751  34.0086718
  16.2697810  41.2175999  35.2708574  15.8298401  41.2506680  34.6224405
   8.2365292  42.2868023  51.0075187   7.4438273  42.6011534  51.1927807
   8.3514219  42.5019491  50.1695972   8.1360702  42.3651859  50.9113522
  10.9096611  39.0102014  35.2970203  11.0043465  39.7491308  35.7509829
  10.2855454  38.5819489  35.7304768  10.8305641  39.0563334  35.4278351
   9.1649085  42.1888226  45.9460484   9.7387946  41.5515471  46.1009048
   9.0863888  42.1892309  45.0770142   9.2382319  42.0953338  45.8406895
  11.1619632  40.8550754  28.5307155  11.0799795  40.9252941  29.3962142
  11.7999352  41.4180497  28.3390896  11.2439469  40.9489725  28.6297105
   4.5212803  40.6211491  37.9981682   4.2632047  39.7883226  37.9712981
   4.5761286  40.8469104  37.1574182   4.4912581  40.5309263  37.8701818
   9.6013853  32.7239942  38.0985774   8.8970180  32.2349128  38.2569693
   9.6498828  32.7362417  37.2274219   9.5043905  32.6529590  37.9925114
   3.4947515  38.1749254  38.4846576   2.9197107  38.3341422  39.1210537
   3.1183192  37.5384663  38.0215027   3.3550328  38.1047067  38.5101135
   7.1620804  36.6472603  43.3438955   6.7735237  36.2226821  42.6891146
   6.4975502  36.8954753  43.8515981   7.0067732  36.6211324  43.3226823
  16.8044073  36.4047608  36.1186785  16.5480638  35.5927549  35.9284668
  17.6473387  36.4125175  35.8916972  16.8910098  36.2859605  36.0571602
  10.9847165  30.3447232  40.8562939  11.3657677  29.6625403  41.2430813
  10.1810450  30.0556834  40.6738603  10.9223627  30.2014280  40.8866995
   8.2659742  40.8771208  31.5415762   9.0800381  41.1686101  31.4298533
   8.2018883  40.2231070  30.9674055   8.3762481  40.8236403  31.4404599
  14.4869232  43.5597204  45.9545337  14.2507870  42.7285269  45.8357398
  15.1312461  43.5082811  46.5400182  14.5463903  43.4294892  46.0231231
   4.1367650  44.3492725  36.6688074   4.7741597  44.1104473  37.2139867
   4.5622722  44.5529884  35.9341234   4.2943817  44.3443735  36.6405231
   4.7770465  39.5695015  31.0062963   5.1615618  39.3502722  31.7579508
   4.5282086  40.3957960  31.1364040   4.7972538  39.6593161  31.1364040
   4.9439006  32.8501430  50.7225547   4.6292447  33.6200993  50.4595110
   4.6228938  32.2871686  50.1377774   4.8497925  32.8811699  50.5966897
  15.5105653  43.3441653  42.0173632  15.2051470  44.0769710  42.3786947
  14.7911869  42.9379582  41.7366418  15.3592995  43.3923386  42.0286769
   6.5189122  44.8265148  38.3481860   6.5928131  44.6640320  39.2023710
   7.3358629  45.0155337  38.1042342   6.6505481  44.8301890  38.4379886
   2.4970903  31.2391952  36.3371744   1.6293328  31.3114551  36.4029353
   2.7846107  32.0414031  36.5259719   2.4110651  31.3686099  36.3746510
  11.6203792  31.3869811  44.6683066  12.3657384  31.1979621  44.2546491
  11.2041096  31.9128049  44.1096922  11.6688766  31.4371956  44.5247639
   5.0593708  47.7899891  33.0795333   5.3492007  47.3988872  32.3554560
   5.7897189  47.9716596  33.5200609   5.2100592  47.7593705  33.0378140
   5.6488453  42.5917637  44.1648464   5.1500147  43.3033405  44.2433352
   6.4588678  42.9118303  44.1266626   5.6944560  42.7444485  44.1705032
   2.9999624  49.7667273  36.1455483   2.7799919  49.4764628  36.9382150
   2.7794146  49.1082228  35.6173396   2.9347218  49.6266982  36.1844392
   1.9116571  41.8540590  38.4111185   1.6229820  41.2278061  38.9456912
   2.7799919  41.7960877  38.4775865   1.9976823  41.7528134  38.5002139
  12.6994469  36.9975373  38.7293167  12.3559235  36.2765708  39.0800416
  12.7987511  36.7889224  37.8871525  12.6636512  36.8599577  38.6564847
   5.1667579  51.1396663  34.9286176   5.8191637  50.6073106  35.1577202
   4.4693188  50.7865316  35.3154050   5.1598297  51.0086186  35.0198343
   2.1148844  43.4935841  34.3353550   2.8694812  43.8748880  34.5489012
   1.5219457  43.9446985  34.7900246   2.1385558  43.6164668  34.4336428
  13.1607498  43.4601077  34.2717155  13.7265530  44.1194287  34.1875698
  12.5135401  43.8050775  34.7433557  13.1486254  43.6083019  34.3289911
   4.5755511  35.4498681  49.4610762   3.7655287  35.7556461  49.3500604
   5.0530198  36.1704264  49.5763346   4.5258990  35.6013282  49.4617833
   3.4347071  44.6644402  39.7093665   2.9127824  44.8044694  40.3945530
   3.8221091  43.9055067  39.8995783   3.4150772  44.5729926  39.8394742
   9.6314076  46.4039862  33.6954234   9.3900752  45.6707722  33.2881299
   9.8115409  46.9526719  33.0420567   9.6221700  46.3762253  33.5384457
   4.8613396  41.6948421  35.1075156   4.6656179  42.3023156  34.5135459
   5.0847742  41.0016365  34.6266830   4.8648038  41.6825947  34.9491237
   3.2591927  38.5803159  35.2256025   3.9814578  38.7444317  34.7659831
   2.7799919  39.3012824  35.1195364   3.2955657  38.7101389  35.1421639
  11.2185434  34.9166958  40.6052710  10.3796535  34.9428237  40.3690973
  11.2889801  35.5637693  41.1858056  11.1053828  35.0163084  40.6561826
   0.9099543  40.9861232  44.3310165   1.4220640  41.2645485  43.6818924
   0.6235886  41.7250526  44.6972978   0.9434406  41.1363585  44.2900043
   9.6654712  31.8152335  35.3380326  10.3681065  31.6160083  34.8600284
   9.3998901  31.0428277  35.6449169   9.7301345  31.6715301  35.3125767
  15.0942958  40.1234945  37.8913951  15.0076932  40.2790371  38.7448730
  14.6393438  40.7673020  37.5173356  15.0146215  40.2410700  37.9621058
   4.4283269  33.0787620  44.3911206   4.2366466  33.0942755  45.2410630
   5.2781865  33.2751295  44.3677861   4.5258991  33.1101971  44.5134501
   8.9668774  37.4445692  36.5139511   8.7203488  37.3641443  37.3476300
   9.2953897  36.6599160  36.3202038   8.9790018  37.3171957  36.6087034
  12.8616823  44.1529051  40.3026292  12.7231182  44.8510097  40.8075034
  12.0816821  43.9977708  39.9462474  12.7260050  44.2329218  40.3252566
  11.1994908  40.4525427  46.5548674  11.1942946  39.5805243  46.5591100
  11.9055902  40.6513596  46.0818130  11.3039912  40.3529301  46.4855709
   4.9265801  40.1802410  45.9262494   5.0709177  40.7603619  45.2905604
   5.2741450  40.5578707  46.6312349   4.9993263  40.3223115  45.9361489
   7.0985719  39.3792579  43.7087626   6.3509033  39.5723593  43.3035904
   7.2527244  38.5537798  43.4711747   7.0108146  39.2857690  43.6133031
   3.9993556  48.3705182  42.7923521   4.1483120  47.8108098  42.1396925
   4.7793558  48.4497184  43.1756040   4.1367650  48.2990748  42.7520470
  14.3570196  43.5107305  31.0642791  13.9777004  42.7244443  31.0572081
  13.6936441  44.0594162  30.9214436  14.2028670  43.4752129  31.0423588
   6.5246857  48.5419825  44.0708012   6.4490528  47.8728636  44.6258800
   6.4536716  49.2437613  44.5848678   6.5027464  48.5464733  44.2284860
   7.3387496  33.2743130  44.5983029   7.7960110  34.0067104  44.7255821
   7.4143824  32.8509595  45.3570285   7.4178465  33.3200368  44.7284106
  11.8114822  26.4533005  38.4676872  11.9298390  26.9109468  37.7344175
  11.6376997  25.6478266  38.1813090  11.8033993  26.4026777  38.3177806
   7.1817104  47.0620824  34.9031618   7.9466995  46.7930468  34.5814282
   7.0795194  46.5770834  35.6201680   7.2798599  46.9510389  34.9611445
   5.2169874  35.2645234  41.4424853   4.4265948  35.0836694  41.7642189
   5.6130496  34.4872186  41.4255148   5.1586750  35.1232694  41.4877402
   9.7035764  44.0933008  26.8831567  10.4708749  44.1533133  26.4737419
   9.2567073  43.5213449  26.3987885   9.7509192  44.0169584  26.7509277
  10.6013560  42.8987664  39.1684299   9.9258562  42.6672896  39.6697686
  10.6105936  42.2908847  38.5426404  10.5032064  42.7746589  39.1500451
   7.7307704  37.7405493  45.9248352   7.6666845  38.6015449  45.7968489
   7.8704892  37.4237486  45.1243904   7.7423174  37.8205659  45.7876565
  12.6030294  45.7552796  31.3994477  12.6850132  46.5619782  31.0755928
  13.0880037  45.7748755  32.1235251  12.6867452  45.8773458  31.4581376
   6.4126798  40.4337632  40.0664555   5.9889047  40.6342131  39.3303573
   6.2371653  39.5866480  40.1788855   6.3237678  40.3386413  39.9738245
   5.9138491  51.9488145  42.5286012   6.4034421  51.2498934  42.3461677
   5.3422723  51.6512015  43.1162070   5.9023021  51.8014369  42.5887053
   1.7009243  40.9289683  35.4992528   1.8573862  40.8636486  36.3548520
   2.0409836  41.7038236  35.2871207   1.7742478  41.0338882  35.5947122
   8.2388387  40.3047567  34.3685891   8.7803933  39.8017948  34.8324511
   8.5534946  40.2512762  33.5575376   8.3652784  40.2226988  34.3169703
  12.1105495  44.5150214  51.4812803  12.9240360  44.2435363  51.6417936
  11.9500461  44.2157754  50.6772999  12.2075443  44.4305140  51.3858209
   6.4074837  45.6964919  31.6525919   6.4767657  44.8379457  31.7918919
   7.1863292  45.9136799  31.3244943   6.5327687  45.6017782  31.6243076
   9.3877657  35.1983871  44.4208191   9.6019626  34.5594786  43.8671545
   8.7711556  35.6429695  43.9916053   9.3282986  35.1694015  44.2758622
  10.7982325  48.1202620  35.8662412  10.4062116  47.8169335  35.1485278
  10.9535397  48.9571710  35.6767366  10.7635914  48.1986457  35.7318909
  11.5516745  36.8072937  45.3591498  10.7393426  36.4998827  45.4404671
  12.0106679  36.3271937  45.9234211  11.4997129  36.6909429  45.4546093
  10.9621999  44.6852609  35.8068443  10.6036654  44.8567252  36.5832475
  10.4760710  45.1465814  35.2496441  10.8380696  44.7791580  35.8393712
   8.7792385  28.3083807  39.4095534   7.9085943  28.2822528  39.3628844
   9.0332727  28.1360999  38.5921380   8.6885945  28.2793951  39.2815671
   5.7510365  40.3651774  28.3468677   6.0402890  41.1416657  28.6212251
   5.8382164  39.8540505  29.0483176   5.8064621  40.4043692  28.4911175
   8.6470252  38.2133008  50.1420201   9.1169883  38.8375124  50.5288075
   8.6932132  37.5449984  50.7013415   8.7238128  38.2067688  50.2820272
   5.8041526  30.3190036  40.8669005   5.2880014  29.6270227  40.9920584
   5.2435455  30.9860813  40.8131603   5.6448039  30.3153293  40.8775071
   7.8733759  30.8582996  42.6961857   7.4865512  30.8832027  43.4775387
   7.3866697  30.2924674  42.2436374   7.7446268  30.7778746  42.7449761
  12.1226739  45.5756505  46.7535644  12.7606459  45.0816700  46.4198100
  11.4800830  45.5033905  46.1687870  12.1220965  45.4915513  46.6177999
  13.8483739  37.4245651  41.3201559  13.4211347  37.3371999  40.5649659
  13.2109792  37.5323426  41.9056403  13.6913346  37.4278310  41.2947001
   7.5390901  27.7449981  44.9872117   8.1684019  28.2810281  44.7093187
   7.7076764  27.6527340  45.8385683   7.6568696  27.8111343  45.0720645
   7.3404816  32.5321176  47.2598529   8.1678245  32.2606325  47.3157143
   7.3612662  33.3282018  47.6162347   7.4657666  32.6100930  47.3213711
  12.1780995  46.2676313  43.3941000  12.9673373  45.9165378  43.5143082
  12.3524593  47.0812701  43.1317634  12.3201277  46.3362170  43.3728868
   1.9174306  39.6785039  40.4468789   1.0762312  39.5788913  40.6547683
   2.1264314  40.4480519  40.7983110   1.8238998  39.7777082  40.5296104
  11.0314819  30.2785870  37.9557419  11.2364413  30.2108177  38.8014416
  10.7041243  31.0844691  37.8878596  11.0130067  30.3871810  38.0717074
   5.7290971  37.6066438  39.6966387   5.4254108  37.0522426  40.2976794
   5.0270391  37.7858648  39.2094421   5.5807180  37.5511220  39.7136092
   4.7857068  34.9166958  34.2611089   5.0616802  34.1985870  33.8488656
   5.3855737  35.5151878  34.0532195   4.9150332  34.8987328  34.1691850
   3.7909322  44.8216159  44.4038485   3.6829677  44.8318221  45.2700543
   4.0005103  45.6470939  44.2143438   3.8059433  44.9457233  44.5042576
  14.2848507  30.8317634  37.4360184  13.6722821  31.3188036  37.8213916
  14.3812682  30.1561125  37.9797835  14.2086405  30.8035943  37.5739042
   8.2867588  32.5880475  32.5357684   8.7411335  32.7591035  33.2605528
   8.7607634  31.9748586  32.1355459   8.4235908  32.5231360  32.5831445
   1.8083114  42.0728801  41.8660422   1.2171047  42.7138299  41.8363437
   2.5704137  42.4966418  41.8391722   1.8331374  42.2304639  41.8575569
   2.2043736  33.2330799  42.5328440   2.6645218  33.3069728  43.2703563
   2.2499843  34.0312053  42.1828261   2.2794292  33.3624946  42.5901196
   3.8527086  33.8997494  47.1000467   3.4612651  33.2530841  47.5356245
   4.0212949  34.4908929  47.7194722   3.8197996  33.8911761  47.2563173
  17.9273535  41.9034571  42.8637700  17.9856659  42.3521219  43.6097677
  17.2940003  42.3133383  42.4267780  17.8424830  42.0308305  42.9090249
  11.5672630  47.5238113  39.2992447  11.3692319  48.0128927  38.6048658
  10.9460341  47.7279354  39.8776580  11.4460194  47.6254651  39.2815670
   5.6280608  39.2923009  33.6402691   6.3722653  39.6797286  33.8785641
   5.7741304  38.4480435  33.8043179   5.7591193  39.2253482  33.6996661
   7.5460184  31.0873268  38.6734552   6.6996229  31.2596076  38.5475902
   7.5431316  30.2822612  39.0100381   7.4207334  30.9934297  38.7045679
   8.6158484  34.8648483  39.5396610   8.1418438  34.3390245  40.0501921
   8.9876620  34.3177955  38.9711472   8.6008373  34.7064479  39.5311757
  14.8795215  39.9250858  40.9503391  14.6393438  39.0857273  40.9545817
  15.3587222  40.0051025  41.6744164  14.9147398  39.8132258  41.0578193
  10.5441984  35.7585037  32.6022364  10.0165002  35.8413781  31.9128073
  11.0037692  36.5002909  32.5987009  10.5343834  35.8805700  32.4997059
  16.8800402  36.7052316  38.9032650  16.6410172  36.6648150  38.0653434
  17.0434303  37.5523468  39.0298371  16.8690705  36.8244401  38.7986132
  13.4846432  41.0902265  44.8337695  14.2080631  40.6374791  44.6548715
  13.2196394  41.3706930  44.0510023  13.5527705  41.0653233  44.6916410
   2.3533300  35.6862438  41.5690574   1.7286370  35.6980830  40.9616527
   2.0178895  36.1622613  42.2181814   2.2118792  35.7580955  41.5747143
   2.5375049  34.0287557  27.6263259   2.1887853  34.6807282  28.0894809
   2.0571495  34.0144670  26.8987130   2.4145293  34.1230610  27.5874350
  10.0979066  44.3288601  31.7332021  10.8213265  44.7946714  31.5896594
   9.6579657  44.3962210  30.9829618  10.1394758  44.4072437  31.6016802
   9.2665221  41.1886143  42.9832710   8.6522214  40.6444193  43.2781345
   9.7832506  40.6750380  42.5038526   9.2520884  41.0322552  42.9556938
   8.5061518  42.2590413  40.7177009   8.0789127  41.6340132  40.2842444
   8.4986463  41.9765335  41.5436016   8.4420660  42.1243194  40.7756836
   1.6224046  37.2955586  43.7865443   1.7817532  36.5398910  44.1917165
   1.4416939  37.8446526  44.4406180   1.6189405  37.2649400  43.9428149
   9.5644349  29.4616822  44.3416232   9.0684910  29.6580496  43.6507799
  10.3213411  29.8609490  44.1705034   9.6031173  29.5494556  44.2136369
   6.8347228  33.1359168  40.9319543   6.8589715  32.6019280  40.2432323
   7.0858702  32.6276476  41.5945133   6.8757147  32.9820072  40.9284187
   3.1148550  31.8629986  40.3125287   3.1546922  32.3639192  41.0259994
   2.2898215  31.9540380  40.0431210   2.9988076  31.9511802  40.3775825
   5.2978163  41.4290726  48.4145582   4.4473794  41.5662440  48.5503226
   5.4606291  40.6954504  48.8593283   5.1962027  41.3404827  48.5001181
   4.5362914  38.3790496  42.6099186   3.7054843  38.5464314  42.4034434
   4.4814431  38.0026446  43.3948071   4.4052329  38.3480227  42.6947714
   2.3446697  31.8699389  48.2455597   2.9699400  31.3261521  48.5185029
   1.8897177  31.3894306  47.6763387   2.3694958  31.7188870  48.2017190
   2.9098958  36.6546087  33.1389304   3.0501919  37.1518551  33.8417945
   3.4081490  35.9532382  33.2803517   3.0040039  36.6248066  33.2640883
   2.9399180  37.5213198  30.4681881   3.5744259  38.1173623  30.4031342
   3.0224791  37.2216656  31.2827751   3.0455731  37.5654106  30.5784967
  15.9181746  40.0528676  43.3368245  16.5099586  40.6925926  43.3686443
  16.3540740  39.3551712  43.6260311  16.0700177  40.0447026  43.3849077
   4.5178163  33.4527174  30.4427322   4.8394004  32.9730256  29.7886585
   4.7805107  34.2626820  30.2518134   4.6044188  33.5017072  30.3182815
   7.7475136  44.4746048  43.9626139   7.2400227  45.0281895  44.4066769
   7.4501782  44.5354338  43.1444913   7.6280021  44.5652359  43.9074595
   9.9137318  32.8399368  42.8050802  10.3392389  32.3871894  42.1934328
   9.2994311  32.2859438  43.0815589   9.8865963  32.6913344  42.7555827
  10.3582916  48.3909306  31.8930082   9.6412226  48.2170168  31.4277319
  11.0089654  48.1561878  31.3605568  10.3484766  48.3305098  31.7459300
   8.3531541  29.3114467  36.2141379   7.7099859  29.1612114  36.7826517
   8.0130948  29.0656813  35.4490483   8.2076618  29.2526590  36.1844394
  12.9430887  37.2673894  35.6371387  12.2722077  37.8103597  35.5084453
  13.6370637  37.7368750  35.3953082  12.9459755  37.4172165  35.5826915
   6.9917621  49.4070606  40.8683145   6.7683275  48.6489436  41.2367172
   6.5027464  49.4368627  40.1463585   6.8861070  49.2992831  40.8159886
  13.1059015  33.7229778  38.5461760  13.4586625  33.2959501  39.2207559
  12.2473816  33.6380621  38.6762837  13.0308459  33.6474519  38.6656771
  11.1042280  36.9865146  42.4946603  11.0840208  36.8048442  43.3481382
  11.1521481  37.8577165  42.4706186  11.1076921  37.0881685  42.6169897
   9.0488610  43.5752338  48.4195079   9.0084465  42.9302015  47.8340235
   9.8611929  43.5188956  48.7320491   9.1631764  43.4711305  48.3792028
   5.6396078  49.6271064  38.3220230   5.2256476  48.9645195  37.9324072
   6.3243452  49.7748923  37.8015924   5.6794450  49.5511723  38.1876727
   9.0061372  48.7861150  39.0743847   8.6077655  48.8963420  38.3064667
   8.3912592  48.9943216  39.6570406   8.8560261  48.8334718  39.0475146
   7.5789274  35.3935297  31.9417986   6.9854113  35.7152294  31.3902553
   7.6164552  34.5476393  31.7339093   7.4963663  35.3159626  31.8300758
  14.5383075  28.8448190  39.4746073  14.0313939  28.1377329  39.4067250
  15.3350508  28.5141379  39.6047149  14.5810314  28.6921341  39.4845068
  10.4547091  35.3514802  35.3719737  10.2260784  35.3747503  34.5298095
  10.7145167  34.5272269  35.4914747  10.4593279  35.2330882  35.2644934
   4.7366319  37.2049275  44.9744837   4.2245222  36.5970458  45.3329868
   4.5645815  37.9205868  45.4418813   4.6355956  37.2212574  45.0961061
   3.5091853  33.8891348  36.6673932   3.9849219  34.2508428  36.0324113
   3.0080453  34.5447816  36.9474075   3.5057212  34.0385537  36.6150673
  16.7403215  43.3613116  32.4586937  17.1236820  44.1104473  32.6885034
  15.9447328  43.6078936  32.1998926  16.6796997  43.5082810  32.4544511
   8.6135389  35.1273520  47.4147092   9.1706819  34.8987329  46.7825558
   8.2896454  35.8879185  47.1382305   8.6481799  35.2057356  47.2803589
   6.3318507  38.2141173  48.3799100   7.0829834  38.5292850  48.6938654
   6.5241083  38.0120344  47.5533021   6.4709921  38.2308555  48.3042495
   5.5518506  36.0332548  30.0347316   5.9317471  36.0512177  29.2498431
   4.8111102  36.4786537  29.9138164   5.4987344  36.1014323  29.9010884
  13.1803797  34.3414739  35.6222895  13.1798023  34.1863396  36.4807171
  12.9759977  35.1877726  35.5664281  13.1503575  34.4435360  35.7410834
  10.9044649  39.0212241  39.2759102  11.3998314  38.3035236  39.2363122
  10.0944425  38.7183039  39.1613589  10.8588542  38.8709887  39.2532828
   6.3503260  42.8710054  31.4256106   5.5414583  42.5476728  31.3789416
   6.8578169  42.1643276  31.3584355   6.3052927  42.7191371  31.4086401
  12.9696468  41.7715929  41.9636231  13.3951539  41.2490350  41.4106656
  12.6053387  42.3696766  41.4424854  12.9783070  41.7826156  41.8045240
   2.6050547  50.0680146  40.7233576   2.9197106  50.8816534  40.7311358
   3.0143961  49.6830365  41.3915735   2.7118645  50.1308848  40.8237668
   9.5575067  45.4850193  38.2937388  10.0286245  46.1990455  38.4627373
   9.8935246  44.8848943  38.8297258   9.6770182  45.5021657  38.3969764
  11.6452052  47.0951506  50.4729460  11.7549017  46.3060067  50.8286207
  11.9742948  47.0057442  49.6703798  11.7104457  46.9657359  50.4071851
   6.4744562  30.2577663  45.2495483   6.6072468  29.4608657  45.5776458
   6.8589715  30.7844066  45.8293758   6.5500891  30.2177580  45.3838986
  10.1949013  45.2768127  45.0565081   9.6469959  44.6526011  44.7885146
  10.6562042  45.4662399  44.3409160  10.1816223  45.2127177  44.9115512
   9.5476917  27.1807990  41.8476576   8.7422881  27.0705719  42.1644414
   9.4183653  27.2820445  40.9906442   9.4097050  27.1791660  41.7684617
  13.0042878  33.3453481  42.4416273  12.4205867  33.8462688  42.0293840
  13.3247172  32.8383038  41.8080596  12.9656053  33.3445316  42.2874780
   5.5437677  32.2594076  32.7174948   6.3653371  32.4292389  32.4756643
   5.0807328  32.4141337  31.9941245   5.5968839  32.3075809  32.5746592
   4.1333009  30.2536838  43.4973377   4.6777422  29.9127965  44.0877718
   4.1869945  31.1122300  43.6394661   4.2222128  30.3292098  43.6055250
   9.7607340  46.2819200  41.5874422  10.5805714  46.1382166  41.8490717
   9.4801417  46.9065399  42.1290860   9.8404083  46.3529552  41.7062361
  19.4320675  53.0259702  39.3070229  18.5758570  53.1868201  39.3579345
  19.4788329  52.1551766  39.3275290  19.3119786  52.9210504  39.3176295
  13.8161815  62.5622420  35.0707460  13.0644714  62.1837959  34.8423505
  14.2647826  62.5940854  34.3226271  13.7711481  62.5108027  34.9264962
  22.7414391  59.2946228  48.9130685  23.4481159  58.7998259  49.0417619
  22.9302327  59.7355310  48.1833343  22.8742297  59.2864578  48.8239730
  19.2686775  62.9847790  30.4993007  18.9338143  63.6624711  30.0637229
  19.7813645  62.5953101  29.9109879  19.2952356  63.0272368  30.3479799
  18.8091066  64.9362058  36.4404119  19.1930445  65.5048957  35.9008894
  18.7450207  64.2111569  35.9609935  18.8564493  64.9137522  36.2897981
  22.2772496  55.0851746  41.9501880  22.8228456  55.7636833  42.0095850
  22.2189372  54.9439207  41.0903462  22.3488410  55.1643748  41.8313941
  15.3946571  62.5740812  37.3370233  15.4956934  61.7641166  37.6467360
  14.7988316  62.4797759  36.7069911  15.3219109  62.4405841  37.2896471
  24.0537565  56.5136353  32.8235608  23.9377091  57.2644039  33.2527746
  24.8493451  56.2560307  33.0731695  24.1542154  56.5871200  32.9239700
  15.2347310  67.4918402  38.7385089  15.8784766  67.9331566  39.1281247
  15.5603566  66.6871828  38.6515348  15.3779139  67.4383596  38.7830566
   8.5911615  58.5961099  36.9622566   8.3561800  57.7628751  36.8554835
   8.7297256  58.8765765  36.1483767   8.5767278  58.5144602  36.8264921
  10.8901703  50.7646830  39.8606874  10.2706734  50.1739477  39.6916889
  10.7885566  51.3558265  39.2271197  10.7839378  50.7650912  39.7411864
  15.9367890  60.5030376  34.1104950  16.2583731  61.0435584  33.5066259
  16.5839987  59.9327148  34.2427240  16.0793945  60.4989552  34.0411986
  17.9869598  52.5046371  34.1939337  18.6849763  52.6834499  34.6860800
  18.3021931  51.9816711  33.5709727  18.1364935  52.4540143  34.1741347
  10.6170836  54.3099111  42.1050443  10.4929532  54.8961557  42.7400262
  11.2689120  53.8159307  42.4062718  10.6944485  54.3237916  42.2436372
  18.1757534  58.8916816  34.1819129  18.6151169  58.2833917  34.6273901
  18.0262196  58.5124190  33.4104594  18.2178999  58.7455288  34.1338296
  15.6429177  57.4860828  41.3837954  16.2878179  56.9933271  41.0648903
  15.8830954  57.6285615  42.2104032  15.7739762  57.4338270  41.4587487
  18.1815268  60.3315734  41.0344847  18.4638511  59.5367140  40.8131603
  18.9101428  60.8096322  41.0549908  18.3304832  60.2850331  41.0047862
  16.1596462  47.8738768  38.2760612  15.8299792  48.3249912  37.6064311
  15.4841464  47.7954931  38.8233618  16.0106898  47.9289903  38.2583835
  21.7766870  57.2443998  31.1349898  21.6918165  58.1004964  31.2799467
  22.2651253  56.9688322  31.8032057  21.8355767  57.3301319  31.2551979
  22.7085303  53.8628792  32.6347633  22.1796775  54.0788425  33.2944939
  23.2310323  54.5564930  32.5548602  22.7073756  53.9971929  32.7203232
  14.5984911  57.7592009  31.4355101  14.0142126  58.2642040  31.8420965
  14.1955006  57.5334396  30.6951693  14.4524215  57.8000257  31.3860126
  10.1528940  63.4746770  38.2378773   9.6696518  64.1997259  38.2138356
  10.9652258  63.7722900  38.3488930  10.2019688  63.6249123  38.2506052
  16.2243094  62.2678950  40.8428587  15.7070035  61.9086365  40.2389895
  16.9217485  61.7441125  40.8534653  16.2508675  62.1376638  40.7558846
  19.8806686  62.7173765  46.8044760  19.9690032  62.5299905  47.6522970
  20.3096398  62.0711194  46.4049607  19.9568788  62.5936772  46.8716512
  17.4477146  62.0004924  45.7862422  16.8847980  61.5877534  46.3102083
  18.2098169  61.9257830  46.2055566  17.4771594  61.9282325  45.9255423
  19.0562126  54.0057661  29.9124022  19.2958129  54.2135644  29.0999365
  19.3777967  53.2015169  30.0212966  19.1399283  53.9171762  29.8084575
  14.3652416  45.9351056  33.7583560  15.1198384  46.3029374  33.5200610
  14.1879950  46.3090611  34.5262739  14.4506894  46.0449244  33.8368448
  13.0073137  63.9902946  38.3899052  13.7093716  63.4754935  38.4471809
  12.9270620  64.3177097  39.1945928  13.0996897  63.9617172  38.5171845
  27.6587315  52.0845497  41.8031099  26.8215736  52.1547684  42.0378693
  27.6275546  52.0869992  40.9305401  27.5305597  52.0955724  41.7090647
  14.0552044  54.2278533  47.5179468  14.2272547  54.1184427  48.3664749
  14.5921401  54.8732938  47.2810660  14.1597048  54.3070534  47.6084564
  12.7209480  48.3421375  30.4561673  12.5385054  48.5593256  29.6302665
  13.5835094  48.4560388  30.5120287  12.8214070  48.3911273  30.3416160
  12.3323912  60.1809298  37.8984660  13.1712812  60.4132230  37.9458422
  12.3635682  59.3113609  37.8291696  12.4605630  60.0866244  37.8949305
  12.9576615  60.6010173  42.1997966  13.4974840  60.4581304  42.8701338
  12.2746562  61.0006924  42.5681992  12.9368769  60.6389844  42.3532388
  18.4009200  45.3447786  33.4910696  19.1295360  45.1663741  33.0448853
  18.4904093  46.1865866  33.7017875  18.5215862  45.4431665  33.4564214
  22.3817500  56.2801173  37.3942990  23.1375015  56.7132688  37.4331899
  22.4879825  55.6305943  37.9677626  22.5087671  56.2478657  37.4841016
  25.4197671  60.1074451  38.1445393  24.9832903  60.1111193  38.9004365
  25.0860587  60.7879950  37.7124971  25.3060291  60.2086907  38.1926226
  19.9926745  62.1482784  49.4688544  20.7767162  62.2613631  49.8344286
  19.7923340  61.3223921  49.6647229  20.0792770  62.0429503  49.5522930
   8.3613761  56.8210464  42.3532388   8.0952176  56.0049580  42.5123378
   8.3752325  56.8663619  41.4827903   8.3238483  56.7067368  42.2485869
  12.2671508  51.6195548  28.9684146  11.5529685  51.3333728  29.3806578
  12.7515476  51.9592174  29.6090533  12.2330871  51.6277198  29.1239781
  13.1112367  50.3588842  44.9999395  12.4184164  49.8885822  45.2460127
  13.7272694  50.1327146  45.5741102  13.0996897  50.2555974  45.1208548
  20.1497138  64.0592886  43.1154999  19.3512384  63.8192386  43.3728868
  20.5983150  64.1107279  43.8622047  20.0971750  64.0315277  43.2639923
  19.4418825  60.1225502  29.3445954  19.8569974  59.7910526  28.6530450
  18.6110755  59.8894404  29.2166090  19.3806834  60.0396758  29.2236801
   8.7707174  57.6069243  39.6344132   8.5882747  57.5816129  38.7816424
   9.5056843  58.0768181  39.6733041   8.8521238  57.6730605  39.5142050
  11.8352926  54.3254246  46.1426240  12.5592898  54.3107277  46.6291135
  11.9369062  55.0349601  45.6448209  11.9571135  54.4278949  46.1405027
  19.2097875  57.8053331  51.0075187  18.4170856  58.1196842  51.1927807
  19.3246802  58.0204799  50.1695972  19.1093286  57.8837167  50.9113522
  21.8829194  54.5287322  35.2970203  21.9776049  55.2676616  35.7509829
  21.2588038  54.1004797  35.7304768  21.8038224  54.5748642  35.4278351
  20.1381668  57.7073534  45.9460484  20.7120530  57.0700778  46.1009048
  20.0596472  57.7077617  45.0770142  20.2114903  57.6138646  45.8406895
   8.7378085  54.4862744  39.7843198   9.3151587  54.3499195  40.4235444
   8.0392146  54.0298528  40.0388783   8.7199106  54.3985010  39.9165488
  22.1352216  56.3736061  28.5307155  22.0532378  56.4438249  29.3962142
  22.7731936  56.9365805  28.3390896  22.2172053  56.4675033  28.6297105
  15.4945387  56.1396799  37.9981682  15.2364631  55.3068534  37.9712981
  15.5493870  56.3654412  37.1574182  15.4645165  56.0494571  37.8701818
  20.5746437  48.2425250  38.0985774  19.8702764  47.7534436  38.2569693
  20.6231411  48.2547725  37.2274219  20.4776488  48.1714898  37.9925114
  14.4680099  53.6934562  38.4846576  13.8929690  53.8526730  39.1210537
  14.0915775  53.0569971  38.0215027  14.3282911  53.6232375  38.5101135
  18.1353388  52.1657911  43.3438955  17.7467820  51.7412129  42.6891146
  17.4708086  52.4140061  43.8515981  17.9800315  52.1396632  43.3226823
   4.2136918  53.3374637  36.4991017   4.2997170  52.9606505  37.2804547
   4.8412715  52.9635082  36.0210975   4.3193469  53.2260119  36.5436494
  21.9579749  45.8632540  40.8562939  22.3390261  45.1810711  41.2430813
  21.1543033  45.5742142  40.6738603  21.8956211  45.7199588  40.8866995
  19.2392326  56.3956516  31.5415762  20.0532965  56.6871409  31.4298533
  19.1751467  55.7416378  30.9674055  19.3495065  56.3421710  31.4404599
  25.4601816  59.0782512  45.9545337  25.2240453  58.2470577  45.8357398
  26.1045045  59.0268119  46.5400182  25.5196487  58.9480200  46.0231231
  15.1100234  59.8678033  36.6688074  15.7474181  59.6289781  37.2139867
  15.5355306  60.0715192  35.9341234  15.2676400  59.8629043  36.6405231
   9.8012876  62.1066370  40.5522378   9.8417022  62.3781221  39.7242157
  10.3607400  62.6308278  40.9680165   9.8896222  62.2242125  40.4914266
  15.7503049  55.0880323  31.0062963  16.1348202  54.8688030  31.7579508
  15.5014669  55.9143268  31.1364040  15.7705122  55.1778469  31.1364040
  15.9171589  48.3686738  50.7225547  15.6025031  49.1386301  50.4595110
  15.5961522  47.8056994  50.1377774  15.8230509  48.3997007  50.5966897
  26.4838237  58.8626961  42.0173632  26.1784054  59.5955017  42.3786947
  25.7644452  58.4564890  41.7366418  26.3325579  58.9108694  42.0286769
  17.4921706  60.3450456  38.3481860  17.5660714  60.1825628  39.2023710
  18.3091212  60.5340645  38.1042342  17.6238065  60.3487198  38.4379886
  32.1840029  55.5019961  41.3441976  32.1164529  55.5215920  40.4744563
  32.1695691  56.3450289  41.5697647  32.1718785  55.6293696  41.2494453
  11.2527463  60.6908319  35.3776304  10.4265580  60.9370056  35.2510582
  11.3139454  60.6120400  36.2438362  11.1401630  60.7153268  35.4865248
  13.4703486  46.7577260  36.3371744  12.6025912  46.8299859  36.4029353
  13.7578691  47.5599339  36.5259719  13.3843235  46.8871407  36.3746510
  22.5936375  46.9055119  44.6683066  23.3389967  46.7164929  44.2546491
  22.1773680  47.4313357  44.1096922  22.6421349  46.9557264  44.5247639
  16.0326292  63.3085199  33.0795333  16.3224590  62.9174180  32.3554560
  16.7629773  63.4901904  33.5200609  16.1833176  63.2779013  33.0378140
  16.6221037  58.1102945  44.1648464  16.1232731  58.8218713  44.2433352
  17.4321261  58.4303611  44.1266626  16.6677144  58.2629793  44.1705032
  13.9732207  65.2852581  36.1455483  13.7532503  64.9949936  36.9382150
  13.7526729  64.6267536  35.6173396  13.9079801  65.1452290  36.1844392
  12.8849155  57.3725898  38.4111185  12.5962403  56.7463369  38.9456912
  13.7532503  57.3146185  38.4775865  12.9709406  57.2713442  38.5002139
  23.6727052  52.5160681  38.7293167  23.3291818  51.7951016  39.0800416
  23.7720095  52.3074532  37.8871525  23.6369095  52.3784884  38.6564847
  16.1400163  66.6581971  34.9286176  16.7924221  66.1258414  35.1577202
  15.4425772  66.3050624  35.3154050  16.1330881  66.5271494  35.0198343
  13.0881428  59.0121149  34.3353550  13.8427396  59.3934188  34.5489012
  12.4952041  59.4632293  34.7900246  13.1118141  59.1349976  34.4336428
  24.1340081  58.9786385  34.2717155  24.6998114  59.6379595  34.1875698
  23.4867985  59.3236083  34.7433557  24.1218838  59.1268327  34.3289911
  15.5488095  50.9683989  49.4610762  14.7387871  51.2741769  49.3500604
  16.0262782  51.6889572  49.5763346  15.4991574  51.1198590  49.4617833
  14.4079654  60.1829710  39.7093665  13.8860408  60.3230002  40.3945530
  14.7953675  59.4240374  39.8995783  14.3883355  60.0915234  39.8394742
  11.3970839  50.2335519  33.7788620  11.1095634  49.8636789  33.0420567
  12.0841307  50.7030374  33.5172325  11.4559736  50.2482488  33.6303696
  20.6046659  61.9225169  33.6954234  20.3633335  61.1893030  33.2881299
  20.7847992  62.4712026  33.0420567  20.5954283  61.8947561  33.5384457
  15.8345980  57.2133729  35.1075156  15.6388763  57.8208464  34.5135459
  16.0580326  56.5201673  34.6266830  15.8380621  57.2011255  34.9491237
  14.2324510  54.0988467  35.2256025  14.9547162  54.2629625  34.7659831
  13.7532503  54.8198132  35.1195364  14.2688241  54.2286697  35.1421639
  22.1918018  50.4352266  40.6052710  21.3529118  50.4613545  40.3690973
  22.2622385  51.0823001  41.1858056  22.0786411  50.5348392  40.6561826
  11.8832127  56.5046540  44.3310165  12.3953224  56.7830793  43.6818924
  11.5968469  57.2435834  44.6972978  11.9166990  56.6548893  44.2900043
  20.6387296  47.3337643  35.3380326  21.3413649  47.1345391  34.8600284
  20.3731485  46.5613585  35.6449169  20.7033928  47.1900609  35.3125767
   8.9699033  51.0116731  34.6273901   9.0715170  51.8142893  34.9554876
   9.7654920  50.8104067  34.3296982   9.1026939  51.1002630  34.6309256
  15.4015852  48.5972928  44.3911206  15.2099049  48.6128063  45.2410630
  16.2514448  48.7936602  44.3677861  15.4991574  48.6287279  44.5134501
   9.7862765  51.1263910  42.3695023   9.6448257  50.2747850  42.4939531
  10.0703329  51.1692570  41.5457229   9.8070611  51.0063660  42.2662647
  19.9401358  52.9631000  36.5139511  19.6936072  52.8826751  37.3476300
  20.2686481  52.1784468  36.3202038  19.9522601  52.8357265  36.6087034
  23.8349406  59.6714359  40.3026292  23.6963766  60.3695405  40.8075034
  23.0549404  59.5163016  39.9462474  23.6992633  59.7514526  40.3252566
  22.1727492  55.9710735  46.5548674  22.1675530  55.0990551  46.5591100
  22.8788485  56.1698904  46.0818130  22.2772496  55.8714609  46.4855709
  15.8998385  55.6987718  45.9262494  16.0441761  56.2788927  45.2905604
  16.2474033  56.0764015  46.6312349  15.9725846  55.8408422  45.9361489
  18.0718302  54.8977887  43.7087626  17.3241616  55.0908901  43.3035904
  18.2259827  54.0723106  43.4711747  17.9840730  54.8042998  43.6133031
  14.9726140  63.8890490  42.7923521  15.1215704  63.3293406  42.1396925
  15.7526142  63.9682492  43.1756040  15.1100233  63.8176056  42.7520470
  25.3302779  59.0292613  31.0642791  24.9509588  58.2429751  31.0572081
  24.6669025  59.5779470  30.9214436  25.1761254  58.9937437  31.0423588
  17.4979440  64.0605133  44.0708012  17.4223112  63.3913944  44.6258800
  17.4269300  64.7622921  44.5848678  17.4760047  64.0650040  44.2284860
  18.3120079  48.7928437  44.5983029  18.7692693  49.5252412  44.7255821
  18.3876408  48.3694903  45.3570285  18.3911049  48.8385676  44.7284106
  10.5553070  49.0394257  45.6872473  10.0195260  48.4274615  46.0033240
  10.6170835  49.6142393  46.3406140  10.4848703  49.0341185  45.8307900
  18.1549687  62.5806132  34.9031618  18.9199579  62.3115776  34.5814282
  18.0527777  62.0956142  35.6201680  18.2531183  62.4695697  34.9611445
  16.1902457  50.7830541  41.4424853  15.3998532  50.6022002  41.7642189
  16.5863080  50.0057494  41.4255148  16.1319333  50.6418002  41.4877402
  20.6768348  59.6118316  26.8831567  21.4441333  59.6718441  26.4737419
  20.2299657  59.0398757  26.3987885  20.7241775  59.5354891  26.7509277
  21.5746143  58.4172972  39.1684299  20.8991145  58.1858204  39.6697686
  21.5838520  57.8094155  38.5426404  21.4764648  58.2931897  39.1500451
  18.7040287  53.2590801  45.9248352  18.6399429  54.1200757  45.7968489
  18.8437475  52.9422794  45.1243904  18.7155757  53.3390967  45.7876565
  23.5762878  61.2738104  31.3994477  23.6582715  62.0805090  31.0755928
  24.0612620  61.2934063  32.1235251  23.6600036  61.3958766  31.4581376
  17.3859381  55.9522940  40.0664555  16.9621630  56.1527439  39.3303573
  17.2104237  55.1051788  40.1788855  17.2970262  55.8571721  39.9738245
  16.8871075  67.4673453  42.5286012  17.3767005  66.7684242  42.3461677
  16.3155307  67.1697323  43.1162070  16.8755605  67.3199677  42.5887053
  12.6741826  56.4474991  35.4992528  12.8306445  56.3821794  36.3548520
  13.0142419  57.2223544  35.2871207  12.7475061  56.5524189  35.5947122
  19.2120971  55.8232875  34.3685891  19.7536516  55.3203256  34.8324511
  19.5267530  55.7698070  33.5575376  19.3385368  55.7412296  34.3169703
  23.0838078  60.0335522  51.4812803  23.8972944  59.7620671  51.6417936
  22.9233045  59.7343062  50.6772999  23.1808027  59.9490448  51.3858209
  17.3807421  61.2150226  31.6525919  17.4500241  60.3564765  31.7918919
  18.1595876  61.4322107  31.3244943  17.5060271  61.1203090  31.6243076
  20.3610240  50.7169179  44.4208191  20.5752210  50.0780094  43.8671545
  19.7444139  51.1615003  43.9916053  20.3015570  50.6879323  44.2758622
  21.7714908  63.6387928  35.8662412  21.3794700  63.3354643  35.1485278
  21.9267980  64.4757018  35.6767366  21.7368498  63.7171764  35.7318909
   9.2476088  53.6309942  35.8153295   9.6275053  54.0494487  35.1513562
   8.6731453  54.2123397  36.1222138   9.2187413  53.7787801  35.7630036
  22.5249328  52.3258245  45.3591498  21.7126010  52.0184135  45.4404671
  22.9839263  51.8457245  45.9234211  22.4729713  52.2094737  45.4546093
  21.9354583  60.2037917  35.8068443  21.5769238  60.3752559  36.5832475
  21.4493294  60.6651122  35.2496441  21.8113280  60.2976888  35.8393712
  19.7524969  43.8269115  39.4095534  18.8818527  43.8007836  39.3628844
  20.0065310  43.6546307  38.5921380  19.6618529  43.7979259  39.2815671
  16.7242948  55.8837082  28.3468677  17.0135473  56.6601964  28.6212251
  16.8114747  55.3725813  29.0483176  16.7797205  55.9229000  28.4911175
  19.6202836  53.7318316  50.1420201  20.0902467  54.3560432  50.5288075
  19.6664716  53.0635292  50.7013415  19.6970712  53.7252996  50.2820272
  16.7774109  45.8375343  40.8669005  16.2612598  45.1455535  40.9920584
  16.2168038  46.5046121  40.8131603  16.6180623  45.8338601  40.8775071
  18.8466343  46.3768304  42.6961857  18.4598096  46.4017335  43.4775387
  18.3599280  45.8109982  42.2436374  18.7178852  46.2964054  42.7449761
  23.0959322  61.0941813  46.7535644  23.7339043  60.6002008  46.4198100
  22.4533414  61.0219213  46.1687870  23.0953549  61.0100821  46.6177999
  24.8216322  52.9430958  41.3201559  24.3943930  52.8557307  40.5649659
  24.1842375  53.0508734  41.9056403  24.6645930  52.9463618  41.2947001
  18.5123485  43.2635289  44.9872117  19.1416603  43.7995589  44.7093187
  18.6809347  43.1712648  45.8385683  18.6301279  43.3296651  45.0720645
  18.3137399  48.0506484  47.2598529  19.1410829  47.7791633  47.3157143
  18.3345246  48.8467325  47.6162347  18.4390250  48.1286238  47.3213711
  23.1513579  61.7861621  43.3941000  23.9405957  61.4350686  43.5143082
  23.3257177  62.5998009  43.1317634  23.2933861  61.8547478  43.3728868
  12.8906889  55.1970347  40.4468789  12.0494896  55.0974221  40.6547683
  13.0996897  55.9665827  40.7983110  12.7971582  55.2962390  40.5296104
  10.3682456  52.8189883  38.2753540   9.9739154  52.8932895  37.5003650
   9.8122573  53.2047830  38.8261902  10.2285269  52.8871658  38.2421200
  16.7023554  53.1251746  39.6966387  16.3986692  52.5707734  40.2976794
  16.0002975  53.3043956  39.2094421  16.5539764  53.0696528  39.7136092
  15.7589651  50.4352266  34.2611089  16.0349386  49.7171178  33.8488656
  16.3588321  51.0337185  34.0532195  15.8882916  50.4172636  34.1691850
  14.7641905  60.3401466  44.4038485  14.6562260  60.3503529  45.2700543
  14.9737687  61.1656247  44.2143438  14.7792016  60.4642541  44.5042576
  19.2600172  48.1065783  32.5357684  19.7143918  48.2776343  33.2605528
  19.7340218  47.4933894  32.1355459  19.3968492  48.0416668  32.5831445
  12.7815697  57.5914109  41.8660422  12.1903630  58.2323607  41.8363437
  13.5436721  58.0151726  41.8391722  12.8063958  57.7489947  41.8575569
  13.1776320  48.7516107  42.5328440  13.6377802  48.8255036  43.2703563
  13.2232427  49.5497361  42.1828261  13.2526875  48.8810254  42.5901196
  14.8259670  49.4182801  47.1000467  14.4345235  48.7716149  47.5356245
  14.9945532  50.0094237  47.7194722  14.7930580  49.4097069  47.2563173
  28.9006119  57.4219879  42.8637700  28.9589242  57.8706527  43.6097677
  28.2672586  57.8318691  42.4267780  28.8157414  57.5493613  42.9090249
  22.5405213  63.0423420  39.2992447  22.3424902  63.5314235  38.6048658
  21.9192924  63.2464662  39.8776580  22.4192778  63.1439959  39.2815670
  16.6013192  54.8108317  33.6402691  17.3455237  55.1982594  33.8785641
  16.7473888  53.9665743  33.8043179  16.7323777  54.7438790  33.6996661
  18.5192767  46.6058576  38.6734552  17.6728812  46.7781384  38.5475902
  18.5163900  45.8007920  39.0100381  18.3939917  46.5119605  38.7045679
  19.5891068  50.3833791  39.5396610  19.1151022  49.8575553  40.0501921
  19.9609203  49.8363263  38.9711472  19.5740957  50.2249787  39.5311757
   9.9664098  52.3805297  44.9080156  10.8289711  52.2801006  44.8217486
   9.6355881  51.8000007  44.3465728  10.0449294  52.2796924  44.8125562
  25.8527798  55.4436166  40.9503391  25.6126021  54.6042581  40.9545817
  26.3319805  55.5236333  41.6744164  25.8879982  55.3317566  41.0578193
  21.5174567  51.2770345  32.6022364  20.9897586  51.3599089  31.9128073
  21.9770275  52.0188217  32.5987009  21.5076418  51.3991008  32.4997059
  27.8532985  52.2237623  38.9032650  27.6142755  52.1833458  38.0653434
  28.0166886  53.0708775  39.0298371  27.8423289  52.3429708  38.7986132
  24.4579015  56.6087573  44.8337695  25.1813214  56.1560099  44.6548715
  24.1928978  56.8892238  44.0510023  24.5260289  56.5838541  44.6916410
  13.3265884  51.2047746  41.5690574  12.7018954  51.2166138  40.9616527
  12.9911479  51.6807921  42.2181814  13.1851376  51.2766263  41.5747143
  13.5107632  49.5472865  27.6263259  13.1620437  50.1992590  28.0894809
  13.0304078  49.5329978  26.8987130  13.3877876  49.6415918  27.5874350
  10.0391559  59.2648206  43.0094338   9.5091484  58.5740645  43.0589313
  10.3116653  59.2558392  42.1807047  10.0016282  59.1615338  42.8941754
  21.0711650  59.8473909  31.7332021  21.7945849  60.3132022  31.5896594
  20.6312241  59.9147518  30.9829618  21.1127342  59.9257745  31.6016802
  20.2397805  56.7071451  42.9832710  19.6254798  56.1629501  43.2781345
  20.7565090  56.1935687  42.5038526  20.2253467  56.5507860  42.9556938
  19.4794102  57.7775721  40.7177009  19.0521710  57.1525440  40.2842444
  19.4719046  57.4950643  41.5436016  19.4153243  57.6428502  40.7756836
  12.5956629  52.8140894  43.7865443  12.7550116  52.0584218  44.1917165
  12.4149523  53.3631834  44.4406180  12.5921988  52.7834708  43.9428149
  20.5376932  44.9802130  44.3416232  20.0417493  45.1765804  43.6507799
  21.2945994  45.3794798  44.1705034  20.5763757  45.0679863  44.2136369
  17.8079812  48.6544476  40.9319543  17.8322299  48.1204588  40.2432323
  18.0591285  48.1461784  41.5945133  17.8489730  48.5005379  40.9284187
   5.3187402  55.9375971  40.3662687   5.2130851  55.8922815  39.5014771
   4.5687622  56.2829751  40.6476972   5.1923004  55.9816879  40.2800016
  14.0881134  47.3815294  40.3125287  14.1279506  47.8824500  41.0259994
  13.2630799  47.4725687  40.0431210  13.9720660  47.4697110  40.3775825
  16.2710747  56.9476034  48.4145582  15.4206377  57.0847748  48.5503226
  16.4338875  56.2139812  48.8593283  16.1694610  56.8590135  48.5001181
  15.5095497  53.8975804  42.6099186  14.6787427  54.0649622  42.4034434
  15.4547015  53.5211754  43.3948071  15.3784912  53.8665535  42.6947714
  13.3179281  47.3884697  48.2455597  13.9431984  46.8446829  48.5185029
  12.8629761  46.9079614  47.6763387  13.3427541  47.2374178  48.2017190
  13.8831541  52.1731395  33.1389304  14.0234502  52.6703859  33.8417945
  14.3814074  51.4717690  33.2803517  13.9772622  52.1433374  33.2640883
  13.9131764  53.0398506  30.4681881  14.5476843  53.6358931  30.4031342
  13.9957374  52.7401964  31.2827751  14.0188315  53.0839414  30.5784967
  26.8914329  55.5713984  43.3368245  27.4832170  56.2111234  43.3686443
  27.3273324  54.8737020  43.6260311  27.0432761  55.5632334  43.3849077
  15.4910746  48.9712482  30.4427322  15.8126587  48.4915564  29.7886585
  15.7537690  49.7812128  30.2518134  15.5776772  49.0202380  30.3182815
  18.7207719  59.9931356  43.9626139  18.2132810  60.5467203  44.4066769
  18.4234365  60.0539646  43.1444913  18.6012604  60.0837667  43.9074595
  20.8869901  48.3584676  42.8050802  21.3124973  47.9057202  42.1934328
  20.2726895  47.8044746  43.0815589  20.8598547  48.2098652  42.7555827
  10.4184751  55.2366347  33.7371427  10.9276981  55.8330854  34.1182732
  10.8919024  54.9692321  33.0547846  10.5628127  55.2852162  33.6925949
  21.3315500  63.9094614  31.8930082  20.6144809  63.7355476  31.4277319
  21.9822237  63.6747186  31.3605568  21.3217350  63.8490406  31.7459300
  19.3264124  44.8299775  36.2141379  18.6832442  44.6797422  36.7826517
  18.9863531  44.5842121  35.4490483  19.1809202  44.7711898  36.1844394
  23.9163471  52.7859202  35.6371387  23.2454661  53.3288904  35.5084453
  24.6103221  53.2554058  35.3953082  23.9192338  52.9357473  35.5826915
  17.9650204  64.9255914  40.8683145  17.7415859  64.1674743  41.2367172
  17.4760048  64.9553935  40.1463585  17.8593653  64.8178139  40.8159886
  24.0791598  49.2415086  38.5461760  24.4319208  48.8144809  39.2207559
  23.2206400  49.1565929  38.6762837  24.0041043  49.1659826  38.6656771
  12.7775283  51.8722606  36.6044607  12.0587272  52.2886738  36.8717470
  13.1487645  52.4376844  36.0536245  12.7267215  52.0171887  36.5627414
  22.0774864  52.5050454  42.4946603  22.0572791  52.3233750  43.3481382
  22.1254065  53.3762473  42.4706186  22.0809505  52.6066993  42.6169897
  20.0221194  59.0937646  48.4195079  19.9817049  58.4487323  47.8340235
  20.8344512  59.0374264  48.7320491  20.1364347  58.9896613  48.3792028
  16.6128661  65.1456372  38.3220230  16.1989060  64.4830503  37.9324072
  17.2976036  65.2934231  37.8015924  16.6527033  65.0697030  38.1876727
  19.9793956  64.3046458  39.0743847  19.5810239  64.4148728  38.3064667
  19.3645175  64.5128524  39.6570406  19.8292845  64.3520026  39.0475146
  18.5521858  50.9120605  31.9417986  17.9586697  51.2337602  31.3902553
  18.5897135  50.0661701  31.7339093  18.4696247  50.8344934  31.8300758
  21.4279674  50.8700110  35.3719737  21.1993367  50.8932811  34.5298095
  21.6877750  50.0457577  35.4914747  21.4325862  50.7516190  35.2644934
  15.7098903  52.7234583  44.9744837  15.1977806  52.1155766  45.3329868
  15.5378399  53.4391175  45.4418813  15.6088540  52.7397882  45.0961061
  10.5564617  51.1672158  47.6247199  10.3867208  51.8273533  47.0795405
  10.1130567  51.3778719  48.3459688  10.4663951  51.2958140  47.6508828
  14.4824437  49.4076656  36.6673932  14.9581803  49.7693736  36.0324113
  13.9813036  50.0633124  36.9474075  14.4789796  49.5570845  36.6150673
  19.5867973  50.6458828  47.4147092  20.1439403  50.4172637  46.7825558
  19.2629038  51.4064493  47.1382305  19.6214383  50.7242664  47.2803589
   7.4566682  54.0719024  42.8835688   6.9093401  53.4019669  43.0016557
   8.2459060  53.7048872  42.9479156   7.4918865  53.9184010  42.9104389
  17.3051090  53.7326481  48.3799100  18.0562417  54.0478158  48.6938654
  17.4973667  53.5305652  47.5533021  17.4442504  53.7493863  48.3042495
  16.5251090  51.5517856  30.0347316  16.9050055  51.5697485  29.2498431
  15.7843686  51.9971845  29.9138164  16.4719928  51.6199631  29.9010884
   6.2153651  53.2839832  40.0381712   6.0375412  52.8316441  40.7636627
   5.9272673  54.0865993  40.2220189   6.1466604  53.3362389  40.1725214
  21.8777232  54.5397549  39.2759102  22.3730898  53.8220544  39.2363122
  21.0677008  54.2368347  39.1613589  21.8321126  54.3895195  39.2532828
  17.3235844  58.3895362  31.4256106  16.5147167  58.0662036  31.3789416
  17.8310753  57.6828584  31.3584355  17.2785511  58.2376679  31.4086401
   7.9526121  55.8167555  37.1503471   7.0871641  55.8053246  37.0386242
   8.0524937  55.6297778  37.9974610   7.8400288  55.7873617  37.2592415
  23.9429051  57.2901236  41.9636231  24.3684123  56.7675658  41.4106656
  23.5785971  57.8882074  41.4424854  23.9515654  57.3011464  41.8045240
  13.5783131  65.5865454  40.7233576  13.8929690  66.4001842  40.7311358
  13.9876544  65.2015673  41.3915735  13.6851229  65.6494156  40.8237668
  20.5307651  61.0035501  38.2937388  21.0018829  61.7175763  38.4627373
  20.8667829  60.4034251  38.8297258  20.6502766  61.0206965  38.3969764
  22.6184635  62.6136814  50.4729460  22.7281601  61.8245375  50.8286207
  22.9475532  62.5242750  49.6703798  22.6837041  62.4842667  50.4071851
  17.4477146  45.7762971  45.2495483  17.5805051  44.9793965  45.5776458
  17.8322298  46.3029374  45.8293758  17.5233474  45.7362888  45.3838986
  21.1681597  60.7953435  45.0565081  20.6202543  60.1711319  44.7885146
  21.6294626  60.9847707  44.3409160  21.1548806  60.7312485  44.9115512
  20.5209501  42.6993297  41.8476576  19.7155464  42.5891027  42.1644414
  20.3916236  42.8005753  40.9906442  20.3829634  42.6976968  41.7684617
  23.9775461  48.8638789  42.4416273  23.3938450  49.3647996  42.0293840
  24.2979755  48.3568346  41.8080596  23.9388637  48.8630624  42.2874780
  16.5170260  47.7779384  32.7174948  17.3385955  47.9477697  32.4756643
  16.0539911  47.9326645  31.9941245  16.5701423  47.8261117  32.5746592
  15.1065592  45.7722146  43.4973377  15.6510005  45.4313273  44.0877718
  15.1602528  46.6307608  43.6394661  15.1954712  45.8477406  43.6055250
  10.9196151  59.5338562  40.3712184  11.5241009  59.4934397  39.7426005
  10.7123464  60.3809714  40.4016240  10.9785048  59.6526565  40.2828301
  20.7339923  61.8004508  41.5874422  21.5538297  61.6567474  41.8490717
  20.4534001  62.4250706  42.1290860  20.8136667  61.8714860  41.7062361
   6.1547433  58.5173180  40.2411108   6.0571711  57.7069451  40.5501164
   6.9376303  58.4964973  39.8557376   6.2563570  58.3940270  40.2297971
  37.2053574  69.4569359  34.5517298  37.1747578  70.3113996  34.7235568
  37.8034922  69.1564652  35.1103442  37.2890732  69.5385856  34.6592101
  30.4053259  68.5445010  39.3070229  29.5491154  68.7053509  39.3579345
  30.4520912  67.6737074  39.3275290  30.2852370  68.4395812  39.3176295
  33.7146975  74.8131536  48.9130685  34.4213742  74.3183567  49.0417619
  33.9034910  75.2540617  48.1833343  33.8474881  74.8049886  48.8239730
  33.2505080  70.6037054  41.9501880  33.7961040  71.2822141  42.0095850
  33.1921956  70.4624515  41.0903462  33.3220994  70.6829056  41.8313941
  35.0270148  72.0321661  32.8235608  34.9109674  72.7829347  33.2527746
  35.8226035  71.7745615  33.0731695  35.1274738  72.1056508  32.9239700
  21.8634286  66.2832138  39.8606874  21.2439318  65.6924785  39.6916889
  21.7618150  66.8743573  39.2271197  21.7571962  66.2836220  39.7411864
  26.9100474  76.0215684  34.1104950  27.2316315  76.5620892  33.5066259
  27.5572570  75.4512456  34.2427240  27.0526529  76.0174860  34.0411986
  28.9602182  68.0231679  34.1939337  29.6582346  68.2019807  34.6860800
  29.2754514  67.5002019  33.5709727  29.1097519  67.9725451  34.1741347
  21.5903419  69.8284419  42.1050443  21.4662116  70.4146865  42.7400262
  22.2421704  69.3344615  42.4062718  21.6677069  69.8423224  42.2436372
  29.1490117  74.4102124  34.1819129  29.5883753  73.8019225  34.6273901
  28.9994780  74.0309498  33.4104594  29.1911583  74.2640595  34.1338296
  26.6161760  73.0046136  41.3837954  27.2610763  72.5118579  41.0648903
  26.8563537  73.1470923  42.2104032  26.7472345  72.9523578  41.4587487
  29.1547852  75.8501042  41.0344847  29.4371094  75.0552448  40.8131603
  29.8834012  76.3281629  41.0549908  29.3037415  75.8035639  41.0047862
  27.1329045  63.3924076  38.2760612  26.8032375  63.8435220  37.6064311
  26.4574047  63.3140239  38.8233618  26.9839482  63.4475211  38.2583835
  32.7499454  72.7629306  31.1349898  32.6650749  73.6190272  31.2799467
  33.2383837  72.4873630  31.8032057  32.8088351  72.8486627  31.2551979
  33.6817887  69.3814100  32.6347633  33.1529358  69.5973733  33.2944939
  34.2042907  70.0750238  32.5548602  33.6806340  69.5157237  32.7203232
  39.1365940  74.9560404  38.0080678  38.3063643  75.1671048  38.1714094
  39.0875192  74.1297459  37.7322961  39.0072675  74.8650011  37.9918043
  25.5717495  73.2777317  31.4355101  24.9874710  73.7827348  31.8420965
  25.1687590  73.0519703  30.6951693  25.4256799  73.3185565  31.3860126
  30.8539269  78.2359072  46.8044760  30.9422615  78.0485213  47.6522970
  31.2828982  77.5896502  46.4049607  30.9301372  78.1122080  46.8716512
  30.0294709  69.5242969  29.9124022  30.2690713  69.7320952  29.0999365
  30.3510550  68.7200477  30.0212966  30.1131867  69.4357070  29.8084575
  25.3384999  61.4536364  33.7583560  26.0930967  61.8214681  33.5200610
  25.1612534  61.8275919  34.5262739  25.4239478  61.5634552  33.8368448
  38.6319898  67.6030805  41.8031099  37.7948319  67.6732992  42.0378693
  38.6008129  67.6055300  40.9305401  38.5038181  67.6141032  41.7090647
  25.0284627  69.7463841  47.5179468  25.2005131  69.6369735  48.3664749
  25.5653985  70.3918246  47.2810660  25.1329631  69.8255842  47.6084564
  23.6942064  63.8606683  30.4561673  23.5117637  64.0778564  29.6302665
  24.5567677  63.9745696  30.5120287  23.7946654  63.9096581  30.3416160
  33.3550084  71.7986481  37.3942990  34.1107599  72.2317996  37.4331899
  33.4612408  71.1491251  37.9677626  33.4820255  71.7663965  37.4841016
  36.3930255  75.6259759  38.1445393  35.9565487  75.6296501  38.9004365
  36.0593171  76.3065258  37.7124971  36.2792875  75.7272214  38.1926226
  30.9659329  77.6668091  49.4688544  31.7499745  77.7798939  49.8344286
  30.7655923  76.8409229  49.6647229  31.0525354  77.5614811  49.5522930
  19.3346344  72.3395772  42.3532388  19.0684759  71.5234888  42.5123378
  19.3484908  72.3848927  41.4827903  19.2971066  72.2252676  42.2485869
  36.3127738  62.6673586  40.3874821  36.9553646  62.7371691  40.9736737
  36.5650759  62.0002809  39.8854363  36.4449870  62.5799935  40.4002100
  23.2404091  67.1380856  28.9684146  22.5262268  66.8519036  29.3806578
  23.7248060  67.4777482  29.6090533  23.2063454  67.1462506  29.1239781
  24.0844951  65.8774150  44.9999395  23.3916747  65.4071130  45.2460127
  24.7005278  65.6512454  45.5741102  24.0729480  65.7741282  45.1208548
  39.5274601  72.3440679  37.0365031  40.1891035  71.7831347  36.9360939
  38.8866013  71.8492709  37.3617722  39.5303469  72.1877088  37.0697371
  30.4151409  75.6410810  29.3445954  30.8302558  75.3095834  28.6530450
  29.5843339  75.4079712  29.2166090  30.3539418  75.5582066  29.2236801
  19.7439758  73.1254551  39.6344132  19.5615331  73.1001437  38.7816424
  20.4789427  73.5953489  39.6733041  19.8253822  73.1915913  39.5142050
  35.8139432  73.3606061  36.7777019  36.0495021  73.5051260  35.9503870
  35.9628996  74.1248469  37.1708533  35.8705235  73.4945115  36.7140623
  22.8085509  69.8439554  46.1426240  23.5325482  69.8292584  46.6291135
  22.9101646  70.5534909  45.6448209  22.9303719  69.9464257  46.1405027
  37.6429889  72.2007727  34.6146623  37.9738106  72.7335367  34.0086718
  38.2162977  72.2546615  35.2708574  37.7763568  72.2877296  34.6224405
  30.1830459  73.3238638  51.0075187  29.3903440  73.6382150  51.1927807
  30.2979386  73.5390107  50.1695972  30.0825869  73.4022475  50.9113522
  32.8561778  70.0472630  35.2970203  32.9508632  70.7861924  35.7509829
  32.2320621  69.6190105  35.7304768  32.7770808  70.0933950  35.4278351
  31.1114252  73.2258842  45.9460484  31.6853113  72.5886086  46.1009048
  31.0329055  73.2262925  45.0770142  31.1847487  73.1323954  45.8406895
  19.7110668  70.0048052  39.7843198  20.2884171  69.8684502  40.4235444
  19.0124730  69.5483836  40.0388783  19.6931690  69.9170318  39.9165488
  33.1084799  71.8921369  28.5307155  33.0264962  71.9623557  29.3962142
  33.7464520  72.4551113  28.3390896  33.1904637  71.9860340  28.6297105
  26.4677970  71.6582107  37.9981682  26.2097215  70.8253842  37.9712981
  26.5226453  71.8839720  37.1574182  26.4377748  71.5679879  37.8701818
  31.5479020  63.7610558  38.0985774  30.8435347  63.2719744  38.2569693
  31.5963995  63.7733032  37.2274219  31.4509072  63.6900206  37.9925114
  25.4412682  69.2119870  38.4846576  24.8662274  69.3712038  39.1210537
  25.0648359  68.5755279  38.0215027  25.3015495  69.1417683  38.5101135
  29.1085971  67.6843219  43.3438955  28.7200404  67.2597437  42.6891146
  28.4440669  67.9325369  43.8515981  28.9532899  67.6581940  43.3226823
  38.7509240  67.4418224  36.1186785  38.4945805  66.6298165  35.9284668
  39.5938554  67.4495791  35.8916972  38.8375266  67.3230221  36.0571602
  15.1869501  68.8559945  36.4991017  15.2729753  68.4791813  37.2804547
  15.8145299  68.4820390  36.0210975  15.2926052  68.7445427  36.5436494
  32.9312333  61.3817848  40.8562939  33.3122844  60.6996019  41.2430813
  32.1275617  61.0927450  40.6738603  32.8688794  61.2384896  40.8866995
  30.2124909  71.9141824  31.5415762  31.0265548  72.2056716  31.4298533
  30.1484051  71.2601686  30.9674055  30.3227648  71.8607018  31.4404599
  36.4334399  74.5967820  45.9545337  36.1973037  73.7655885  45.8357398
  37.0777628  74.5453427  46.5400182  36.4929070  74.4665508  46.0231231
  26.0832818  75.3863341  36.6688074  26.7206765  75.1475089  37.2139867
  26.5087889  75.5900500  35.9341234  26.2408984  75.3814351  36.6405231
  26.7235633  70.6065631  31.0062963  27.1080785  70.3873338  31.7579508
  26.4747253  71.4328576  31.1364040  26.7437705  70.6963777  31.1364040
  26.8904173  63.8872046  50.7225547  26.5757614  64.6571609  50.4595110
  26.5694106  63.3242302  50.1377774  26.7963092  63.9182315  50.5966897
  37.4570820  74.3812269  42.0173632  37.1516637  75.1140325  42.3786947
  36.7377036  73.9750198  41.7366418  37.3058162  74.4294002  42.0286769
  28.4654290  75.8635764  38.3481860  28.5393298  75.7010936  39.2023710
  29.2823796  76.0525953  38.1042342  28.5970648  75.8672506  38.4379886
  43.1572612  71.0205269  41.3441976  43.0897113  71.0401228  40.4744563
  43.1428275  71.8635596  41.5697647  43.1451369  71.1479004  41.2494453
  24.4436070  62.2762568  36.3371744  23.5758495  62.3485167  36.4029353
  24.7311274  63.0784647  36.5259719  24.3575818  62.4056715  36.3746510
  33.5668959  62.4240427  44.6683066  34.3122551  62.2350237  44.2546491
  33.1506263  62.9498665  44.1096922  33.6153933  62.4742572  44.5247639
  40.9431230  69.7949655  39.6188570  41.4939151  69.1617724  39.8585663
  40.9275345  70.3265048  40.3104075  41.0216426  69.7798604  39.7567429
  27.5953620  73.6288253  44.1648464  27.0965314  74.3404020  44.2433352
  28.4053845  73.9488919  44.1266626  27.6409727  73.7815101  44.1705032
  23.8581738  72.8911206  38.4111185  23.5694987  72.2648677  38.9456912
  24.7265086  72.8331493  38.4775865  23.9441990  72.7898750  38.5002139
  34.6459636  68.0345989  38.7293167  34.3024402  67.3136324  39.0800416
  34.7452678  67.8259840  37.8871525  34.6101679  67.8970192  38.6564847
  24.0614011  74.5306457  34.3353550  24.8159979  74.9119496  34.5489012
  23.4684624  74.9817600  34.7900246  24.0850725  74.6535284  34.4336428
  35.1072665  74.4971693  34.2717155  35.6730698  75.1564903  34.1875698
  34.4600568  74.8421391  34.7433557  35.0951421  74.6453634  34.3289911
  26.5220678  66.4869297  49.4610762  25.7120454  66.7927077  49.3500604
  26.9995365  67.2074879  49.5763346  26.4724157  66.6383898  49.4617833
  25.3812238  75.7015018  39.7093665  24.8592992  75.8415310  40.3945530
  25.7686258  74.9425682  39.8995783  25.3615939  75.6100542  39.8394742
  22.3703422  65.7520827  33.7788620  22.0828218  65.3822097  33.0420567
  23.0573890  66.2215682  33.5172325  22.4292319  65.7667796  33.6303696
  31.5779243  77.4410477  33.6954234  31.3365919  76.7078338  33.2881299
  31.7580576  77.9897334  33.0420567  31.5686867  77.4132869  33.5384457
  26.8078564  72.7319037  35.1075156  26.6121346  73.3393772  34.5135459
  27.0312909  72.0386981  34.6266830  26.8113205  72.7196563  34.9491237
  25.2057094  69.6173775  35.2256025  25.9279746  69.7814933  34.7659831
  24.7265086  70.3383440  35.1195364  25.2420824  69.7472005  35.1421639
  33.1650601  65.9537574  40.6052710  32.3261702  65.9798853  40.3690973
  33.2354969  66.6008309  41.1858056  33.0518995  66.0533700  40.6561826
  22.8564710  72.0231847  44.3310165  23.3685807  72.3016101  43.6818924
  22.5701053  72.7621142  44.6972978  22.8899574  72.1734201  44.2900043
  37.0408125  71.1605561  37.8913951  36.9542100  71.3160987  38.7448730
  36.5858605  71.8043636  37.5173356  36.9611382  71.2781316  37.9621058
  19.9431617  66.5302039  34.6273901  20.0447753  67.3328201  34.9554876
  20.7387503  66.3289375  34.3296982  20.0759522  66.6187938  34.6309256
  26.3748436  64.1158236  44.3911206  26.1831633  64.1313370  45.2410630
  27.2247032  64.3121910  44.3677861  26.4724158  64.1472587  44.5134501
  20.7595349  66.6449218  42.3695023  20.6180841  65.7933158  42.4939531
  21.0435912  66.6877878  41.5457229  20.7803195  66.5248968  42.2662647
  30.9133941  68.4816308  36.5139511  30.6668655  68.4012059  37.3476300
  31.2419064  67.6969776  36.3202038  30.9255185  68.3542573  36.6087034
  34.8081990  75.1899667  40.3026292  34.6696349  75.8880713  40.8075034
  34.0281988  75.0348324  39.9462474  34.6725217  75.2699834  40.3252566
  33.1460075  71.4896042  46.5548674  33.1408114  70.6175859  46.5591100
  33.8521069  71.6884212  46.0818130  33.2505079  71.3899917  46.4855709
  26.8730968  71.2173026  45.9262494  27.0174344  71.7974234  45.2905604
  27.2206617  71.5949323  46.6312349  26.9458430  71.3593730  45.9361489
  29.0450886  70.4163195  43.7087626  28.2974200  70.6094209  43.3035904
  29.1992411  69.5908414  43.4711747  28.9573313  70.3228306  43.6133031
  36.3035363  74.5477921  31.0642791  35.9242172  73.7615059  31.0572081
  35.6401608  75.0964778  30.9214436  36.1493838  74.5122745  31.0423588
  29.2852663  64.3113745  44.5983029  29.7425277  65.0437720  44.7255821
  29.3608992  63.8880211  45.3570285  29.3643633  64.3570984  44.7284106
  21.5285654  64.5579565  45.6872473  20.9927843  63.9459923  46.0033240
  21.5903419  65.1327701  46.3406140  21.4581287  64.5526493  45.8307900
  33.7579989  57.4903621  38.4676872  33.8763557  57.9480084  37.7344175
  33.5842164  56.6848882  38.1813090  33.7499160  57.4397393  38.3177806
  27.1635041  66.3015849  41.4424853  26.3731115  66.1207309  41.7642189
  27.5595664  65.5242802  41.4255148  27.1051917  66.1603310  41.4877402
  31.6500932  75.1303624  26.8831567  32.4173917  75.1903749  26.4737419
  31.2032240  74.5584065  26.3987885  31.6974359  75.0540199  26.7509277
  32.5478727  73.9358280  39.1684299  31.8723729  73.7043512  39.6697686
  32.5571103  73.3279462  38.5426404  32.4497232  73.8117205  39.1500451
  29.6772871  68.7776108  45.9248352  29.6132012  69.6386065  45.7968489
  29.8170059  68.4608102  45.1243904  29.6888341  68.8576275  45.7876565
  34.5495462  76.7923412  31.3994477  34.6315299  77.5990398  31.0755928
  35.0345204  76.8119371  32.1235251  34.6332619  76.9144074  31.4581376
  28.3591965  71.4708248  40.0664555  27.9354214  71.6712747  39.3303573
  28.1836820  70.6237096  40.1788855  28.2702846  71.3757029  39.9738245
  23.6474410  71.9660299  35.4992528  23.8039029  71.9007102  36.3548520
  23.9875003  72.7408852  35.2871207  23.7207645  72.0709497  35.5947122
  30.1853554  71.3418183  34.3685891  30.7269100  70.8388564  34.8324511
  30.5000114  71.2883378  33.5575376  30.3117952  71.2597604  34.3169703
  34.0570662  75.5520830  51.4812803  34.8705527  75.2805979  51.6417936
  33.8965628  75.2528370  50.6772999  34.1540610  75.4675756  51.3858209
  28.3540004  76.7335534  31.6525919  28.4232824  75.8750073  31.7918919
  29.1328459  76.9507415  31.3244943  28.4792854  76.6388398  31.6243076
  31.3342824  66.2354487  44.4208191  31.5484793  65.5965402  43.8671545
  30.7176723  66.6800311  43.9916053  31.2748153  66.2064631  44.2758622
  20.2208671  69.1495250  35.8153295  20.6007636  69.5679795  35.1513562
  19.6464036  69.7308705  36.1222138  20.1919996  69.2973109  35.7630036
  33.4981912  67.8443553  45.3591498  32.6858594  67.5369443  45.4404671
  33.9571846  67.3642553  45.9234211  33.4462297  67.7280045  45.4546093
  32.9087167  75.7223224  35.8068443  32.5501821  75.8937867  36.5832475
  32.4225877  76.1836430  35.2496441  32.7845863  75.8162196  35.8393712
  30.5935419  69.2503624  50.1420201  31.0635051  69.8745740  50.5288075
  30.6397300  68.5820599  50.7013415  30.6703295  69.2438304  50.2820272
  27.7506693  61.3560651  40.8669005  27.2345182  60.6640843  40.9920584
  27.1900622  62.0231428  40.8131603  27.5913206  61.3523909  40.8775071
  29.8198926  61.8953611  42.6961857  29.4330680  61.9202643  43.4775387
  29.3331864  61.3295290  42.2436374  29.6911435  61.8149362  42.7449761
  34.0691906  76.6127120  46.7535644  34.7071626  76.1187316  46.4198100
  33.4265997  76.5404521  46.1687870  34.0686132  76.5286129  46.6177999
  35.7948906  68.4616266  41.3201559  35.3676514  68.3742615  40.5649659
  35.1574959  68.5694042  41.9056403  35.6378513  68.4648926  41.2947001
  29.4856068  58.7820597  44.9872117  30.1149186  59.3180897  44.7093187
  29.6541931  58.6897956  45.8385683  29.6033863  58.8481959  45.0720645
  29.2869983  63.5691792  47.2598529  30.1143412  63.2976941  47.3157143
  29.3077829  64.3652633  47.6162347  29.4122833  63.6471546  47.3213711
  34.1246162  77.3046929  43.3941000  34.9138541  76.9535993  43.5143082
  34.2989760  78.1183317  43.1317634  34.2666444  77.3732786  43.3728868
  23.8639473  70.7155654  40.4468789  23.0227479  70.6159529  40.6547683
  24.0729481  71.4851135  40.7983110  23.7704165  70.8147698  40.5296104
  21.3415040  68.3375191  38.2753540  20.9471738  68.4118203  37.5003650
  20.7855157  68.7233138  38.8261902  21.2017852  68.4056966  38.2421200
  27.6756138  68.6437054  39.6966387  27.3719275  68.0893042  40.2976794
  26.9735559  68.8229264  39.2094421  27.5272348  68.5881836  39.7136092
  26.7322235  65.9537573  34.2611089  27.0081969  65.2356486  33.8488656
  27.3320904  66.5522493  34.0532195  26.8615499  65.9357944  34.1691850
  23.7548281  73.1099417  41.8660422  23.1636214  73.7508915  41.8363437
  24.5169304  73.5337034  41.8391722  23.7796541  73.2675255  41.8575569
  24.1508904  64.2701415  42.5328440  24.6110385  64.3440344  43.2703563
  24.1965010  65.0682669  42.1828261  24.2259459  64.3995562  42.5901196
  25.7992253  64.9368109  47.1000467  25.4077818  64.2901457  47.5356245
  25.9678116  65.5279545  47.7194722  25.7663164  64.9282377  47.2563173
  39.8738702  72.9405186  42.8637700  39.9321826  73.3891835  43.6097677
  39.2405170  73.3503999  42.4267780  39.7889997  73.0678921  42.9090249
  33.5137797  78.5608728  39.2992447  33.3157486  79.0499543  38.6048658
  32.8925508  78.7649970  39.8776580  33.3925361  78.6625267  39.2815670
  27.5745775  70.3293625  33.6402691  28.3187820  70.7167901  33.8785641
  27.7206472  69.4851051  33.8043179  27.7056360  70.2624098  33.6996661
  29.4925351  62.1243884  38.6734552  28.6461396  62.2966692  38.5475902
  29.4896483  61.3193228  39.0100381  29.3672501  62.0304913  38.7045679
  30.5623651  65.9019098  39.5396610  30.0883605  65.3760861  40.0501921
  30.9341787  65.3548571  38.9711472  30.5473540  65.7435095  39.5311757
  20.9396681  67.8990605  44.9080156  21.8022294  67.7986314  44.8217486
  20.6088464  67.3185314  44.3465728  21.0181878  67.7982232  44.8125562
  36.8260382  70.9621474  40.9503391  36.5858605  70.1227889  40.9545817
  37.3052389  71.0421641  41.6744164  36.8612565  70.8502874  41.0578193
  32.4907151  66.7955653  32.6022364  31.9630169  66.8784397  31.9128073
  32.9502859  67.5373525  32.5987009  32.4809001  66.9176315  32.4997059
  38.8265569  67.7422931  38.9032650  38.5875339  67.7018766  38.0653434
  38.9899470  68.5894083  39.0298371  38.8155872  67.8615016  38.7986132
  35.4311599  72.1272881  44.8337695  36.1545798  71.6745407  44.6548715
  35.1661561  72.4077546  44.0510023  35.4992872  72.1023849  44.6916410
  24.2998467  66.7233054  41.5690574  23.6751537  66.7351446  40.9616527
  23.9644062  67.1993229  42.2181814  24.1583959  66.7951571  41.5747143
  24.4840216  65.0658173  27.6263259  24.1353020  65.7177898  28.0894809
  24.0036662  65.0515286  26.8987130  24.3610460  65.1601226  27.5874350
  21.0124143  74.7833514  43.0094338  20.4824067  74.0925953  43.0589313
  21.2849236  74.7743700  42.1807047  20.9748865  74.6800646  42.8941754
  32.0444233  75.3659217  31.7332021  32.7678432  75.8317330  31.5896594
  31.6044824  75.4332826  30.9829618  32.0859926  75.4443053  31.6016802
  31.2130388  72.2256759  42.9832710  30.5987382  71.6814809  43.2781345
  31.7297673  71.7120995  42.5038526  31.1986051  72.0693168  42.9556938
  30.4526686  73.2961029  40.7177009  30.0254294  72.6710748  40.2842444
  30.4451630  73.0135951  41.5436016  30.3885827  73.1613810  40.7756836
  23.5689213  68.3326202  43.7865443  23.7282699  67.5769526  44.1917165
  23.3882106  68.8817142  44.4406180  23.5654572  68.3020016  43.9428149
  31.5109516  60.4987438  44.3416232  31.0150077  60.6951112  43.6507799
  32.2678578  60.8980106  44.1705034  31.5496340  60.5865171  44.2136369
  28.7812395  64.1729783  40.9319543  28.8054882  63.6389896  40.2432323
  29.0323869  63.6647092  41.5945133  28.8222314  64.0190687  40.9284187
  16.2919985  71.4561278  40.3662687  16.1863434  71.4108123  39.5014771
  15.5420205  71.8015059  40.6476972  16.1655588  71.5002187  40.2800016
  25.0613718  62.9000602  40.3125287  25.1012089  63.4009808  41.0259994
  24.2363382  62.9910995  40.0431210  24.9453243  62.9882418  40.3775825
  27.2443330  72.4661342  48.4145582  26.3938961  72.6033056  48.5503226
  27.4071458  71.7325120  48.8593283  27.1427194  72.3775443  48.5001181
  26.4828081  69.4161112  42.6099186  25.6520011  69.5834929  42.4034434
  26.4279598  69.0397062  43.3948071  26.3517496  69.3850843  42.6947714
  24.2911864  62.9070004  48.2455597  24.9164568  62.3632137  48.5185029
  23.8362344  62.4264922  47.6763387  24.3160125  62.7559486  48.2017190
  24.8564125  67.6916703  33.1389304  24.9967086  68.1889167  33.8417945
  25.3546658  66.9902997  33.2803517  24.9505206  67.6618682  33.2640883
  24.8864347  68.5583814  30.4681881  25.5209427  69.1544239  30.4031342
  24.9689958  68.2587272  31.2827751  24.9920898  68.6024722  30.5784967
  37.8646913  71.0899291  43.3368245  38.4564753  71.7296542  43.3686443
  38.3005907  70.3922328  43.6260311  38.0165344  71.0817642  43.3849077
  26.4643330  64.4897789  30.4427322  26.7859171  64.0100872  29.7886585
  26.7270274  65.2997436  30.2518134  26.5509355  64.5387687  30.3182815
  29.6940303  75.5116664  43.9626139  29.1865394  76.0652511  44.4066769
  29.3966949  75.5724954  43.1444913  29.5745188  75.6022975  43.9074595
  31.8602485  63.8769983  42.8050802  32.2857557  63.4242510  42.1934328
  31.2459478  63.3230054  43.0815589  31.8331130  63.7283960  42.7555827
  21.3917335  70.7551655  33.7371427  21.9009564  71.3516162  34.1182732
  21.8651607  70.4877629  33.0547846  21.5360711  70.8037470  33.6925949
  34.8896054  68.3044510  35.6371387  34.2187244  68.8474212  35.5084453
  35.5835805  68.7739365  35.3953082  34.8924922  68.4542781  35.5826915
  35.0524182  64.7600394  38.5461760  35.4051792  64.3330117  39.2207559
  34.1938983  64.6751237  38.6762837  34.9773626  64.6845134  38.6656771
  23.7507867  67.3907913  36.6044607  23.0319856  67.8072046  36.8717470
  24.1220229  67.9562152  36.0536245  23.6999799  67.5357195  36.5627414
  33.0507448  68.0235762  42.4946603  33.0305375  67.8419057  43.3481382
  33.0986648  68.8947781  42.4706186  33.0542089  68.1252301  42.6169897
  30.9953777  74.6122954  48.4195079  30.9549632  73.9672631  47.8340235
  31.8077096  74.5559572  48.7320491  31.1096931  74.5081921  48.3792028
  29.5254441  66.4305913  31.9417986  28.9319280  66.7522910  31.3902553
  29.5629719  65.5847009  31.7339093  29.4428830  66.3530242  31.8300758
  36.4848242  59.8818806  39.4746073  35.9779106  59.1747945  39.4067250
  37.2815676  59.5511994  39.6047149  36.5275481  59.7291957  39.4845068
  32.4012258  66.3885418  35.3719737  32.1725951  66.4118119  34.5298095
  32.6610334  65.5642885  35.4914747  32.4058446  66.2701498  35.2644934
  26.6831486  68.2419891  44.9744837  26.1710389  67.6341074  45.3329868
  26.5110982  68.9576483  45.4418813  26.5821123  68.2583190  45.0961061
  21.5297201  66.6857466  47.6247199  21.3599791  67.3458841  47.0795405
  21.0863151  66.8964027  48.3459688  21.4396534  66.8143448  47.6508828
  25.4557020  64.9261964  36.6673932  25.9314386  65.2879044  36.0324113
  24.9545620  65.5818432  36.9474075  25.4522379  65.0756153  36.6150673
  38.6868382  74.3983732  32.4586937  39.0701988  75.1475088  32.6885034
  37.8912495  74.6449552  32.1998926  38.6262164  74.5453426  32.4544511
  30.5600556  66.1644136  47.4147092  31.1171987  65.9357945  46.7825558
  30.2361621  66.9249801  47.1382305  30.5946967  66.2427972  47.2803589
  18.4299265  69.5904332  42.8835688  17.8825985  68.9204977  43.0016557
  19.2191644  69.2234180  42.9479156  18.4651449  69.4369318  42.9104389
  28.2783674  69.2511789  48.3799100  29.0295001  69.5663466  48.6938654
  28.4706250  69.0490960  47.5533021  28.4175088  69.2679171  48.3042495
  27.4983673  67.0703164  30.0347316  27.8782638  67.0882793  29.2498431
  26.7576269  67.5157153  29.9138164  27.4452511  67.1384939  29.9010884
  35.1268964  65.3785355  35.6222895  35.1263190  65.2234012  36.4807171
  34.9225144  66.2248342  35.5664281  35.0968742  65.4805976  35.7410834
  17.1886235  68.8025140  40.0381712  17.0107996  68.3501749  40.7636627
  16.9005257  69.6051301  40.2220189  17.1199188  68.8547697  40.1725214
  32.8509816  70.0582857  39.2759102  33.3463481  69.3405852  39.2363122
  32.0409592  69.7553655  39.1613589  32.8053709  69.9080503  39.2532828
  28.2968427  73.9080670  31.4256106  27.4879750  73.5847344  31.3789416
  28.8043336  73.2013892  31.3584355  28.2518094  73.7561987  31.4086401
  18.9258705  71.3352863  37.1503471  18.0604224  71.3238554  37.0386242
  19.0257521  71.1483086  37.9974610  18.8132872  71.3058925  37.2592415
  34.9161635  72.8086544  41.9636231  35.3416706  72.2860966  41.4106656
  34.5518555  73.4067382  41.4424854  34.9248237  72.8196771  41.8045240
  31.5040234  76.5220809  38.2937388  31.9751412  77.2361071  38.4627373
  31.8400413  75.9219559  38.8297258  31.6235349  76.5392273  38.3969764
  33.5917219  78.1322122  50.4729460  33.7014184  77.3430683  50.8286207
  33.9208115  78.0428058  49.6703798  33.6569625  78.0027975  50.4071851
  28.4209729  61.2948279  45.2495483  28.5537635  60.4979273  45.5776458
  28.8054882  61.8214682  45.8293758  28.4966058  61.2548196  45.3838986
  32.1414181  76.3138743  45.0565081  31.5935127  75.6896626  44.7885146
  32.6027209  76.5033015  44.3409160  32.1281390  76.2497793  44.9115512
  31.4942084  58.2178605  41.8476576  30.6888048  58.1076335  42.1644414
  31.3648820  58.3191061  40.9906442  31.3562217  58.2162275  41.7684617
  34.9508045  64.3824097  42.4416273  34.3671034  64.8833304  42.0293840
  35.2712339  63.8753653  41.8080596  34.9121220  64.3815932  42.2874780
  27.4902844  63.2964692  32.7174948  28.3118538  63.4663005  32.4756643
  27.0272495  63.4511953  31.9941245  27.5434006  63.3446425  32.5746592
  26.0798176  61.2907454  43.4973377  26.6242589  60.9498581  44.0877718
  26.1335112  62.1492916  43.6394661  26.1687295  61.3662714  43.6055250
  31.7072507  77.3189816  41.5874422  32.5270881  77.1752782  41.8490717
  31.4266585  77.9436014  42.1290860  31.7869250  77.3900168  41.7062361
  38.1061629  78.9109384  38.2760612  37.7764959  79.3620527  37.6064311
  37.4306631  78.8325547  38.8233618  37.9572065  78.9660519  38.2583835
  45.3138037  74.8994907  36.5210222  44.9991478  75.5898385  36.9530645
  44.7964978  74.8439689  35.8195723  45.1902507  74.9929795  36.4807172
  36.3117583  76.9721672  33.7583560  37.0663551  77.3399989  33.5200610
  36.1345118  77.3461227  34.5262739  36.3972061  77.0819860  33.8368448
  49.6052482  83.1216113  41.8031099  48.7680903  83.1918300  42.0378693
  49.5740713  83.1240608  40.9305401  49.4770764  83.1326340  41.7090647
  40.3474367  76.3818402  33.4910696  41.0760527  76.2034357  33.0448853
  40.4369260  77.2236482  33.7017875  40.4681029  76.4802280  33.4564214
  47.2860322  78.1858894  40.3874821  47.9286230  78.2556999  40.9736737
  47.5383342  77.5188117  39.8854363  47.4182454  78.0985243  40.4002100
  42.5211604  79.2795866  38.0985774  41.8167931  78.7905051  38.2569693
  42.5696578  79.2918340  37.2274219  42.4241656  79.2085514  37.9925114
  49.7241824  82.9603532  36.1186785  49.4678389  82.1483473  35.9284668
  50.5671138  82.9681099  35.8916972  49.8107849  82.8415529  36.0571602
  43.9044916  76.9003156  40.8562939  44.2855428  76.2181327  41.2430813
  43.1008200  76.6112758  40.6738603  43.8421378  76.7570204  40.8866995
  37.8636757  79.4057354  50.7225547  37.5490198  80.1756917  50.4595110
  37.5426689  78.8427610  50.1377774  37.7695676  79.4367623  50.5966897
  35.4168654  77.7947876  36.3371744  34.5491079  77.8670475  36.4029353
  35.7043858  78.5969954  36.5259719  35.3308402  77.9242023  36.3746510
  44.5401542  77.9425735  44.6683066  45.2855134  77.7535545  44.2546491
  44.1238847  78.4683973  44.1096922  44.5886517  77.9927880  44.5247639
  44.1383185  81.4722882  40.6052710  43.2994285  81.4984161  40.3690973
  44.2087552  82.1193617  41.1858056  44.0251578  81.5719008  40.6561826
  42.5852463  78.3708259  35.3380326  43.2878816  78.1716007  34.8600284
  42.3196652  77.5984201  35.6449169  42.6499095  78.2271225  35.3125767
  37.3481019  79.6343544  44.3911206  37.1564216  79.6498678  45.2410630
  38.1979615  79.8307218  44.3677861  37.4456741  79.6657895  44.5134501
  40.2585246  79.8299053  44.5983029  40.7157860  80.5623028  44.7255821
  40.3341575  79.4065519  45.3570285  40.3376216  79.8756291  44.7284106
  44.7312572  73.0088929  38.4676872  44.8496140  73.4665392  37.7344175
  44.5574748  72.2034190  38.1813090  44.7231743  72.9582701  38.3177806
  41.6990136  74.8639731  39.4095534  40.8283694  74.8378452  39.3628844
  41.9530477  74.6916923  38.5921380  41.6083696  74.8349875  39.2815671
  38.7239277  76.8745959  40.8669005  38.2077765  76.1826151  40.9920584
  38.1633205  77.5416736  40.8131603  38.5645790  76.8709217  40.8775071
  40.7931510  77.4138919  42.6961857  40.4063263  77.4387951  43.4775387
  40.3064447  76.8480598  42.2436374  40.6644019  77.3334670  42.7449761
  40.4588652  74.3005905  44.9872117  41.0881770  74.8366205  44.7093187
  40.6274514  74.2083264  45.8385683  40.5766446  74.3667267  45.0720645
  40.2602567  79.0877100  47.2598529  41.0875996  78.8162248  47.3157143
  40.2810413  79.8837941  47.6162347  40.3855417  79.1656854  47.3213711
  43.9512570  76.8341793  37.9557419  44.1562164  76.7664101  38.8014416
  43.6238994  77.6400615  37.8878596  43.9327818  76.9427734  38.0717074
  47.2046258  77.3873558  37.4360184  46.5920572  77.8743960  37.8213916
  47.3010433  76.7117048  37.9797835  47.1284156  77.3591866  37.5739042
  41.2065339  79.1436399  32.5357684  41.6609085  79.3146959  33.2605528
  41.6805385  78.5304509  32.1355459  41.3433659  79.0787284  32.5831445
  40.4657934  77.6429192  38.6734552  39.6193979  77.8152000  38.5475902
  40.4629067  76.8378536  39.0100381  40.3405084  77.5490221  38.7045679
  41.5356235  81.4204406  39.5396610  41.0616189  80.8946168  40.0501921
  41.9074371  80.8733879  38.9711472  41.5206124  81.2620403  39.5311757
  49.7998152  83.2608239  38.9032650  49.5607922  83.2204073  38.0653434
  49.9632054  84.1079391  39.0298371  49.7888456  83.3800324  38.7986132
  42.4842099  76.0172745  44.3416232  41.9882661  76.2136420  43.6507799
  43.2411161  76.4165414  44.1705034  42.5228924  76.1050479  44.2136369
  39.7544979  79.6915091  40.9319543  39.7787466  79.1575204  40.2432323
  40.0056452  79.1832400  41.5945133  39.7954898  79.5375995  40.9284187
  36.0346301  78.4185910  40.3125287  36.0744673  78.9195116  41.0259994
  35.2095966  78.5096303  40.0431210  35.9185827  78.5067726  40.3775825
  35.2644448  78.4255312  48.2455597  35.8897151  77.8817445  48.5185029
  34.8094928  77.9450230  47.6763387  35.2892708  78.2744794  48.2017190
  42.8335069  79.3955291  42.8050802  43.2590140  78.9427818  42.1934328
  42.2192062  78.8415362  43.0815589  42.8063714  79.2469268  42.7555827
  41.2729291  75.8670391  36.2141379  40.6297609  75.7168038  36.7826517
  40.9328698  75.6212736  35.4490483  41.1274369  75.8082514  36.1844394
  47.4580825  75.4004113  39.4746073  46.9511690  74.6933253  39.4067250
  48.2548259  75.0697302  39.6047149  47.5008065  75.2477265  39.4845068
  43.3744841  81.9070726  35.3719737  43.1458534  81.9303427  34.5298095
  43.6342917  81.0828193  35.4914747  43.3791029  81.7886806  35.2644934
  46.1001547  80.8970663  35.6222895  46.0995774  80.7419320  36.4807171
  45.8957728  81.7433650  35.5664281  46.0701325  80.9991284  35.7410834
  39.3942313  76.8133587  45.2495483  39.5270218  76.0164581  45.5776458
  39.7787466  77.3399990  45.8293758  39.4698642  76.7733504  45.3838986
  42.4674668  73.7363913  41.8476576  41.6620632  73.6261643  42.1644414
  42.3381403  73.8376369  40.9906442  42.3294801  73.7347583  41.7684617
  45.9240628  79.9009405  42.4416273  45.3403617  80.4018612  42.0293840
  46.2444923  79.3938961  41.8080596  45.8853804  79.9001240  42.2874780
  38.4635428  78.8150000  32.7174948  39.2851122  78.9848313  32.4756643
  38.0005079  78.9697261  31.9941245  38.5166590  78.8631733  32.5746592
  37.0530760  76.8092762  43.4973377  37.5975173  76.4683889  44.0877718
  37.1067695  77.6678224  43.6394661  37.1419879  76.8848022  43.6055250
  14.9539230  15.3576875  21.4857345  14.9233235  16.2121511  21.6575614
  15.5520579  15.0572167  22.0443489  15.0376388  15.4393371  21.5932147
   8.1538915  14.4452526  26.2410275   7.2976811  14.6061024  26.2919392
   8.2006569  13.5744590  26.2615337   8.0338027  14.3403328  26.2516342
   2.5380055  23.9815244  22.0047507   1.7862955  23.6030782  21.7763552
   2.9866067  24.0133677  21.2566317   2.4929722  23.9300851  21.8605009
  11.4632632  20.7139051  35.8470732  12.1699399  20.2191082  35.9757666
  11.6520567  21.1548133  35.1173390  11.5960537  20.7057402  35.7579777
   7.9905015  24.4040613  17.4333054   7.6556383  25.0817535  16.9977276
   8.5031885  24.0145924  16.8449926   8.0170596  24.4465191  17.2819846
   7.5309306  26.3554882  23.3744166   7.9148686  26.9241780  22.8348941
   7.4668447  25.6304392  22.8949982   7.5782733  26.3330345  23.2238028
  10.9990736  16.5044570  28.8841927  11.5446696  17.1829656  28.9435897
  10.9407613  16.3632030  28.0243509  11.0706651  16.5836571  28.7653988
   4.1164811  23.9933636  24.2710280   4.2175174  23.1833990  24.5807407
   3.5206556  23.8990582  23.6409958   4.0437350  23.8598664  24.2236518
  12.7755805  17.9329177  19.7575655  12.6595331  18.6836863  20.1867793
  13.5711692  17.6753130  20.0071742  12.8760394  18.0064024  19.8579747
   3.9565551  28.9111225  25.6725136   4.6003006  29.3524389  26.0621294
   4.2821806  28.1064651  25.5855394   4.0997379  28.8576420  25.7170613
   4.6586131  21.9223200  21.0444997   4.9801972  22.4628407  20.4406305
   5.3058227  21.3519971  21.1767287   4.8012186  21.9182375  20.9752033
   6.7087839  13.9239195  21.1279384   7.4068003  14.1027322  21.6200847
   7.0240171  13.4009534  20.5049773   6.8583176  13.8732967  21.1081394
   6.8975774  20.3109640  21.1159175   7.3369409  19.7026740  21.5613948
   6.7480437  19.9317013  20.3444641   6.9397240  20.1648111  21.0678343
   4.3647417  18.9053651  28.3178001   5.0096419  18.4126095  27.9988950
   4.6049194  19.0478438  29.1444079   4.4958002  18.8531094  28.3927534
   6.9033508  21.7508557  27.9684894   7.1856751  20.9559963  27.7471649
   7.6319669  22.2289145  27.9889955   7.0523072  21.7043154  27.9387909
  10.4985111  18.6636821  18.0689945  10.4136406  19.5197788  18.2139514
  10.9869494  18.3881145  18.7372104  10.5574008  18.7494142  18.1892026
  11.4303544  15.2821615  19.5687680  10.9015015  15.4981249  20.2284986
  11.9528564  15.9757754  19.4888649  11.4291997  15.4164752  19.6543279
  16.8851597  20.8567920  24.9420724  16.0549300  21.0678563  25.1054141
  16.8360849  20.0304974  24.6663008  16.7558332  20.7657526  24.9258090
   4.9461334  23.6871774  27.7768634   4.4288276  23.3279189  27.1729942
   5.6435725  23.1633948  27.7874700   4.9726915  23.5569462  27.6898893
   8.6024926  24.1366588  33.7384807   8.6908272  23.9492728  34.5863017
   9.0314639  23.4904017  33.3389654   8.6787029  24.0129595  33.8056558
   6.1695386  23.4197748  32.7202469   5.6066221  23.0070358  33.2442130
   6.9316409  23.3450653  33.1395612   6.1989835  23.3475148  32.8595469
   1.7291377  25.4095769  25.3239099   2.4311957  24.8947758  25.3811856
   1.6488860  25.7369920  26.1285974   1.8215138  25.3809995  25.4511891
  16.3805555  13.5038320  28.7371146  15.5433976  13.5740507  28.9718740
  16.3493786  13.5062815  27.8645448  16.2523837  13.5148547  28.6430694
   2.7770284  15.6471356  34.4519514   2.9490788  15.5377250  35.3004796
   3.3139641  16.2925761  34.2150707   2.8815288  15.7263358  34.5424611
   1.0542153  21.6002121  24.8324707   1.8931052  21.8325054  24.8798469
   1.0853922  20.7306432  24.7631743   1.1823870  21.5059067  24.8289352
   1.6794856  22.0202996  29.1338013   2.2193081  21.8774127  29.8041385
   0.9964802  22.4199747  29.5022039   1.6587010  22.0582667  29.2872435
  11.1035741  17.6993997  24.3283037  11.8593256  18.1325511  24.3671946
  11.2098065  17.0498766  24.9017673  11.2305911  17.6671481  24.4181063
  14.1415912  21.5267274  25.0785440  13.7051144  21.5304016  25.8344412
  13.8078827  22.2072773  24.6465018  14.0278532  21.6279730  25.1266273
   8.7144985  23.5675607  36.4028590   9.4985402  23.6806455  36.7684333
   8.5141580  22.7416744  36.5987276   8.8011011  23.4622326  36.4862976
  14.0613395   8.5681102  27.3214868  14.7039303   8.6379206  27.9076783
  14.3136415   7.9010325  26.8194410  14.1935527   8.4807450  27.3342147
   8.8715379  25.4785709  30.0495046   8.0730625  25.2385209  30.3068915
   9.3201390  25.5300102  30.7962094   8.8189990  25.4508100  30.1979970
  17.2760258  18.2448194  23.9705077  17.9376692  17.6838862  23.8700986
  16.6351670  17.7500225  24.2957769  17.2789126  18.0884603  24.0037418
   8.1637066  21.5418325  16.2786001   8.5788214  21.2103349  15.5870496
   7.3328995  21.3087228  16.1506137   8.1025075  21.4589581  16.1576848
  13.5625089  19.2613576  23.7117066  13.7980678  19.4058775  22.8843917
  13.7114652  20.0255984  24.1048580  13.6190892  19.3952631  23.6480670
   0.5571166  15.7447069  33.0766287   1.2811139  15.7300100  33.5631182
   0.6587303  16.4542424  32.5788255   0.6789375  15.8471772  33.0745074
  15.3915545  18.1015242  21.5486670  15.7223763  18.6342882  20.9426765
  15.9648634  18.1554130  22.2048621  15.5249225  18.1884811  21.5564452
   7.9316116  19.2246154  37.9415234   7.1389096  19.5389666  38.1267854
   8.0465043  19.4397622  37.1036019   7.8311526  19.3029990  37.8453569
  10.6047435  15.9480145  22.2310250  10.6994289  16.6869439  22.6849876
   9.9806278  15.5197620  22.6644815  10.5256465  15.9941466  22.3618398
   8.8599908  19.1266358  32.8800531   9.4338770  18.4893602  33.0349095
   8.7814712  19.1270440  32.0110189   8.9333143  19.0331469  32.7746942
   4.2163627  17.5589623  24.9321728   3.9582871  16.7261358  24.9053028
   4.2712110  17.7847236  24.0914229   4.1863405  17.4687394  24.8041865
   9.2964677   9.6618073  25.0325821   8.5921004   9.1727259  25.1909740
   9.3449652   9.6740548  24.1614265   9.1994729   9.5907721  24.9265161
   3.1898339  15.1127385  25.4186623   2.6147930  15.2719553  26.0550584
   2.8134016  14.4762794  24.9555074   3.0501152  15.0425198  25.4441182
   6.8571628  13.5850734  30.2779002   6.4686061  13.1604952  29.6231193
   6.1926326  13.8332884  30.7856028   6.7018556  13.5589456  30.2566870
  16.4994897  13.3425739  23.0526832  16.2431462  12.5305681  22.8624714
  17.3424211  13.3503306  22.8257019  16.5860922  13.2237737  22.9911649
  10.6797989   7.2825363  27.7902986  11.0608501   6.6003534  28.1770860
   9.8761274   6.9934965  27.6078650  10.6174451   7.1392412  27.8207042
   7.9610566  17.8149339  18.4755809   8.7751205  18.1064232  18.3638580
   7.8969707  17.1609201  17.9014102   8.0713305  17.7614534  18.3744646
  14.1820056  20.4975335  32.8885384  13.9458694  19.6663400  32.7697445
  14.8263285  20.4460942  33.4740228  14.2414727  20.3673023  32.9571278
   3.8318474  21.2870856  23.6028121   4.4692421  21.0482604  24.1479914
   4.2573546  21.4908015  22.8681281   3.9894641  21.2821867  23.5745278
  15.2056477  20.2819784  28.9513679  14.9002294  21.0147841  29.3126994
  14.4862693  19.8757713  28.6706465  15.0543819  20.3301517  28.9626816
   6.2139946  21.7643279  25.2821907   6.2878955  21.6018451  26.1363757
   7.0309453  21.9533469  25.0382389   6.3456305  21.7680021  25.3719932
  20.9058269  16.9212785  28.2782023  20.8382769  16.9408744  27.4084609
  20.8913931  17.7643112  28.5037693  20.8937026  17.0486519  28.1834500
  11.3154616   8.3247942  31.6023112  12.0608208   8.1357753  31.1886538
  10.8991920   8.8506180  31.0436969  11.3639590   8.3750088  31.4587686
   4.7544532  24.7278022  20.0135380   5.0442830  24.3367003  19.2894607
   5.4848013  24.9094727  20.4540656   4.9051416  24.6971836  19.9718187
  18.6916886  15.6957171  26.5528617  19.2424808  15.0625240  26.7925709
  18.6761002  16.2272564  27.2444122  18.7702083  15.6806119  26.6907476
   5.3439277  19.5295768  31.0988511   4.8450971  20.2411536  31.1773399
   6.1539502  19.8496435  31.0606673   5.3895384  19.6822617  31.1045079
   2.6950448  26.7045405  23.0795530   2.4750743  26.4142759  23.8722197
   2.4744970  26.0460360  22.5513442   2.6298042  26.5645113  23.1184439
   1.6067395  18.7918721  25.3451232   1.3180643  18.1656192  25.8796959
   2.4750743  18.7339008  25.4115912   1.6927647  18.6906265  25.4342186
  12.3945293  13.9353504  25.6633214  12.0510058  13.2143840  26.0140463
  12.4938335  13.7267356  24.8211572  12.3587335  13.7977708  25.5904894
   4.8618403  28.0774794  21.8626222   5.5142461  27.5451237  22.0917248
   4.1644012  27.7243447  22.2494096   4.8549121  27.9464317  21.9538390
   1.8099668  20.4313972  21.2693597   2.5645636  20.8127011  21.4829059
   1.2170281  20.8825116  21.7240293   1.8336382  20.5542799  21.3676475
  12.8558322  20.3979209  21.2057202  13.4216354  21.0572418  21.1215745
  12.2086225  20.7428907  21.6773604  12.8437078  20.5461150  21.2629958
   4.2706335  12.3876812  36.3950809   3.4606111  12.6934592  36.2840651
   4.7481022  13.1082395  36.5103393   4.2209814  12.5391414  36.3957880
   3.1297895  21.6022533  26.6433712   2.6078648  21.7422825  27.3285577
   3.5171915  20.8433198  26.8335829   3.1101596  21.5108057  26.7734789
   9.3264900  23.3417993  20.6294281   9.0851576  22.6085853  20.2221346
   9.5066233  23.8904850  19.9760614   9.3172524  23.3140384  20.4724504
   4.5564220  18.6326552  22.0415203   4.3607003  19.2401287  21.4475506
   4.7798566  17.9394496  21.5606877   4.5598861  18.6204078  21.8831284
   2.9542750  15.5181290  22.1596072   3.6765402  15.6822449  21.6999877
   2.4750743  16.2390955  22.0535411   2.9906481  15.6479520  22.0761686
  10.9136258  11.8545089  27.5392756  10.0747359  11.8806368  27.3031020
  10.9840625  12.5015825  28.1198103  10.8004652  11.9541215  27.5901873
   9.3605536   8.7530466  22.2720372  10.0631889   8.5538215  21.7940331
   9.0949725   7.9806409  22.5789216   9.4252169   8.6093432  22.2465814
  14.7893782  17.0613076  24.8253998  14.7027756  17.2168502  25.6788777
  14.3344262  17.7051151  24.4513403  14.7097039  17.1788831  24.8961105
   4.1234093  10.0165751  31.3251253   3.9317290  10.0320886  32.1750676
   4.9732688  10.2129426  31.3017908   4.2209814  10.0480103  31.4474548
   8.6619598  14.3823823  23.4479558   8.4154312  14.3019574  24.2816347
   8.9904721  13.5977291  23.2542085   8.6740841  14.2550088  23.5427081
  12.5567647  21.0907182  27.2366339  12.4182006  21.7888228  27.7415081
  11.7767645  20.9355839  26.8802521  12.4210874  21.1707349  27.2592613
  10.8945732  17.3903558  33.4888721  10.8893770  16.5183374  33.4931147
  11.6006726  17.5891727  33.0158176  10.9990736  17.2907432  33.4195756
   4.6216625  17.1180542  32.8602541   4.7660001  17.6981750  32.2245651
   4.9692274  17.4956838  33.5652395   4.6944087  17.2601246  32.8701536
   6.7936543  16.3170710  30.6427672   6.0459857  16.5101724  30.2375950
   6.9478068  15.4915930  30.4051794   6.7058970  16.2235821  30.5473078
   3.6944380  25.3083313  29.7263568   3.8433944  24.7486229  29.0736972
   4.4744382  25.3875315  30.1096086   3.8318474  25.2368879  29.6860517
  14.0521020  20.4485436  17.9982838  13.6727828  19.6622574  17.9912128
  13.3887265  20.9972293  17.8554482  13.8979494  20.4130260  17.9763635
   6.2197681  25.4797956  31.0048058   6.1441352  24.8106767  31.5598847
   6.1487540  26.1815745  31.5188725   6.1978288  25.4842864  31.1624907
   7.0338320  10.2121261  31.5323076   7.4910934  10.9445235  31.6595868
   7.1094648   9.7887726  32.2910332   7.1129289  10.2578499  31.6624153
   6.8767928  23.9998955  21.8371664   7.6417819  23.7308599  21.5154329
   6.7746018  23.5148966  22.5541727   6.9749423  23.8888520  21.8951492
   4.9120697  12.2023365  28.3764900   4.1216772  12.0214825  28.6982236
   5.3081320  11.4250317  28.3595195   4.8537574  12.0610826  28.4217448
  10.2964384  19.8365795  26.1024346   9.6209386  19.6051027  26.6037733
  10.3056760  19.2286978  25.4766451  10.1982888  19.7124720  26.0840498
   7.4258528  14.6783624  32.8588399   7.3617669  15.5393580  32.7308536
   7.5655716  14.3615617  32.0583950   7.4373998  14.7583790  32.7216612
  12.2981118  22.6930927  18.3334524  12.3800956  23.4997913  18.0095975
  12.7830861  22.7126886  19.0575297  12.3818276  22.8151590  18.3921423
   6.1077622  17.3715763  27.0004602   5.6839871  17.5720262  26.2643620
   5.9322477  16.5244611  27.1128902   6.0188502  17.2764545  26.9078292
   5.6089315  28.8866276  29.4626059   6.0985245  28.1877065  29.2801724
   5.0373547  28.5890146  30.0502117   5.5973845  28.7392500  29.5227100
   1.3960067  17.8667815  22.4332574   1.5524686  17.8014617  23.2888567
   1.7360660  18.6416367  22.2211254   1.4693301  17.9717013  22.5287169
   7.9339211  17.2425698  21.3025938   8.4754757  16.7396079  21.7664558
   8.2485770  17.1890893  20.4915423   8.0603608  17.1605119  21.2509750
  11.8056319  21.4528345  38.4152850  12.6191184  21.1813494  38.5757982
  11.6451285  21.1535885  37.6113046  11.9026267  21.3683272  38.3198256
   6.1025661  22.6343050  18.5865966   6.1718481  21.7757588  18.7258966
   6.8814116  22.8514931  18.2584990   6.2278511  22.5395914  18.5583123
   9.0828481  12.1362003  31.3548238   9.2970450  11.4972917  30.8011592
   8.4662380  12.5807827  30.9256100   9.0233810  12.1072146  31.2098669
  10.4933149  25.0580751  22.8002459  10.1012940  24.7547466  22.0825325
  10.6486221  25.8949841  22.6107413  10.4586738  25.1364588  22.6658956
  11.2467569  13.7451068  32.2931545  10.4344250  13.4376958  32.3744718
  11.7057503  13.2650068  32.8574257  11.1947953  13.6287560  32.3886139
  10.6572823  21.6230740  22.7408490  10.2987478  21.7945383  23.5172522
  10.1711534  22.0843945  22.1836488  10.5331520  21.7169711  22.7733759
   8.3421076  15.1511139  37.0760248   8.8120707  15.7753256  37.4628122
   8.3882956  14.4828115  37.6353462   8.4188952  15.1445820  37.2160319
  11.8177563  22.5134636  33.6875690  12.4557283  22.0194831  33.3538147
  11.1751654  22.4412036  33.1027917  11.8171789  22.4293644  33.5518045
  13.5434563  14.3623782  28.2541606  13.1162171  14.2750130  27.4989706
  12.9060616  14.4701557  28.8396450  13.3864170  14.3656442  28.2287048
   7.0355640   9.4699307  34.1938575   7.8629069   9.1984456  34.2497190
   7.0563486  10.2660149  34.5502394   7.1608490   9.5479061  34.2553758
  11.8731819  23.2054444  30.3281047  12.6624197  22.8543509  30.4483129
  12.0475417  24.0190832  30.0657681  12.0152101  23.2740301  30.3068915
   1.6125130  16.6163170  27.3808836   0.7713136  16.5167044  27.5887730
   1.8215138  17.3858650  27.7323157   1.5189822  16.7155213  27.4636151
  10.7265643   7.2164001  24.8897466  10.9315237   7.1486309  25.7354463
  10.3992067   8.0222822  24.8218643  10.7080891   7.3249941  25.0057121
   5.4241795  14.5444569  26.6306434   5.1204932  13.9900557  27.2316841
   4.7221215  14.7236779  26.1434468   5.2758004  14.4889351  26.6476139
   3.4860146  21.7594290  31.3378531   3.3780500  21.7696352  32.2040589
   3.6955927  22.5849070  31.1483485   3.5010257  21.8835364  31.4382623
  13.9799331   7.7695765  24.3700231  13.3673645   8.2566167  24.7553963
  14.0763506   7.0939256  24.9137882  13.9037229   7.7414074  24.5079089
   1.5033938  19.0106932  28.8000469   0.9121871  19.6516430  28.7703484
   2.2654961  19.4344549  28.7731768   1.5282198  19.1682771  28.7915616
   3.5477910  10.8375625  34.0340514   3.1563475  10.1908972  34.4696291
   3.7163773  11.4287060  34.6534769   3.5148820  10.8289893  34.1903220
  17.6224359  18.8412702  29.7977747  17.6807483  19.2899351  30.5437724
  16.9890827  19.2511515  29.3607827  17.5375654  18.9686436  29.8430296
  11.2623454  24.4616244  26.2332493  11.0643142  24.9507058  25.5388705
  10.6411165  24.6657485  26.8116627  11.1411018  24.5632782  26.2155717
   5.3231432  16.2301141  20.5742738   6.0673477  16.6175417  20.8125688
   5.4692128  15.3858566  20.7383225   5.4542017  16.1631613  20.6336707
   8.3109308  11.8026614  26.4736657   7.8369262  11.2768376  26.9841968
   8.6827444  11.2556087  25.9051519   8.2959197  11.6442610  26.4651804
  14.5746039  16.8628989  27.8843438  14.3344261  16.0235405  27.8885864
  15.0538046  16.9429156  28.6084211  14.6098222  16.7510389  27.9918240
  16.5751226  13.6430447  25.8372697  16.3360996  13.6026281  24.9993481
  16.7385127  14.4901599  25.9638418  16.5641529  13.7622532  25.7326179
  13.1797256  18.0280396  31.7677742  13.9031455  17.5752922  31.5888762
  12.9147218  18.3085062  30.9850070  13.2478529  18.0031364  31.6256457
   2.0484124  12.6240570  28.5030621   1.4237194  12.6358961  27.8956574
   1.7129719  13.1000745  29.1521861   1.9069616  12.6959087  28.5087189
   9.7929890  21.2666732  18.6672068  10.5164089  21.7324845  18.5236641
   9.3530481  21.3340342  17.9169665   9.8345582  21.3450569  18.5356849
   8.9616045  18.1264274  29.9172757   8.3473038  17.5822325  30.2121392
   9.4783330  17.6128511  29.4378573   8.9471708  17.9700683  29.8896985
   8.2012342  19.1968544  27.6517055   7.7739950  18.5718263  27.2182491
   8.1937287  18.9143466  28.4776063   8.1371484  19.0621325  27.7096883
   1.3174870  14.2333717  30.7205489   1.4768356  13.4777041  31.1257211
   1.1367763  14.7824657  31.3746227   1.3140228  14.2027531  30.8768195
   9.2595172   6.3994953  31.2756279   8.7635734   6.5958627  30.5847846
  10.0164235   6.7987621  31.1045081   9.2981997   6.4872687  31.1476416
   6.5298052  10.0737299  27.8659589   6.5540539   9.5397411  27.1772369
   6.7809526   9.5654608  28.5285180   6.5707971   9.9198203  27.8624234
   4.9928987  18.3668857  35.3485628   4.1424618  18.5040571  35.4843273
   5.1557115  17.6332635  35.7933330   4.8912851  18.2782958  35.4341228
   4.2313738  15.3168627  29.5439233   3.4005667  15.4842445  29.3374481
   4.1765255  14.9404578  30.3288118   4.1003153  15.2858358  29.6287761
  15.6132570  16.9906807  30.2708291  16.2050410  17.6304058  30.3026490
  16.0491564  16.2929844  30.5600358  15.7651001  16.9825157  30.3189124
   7.4425960  21.4124179  30.8966185   6.9351051  21.9660026  31.3406816
   7.1452606  21.4732469  30.0784960   7.3230844  21.5030490  30.8414642
   9.6088142   9.7777499  29.7390848  10.0343213   9.3250025  29.1274375
   8.9945135   9.2237570  30.0155636   9.5816787   9.6291475  29.6895874
  10.0533740  25.3287437  18.8270129   9.3363050  25.1548299  18.3617366
  10.7040477  25.0940009  18.2945615  10.0435590  25.2683229  18.6799347
  12.6381711  14.2052025  22.5711434  11.9672901  14.7481728  22.4424500
  13.3321461  14.6746881  22.3293129  12.6410579  14.3550297  22.5166962
   6.6868445  26.3448737  27.8023192   6.4634099  25.5867567  28.1707219
   6.1978288  26.3746759  27.0803632   6.5811894  26.2370962  27.7499933
  12.8009839  10.6607909  25.4801807  13.1537449  10.2337632  26.1547606
  11.9424640  10.5758753  25.6102884  12.7259283  10.5852650  25.5996818
   1.4993524  13.2915429  23.5384654   0.7805513  13.7079561  23.8057517
   1.8705886  13.8569668  22.9876292   1.4485455  13.4364710  23.4967461
  10.7993104  13.9243278  29.4286649  10.7791032  13.7426573  30.2821428
  10.8472305  14.7955296  29.4046233  10.8027745  14.0259816  29.5509944
   8.7439434  20.5130470  35.3535126   8.7035289  19.8680147  34.7680282
   9.5562752  20.4567087  35.6660538   8.8582588  20.4089436  35.3132075
   5.3346902  26.5649196  25.2560277   4.9207300  25.9023326  24.8664119
   6.0194276  26.7127054  24.7355971   5.3745273  26.4889854  25.1216774
   8.7012196  25.7239281  26.0083893   8.3028479  25.8341551  25.2404714
   8.0863415  25.9321347  26.5910453   8.5511085  25.7712849  25.9815193
  14.2333899   5.7826321  26.4086120  13.7264763   5.0755460  26.3407297
  15.0301332   5.4519510  26.5387196  14.2761138   5.6299472  26.4185115
  10.1497914  12.2892933  22.3059783   9.9211607  12.3125635  21.4638142
  10.4095991  11.4650400  22.4254794  10.1544103  12.1709013  22.1984981
   4.4317143  14.1427406  31.9084884   3.9196046  13.5348589  32.2669915
   4.2596639  14.8583999  32.3758859   4.3306780  14.1590705  32.0301107
   3.2042677  10.8269479  23.6013979   3.6800043  11.1886559  22.9664160
   2.7031277  11.4825947  23.8814122   3.2008036  10.9763668  23.5490720
  16.4354039  20.2991248  19.3926984  16.8187644  21.0482604  19.6225081
  15.6398152  20.5457067  19.1338973  16.3747821  20.4460941  19.3884558
   8.3086213  12.0651651  34.3487139   8.8657643  11.8365460  33.7165605
   7.9847278  12.8257316  34.0722352   8.3432623  12.1435488  34.2143636
   6.0269331  15.1519304  35.3139146   6.7780658  15.4670981  35.6278700
   6.2191907  14.9498475  34.4873068   6.1660745  15.1686686  35.2382542
  12.8754621  11.2792870  22.5562942  12.8748847  11.1241527  23.4147218
  12.6710801  12.1255858  22.5004327  12.8454399  11.3813491  22.6750881
  10.5995473  15.9590372  26.2099149  11.0949138  15.2413367  26.1703169
   9.7895248  15.6561170  26.0953636  10.5539366  15.8088019  26.1872874
   6.0454084  19.8088185  18.3596153   5.2365407  19.4854859  18.3129463
   6.5528993  19.1021408  18.2924402   6.0003751  19.6569502  18.3426447
  12.6647292  18.7094060  28.8976277  13.0902363  18.1868482  28.3446702
  12.3004211  19.3074897  28.3764900  12.6733894  18.7204287  28.7385287
   2.3001371  27.0058277  27.6573623   2.6147930  27.8194666  27.6651405
   2.7094785  26.6208496  28.3255782   2.4069469  27.0686980  27.7577715
   9.2525891  22.4228324  25.2277435   9.7237069  23.1368587  25.3967420
   9.5886070  21.8227074  25.7637304   9.3721006  22.4399788  25.3309811
  11.3402876  24.0329637  37.4069507  11.4499841  23.2438198  37.7626254
  11.6693772  23.9435574  36.6043845  11.4055281  23.9035490  37.3411898
   9.8899837  22.2146258  31.9905128   9.3420783  21.5904142  31.7225193
  10.3512866  22.4040530  31.2749207   9.8767047  22.1505308  31.8455559
  12.6993702  10.2831613  29.3756320  12.1156691  10.7840819  28.9633887
  13.0197996   9.7761169  28.7420643  12.6606877  10.2823448  29.2214827
   9.4558164  23.2197331  28.5214469  10.2756537  23.0760297  28.7830764
   9.1752241  23.8443530  29.0630907   9.5354907  23.2907683  28.6402408
  19.1271499  29.9637834  26.2410275  18.2709394  30.1246332  26.2919392
  19.1739153  29.0929898  26.2615337  19.0070610  29.8588635  26.2516342
  13.5112639  39.5000551  22.0047507  12.7595538  39.1216090  21.7763552
  13.9598650  39.5318985  21.2566317  13.4662305  39.4486159  21.8605009
  18.9637598  39.9225921  17.4333054  18.6288967  40.6002843  16.9977276
  19.4764469  39.5331232  16.8449926  18.9903180  39.9650499  17.2819846
  18.5041890  41.8740190  23.3744166  18.8881269  42.4427088  22.8348941
  18.4401031  41.1489700  22.8949982  18.5515317  41.8515653  23.2238028
  15.0897395  39.5118944  24.2710280  15.1907758  38.7019298  24.5807407
  14.4939140  39.4175890  23.6409958  15.0169933  39.3783972  24.2236518
  23.7488389  33.4514485  19.7575655  23.6327914  34.2022171  20.1867793
  24.5444275  33.1938438  20.0071742  23.8492978  33.5249331  19.8579747
  14.9298134  44.4296533  25.6725136  15.5735590  44.8709697  26.0621294
  15.2554390  43.6249959  25.5855394  15.0729963  44.3761727  25.7170613
   8.2862439  35.5339230  23.8962613   8.0512623  34.7006883  23.7894882
   8.4248080  35.8143896  23.0823814   8.2718102  35.4522734  23.7604968
  10.5852527  27.7024961  26.7946921   9.9657558  27.1117608  26.6256936
  10.4836390  28.2936396  26.1611244  10.4790202  27.7029043  26.6751910
  15.6318714  37.4408508  21.0444997  15.9534555  37.9813715  20.4406305
  16.2790811  36.8705279  21.1767287  15.7744769  37.4367683  20.9752033
  17.6820422  29.4424503  21.1279384  18.3800587  29.6212630  21.6200847
  17.9972755  28.9194842  20.5049773  17.8315759  29.3918275  21.1081394
  10.3121660  31.2477242  29.0390490  10.1880356  31.8339688  29.6740309
  10.9639944  30.7537438  29.3402765  10.3895309  31.2616047  29.1776419
  17.8708358  35.8294948  21.1159175  18.3101993  35.2212048  21.5613948
  17.7213020  35.4502321  20.3444641  17.9129823  35.6833419  21.0678343
  15.3380001  34.4238959  28.3178001  15.9829003  33.9311403  27.9988950
  15.5781778  34.5663746  29.1444079  15.4690586  34.3716402  28.3927534
  17.8766092  37.2693865  27.9684894  18.1589335  36.4745271  27.7471649
  18.6052252  37.7474453  27.9889955  18.0255656  37.2228462  27.9387909
  15.8547286  24.8116899  25.2100659  15.5250616  25.2628043  24.5404357
  15.1792288  24.7333063  25.7573665  15.7057722  24.8668034  25.1923882
  21.4717694  34.1822129  18.0689945  21.3868989  35.0383096  18.2139514
  21.9602077  33.9066453  18.7372104  21.5306591  34.2679450  18.1892026
  23.0623693  20.8002422  23.4550269  22.7477134  21.4905901  23.8870692
  22.5450635  20.7447204  22.7535770  22.9388164  20.8937311  23.4147218
  22.4036127  30.8006923  19.5687680  21.8747599  31.0166557  20.2284986
  22.9261147  31.4943062  19.4888649  22.4024580  30.9350060  19.6543279
  14.2935735  34.6970140  18.3695148  13.7092950  35.2020171  18.7761012
  13.8905830  34.4712527  17.6291740  14.1475039  34.7378388  18.3200173
   9.8479764  40.4124901  25.1718819   9.3647342  41.1375391  25.1478403
  10.6603082  40.7101031  25.2828977   9.8970511  40.5627255  25.1846099
  15.9193918  39.2057082  27.7768634  15.4020859  38.8464497  27.1729942
  16.6168309  38.6819256  27.7874700  15.9459499  39.0754770  27.6898893
  18.7512950  30.9435792  16.8464068  18.9908953  31.1513776  16.0339412
  19.0728791  30.1393301  16.9553013  18.8350107  30.8549893  16.7424621
  14.0603240  22.8729188  20.6923606  14.8149208  23.2407505  20.4540657
  13.8830774  23.2468742  21.4602786  14.1457718  22.9827376  20.7708495
  12.7023961  40.9281077  25.3239099  13.4044540  40.4133066  25.3811856
  12.6221444  41.2555228  26.1285974  12.7947721  40.8995303  25.4511891
  13.7502868  31.1656664  34.4519514  13.9223371  31.0562558  35.3004796
  14.2872225  31.8111069  34.2150707  13.8547872  31.2448665  34.5424611
  12.4160304  25.2799507  17.3901719  12.2335878  25.4971387  16.5642712
  13.2785917  25.3938519  17.4460334  12.5164894  25.3289405  17.2756206
  12.0274736  37.1187429  24.8324707  12.8663636  37.3510362  24.8798469
  12.0586506  36.2491740  24.7631743  12.1556454  37.0244375  24.8289352
  12.6527439  37.5388304  29.1338013  13.1925664  37.3959435  29.8041385
  11.9697386  37.9385055  29.5022039  12.6319593  37.5767975  29.2872435
  18.0960024  22.2825917  20.4250743  18.8246184  22.1041872  19.9788899
  18.1854917  23.1243997  20.6357921  18.2166686  22.3809796  20.3904261
   8.0564584  33.7588595  29.2872434   7.7903000  32.9427712  29.4463425
   8.0703149  33.8041750  28.4167950   8.0189307  33.6445500  29.1825916
  11.9622331  28.5573679  15.9024192  11.2480509  28.2711859  16.3146625
  12.4466300  28.8970305  16.5430580  11.9281695  28.5655329  16.0579827
  12.8063191  27.2966973  31.9339442  12.1134988  26.8263953  32.1800174
  13.4223518  27.0705278  32.5081149  12.7947721  27.1934105  32.0548595
  19.1369649  37.0603633  16.2786001  19.5520798  36.7288657  15.5870496
  18.3061579  36.8272535  16.1506137  19.0757658  36.9774889  16.1576848
   8.4657998  34.5447374  26.5684179   8.2833571  34.5194260  25.7156471
   9.2007667  35.0146312  26.6073087   8.5472062  34.6108736  26.4482097
  24.5357672  34.7798884  23.7117066  24.7713262  34.9244083  22.8843917
  24.6847236  35.5441292  24.1048580  24.5923476  34.9137939  23.6480670
  11.5303750  31.2632377  33.0766287  12.2543722  31.2485408  33.5631182
  11.6319886  31.9727732  32.5788255  11.6521959  31.3657080  33.0745074
  26.3648129  33.6200550  21.5486670  26.6956346  34.1528190  20.9426765
  26.9381217  33.6739438  22.2048621  26.4981808  33.7070119  21.5564452
  18.9048699  34.7431462  37.9415234  18.1121680  35.0574974  38.1267854
  19.0197626  34.9582930  37.1036019  18.8044110  34.8215298  37.8453569
  21.5780018  31.4665453  22.2310250  21.6726873  32.2054747  22.6849876
  20.9538862  31.0382928  22.6644815  21.4989048  31.5126773  22.3618398
   8.4328908  31.4240875  26.7183245   9.0102411  31.2877326  27.3575491
   7.7342970  30.9676659  26.9728830   8.4149930  31.3363141  26.8505535
  21.8303040  33.3114193  15.4647202  21.7483202  33.3816380  16.3302189
  22.4682760  33.8743937  15.2730943  21.9122877  33.4053164  15.5637152
  15.1896211  33.0774931  24.9321728  14.9315455  32.2446665  24.9053028
  15.2444693  33.3032544  24.0914229  15.1595989  32.9872702  24.8041865
  20.2697261  25.1803381  25.0325821  19.5653588  24.6912567  25.1909740
  20.3182235  25.1925856  24.1614265  20.1727312  25.1093029  24.9265161
  14.1630923  30.6312693  25.4186623  13.5880514  30.7904861  26.0550584
  13.7866599  29.9948102  24.9555074  14.0233735  30.5610506  25.4441182
  17.8304211  29.1036042  30.2779002  17.4418644  28.6790260  29.6231193
  17.1658910  29.3518192  30.7856028  17.6751139  29.0774763  30.2566870
   3.9087742  30.2752768  23.4331064   3.9947994  29.8984636  24.2144594
   4.5363539  29.9013213  22.9551022   4.0144293  30.1638250  23.4776541
  18.9343150  33.3334647  18.4755809  19.7483789  33.6249540  18.3638580
  18.8702291  32.6794509  17.9014102  19.0445889  33.2799842  18.3744646
  14.8051058  36.8056164  23.6028121  15.4425005  36.5667912  24.1479914
  15.2306130  37.0093323  22.8681281  14.9627224  36.8007175  23.5745278
   9.4963700  39.0444501  27.4862424   9.5367846  39.3159352  26.6582204
  10.0558224  39.5686409  27.9020212   9.5847046  39.1620256  27.4254313
  15.4453873  32.0258454  17.9403010  15.8299026  31.8066161  18.6919555
  15.1965493  32.8521400  18.0704086  15.4655946  32.1156600  18.0704086
  15.6122413  25.3064869  37.6565594  15.2975854  26.0764432  37.3935157
  15.2912346  24.7435125  37.0717821  15.5181332  25.3375138  37.5306944
  17.1872530  37.2828587  25.2821907  17.2611538  37.1203759  26.1363757
  18.0042036  37.4718777  25.0382389  17.3188889  37.2865329  25.3719932
  13.1654310  23.6955391  23.2711791  12.2976736  23.7677990  23.3369400
  13.4529515  24.4977470  23.4599766  13.0794058  23.8249538  23.3086557
  15.7277116  40.2463330  20.0135380  16.0175414  39.8552311  19.2894607
  16.4580596  40.4280035  20.4540656  15.8784000  40.2157144  19.9718187
  16.3171861  35.0481076  31.0988511  15.8183554  35.7596844  31.1773399
  17.1272085  35.3681743  31.0606673  16.3627968  35.2007925  31.1045079
  13.6683031  42.2230712  23.0795530  13.4483327  41.9328067  23.8722197
  13.4477553  41.5645668  22.5513442  13.6030625  42.0830421  23.1184439
  12.5799978  34.3104029  25.3451232  12.2913227  33.6841500  25.8796959
  13.4483326  34.2524316  25.4115912  12.6660230  34.2091573  25.4342186
  15.8350987  43.5960102  21.8626222  16.4875045  43.0636545  22.0917248
  15.1376596  43.2428755  22.2494096  15.8281705  43.4649625  21.9538390
  12.7832252  35.9499280  21.2693597  13.5378220  36.3312319  21.4829059
  12.1902864  36.4010424  21.7240293  12.8068965  36.0728107  21.3676475
  23.8290905  35.9164516  21.2057202  24.3948938  36.5757726  21.1215745
  23.1818809  36.2614215  21.6773604  23.8169662  36.0646458  21.2629958
  15.2438919  27.9062120  36.3950809  14.4338695  28.2119900  36.2840651
  15.7213606  28.6267703  36.5103393  15.1942398  28.0576722  36.3957880
  14.1030478  37.1207841  26.6433712  13.5811232  37.2608133  27.3285577
  14.4904499  36.3618506  26.8335829  14.0834179  37.0293365  26.7734789
  11.0921662  27.1713650  20.7128667  10.8046458  26.8014921  19.9760614
  11.7792131  27.6408505  20.4512372  11.1510560  27.1860619  20.5643743
  20.2997483  38.8603301  20.6294281  20.0584159  38.1271161  20.2221346
  20.4798816  39.4090158  19.9760614  20.2905107  38.8325692  20.4724504
  15.5296804  34.1511860  22.0415203  15.3339587  34.7586595  21.4475506
  15.7531150  33.4579804  21.5606877  15.5331445  34.1389386  21.8831284
  13.9275334  31.0366598  22.1596072  14.6497986  31.2007756  21.6999877
  13.4483327  31.7576263  22.0535411  13.9639065  31.1664828  22.0761686
  11.5782951  33.4424671  31.2650211  12.0904048  33.7208924  30.6158971
  11.2919293  34.1813965  31.6313024  11.6117814  33.5927024  31.2240089
  20.3338120  24.2715774  22.2720372  21.0364473  24.0723522  21.7940331
  20.0682309  23.4991717  22.5789216  20.3984752  24.1278740  22.2465814
   8.6649857  27.9494863  21.5613948   8.7665993  28.7521024  21.8894923
   9.4605744  27.7482198  21.2637028   8.7977763  28.0380761  21.5649303
  15.0966676  25.5351059  31.3251253  14.9049873  25.5506194  32.1750676
  15.9465272  25.7314734  31.3017908  15.1942398  25.5665411  31.4474548
   9.4813589  28.0642041  29.3035069   9.3399081  27.2125981  29.4279577
   9.7654153  28.1070701  28.4797275   9.5021435  27.9441791  29.2002694
  19.6352182  29.9009131  23.4479558  19.3886896  29.8204882  24.2816347
  19.9637305  29.1162599  23.2542085  19.6473425  29.7735396  23.5427081
  15.5949209  32.6365850  32.8602541  15.7392585  33.2167058  32.2245651
  15.9424857  33.0142146  33.5652395  15.6676670  32.7786554  32.8701536
  14.6676964  40.8268621  29.7263568  14.8166528  40.2671537  29.0736972
  15.4476966  40.9060623  30.1096086  14.8051057  40.7554187  29.6860517
  25.0253603  35.9670744  17.9982838  24.6460412  35.1807882  17.9912128
  24.3619849  36.5157601  17.8554482  24.8712078  35.9315568  17.9763635
  18.0070903  25.7306569  31.5323076  18.4643517  26.4630543  31.6595868
  18.0827232  25.3073034  32.2910332  18.0861873  25.7763807  31.6624153
  10.2503894  25.9772388  32.6212520   9.7146084  25.3652747  32.9373287
  10.3121659  26.5520524  33.2746186  10.1799527  25.9719316  32.7647947
  22.4798229  18.9096444  25.4016919  22.5981797  19.3672907  24.6684222
  22.3060405  18.1041705  25.1153137  22.4717400  18.8590216  25.2517853
  17.8500511  39.5184263  21.8371664  18.6150402  39.2493907  21.5154329
  17.7478601  39.0334274  22.5541727  17.9482007  39.4073828  21.8951492
  15.8853281  27.7208673  28.3764900  15.0949356  27.5400133  28.6982236
  16.2813904  26.9435625  28.3595195  15.8270157  27.5796134  28.4217448
  20.3719172  36.5496447  13.8171614  21.1392157  36.6096572  13.4077466
  19.9250481  35.9776888  13.3327932  20.4192599  36.4733023  13.6849324
  21.2696967  35.3551103  26.1024346  20.5941969  35.1236335  26.6037733
  21.2789343  34.7472286  25.4766451  21.1715472  35.2310028  26.0840498
  18.3991111  30.1968932  32.8588399  18.3350253  31.0578888  32.7308536
  18.5388299  29.8800925  32.0583950  18.4106581  30.2769098  32.7216612
  23.2713702  38.2116235  18.3334524  23.3533539  39.0183221  18.0095975
  23.7563444  38.2312194  19.0575297  23.3550860  38.3336898  18.3921423
  17.0810205  32.8901071  27.0004602  16.6572454  33.0905570  26.2643620
  16.9055060  32.0429919  27.1128902  16.9921086  32.7949853  26.9078292
  16.5821899  44.4051584  29.4626059  17.0717829  43.7062373  29.2801724
  16.0106131  44.1075454  30.0502117  16.5706429  44.2577808  29.5227100
  12.3692650  33.3853123  22.4332574  12.5257269  33.3199925  23.2888567
  12.7093243  34.1601675  22.2211254  12.4425885  33.4902321  22.5287169
  18.9071795  32.7611006  21.3025938  19.4487340  32.2581387  21.7664558
  19.2218354  32.7076201  20.4915423  19.0336192  32.6790427  21.2509750
  17.0758245  38.1528358  18.5865966  17.1451065  37.2942896  18.7258966
  17.8546700  38.3700239  18.2584990  17.2011095  38.0581222  18.5583123
  21.4665732  40.5766059  22.8002459  21.0745524  40.2732774  22.0825325
  21.6218804  41.4135149  22.6107413  21.4319322  40.6549896  22.6658956
   8.9426912  30.5688073  22.7493342   9.3225877  30.9872618  22.0853609
   8.3682277  31.1501529  23.0562185   8.9138237  30.7165932  22.6970083
  21.6305407  37.1416048  22.7408490  21.2720062  37.3130691  23.5172522
  21.1444118  37.6029253  22.1836488  21.5064104  37.2355019  22.7733759
  19.4475793  20.7647246  26.3435581  18.5769351  20.7385967  26.2968890
  19.7016134  20.5924438  25.5261427  19.3569353  20.7357390  26.2155718
  16.4193772  32.8215213  15.2808724  16.7086297  33.5980096  15.5552298
  16.5065571  32.3103945  15.9823223  16.4748029  32.8607132  15.4251222
  19.3153660  30.6696447  37.0760248  19.7853291  31.2938564  37.4628122
  19.3615540  30.0013423  37.6353462  19.3921536  30.6631127  37.2160319
  16.4724933  22.7753475  27.8009051  15.9563422  22.0833666  27.9260630
  15.9118862  23.4424252  27.7471650  16.3131447  22.7716732  27.8115117
  18.5417167  23.3146435  29.6301904  18.1548920  23.3395466  30.4115434
  18.0550104  22.7488113  29.1776420  18.4129676  23.2342186  29.6789808
  18.2074309  20.2013420  31.9212164  18.8367427  20.7373720  31.6433234
  18.3760171  20.1090779  32.7725729  18.3252103  20.2674782  32.0060692
  18.0088223  24.9884615  34.1938575  18.8361653  24.7169764  34.2497190
  18.0296069  25.7845457  34.5502394  18.1341073  25.0664369  34.2553758
  12.5857713  32.1348478  27.3808836  11.7445720  32.0352352  27.5887730
  12.7947721  32.9043958  27.7323157  12.4922406  32.2340521  27.4636151
  10.0633280  29.7568015  25.2093587   9.6689978  29.8311026  24.4343696
   9.5073397  30.1425961  25.7601948   9.9236093  29.8249789  25.1761247
  21.6998227  22.7349309  24.8897466  21.9047820  22.6671617  25.7354463
  21.3724651  23.5408130  24.8218643  21.6813475  22.8435249  25.0057121
  16.3974378  30.0629877  26.6306434  16.0937516  29.5085865  27.2316841
  15.6953799  30.2422087  26.1434468  16.2490588  30.0074659  26.6476139
  15.4540475  27.3730397  21.1951135  15.7300210  26.6549309  20.7828703
  16.0539145  27.9715317  20.9872241  15.5833740  27.3550767  21.1031897
  14.4592729  37.2779598  31.3378531  14.3513084  37.2881660  32.2040589
  14.6688511  38.1034378  31.1483485  14.4742840  37.4020672  31.4382623
  24.9531915  23.2881073  24.3700231  24.3406228  23.7751475  24.7553963
  25.0496090  22.6124564  24.9137882  24.8769812  23.2599382  24.5079089
  18.9550996  25.0443914  19.4697730  19.4094742  25.2154474  20.1945575
  19.4291041  24.4312025  19.0695506  19.0919316  24.9794799  19.5171492
  12.4766521  34.5292240  28.8000469  11.8854454  35.1701738  28.7703484
  13.2387545  34.9529857  28.7731768  12.5014782  34.6868078  28.7915616
  12.8727144  25.6894238  29.4668487  13.3328625  25.7633167  30.2043610
  12.9183251  26.4875492  29.1168308  12.9477699  25.8188385  29.5241243
  14.5210494  26.3560933  34.0340514  14.1296059  25.7094280  34.4696291
  14.6896356  26.9472368  34.6534769  14.4881404  26.3475201  34.1903220
  22.2356037  39.9801552  26.2332493  22.0375726  40.4692366  25.5388705
  21.6143748  40.1842793  26.8116627  22.1143602  40.0818090  26.2155717
  16.2964016  31.7486448  20.5742738  17.0406061  32.1360725  20.8125688
  16.4424712  30.9043874  20.7383225  16.4274601  31.6816921  20.6336707
  18.2143591  23.5436707  25.6074599  17.3679636  23.7159515  25.4815949
  18.2114724  22.7386051  25.9440427  18.0890741  23.4497736  25.6385726
  19.2841892  27.3211922  26.4736657  18.8101846  26.7953684  26.9841968
  19.6560027  26.7741395  25.9051519  19.2691781  27.1627918  26.4651804
   9.6614922  29.3183428  31.8420203  10.5240535  29.2179138  31.7557533
   9.3306705  28.7378138  31.2805775   9.7400118  29.2175055  31.7465609
  21.2125391  28.2148476  19.5362411  20.6848410  28.2977220  18.8468120
  21.6721099  28.9566348  19.5327055  21.2027242  28.3369139  19.4337106
  13.0216708  28.1425877  28.5030621  12.3969778  28.1544269  27.8956574
  12.6862303  28.6186053  29.1521861  12.8802200  28.2144394  28.5087189
  13.2058456  26.4850996  14.5603306  12.8571261  27.1370721  15.0234855
  12.7254902  26.4708109  13.8327177  13.0828700  26.5794049  14.5214397
   9.7342383  36.2026338  29.9434385   9.2042308  35.5118776  29.9929360
  10.0067477  36.1936523  29.1147094   9.6967106  36.0993469  29.8281801
  20.7662474  36.7852040  18.6672068  21.4896673  37.2510153  18.5236641
  20.3263065  36.8525650  17.9169665  20.8078166  36.8635877  18.5356849
  19.1744926  34.7153852  27.6517055  18.7472534  34.0903571  27.2182491
  19.1669870  34.4328774  28.4776063  19.1104067  34.5806633  27.7096883
  12.2907453  29.7519025  30.7205489  12.4500940  28.9962349  31.1257211
  12.1100347  30.3009965  31.3746227  12.2872812  29.7212839  30.8768195
  20.2327756  21.9180261  31.2756279  19.7368317  22.1143935  30.5847846
  20.9896818  22.3172929  31.1045081  20.2714581  22.0057995  31.1476416
  17.5030636  25.5922607  27.8659589  17.5273123  25.0582719  27.1772369
  17.7542109  25.0839916  28.5285180  17.5440554  25.4383511  27.8624234
   5.0138225  32.8754102  27.3002734   4.9081675  32.8300946  26.4354818
   4.2638445  33.2207882  27.5817018   4.8873828  32.9195010  27.2140063
  13.7831958  24.3193425  27.2465334  13.8230329  24.8202632  27.9600041
  12.9581623  24.4103819  26.9771257  13.6671484  24.4075241  27.3115872
  15.9661571  33.8854165  35.3485628  15.1157201  34.0225879  35.4843273
  16.1289698  33.1517943  35.7933330  15.8645434  33.7968266  35.4341228
  15.2046321  30.8353935  29.5439233  14.3738251  31.0027753  29.3374481
  15.1497838  30.4589886  30.3288118  15.0735736  30.8043666  29.6287761
  13.0130105  24.3262828  35.1795644  13.6382808  23.7824961  35.4525076
  12.5580584  23.8457745  34.6103434  13.0378365  24.1752309  35.1357237
  13.5782365  29.1109526  20.0729351  13.7185326  29.6081991  20.7757992
  14.0764898  28.4095821  20.2143564  13.6723446  29.0811505  20.1980930
  13.6082587  29.9776637  17.4021927  14.2427667  30.5737062  17.3371389
  13.6908198  29.6780095  18.2167797  13.7139138  30.0217546  17.5125014
  15.1861570  25.9090613  17.3767369  15.5077411  25.4293695  16.7226632
  15.4488514  26.7190259  17.1858181  15.2727596  25.9580511  17.2522861
  18.4158543  36.9309487  30.8966185  17.9083634  37.4845334  31.3406816
  18.1185189  36.9917777  30.0784960  18.2963428  37.0215798  30.8414642
  10.1135575  32.1744478  20.6711473  10.6227805  32.7708986  21.0522779
  10.5869848  31.9070452  19.9887893  10.2578951  32.2230294  20.6265996
  21.0266323  40.8472745  18.8270129  20.3095633  40.6733607  18.3617366
  21.6773061  40.6125317  18.2945615  21.0168174  40.7868537  18.6799347
  19.0214948  21.7677907  23.1481425  18.3783266  21.6175553  23.7166564
  18.6814355  21.5220252  22.3830530  18.8760026  21.7090029  23.1184441
  17.6601028  41.8634045  27.8023192  17.4366683  41.1052875  28.1707219
  17.1710872  41.8932067  27.0803632  17.5544477  41.7556270  27.7499933
  23.7742422  26.1793217  25.4801807  24.1270032  25.7522940  26.1547606
  22.9157224  26.0944061  25.6102884  23.6991867  26.1037958  25.5996818
  12.4726107  28.8100737  23.5384654  11.7538096  29.2264869  23.8057517
  12.8438469  29.3754975  22.9876292  12.4218039  28.9550018  23.4967461
  16.3079485  42.0834503  25.2560277  15.8939884  41.4208634  24.8664119
  16.9926860  42.2312362  24.7355971  16.3477857  42.0075162  25.1216774
  19.6744779  41.2424589  26.0083893  19.2761063  41.3526859  25.2404714
  19.0595999  41.4506655  26.5910453  19.5243669  41.2898157  25.9815193
  18.2472681  27.8498737  18.8758033  17.6537521  28.1715733  18.3242600
  18.2847959  27.0039832  18.6679139  18.1647071  27.7723065  18.7640805
  25.2066482  21.3011629  26.4086120  24.6997347  20.5940768  26.3407297
  26.0033916  20.9704818  26.5387196  25.2493721  21.1484780  26.4185115
  21.1230498  27.8078241  22.3059783  20.8944191  27.8310943  21.4638142
  21.3828574  26.9835708  22.4254794  21.1276686  27.6894321  22.1984981
  15.4049726  29.6612714  31.9084884  14.8928630  29.0533897  32.2669915
  15.2329223  30.3769307  32.3758859  15.3039364  29.6776013  32.0301107
  10.2515441  28.1050289  34.5587245  10.0818031  28.7651664  34.0135452
   9.8081391  28.3156851  35.2799735  10.1614775  28.2336272  34.5848875
  14.1775261  26.3454787  23.6013979  14.6532627  26.7071867  22.9664160
  13.6763860  27.0011255  23.8814122  14.1740620  26.4948976  23.5490720
  27.4086622  35.8176555  19.3926984  27.7920228  36.5667912  19.6225081
  26.6130735  36.0642375  19.1338973  27.3480404  35.9646249  19.3884558
  19.2818797  27.5836959  34.3487139  19.8390227  27.3550768  33.7165605
  18.9579862  28.3442624  34.0722352  19.3165207  27.6620795  34.2143636
   7.1517506  31.0097155  29.8175735   6.6044225  30.3397801  29.9356604
   7.9409884  30.6427003  29.8819203   7.1869689  30.8562141  29.8444436
  17.0001914  30.6704612  35.3139146  17.7513241  30.9856289  35.6278700
  17.1924491  30.4683783  34.4873068  17.1393328  30.6871994  35.2382542
  16.2201914  28.4895987  16.9687363  16.6000879  28.5075616  16.1838478
  15.4794510  28.9349976  16.8478210  16.1670751  28.5577762  16.8350931
  23.8487204  26.7978178  22.5562942  23.8481431  26.6426835  23.4147218
  23.6443384  27.6441165  22.5004327  23.8186982  26.8998799  22.6750881
   5.9104475  30.2217963  26.9721758   5.7326236  29.7694572  27.6976674
   5.6223497  31.0244124  27.1560236   5.8417428  30.2740521  27.1065261
  17.0186668  35.3273493  18.3596153  16.2097991  35.0040167  18.3129463
  17.5261577  34.6206716  18.2924402  16.9736335  35.1754810  18.3426447
   7.6476945  32.7545687  24.0843517   6.7822465  32.7431377  23.9726289
   7.7475761  32.5675909  24.9314657   7.5351112  32.7251748  24.1932462
  13.2733955  42.5243585  27.6573623  13.5880514  43.3379974  27.6651405
  13.6827368  42.1393804  28.3255782  13.3802053  42.5872288  27.7577715
  20.2258475  37.9413632  25.2277435  20.6969653  38.6553895  25.3967420
  20.5618653  37.3412382  25.7637304  20.3453590  37.9585096  25.3309811
  17.1427970  22.7141103  32.1835530  17.2755875  21.9172096  32.5116505
  17.5273122  23.2407506  32.7633805  17.2184298  22.6741019  32.3179033
  20.2160325  19.6371429  28.7816623  19.4106288  19.5269158  29.0984461
  20.0867060  19.7383884  27.9246489  20.0780458  19.6355099  28.7024663
  16.2121084  24.7157515  19.6514995  17.0336779  24.8855828  19.4096690
  15.7490735  24.8704776  18.9281292  16.2652247  24.7639248  19.5086639
  14.8016416  22.7100278  30.4313423  15.3460829  22.3691404  31.0217765
  14.8553352  23.5685739  30.5734708  14.8905536  22.7855537  30.5395297
  10.6146975  36.4716694  27.3052231  11.2191832  36.4312528  26.6766052
  10.4074288  37.3187846  27.3356287  10.6735872  36.5904696  27.2168348
   5.8498257  35.4551311  27.1751154   5.7522535  34.6447583  27.4841211
   6.6327127  35.4343105  26.7897423   5.9514394  35.3318401  27.1638017
  36.9004398  46.3947490  21.4857345  36.8698402  47.2492127  21.6575614
  37.4985746  46.0942783  22.0443489  36.9841555  46.4763987  21.5932147
  30.1004082  45.4823141  26.2410275  29.2441978  45.6431640  26.2919392
  30.1471736  44.6115205  26.2615337  29.9803194  45.3773943  26.2516342
  24.4845222  55.0185859  22.0047507  23.7328122  54.6401398  21.7763552
  24.9331234  55.0504293  21.2566317  24.4394889  54.9671467  21.8605009
  29.9370182  55.4411229  17.4333054  29.6021551  56.1188150  16.9977276
  30.4497052  55.0516540  16.8449926  29.9635763  55.4835807  17.2819846
  29.4774473  57.3925498  23.3744166  29.8613853  57.9612396  22.8348941
  29.4133615  56.6675008  22.8949982  29.5247901  57.3700961  23.2238028
  32.9455903  47.5415185  28.8841927  33.4911864  48.2200272  28.9435897
  32.8872780  47.4002646  28.0243509  33.0171818  47.6207187  28.7653988
  26.0629978  55.0304252  24.2710280  26.1640341  54.2204605  24.5807407
  25.4671724  54.9361198  23.6409958  25.9902517  54.8969280  24.2236518
  34.7220972  48.9699792  19.7575655  34.6060498  49.7207479  20.1867793
  35.5176859  48.7123746  20.0071742  34.8225562  49.0434639  19.8579747
  25.9030718  59.9481841  25.6725136  26.5468173  60.3895005  26.0621294
  26.2286973  59.1435267  25.5855394  26.0462547  59.8947035  25.7170613
  19.2595023  51.0524538  23.8962613  19.0245207  50.2192190  23.7894882
  19.3980663  51.3329204  23.0823814  19.2450685  50.9708041  23.7604968
  21.5585110  43.2210269  26.7946921  20.9390142  42.6302916  26.6256936
  21.4568974  43.8121704  26.1611244  21.4522786  43.2214351  26.6751910
  26.6051298  52.9593816  21.0444997  26.9267139  53.4999023  20.4406305
  27.2523394  52.3890587  21.1767287  26.7477353  52.9552991  20.9752033
  28.6553006  44.9609810  21.1279384  29.3533170  45.1397938  21.6200847
  28.9705338  44.4380150  20.5049773  28.8048343  44.9103583  21.1081394
  21.2854243  46.7662550  29.0390490  21.1612940  47.3524996  29.6740309
  21.9372528  46.2722746  29.3402765  21.3627892  46.7801355  29.1776419
  28.8440941  51.3480256  21.1159175  29.2834577  50.7397356  21.5613948
  28.6945604  50.9687629  20.3444641  28.8862407  51.2018727  21.0678343
  26.3112584  49.9424267  28.3178001  26.9561587  49.4496710  27.9988950
  26.5514361  50.0849054  29.1444079  26.4423169  49.8901710  28.3927534
  28.8498675  52.7879173  27.9684894  29.1321918  51.9930579  27.7471649
  29.5784836  53.2659761  27.9889955  28.9988239  52.7413770  27.9387909
  26.8279869  40.3302207  25.2100659  26.4983199  40.7813351  24.5404357
  26.1524871  40.2518370  25.7573665  26.6790306  40.3853342  25.1923882
  32.4450278  49.7007437  18.0689945  32.3601573  50.5568403  18.2139514
  32.9334661  49.4251761  18.7372104  32.5039175  49.7864758  18.1892026
  33.3768711  46.3192231  19.5687680  32.8480182  46.5351864  20.2284986
  33.8993731  47.0128369  19.4888649  33.3757164  46.4535368  19.6543279
  25.2668319  50.2155448  18.3695148  24.6825534  50.7205479  18.7761012
  24.8638414  49.9897835  17.6291740  25.1207622  50.2563696  18.3200173
  20.8212347  55.9310209  25.1718819  20.3379926  56.6560699  25.1478403
  21.6335666  56.2286339  25.2828977  20.8703095  56.0812563  25.1846099
  26.8926501  54.7242390  27.7768634  26.3753443  54.3649805  27.1729942
  27.5900893  54.2004564  27.7874700  26.9192082  54.5940078  27.6898893
  29.7245533  46.4621100  16.8464068  29.9641537  46.6699084  16.0339412
  30.0461374  45.6578609  16.9553013  29.8082691  46.3735201  16.7424621
  25.0335823  38.3914496  20.6923606  25.7881791  38.7592813  20.4540657
  24.8563358  38.7654050  21.4602786  25.1190302  38.5012683  20.7708495
  23.6756545  56.4466385  25.3239099  24.3777124  55.9318374  25.3811856
  23.5954028  56.7740536  26.1285974  23.7680305  56.4180611  25.4511891
  23.3892888  40.7984815  17.3901719  23.2068461  41.0156695  16.5642712
  24.2518501  40.9123827  17.4460334  23.4897477  40.8474712  17.2756206
  23.0007320  52.6372737  24.8324707  23.8396219  52.8695670  24.8798469
  23.0319089  51.7677048  24.7631743  23.1289038  52.5429683  24.8289352
  23.6260023  53.0573612  29.1338013  24.1658248  52.9144743  29.8041385
  22.9429969  53.4570363  29.5022039  23.6052177  53.0953283  29.2872435
  29.0692607  37.8011225  20.4250743  29.7978768  37.6227180  19.9788899
  29.1587500  38.6429305  20.6357921  29.1899269  37.8995104  20.3904261
  19.0297168  49.2773903  29.2872434  18.7635583  48.4613019  29.4463425
  19.0435732  49.3227058  28.4167950  18.9921890  49.1630808  29.1825916
  22.9354915  44.0758987  15.9024192  22.2213092  43.7897167  16.3146625
  23.4198884  44.4155613  16.5430580  22.9014278  44.0840637  16.0579827
  30.1102233  52.5788941  16.2786001  30.5253381  52.2473965  15.5870496
  29.2794163  52.3457843  16.1506137  30.0490242  52.4960197  16.1576848
  19.4390582  50.0632682  26.5684179  19.2566155  50.0379568  25.7156471
  20.1740251  50.5331620  26.6073087  19.5204646  50.1294044  26.4482097
  22.5036333  46.7817685  33.0766287  23.2276306  46.7670716  33.5631182
  22.6052470  47.4913040  32.5788255  22.6254542  46.8842388  33.0745074
  32.5512602  46.9850761  22.2310250  32.6459456  47.7240055  22.6849876
  31.9271445  46.5568236  22.6644815  32.4721632  47.0312081  22.3618398
  19.4061492  46.9426183  26.7183245  19.9834995  46.8062634  27.3575491
  18.7075554  46.4861967  26.9728830  19.3882513  46.8548449  26.8505535
  32.8035623  48.8299501  15.4647202  32.7215786  48.9001688  16.3302189
  33.4415344  49.3929244  15.2730943  32.8855460  48.9238472  15.5637152
  26.1628794  48.5960239  24.9321728  25.9048039  47.7631973  24.9053028
  26.2177277  48.8217851  24.0914229  26.1328572  48.5058010  24.8041865
  31.2429844  40.6988689  25.0325821  30.5386171  40.2097875  25.1909740
  31.2914819  40.7111164  24.1614265  31.1459896  40.6278337  24.9265161
  25.1363506  46.1498001  25.4186623  24.5613098  46.3090169  26.0550584
  24.7599183  45.5133410  24.9555074  24.9966319  46.0795814  25.4441182
  28.8036795  44.6221350  30.2779002  28.4151228  44.1975568  29.6231193
  28.1391493  44.8703500  30.7856028  28.6483723  44.5960071  30.2566870
  38.4460064  44.3796355  23.0526832  38.1896629  43.5676296  22.8624714
  39.2889378  44.3873922  22.8257019  38.5326090  44.2608352  22.9911649
  14.8820325  45.7938076  23.4331064  14.9680577  45.4169944  24.2144594
  15.5096123  45.4198521  22.9551022  14.9876876  45.6823558  23.4776541
  32.6263157  38.3195979  27.7902986  33.0073668  37.6374150  28.1770860
  31.8226441  38.0305581  27.6078650  32.5639618  38.1763028  27.8207042
  29.9075733  48.8519955  18.4755809  30.7216372  49.1434848  18.3638580
  29.8434875  48.1979817  17.9014102  30.0178472  48.7985150  18.3744646
  25.7783642  52.3241472  23.6028121  26.4157588  52.0853220  24.1479914
  26.2038713  52.5278631  22.8681281  25.9359808  52.3192483  23.5745278
  20.4696284  54.5629809  27.4862424  20.5100429  54.8344660  26.6582204
  21.0290808  55.0871717  27.9020212  20.5579630  54.6805564  27.4254313
  26.4186457  47.5443762  17.9403010  26.8031609  47.3251469  18.6919555
  26.1698077  48.3706707  18.0704086  26.4388529  47.6341908  18.0704086
  28.1605114  52.8013895  25.2821907  28.2344122  52.6389067  26.1363757
  28.9774620  52.9904084  25.0382389  28.2921472  52.8050637  25.3719932
  21.9210870  53.1471758  22.3116350  21.0948988  53.3933495  22.1850629
  21.9822861  53.0683839  23.1778408  21.8085037  53.1716707  22.4205295
  24.1386894  39.2140699  23.2711791  23.2709319  39.2863298  23.3369400
  24.4262098  40.0162778  23.4599766  24.0526642  39.3434846  23.3086557
  26.7009699  55.7648638  20.0135380  26.9907998  55.3737619  19.2894607
  27.4313180  55.9465343  20.4540656  26.8516583  55.7342452  19.9718187
  24.6415615  57.7416020  23.0795530  24.4215910  57.4513375  23.8722197
  24.4210137  57.0830975  22.5513442  24.5763209  57.6015729  23.1184439
  23.5532562  49.8289337  25.3451232  23.2645811  49.2026808  25.8796959
  24.4215910  49.7709624  25.4115912  23.6392814  49.7276881  25.4342186
  26.8083571  59.1145410  21.8626222  27.4607629  58.5821853  22.0917248
  26.1109179  58.7614063  22.2494096  26.8014288  58.9834933  21.9538390
  23.7564835  51.4684588  21.2693597  24.5110803  51.8497627  21.4829059
  23.1635448  51.9195732  21.7240293  23.7801549  51.5913415  21.3676475
  34.8023489  51.4349824  21.2057202  35.3681522  52.0943034  21.1215745
  34.1551392  51.7799522  21.6773604  34.7902245  51.5831766  21.2629958
  25.0763062  52.6393149  26.6433712  24.5543815  52.7793441  27.3285577
  25.4637082  51.8803814  26.8335829  25.0566763  52.5478673  26.7734789
  22.0654246  42.6898958  20.7128667  21.7779042  42.3200228  19.9760614
  22.7524714  43.1593813  20.4512372  22.1243143  42.7045927  20.5643743
  31.2730067  54.3788609  20.6294281  31.0316743  53.6456469  20.2221346
  31.4531400  54.9275466  19.9760614  31.2637691  54.3511000  20.4724504
  26.5029388  49.6697168  22.0415203  26.3072170  50.2771903  21.4475506
  26.7263733  48.9765112  21.5606877  26.5064029  49.6574694  21.8831284
  24.9007918  46.5551906  22.1596072  25.6230570  46.7193064  21.6999877
  24.4215910  47.2761571  22.0535411  24.9371648  46.6850136  22.0761686
  32.8601425  42.8915705  27.5392756  32.0212526  42.9176984  27.3031020
  32.9305792  43.5386440  28.1198103  32.7469819  42.9911831  27.5901873
  22.5515534  48.9609979  31.2650211  23.0636631  49.2394232  30.6158971
  22.2651877  49.6999273  31.6313024  22.5850397  49.1112332  31.2240089
  31.3070703  39.7901082  22.2720372  32.0097056  39.5908830  21.7940331
  31.0414892  39.0177024  22.5789216  31.3717336  39.6464048  22.2465814
  19.6382441  43.4680171  21.5613948  19.7398577  44.2706332  21.8894923
  20.4338327  43.2667506  21.2637028  19.7710346  43.5566069  21.5649303
  30.6084765  45.4194439  23.4479558  30.3619479  45.3390190  24.2816347
  30.9369888  44.6347907  23.2542085  30.6206009  45.2920704  23.5427081
  34.5032814  52.1277798  27.2366339  34.3647173  52.8258844  27.7415081
  33.7232812  51.9726455  26.8802521  34.3676041  52.2077965  27.2592613
  25.6409547  56.3453929  29.7263568  25.7899111  55.7856845  29.0736972
  26.4209549  56.4245931  30.1096086  25.7783641  56.2739495  29.6860517
  35.9986187  51.4856052  17.9982838  35.6192995  50.6993190  17.9912128
  35.3352432  52.0342909  17.8554482  35.8444662  51.4500876  17.9763635
  28.1662848  56.5168572  31.0048058  28.0906519  55.8477383  31.5598847
  28.0952707  57.2186360  31.5188725  28.1443455  56.5213480  31.1624907
  28.8233095  55.0369571  21.8371664  29.5882986  54.7679215  21.5154329
  28.7211185  54.5519581  22.5541727  28.9214590  54.9259136  21.8951492
  26.8585865  43.2393981  28.3764900  26.0681939  43.0585441  28.6982236
  27.2546487  42.4620933  28.3595195  26.8002741  43.0981441  28.4217448
  31.3451755  52.0681755  13.8171614  32.1124741  52.1281880  13.4077466
  30.8983064  51.4962196  13.3327932  31.3925183  51.9918331  13.6849324
  32.2429551  50.8736411  26.1024346  31.5674553  50.6421643  26.6037733
  32.2521927  50.2657594  25.4766451  32.1448056  50.7495336  26.0840498
  34.2446286  53.7301543  18.3334524  34.3266123  54.5368529  18.0095975
  34.7296028  53.7497502  19.0575297  34.3283443  53.8522205  18.3921423
  28.0542789  48.4086379  27.0004602  27.6305038  48.6090878  26.2643620
  27.8787644  47.5615227  27.1128902  27.9653669  48.3135160  26.9078292
  27.5554482  59.9236892  29.4626059  28.0450413  59.2247681  29.2801724
  26.9838715  59.6260762  30.0502117  27.5439012  59.7763116  29.5227100
  23.3425234  48.9038430  22.4332574  23.4989853  48.8385233  23.2888567
  23.6825827  49.6786983  22.2211254  23.4158469  49.0087629  22.5287169
  29.8804378  48.2796314  21.3025938  30.4219924  47.7766695  21.7664558
  30.1950937  48.2261509  20.4915423  30.0068775  48.1975735  21.2509750
  28.0490828  53.6713666  18.5865966  28.1183648  52.8128204  18.7258966
  28.8279283  53.8885546  18.2584990  28.1743678  53.5766530  18.5583123
  32.4398316  56.0951367  22.8002459  32.0478107  55.7918082  22.0825325
  32.5951388  56.9320457  22.6107413  32.4051906  56.1735204  22.6658956
  19.9159495  46.0873381  22.7493342  20.2958460  46.5057926  22.0853609
  19.3414860  46.6686837  23.0562185  19.8870820  46.2351240  22.6970083
  32.6037990  52.6601356  22.7408490  32.2452645  52.8315999  23.5172522
  32.1176701  53.1214561  22.1836488  32.4796687  52.7540327  22.7733759
  27.3926356  48.3400521  15.2808724  27.6818881  49.1165404  15.5552298
  27.4798155  47.8289253  15.9823223  27.4480612  48.3792439  15.4251222
  23.5590297  47.6533786  27.3808836  22.7178303  47.5537660  27.5887730
  23.7680305  48.4229266  27.7323157  23.4654989  47.7525829  27.4636151
  21.0365864  45.2753323  25.2093587  20.6422562  45.3496334  24.4343696
  20.4805981  45.6611269  25.7601948  20.8968676  45.3435097  25.1761247
  27.3706962  45.5815185  26.6306434  27.0670099  45.0271173  27.2316841
  26.6686382  45.7607395  26.1434468  27.2223172  45.5259967  26.6476139
  26.4273059  42.8915705  21.1951135  26.7032793  42.1734617  20.7828703
  27.0271728  43.4900625  20.9872241  26.5566323  42.8736075  21.1031897
  25.4325313  52.7964906  31.3378531  25.3245668  52.8066968  32.2040589
  25.6421094  53.6219686  31.1483485  25.4475424  52.9205980  31.4382623
  35.9264498  38.8066381  24.3700231  35.3138812  39.2936783  24.7553963
  36.0228673  38.1309872  24.9137882  35.8502396  38.7784690  24.5079089
  29.9283579  40.5629222  19.4697730  30.3827326  40.7339782  20.1945575
  30.4023625  39.9497333  19.0695506  30.0651899  40.4980107  19.5171492
  23.4499105  50.0477548  28.8000469  22.8587038  50.6887046  28.7703484
  24.2120128  50.4715165  28.7731768  23.4747365  50.2053386  28.7915616
  27.2696599  47.2671756  20.5742738  28.0138644  47.6546033  20.8125688
  27.4157295  46.4229182  20.7383225  27.4007184  47.2002229  20.6336707
  30.2574475  42.8397230  26.4736657  29.7834429  42.3138992  26.9841968
  30.6292611  42.2926703  25.9051519  30.2424364  42.6813226  26.4651804
  32.1857975  43.7333784  19.5362411  31.6580993  43.8162528  18.8468120
  32.6453683  44.4751656  19.5327055  32.1759825  43.8554447  19.4337106
  23.9949291  43.6611185  28.5030621  23.3702361  43.6729577  27.8956574
  23.6594886  44.1371361  29.1521861  23.8534783  43.7329702  28.5087189
  24.1791040  42.0036304  14.5603306  23.8303844  42.6556029  15.0234855
  23.6987486  41.9893417  13.8327177  24.0561284  42.0979357  14.5214397
  20.7074967  51.7211645  29.9434385  20.1774891  51.0304084  29.9929360
  20.9800060  51.7121831  29.1147094  20.6699689  51.6178777  29.8281801
  31.7395057  52.3037348  18.6672068  32.4629256  52.7695461  18.5236641
  31.2995648  52.3710957  17.9169665  31.7810750  52.3821185  18.5356849
  30.9081212  49.1634890  29.9172757  30.2938205  48.6192940  30.2121392
  31.4248497  48.6499127  29.4378573  30.8936875  49.0071299  29.8896985
  30.1477510  50.2339160  27.6517055  29.7205118  49.6088879  27.2182491
  30.1402454  49.9514082  28.4776063  30.0836651  50.0991941  27.7096883
  23.2640037  45.2704333  30.7205489  23.4233523  44.5147657  31.1257211
  23.0832930  45.8195273  31.3746227  23.2605396  45.2398147  30.8768195
  28.4763219  41.1107915  27.8659589  28.5005706  40.5768027  27.1772369
  28.7274693  40.6025223  28.5285180  28.5173138  40.9568819  27.8624234
  15.9870809  48.3939410  27.3002734  15.8814258  48.3486254  26.4354818
  15.2371029  48.7393190  27.5817018  15.8606412  48.4380318  27.2140063
  24.7564541  39.8378733  27.2465334  24.7962913  40.3387939  27.9600041
  23.9314206  39.9289127  26.9771257  24.6404067  39.9260549  27.3115872
  26.1778905  46.3539243  29.5439233  25.3470835  46.5213061  29.3374481
  26.1230422  45.9775194  30.3288118  26.0468320  46.3228974  29.6287761
  24.5514949  44.6294834  20.0729351  24.6917910  45.1267299  20.7757992
  25.0497481  43.9281129  20.2143564  24.6456030  44.5996813  20.1980930
  24.5815171  45.4961945  17.4021927  25.2160251  46.0922370  17.3371389
  24.6640782  45.1965403  18.2167797  24.6871722  45.5402853  17.5125014
  26.1594154  41.4275921  17.3767369  26.4809995  40.9479003  16.7226632
  26.4221098  42.2375567  17.1858181  26.2460179  41.4765819  17.2522861
  21.0868159  47.6929786  20.6711473  21.5960388  48.2894294  21.0522779
  21.5602431  47.4255760  19.9887893  21.2311535  47.7415601  20.6265996
  31.9998907  56.3658053  18.8270129  31.2828217  56.1918915  18.3617366
  32.6505645  56.1310625  18.2945615  31.9900757  56.3053845  18.6799347
  34.5846878  45.2422641  22.5711434  33.9138068  45.7852344  22.4424500
  35.2786628  45.7117497  22.3293129  34.5875746  45.3920913  22.5166962
  28.6333612  57.3819353  27.8023192  28.4099266  56.6238183  28.1707219
  28.1443455  57.4117374  27.0803632  28.5277061  57.2741578  27.7499933
  34.7475006  41.6978525  25.4801807  35.1002616  41.2708248  26.1547606
  33.8889807  41.6129368  25.6102884  34.6724450  41.6223266  25.5996818
  23.4458691  44.3286045  23.5384654  22.7270680  44.7450177  23.8057517
  23.8171053  44.8940283  22.9876292  23.3950622  44.4735326  23.4967461
  27.2812069  57.6019811  25.2560277  26.8672468  56.9393942  24.8664119
  27.9659443  57.7497670  24.7355971  27.3210441  57.5260470  25.1216774
  30.6477363  56.7609897  26.0083893  30.2493646  56.8712167  25.2404714
  30.0328583  56.9691963  26.5910453  30.4976252  56.8083465  25.9815193
  29.2205265  43.3684045  18.8758033  28.6270104  43.6901041  18.3242600
  29.2580543  42.5225140  18.6679139  29.1379654  43.2908373  18.7640805
  32.0963082  43.3263549  22.3059783  31.8676775  43.3496250  21.4638142
  32.3561158  42.5021016  22.4254794  32.1009270  43.2079629  22.1984981
  25.1507844  41.8640095  23.6013979  25.6265210  42.2257175  22.9664160
  24.6496444  42.5196563  23.8814122  25.1473203  42.0134284  23.5490720
  18.1250089  46.5282463  29.8175735  17.5776809  45.8583108  29.9356604
  18.9142467  46.1612311  29.8819203  18.1602273  46.3747449  29.8444436
  27.1934497  44.0081295  16.9687363  27.5733462  44.0260924  16.1838478
  26.4527093  44.4535284  16.8478210  27.1403335  44.0763070  16.8350931
  34.8219788  42.3163486  22.5562942  34.8214014  42.1612143  23.4147218
  34.6175968  43.1626473  22.5004327  34.7919566  42.4184107  22.6750881
  16.8837059  45.7403271  26.9721758  16.7058820  45.2879880  27.6976674
  16.5956081  46.5429432  27.1560236  16.8150012  45.7925829  27.1065261
  32.5460640  46.9960988  26.2099149  33.0414305  46.2783983  26.1703169
  31.7360416  46.6931786  26.0953636  32.5004533  46.8458634  26.1872874
  27.9919251  50.8458801  18.3596153  27.1830574  50.5225475  18.3129463
  28.4994160  50.1392023  18.2924402  27.9468918  50.6940118  18.3426447
  18.6209529  48.2730994  24.0843517  17.7555048  48.2616685  23.9726289
  18.7208345  48.0861217  24.9314657  18.5083696  48.2437056  24.1932462
  24.2466539  58.0428893  27.6573623  24.5613097  58.8565282  27.6651405
  24.6559952  57.6579112  28.3255782  24.3534637  58.1057595  27.7577715
  31.1991058  53.4598940  25.2277435  31.6702236  54.1739202  25.3967420
  31.5351237  52.8597690  25.7637304  31.3186173  53.4770404  25.3309811
  27.1853668  40.2342823  19.6514995  28.0069362  40.4041136  19.4096690
  26.7223319  40.3890084  18.9281292  27.2384830  40.2824556  19.5086639
  21.5879559  51.9902002  27.3052231  22.1924416  51.9497836  26.6766052
  21.3806871  52.8373154  27.3356287  21.6468456  52.1090004  27.2168348
  16.8230841  50.9736619  27.1751154  16.7255119  50.1632891  27.4841211
  17.6059711  50.9528412  26.7897423  16.9246977  50.8503709  27.1638017
  35.4577806  70.5371167  22.0047507  34.7060705  70.1586706  21.7763552
  35.9063817  70.5689601  21.2566317  35.4127473  70.4856774  21.8605009
  44.3830383  67.2694975  35.8470732  45.0897150  66.7747006  35.9757666
  44.5718318  67.7104057  35.1173390  44.5158288  67.2613325  35.7579777
  40.9102766  70.9596537  17.4333054  40.5754134  71.6373458  16.9977276
  41.4229636  70.5701848  16.8449926  40.9368347  71.0021115  17.2819846
  40.4507057  72.9110805  23.3744166  40.8346436  73.4797704  22.8348941
  40.3866198  72.1860316  22.8949982  40.4980484  72.8886269  23.2238028
  43.9188487  63.0600493  28.8841927  44.4644447  63.7385580  28.9435897
  43.8605363  62.9187954  28.0243509  43.9904401  63.1392495  28.7653988
  37.0362562  70.5489559  24.2710280  37.1372925  69.7389913  24.5807407
  36.4404307  70.4546506  23.6409958  36.9635101  70.4154588  24.2236518
  45.6953556  64.4885100  19.7575655  45.5793082  65.2392787  20.1867793
  46.4909442  64.2309054  20.0071742  45.7958145  64.5619947  19.8579747
  36.8763302  75.4667149  25.6725136  37.5200757  75.9080313  26.0621294
  37.2019557  74.6620575  25.5855394  37.0195130  75.4132343  25.7170613
  30.2327606  66.5709846  23.8962613  29.9977791  65.7377498  23.7894882
  30.3713247  66.8514512  23.0823814  30.2183269  66.4893349  23.7604968
  37.5783881  68.4779123  21.0444997  37.8999722  69.0184331  20.4406305
  38.2255978  67.9075895  21.1767287  37.7209936  68.4738299  20.9752033
  39.6285589  60.4795118  21.1279384  40.3265754  60.6583246  21.6200847
  39.9437922  59.9565458  20.5049773  39.7780926  60.4288891  21.1081394
  39.8173525  66.8665563  21.1159175  40.2567160  66.2582664  21.5613948
  39.6678188  66.4872937  20.3444641  39.8594990  66.7204035  21.0678343
  39.8231259  68.3064481  27.9684894  40.1054502  67.5115887  27.7471649
  40.5517419  68.7845069  27.9889955  39.9720823  68.2599078  27.9387909
  43.4182861  65.2192745  18.0689945  43.3334156  66.0753711  18.2139514
  43.9067244  64.9437069  18.7372104  43.4771759  65.3050066  18.1892026
  44.3501294  61.8377539  19.5687680  43.8212766  62.0537172  20.2284986
  44.8726314  62.5313677  19.4888649  44.3489747  61.9720676  19.6543279
  49.8049347  67.4123843  24.9420724  48.9747050  67.6234487  25.1054141
  49.7558600  66.5860898  24.6663008  49.6756083  67.3213450  24.9258090
  36.2400902  65.7340756  18.3695148  35.6558117  66.2390787  18.7761012
  35.8370997  65.5083143  17.6291740  36.0940206  65.7749004  18.3200173
  31.7944931  71.4495517  25.1718819  31.3112509  72.1746006  25.1478403
  32.6068249  71.7471647  25.2828977  31.8435679  71.5997871  25.1846099
  37.8659085  70.2427698  27.7768634  37.3486027  69.8835113  27.1729942
  38.5633476  69.7189872  27.7874700  37.8924666  70.1125385  27.6898893
  41.5222677  70.6922512  33.7384807  41.6106023  70.5048652  34.5863017
  41.9512389  70.0459941  33.3389654  41.5984779  70.5685519  33.8056558
  39.0893137  69.9753672  32.7202469  38.5263971  69.5626281  33.2442130
  39.8514160  69.9006577  33.1395612  39.1187585  69.9031072  32.8595469
  40.6978117  61.9806408  16.8464068  40.9374120  62.1884391  16.0339412
  41.0193958  61.1763916  16.9553013  40.7815275  61.8920509  16.7424621
  36.0068407  53.9099803  20.6923606  36.7614375  54.2778121  20.4540657
  35.8295942  54.2839358  21.4602786  36.0922885  54.0197991  20.7708495
  34.6489128  71.9651693  25.3239099  35.3509707  71.4503682  25.3811856
  34.5686611  72.2925844  26.1285974  34.7412889  71.9365919  25.4511891
  34.3625472  56.3170122  17.3901719  34.1801045  56.5342003  16.5642712
  35.2251085  56.4309135  17.4460334  34.4630061  56.3660020  17.2756206
  33.9739904  68.1558045  24.8324707  34.8128803  68.3880977  24.8798469
  34.0051673  67.2862356  24.7631743  34.1021621  68.0614991  24.8289352
  34.5992607  68.5758920  29.1338013  35.1390832  68.4330051  29.8041385
  33.9162553  68.9755671  29.5022039  34.5784760  68.6138591  29.2872435
  44.0233491  64.2549921  24.3283037  44.7791006  64.6881435  24.3671946
  44.1295816  63.6054690  24.9017673  44.1503662  64.2227404  24.4181063
  47.0613663  68.0823198  25.0785440  46.6248894  68.0859940  25.8344412
  46.7276578  68.7628697  24.6465018  46.9476283  68.1835654  25.1266273
  41.6342736  70.1231531  36.4028590  42.4183153  70.2362378  36.7684333
  41.4339331  69.2972668  36.5987276  41.7208762  70.0178250  36.4862976
  33.9087499  59.5944295  15.9024192  33.1945676  59.3082475  16.3146625
  34.3931467  59.9340921  16.5430580  33.8746862  59.6025945  16.0579827
  41.7913130  72.0341633  30.0495046  40.9928375  71.7941133  30.3068915
  42.2399141  72.0856026  30.7962094  41.7387741  72.0064024  30.1979970
  41.0834817  68.0974249  16.2786001  41.4985965  67.7659273  15.5870496
  40.2526746  67.8643151  16.1506137  41.0222825  68.0145505  16.1576848
  30.4123165  65.5817990  26.5684179  30.2298739  65.5564876  25.7156471
  31.1472834  66.0516928  26.6073087  30.4937229  65.6479352  26.4482097
  46.4822839  65.8169500  23.7117066  46.7178429  65.9614699  22.8843917
  46.6312403  66.5811908  24.1048580  46.5388643  65.9508554  23.6480670
  48.3113296  64.6571166  21.5486670  48.6421513  65.1898806  20.9426765
  48.8846384  64.7110054  22.2048621  48.4446975  64.7440735  21.5564452
  40.8513866  65.7802078  37.9415234  40.0586847  66.0945589  38.1267854
  40.9662794  65.9953546  37.1036019  40.7509277  65.8585914  37.8453569
  43.5245185  62.5036069  22.2310250  43.6192040  63.2425363  22.6849876
  42.9004029  62.0753544  22.6644815  43.4454215  62.5497389  22.3618398
  41.7797659  65.6822281  32.8800531  42.3536521  65.0449526  33.0349095
  41.7012463  65.6826364  32.0110189  41.8530894  65.5887393  32.7746942
  43.7768207  64.3484809  15.4647202  43.6948369  64.4186996  16.3302189
  44.4147927  64.9114552  15.2730943  43.8588044  64.4423780  15.5637152
  37.1361378  64.1145546  24.9321728  36.8780622  63.2817281  24.9053028
  37.1909861  64.3403159  24.0914229  37.1061156  64.0243318  24.8041865
  25.8552909  61.3123384  23.4331064  25.9413161  60.9355252  24.2144594
  26.4828706  60.9383829  22.9551022  25.9609460  61.2008866  23.4776541
  40.8808317  64.3705263  18.4755809  41.6948956  64.6620156  18.3638580
  40.8167458  63.7165125  17.9014102  40.9911056  64.3170458  18.3744646
  47.1017807  67.0531259  32.8885384  46.8656444  66.2219324  32.7697445
  47.7461036  67.0016866  33.4740228  47.1612478  66.9228947  32.9571278
  36.7516225  67.8426780  23.6028121  37.3890172  67.6038528  24.1479914
  37.1771297  68.0463939  22.8681281  36.9092391  67.8377790  23.5745278
  31.4428868  70.0815117  27.4862424  31.4833013  70.3529968  26.6582204
  32.0023392  70.6057025  27.9020212  31.5312213  70.1990872  27.4254313
  37.3919040  63.0629070  17.9403010  37.7764193  62.8436777  18.6919555
  37.1430660  63.8892015  18.0704086  37.4121113  63.1527216  18.0704086
  39.1337697  68.3199203  25.2821907  39.2076705  68.1574375  26.1363757
  39.9507203  68.5089392  25.0382389  39.2654056  68.3235945  25.3719932
  32.8943454  68.6657066  22.3116350  32.0681571  68.9118803  22.1850629
  32.9555445  68.5869147  23.1778408  32.7817621  68.6902015  22.4205295
  37.6742283  71.2833946  20.0135380  37.9640581  70.8922927  19.2894607
  38.4045764  71.4650651  20.4540656  37.8249167  71.2527760  19.9718187
  38.2637028  66.0851692  31.0988511  37.7648722  66.7967460  31.1773399
  39.0737252  66.4052358  31.0606673  38.3093135  66.2378540  31.1045079
  35.6148198  73.2601328  23.0795530  35.3948494  72.9698683  23.8722197
  35.3942720  72.6016283  22.5513442  35.5495793  73.1201037  23.1184439
  34.5265146  65.3474645  25.3451232  34.2378394  64.7212116  25.8796959
  35.3948494  65.2894932  25.4115912  34.6125397  65.2462189  25.4342186
  37.7816154  74.6330718  21.8626222  38.4340212  74.1007161  22.0917248
  37.0841763  74.2799371  22.2494096  37.7746872  74.5020241  21.9538390
  34.7297419  66.9869896  21.2693597  35.4843387  67.3682935  21.4829059
  34.1368032  67.4381040  21.7240293  34.7534133  67.1098723  21.3676475
  45.7756072  66.9535132  21.2057202  46.3414105  67.6128342  21.1215745
  45.1283976  67.2984830  21.6773604  45.7634829  67.1017074  21.2629958
  36.0495646  68.1578457  26.6433712  35.5276399  68.2978749  27.3285577
  36.4369666  67.3989122  26.8335829  36.0299346  68.0663981  26.7734789
  33.0386830  58.2084266  20.7128667  32.7511625  57.8385536  19.9760614
  33.7257298  58.6779121  20.4512372  33.0975727  58.2231235  20.5643743
  42.2462651  69.8973916  20.6294281  42.0049326  69.1641777  20.2221346
  42.4263983  70.4460773  19.9760614  42.2370275  69.8696308  20.4724504
  37.4761971  65.1882476  22.0415203  37.2804754  65.7957211  21.4475506
  37.6996317  64.4950420  21.5606877  37.4796612  65.1760002  21.8831284
  35.8740501  62.0737214  22.1596072  36.5963153  62.2378372  21.6999877
  35.3948494  62.7946879  22.0535411  35.9104232  62.2035444  22.0761686
  30.6115024  58.9865478  21.5613948  30.7131161  59.7891640  21.8894923
  31.4070911  58.7852814  21.2637028  30.7442930  59.0751377  21.5649303
  41.5817349  60.9379747  23.4479558  41.3352063  60.8575498  24.2816347
  41.9102472  60.1533215  23.2542085  41.5938592  60.8106012  23.5427081
  45.4765397  67.6463106  27.2366339  45.3379757  68.3444152  27.7415081
  44.6965395  67.4911763  26.8802521  45.3408624  67.7263273  27.2592613
  43.8143483  63.9459482  33.4888721  43.8091521  63.0739298  33.4931147
  44.5204476  64.1447651  33.0158176  43.9188487  63.8463356  33.4195756
  36.6142131  71.8639237  29.7263568  36.7631695  71.3042153  29.0736972
  37.3942133  71.9431239  30.1096086  36.7516225  71.7924803  29.6860517
  46.9718770  67.0041360  17.9982838  46.5925579  66.2178498  17.9912128
  46.3085016  67.5528217  17.8554482  46.8177245  66.9686184  17.9763635
  39.1395432  72.0353880  31.0048058  39.0639103  71.3662691  31.5598847
  39.0685291  72.7371668  31.5188725  39.1176038  72.0398787  31.1624907
  39.7965678  70.5554879  21.8371664  40.5615570  70.2864523  21.5154329
  39.6943768  70.0704889  22.5541727  39.8947174  70.4444444  21.8951492
  42.3184339  67.5867063  13.8171614  43.0857324  67.6467188  13.4077466
  41.8715648  67.0147504  13.3327932  42.3657766  67.5103638  13.6849324
  43.2162135  66.3921719  26.1024346  42.5407136  66.1606951  26.6037733
  43.2254511  65.7842902  25.4766451  43.1180639  66.2680644  26.0840498
  45.2178869  69.2486851  18.3334524  45.2998707  70.0553837  18.0095975
  45.7028611  69.2682810  19.0575297  45.3016027  69.3707513  18.3921423
  39.0275372  63.9271687  27.0004602  38.6037622  64.1276186  26.2643620
  38.8520228  63.0800535  27.1128902  38.9386253  63.8320468  26.9078292
  38.5287066  75.4422200  29.4626059  39.0182996  74.7432989  29.2801724
  37.9571298  75.1446070  30.0502117  38.5171596  75.2948424  29.5227100
  34.3157817  64.4223738  22.4332574  34.4722437  64.3570541  23.2888567
  34.6558410  65.1972291  22.2211254  34.3891052  64.5272936  22.5287169
  40.8536962  63.7981622  21.3025938  41.3952507  63.2952003  21.7664558
  41.1683521  63.7446817  20.4915423  40.9801359  63.7161043  21.2509750
  44.7254069  68.0084269  38.4152850  45.5388935  67.7369418  38.5757982
  44.5649036  67.7091809  37.6113046  44.8224018  67.9239195  38.3198256
  39.0223412  69.1898973  18.5865966  39.0916232  68.3313512  18.7258966
  39.8011867  69.4070854  18.2584990  39.1476262  69.0951837  18.5583123
  43.4130899  71.6136675  22.8002459  43.0210691  71.3103390  22.0825325
  43.5683972  72.4505765  22.6107413  43.3784489  71.6920511  22.6658956
  30.8892079  61.6058689  22.7493342  31.2691044  62.0243234  22.0853609
  30.3147444  62.1872145  23.0562185  30.8603404  61.7536548  22.6970083
  43.5770574  68.1786664  22.7408490  43.2185229  68.3501306  23.5172522
  43.0909285  68.6399869  22.1836488  43.4529271  68.2725635  22.7733759
  38.3658939  63.8585829  15.2808724  38.6551464  64.6350712  15.5552298
  38.4530738  63.3474560  15.9823223  38.4213196  63.8977747  15.4251222
  44.7375313  69.0690560  33.6875690  45.3755034  68.5750755  33.3538147
  44.0949405  68.9967960  33.1027917  44.7369540  68.9849568  33.5518045
  44.7929570  69.7610368  30.3281047  45.5821948  69.4099433  30.4483129
  44.9673168  70.5746756  30.0657681  44.9349852  69.8296225  30.3068915
  32.0098447  60.7938631  25.2093587  31.6155145  60.8681642  24.4343696
  31.4538564  61.1796577  25.7601948  31.8701260  60.8620405  25.1761247
  37.4005642  58.4101013  21.1951135  37.6765377  57.6919925  20.7828703
  38.0004312  59.0085932  20.9872241  37.5298907  58.3921383  21.1031897
  36.4057896  68.3150213  31.3378531  36.2978251  68.3252276  32.2040589
  36.6153678  69.1404994  31.1483485  36.4208007  68.4391288  31.4382623
  44.1821205  71.0172167  26.2332493  43.9840893  71.5062982  25.5388705
  43.5608916  71.2213409  26.8116627  44.0608769  71.1188706  26.2155717
  38.2429183  62.7857064  20.5742738  38.9871228  63.1731341  20.8125688
  38.3889879  61.9414490  20.7383225  38.3739768  62.7187537  20.6336707
  46.0995006  64.5836320  31.7677742  46.8229205  64.1308846  31.5888762
  45.8344969  64.8640985  30.9850070  46.1676280  64.5587288  31.6256457
  35.1523624  57.5221612  14.5603306  34.8036428  58.1741337  15.0234855
  34.6720069  57.5078725  13.8327177  35.0293867  57.6164665  14.5214397
  31.6807550  67.2396953  29.9434385  31.1507475  66.5489392  29.9929360
  31.9532644  67.2307139  29.1147094  31.6432273  67.1364085  29.8281801
  42.7127641  67.8222656  18.6672068  43.4361840  68.2880769  18.5236641
  42.2728232  67.8896265  17.9169665  42.7543333  67.9006492  18.5356849
  41.8813796  64.6820198  29.9172757  41.2670789  64.1378248  30.2121392
  42.3981081  64.1684434  29.4378573  41.8669458  64.5256607  29.8896985
  41.1210093  65.7524468  27.6517055  40.6937701  65.1274187  27.2182491
  41.1135038  65.4699390  28.4776063  41.0569234  65.6177249  27.7096883
  26.9603393  63.9124718  27.3002734  26.8546842  63.8671562  26.4354818
  26.2103613  64.2578498  27.5817018  26.8338996  63.9565626  27.2140063
  37.9126738  64.9224781  35.3485628  37.0622368  65.0596495  35.4843273
  38.0754866  64.1888559  35.7933330  37.8110601  64.8338882  35.4341228
  35.5247532  60.1480142  20.0729351  35.6650493  60.6452606  20.7757992
  36.0230065  59.4466437  20.2143564  35.6188613  60.1182121  20.1980930
  35.5547755  61.0147253  17.4021927  36.1892834  61.6107678  17.3371389
  35.6373365  60.7150711  18.2167797  35.6604306  61.0588161  17.5125014
  40.3623710  67.9680103  30.8966185  39.8548801  68.5215950  31.3406816
  40.0650356  68.0288393  30.0784960  40.2428595  68.0586414  30.8414642
  32.0600743  63.2115094  20.6711473  32.5692972  63.8079602  21.0522779
  32.5335015  62.9441068  19.9887893  32.2044118  63.2600909  20.6265996
  42.9731491  71.8843361  18.8270129  42.2560800  71.7104223  18.3617366
  43.6238228  71.6495933  18.2945615  42.9633341  71.8239153  18.6799347
  39.6066196  72.9004661  27.8023192  39.3831850  72.1423490  28.1707219
  39.1176039  72.9302682  27.0803632  39.5009645  72.7926886  27.7499933
  34.4191274  59.8471353  23.5384654  33.7003263  60.2635485  23.8057517
  34.7903637  60.4125591  22.9876292  34.3683206  59.9920634  23.4967461
  41.6637185  67.0686393  35.3535126  41.6233040  66.4236070  34.7680282
  42.4760503  67.0123011  35.6660538  41.7780338  66.9645360  35.3132075
  38.2544652  73.1205119  25.2560277  37.8405051  72.4579250  24.8664119
  38.9392027  73.2682978  24.7355971  38.2943024  73.0445777  25.1216774
  41.6209947  72.2795205  26.0083893  41.2226230  72.3897475  25.2404714
  41.0061166  72.4877271  26.5910453  41.4708836  72.3268773  25.9815193
  40.1937849  58.8869352  18.8758033  39.6002688  59.2086349  18.3242600
  40.2313126  58.0410448  18.6679139  40.1112238  58.8093681  18.7640805
  49.3551789  66.8547171  19.3926984  49.7385395  67.6038527  19.6225081
  48.5595903  67.1012991  19.1338973  49.2945572  67.0016865  19.3884558
  29.0982673  62.0467771  29.8175735  28.5509392  61.3768416  29.9356604
  29.8875051  61.6797619  29.8819203  29.1334857  61.8932757  29.8444436
  38.1667081  59.5266603  16.9687363  38.5466046  59.5446232  16.1838478
  37.4259677  59.9720592  16.8478210  38.1135919  59.5948378  16.8350931
  27.8569642  61.2588579  26.9721758  27.6791403  60.8065188  27.6976674
  27.5688664  62.0614740  27.1560236  27.7882596  61.3111136  27.1065261
  43.5193223  62.5146296  26.2099149  44.0146889  61.7969291  26.1703169
  42.7092999  62.2117094  26.0953636  43.4737117  62.3643942  26.1872874
  38.9651835  66.3644109  18.3596153  38.1563158  66.0410783  18.3129463
  39.4726744  65.6577331  18.2924402  38.9201502  66.2125426  18.3426447
  29.5942112  63.7916302  24.0843517  28.7287632  63.7801993  23.9726289
  29.6940928  63.6046525  24.9314657  29.4816279  63.7622364  24.1932462
  35.2199122  73.5614201  27.6573623  35.5345681  74.3750589  27.6651405
  35.6292535  73.1764420  28.3255782  35.3267220  73.6242903  27.7577715
  42.1723642  68.9784248  25.2277435  42.6434820  69.6924510  25.3967420
  42.5083820  68.3782998  25.7637304  42.2918757  68.9955712  25.3309811
  44.2600626  70.5885561  37.4069507  44.3697592  69.7994122  37.7626254
  44.5891523  70.4991497  36.6043845  44.3253032  70.4591414  37.3411898
  42.8097588  68.7702182  31.9905128  42.2618534  68.1460066  31.7225193
  43.2710617  68.9596454  31.2749207  42.7964798  68.7061232  31.8455559
  38.1586252  55.7528131  19.6514995  38.9801946  55.9226444  19.4096690
  37.6955902  55.9075392  18.9281292  38.2117414  55.8009864  19.5086639
  32.5612142  67.5087309  27.3052231  33.1657000  67.4683144  26.6766052
  32.3539455  68.3558461  27.3356287  32.6201040  67.6275312  27.2168348
  42.3755914  69.7753255  28.5214469  43.1954288  69.6316221  28.7830764
  42.0949992  70.3999454  29.0630907  42.4552658  69.8463607  28.6402408
  27.7963425  66.4921927  27.1751154  27.6987703  65.6818198  27.4841211
  28.5792294  66.4713720  26.7897423  27.8979561  66.3689017  27.1638017
  58.8469565  77.4318106  21.4857345  58.8163569  78.2862743  21.6575614
  59.4450914  77.1313399  22.0443489  58.9306723  77.5134603  21.5932147
  52.0469250  76.5193757  26.2410275  51.1907145  76.6802256  26.2919392
  52.0936903  75.6485821  26.2615337  51.9268361  76.4144559  26.2516342
  55.3562966  82.7880283  35.8470732  56.0629733  82.2932314  35.9757666
  55.5450902  83.2289364  35.1173390  55.4890872  82.7798633  35.7579777
  54.8921071  78.5785801  28.8841927  55.4377031  79.2570888  28.9435897
  54.8337947  78.4373262  28.0243509  54.9636985  78.6577803  28.7653988
  43.5050277  74.2580885  26.7946921  42.8855309  73.6673532  26.6256936
  43.4034141  74.8492320  26.1611244  43.3987953  74.2584967  26.6751910
  50.6018173  75.9980426  21.1279384  51.2998338  76.1768554  21.6200847
  50.9170505  75.4750766  20.5049773  50.7513510  75.9474198  21.1081394
  43.2319410  77.8033166  29.0390490  43.1078107  78.3895612  29.6740309
  43.8837695  77.3093362  29.3402765  43.3093060  77.8171971  29.1776419
  48.2577751  80.9794883  28.3178001  48.9026754  80.4867326  27.9988950
  48.4979528  81.1219670  29.1444079  48.3888336  80.9272325  28.3927534
  50.7963843  83.8249789  27.9684894  51.0787085  83.0301195  27.7471649
  51.5250003  84.3030377  27.9889955  50.9453406  83.7784386  27.9387909
  48.7745036  71.3672823  25.2100659  48.4448366  71.8183967  24.5404357
  48.0990038  71.2888986  25.7573665  48.6255473  71.4223958  25.1923882
  55.9821444  67.3558346  23.4550269  55.6674885  68.0461824  23.8870692
  55.4648386  67.3003128  22.7535770  55.8585915  67.4493234  23.4147218
  46.9800991  69.4285111  20.6923606  47.7346959  69.7963428  20.4540657
  46.8028525  69.8024666  21.4602786  47.0655469  69.5383299  20.7708495
  60.2735889  75.5779552  28.7371146  59.4364310  75.6481739  28.9718740
  60.2424120  75.5804047  27.8645448  60.1454172  75.5889779  28.6430694
  46.6700618  77.7212588  34.4519514  46.8421122  77.6118482  35.3004796
  47.2069976  78.3666993  34.2150707  46.7745622  77.8004589  34.5424611
  45.3358055  71.8355430  17.3901719  45.1533628  72.0527311  16.5642712
  46.1983668  71.9494443  17.4460334  45.4362645  71.8845328  17.2756206
  51.0157774  68.8381841  20.4250743  51.7443935  68.6597796  19.9788899
  51.1052667  69.6799921  20.6357921  51.1364436  68.9365719  20.3904261
  54.9966075  79.7735228  24.3283037  55.7523590  80.2066743  24.3671946
  55.1028399  79.1239998  24.9017673  55.1236246  79.7412712  24.4181063
  40.9762335  80.3144519  29.2872434  40.7100750  79.4983635  29.4463425
  40.9900899  80.3597674  28.4167950  40.9387058  80.2001423  29.1825916
  57.9543729  70.6422334  27.3214868  58.5969637  70.7120438  27.9076783
  58.2066750  69.9751556  26.8194410  58.0865861  70.5548682  27.3342147
  44.8820082  75.1129603  15.9024192  44.1678259  74.8267783  16.3146625
  45.3664051  75.4526229  16.5430580  44.8479446  75.1211253  16.0579827
  45.7260942  73.8522897  31.9339442  45.0332738  73.3819877  32.1800174
  46.3421269  73.6261201  32.5081149  45.7145472  73.7490029  32.0548595
  41.3855749  81.1003298  26.5684179  41.2031322  81.0750184  25.7156471
  42.1205418  81.5702236  26.6073087  41.4669813  81.1664660  26.4482097
  44.4501501  77.8188301  33.0766287  45.1741473  77.8041332  33.5631182
  44.5517637  78.5283656  32.5788255  44.5719710  77.9213004  33.0745074
  51.8246450  81.2987385  37.9415234  51.0319431  81.6130897  38.1267854
  51.9395377  81.5138854  37.1036019  51.7241861  81.3771222  37.8453569
  54.4977769  78.0221377  22.2310250  54.5924623  78.7610671  22.6849876
  53.8736612  77.5938852  22.6644815  54.4186799  78.0682697  22.3618398
  52.7530243  81.2007589  32.8800531  53.3269104  80.5634833  33.0349095
  52.6745046  81.2011672  32.0110189  52.8263478  81.1072701  32.7746942
  41.3526659  77.9796799  26.7183245  41.9300162  77.8433249  27.3575491
  40.6540721  77.5232583  26.9728830  41.3347681  77.8919065  26.8505535
  48.1093961  79.6330854  24.9321728  47.8513206  78.8002589  24.9053028
  48.1642444  79.8588467  24.0914229  48.0793739  79.5428626  24.8041865
  53.1895012  71.7359305  25.0325821  52.4851338  71.2468491  25.1909740
  53.2379986  71.7481779  24.1614265  53.0925063  71.6648953  24.9265161
  47.0828674  77.1868617  25.4186623  46.5078265  77.3460785  26.0550584
  46.7064350  76.5504026  24.9555074  46.9431486  77.1166430  25.4441182
  50.7501962  75.6591966  30.2779002  50.3616395  75.2346184  29.6231193
  50.0856661  75.9074116  30.7856028  50.5948890  75.6330687  30.2566870
  60.3925231  75.4166971  23.0526832  60.1361796  74.6046912  22.8624714
  61.2354545  75.4244538  22.8257019  60.4791257  75.2978968  22.9911649
  36.8285492  76.8308692  23.4331064  36.9145744  76.4540560  24.2144594
  37.4561290  76.4569137  22.9551022  36.9342043  76.7194174  23.4776541
  54.5728324  69.3566595  27.7902986  54.9538835  68.6744766  28.1770860
  53.7691608  69.0676197  27.6078650  54.5104785  69.2133643  27.8207042
  47.7248809  83.3612088  23.6028121  48.3622756  83.1223836  24.1479914
  48.1503880  83.5649247  22.8681281  47.8824975  83.3563098  23.5745278
  48.3651624  78.5814378  17.9403010  48.7496776  78.3622085  18.6919555
  48.1163244  79.4077323  18.0704086  48.3853696  78.6712524  18.0704086
  48.5320164  71.8620793  37.6565594  48.2173605  72.6320356  37.3935157
  48.2110097  71.2991049  37.0717821  48.4379083  71.8931062  37.5306944
  50.1070281  83.8384511  25.2821907  50.1809289  83.6759683  26.1363757
  50.9239787  84.0274700  25.0382389  50.2386639  83.8421253  25.3719932
  46.0852061  70.2511315  23.2711791  45.2174487  70.3233914  23.3369400
  46.3727265  71.0533394  23.4599766  45.9991809  70.3805462  23.3086557
  55.2084950  70.3989174  31.6023112  55.9538542  70.2098984  31.1886538
  54.7922254  70.9247412  31.0436969  55.2569924  70.4491319  31.4587686
  62.5847221  77.7698402  26.5528617  63.1355142  77.1366472  26.7925709
  62.5691336  78.3013795  27.2444122  62.6632417  77.7547351  26.6907476
  49.2369612  81.6037000  31.0988511  48.7381305  82.3152767  31.1773399
  50.0469836  81.9237666  31.0606673  49.2825718  81.7563848  31.1045079
  45.4997729  80.8659953  25.3451232  45.2110978  80.2397424  25.8796959
  46.3681077  80.8080240  25.4115912  45.5857981  80.7647497  25.4342186
  56.2875627  76.0094736  25.6633214  55.9440393  75.2885071  26.0140463
  56.3868669  75.8008587  24.8211572  56.2517670  75.8718939  25.5904894
  45.7030003  82.5055204  21.2693597  46.4575971  82.8868243  21.4829059
  45.1100615  82.9566347  21.7240293  45.7266716  82.6284031  21.3676475
  48.1636670  74.4618044  36.3950809  47.3536445  74.7675824  36.2840651
  48.6411356  75.1823627  36.5103393  48.1140148  74.6132645  36.3957880
  44.0119413  73.7269574  20.7128667  43.7244209  73.3570844  19.9760614
  44.6989881  74.1964429  20.4512372  44.0708310  73.7416543  20.5643743
  48.4494555  80.7067784  22.0415203  48.2537337  81.3142519  21.4475506
  48.6728900  80.0135728  21.5606877  48.4529196  80.6945310  21.8831284
  46.8473085  77.5922522  22.1596072  47.5695737  77.7563680  21.6999877
  46.3681078  78.3132187  22.0535411  46.8836815  77.7220752  22.0761686
  54.8066592  73.9286321  27.5392756  53.9677693  73.9547600  27.3031020
  54.8770960  74.5757056  28.1198103  54.6934986  74.0282447  27.5901873
  44.4980701  79.9980594  31.2650211  45.0101798  80.2764848  30.6158971
  44.2117044  80.7369889  31.6313024  44.5315565  80.1482948  31.2240089
  53.2535871  70.8271698  22.2720372  53.9562223  70.6279446  21.7940331
  52.9880059  70.0547640  22.5789216  53.3182503  70.6834664  22.2465814
  58.6824116  79.1354308  24.8253998  58.5958091  79.2909734  25.6788777
  58.2274596  79.7792383  24.4513403  58.6027373  79.2530063  24.8961105
  41.5847608  74.5050786  21.5613948  41.6863744  75.3076948  21.8894923
  42.3803495  74.3038122  21.2637028  41.7175513  74.5936685  21.5649303
  48.0164427  72.0906983  31.3251253  47.8247624  72.1062118  32.1750676
  48.8663023  72.2870657  31.3017908  48.1140149  72.1221334  31.4474548
  42.4011340  74.6197965  29.3035069  42.2596832  73.7681905  29.4279577
  42.6851903  74.6626625  28.4797275  42.4219186  74.4997715  29.2002694
  52.5549932  76.4565055  23.4479558  52.3084647  76.3760806  24.2816347
  52.8835055  75.6718523  23.2542085  52.5671176  76.3291320  23.5427081
  54.7876066  79.4644789  33.4888721  54.7824105  78.5924606  33.4931147
  55.4937060  79.6632959  33.0158176  54.8921070  79.3648664  33.4195756
  48.5146960  79.1921773  32.8602541  48.6590335  79.7722982  32.2245651
  48.8622608  79.5698070  33.5652395  48.5874421  79.3342477  32.8701536
  50.6866877  78.3911942  30.6427672  49.9390191  78.5842956  30.2375950
  50.8408402  77.5657161  30.4051794  50.5989304  78.2977053  30.5473078
  50.9268654  72.2862492  31.5323076  51.3841268  73.0186467  31.6595868
  51.0024983  71.8628958  32.2910332  51.0059624  72.3319731  31.6624153
  43.1701645  72.5328312  32.6212520  42.6343835  71.9208670  32.9373287
  43.2319410  73.1076448  33.2746186  43.0997278  72.5275240  32.7647947
  55.3995980  65.4652368  25.4016919  55.5179548  65.9228831  24.6684222
  55.2258156  64.6597629  25.1153137  55.3915151  65.4146140  25.2517853
  54.1894718  81.9107027  26.1024346  53.5139720  81.6792259  26.6037733
  54.1987094  81.3028209  25.4766451  54.0913223  81.7865952  26.0840498
  51.3188862  76.7524856  32.8588399  51.2548003  77.6134812  32.7308536
  51.4586050  76.4356849  32.0583950  51.3304332  76.8325022  32.7216612
  50.0007956  79.4456995  27.0004602  49.5770205  79.6461494  26.2643620
  49.8252811  78.5985843  27.1128902  49.9118837  79.3505776  26.9078292
  45.2890401  79.9409046  22.4332574  45.4455020  79.8755849  23.2888567
  45.6290994  80.7157599  22.2211254  45.3623636  80.0458244  22.5287169
  51.8269546  79.3166930  21.3025938  52.3685091  78.8137311  21.7664558
  52.1416105  79.2632125  20.4915423  51.9533943  79.2346351  21.2509750
  52.9758815  74.2103234  31.3548238  53.1900785  73.5714149  30.8011592
  52.3592714  74.6549058  30.9256100  52.9164144  74.1813378  31.2098669
  41.8624662  77.1243997  22.7493342  42.2423627  77.5428542  22.0853609
  41.2880027  77.7057452  23.0562185  41.8335987  77.2721856  22.6970083
  55.1397903  75.8192300  32.2931545  54.3274585  75.5118190  32.3744718
  55.5987838  75.3391300  32.8574257  55.0878288  75.7028792  32.3886139
  52.2351410  77.2252371  37.0760248  52.7051042  77.8494487  37.4628122
  52.2813291  76.5569347  37.6353462  52.3119286  77.2187051  37.2160319
  49.3922684  69.3309398  27.8009051  48.8761173  68.6389590  27.9260630
  48.8316613  69.9980176  27.7471650  49.2329197  69.3272656  27.8115117
  51.4614918  69.8702358  29.6301904  51.0746671  69.8951390  30.4115434
  50.9747855  69.3044037  29.1776420  51.3327426  69.7898109  29.6789808
  57.4364897  76.4365013  28.2541606  57.0092505  76.3491362  27.4989706
  56.7990950  76.5442789  28.8396450  57.2794504  76.4397673  28.2287048
  50.9285974  71.5440539  34.1938575  51.7559403  71.2725688  34.2497190
  50.9493820  72.3401380  34.5502394  51.0538824  71.6220293  34.2553758
  45.5055464  78.6904401  27.3808836  44.6643471  78.5908276  27.5887730
  45.7145472  79.4599882  27.7323157  45.4120157  78.7896445  27.4636151
  42.9831031  76.3123938  25.2093587  42.5887729  76.3866950  24.4343696
  42.4271148  76.6981885  25.7601948  42.8433843  76.3805713  25.1761247
  54.6195978  69.2905232  24.8897466  54.8245571  69.2227540  25.7354463
  54.2922402  70.0964054  24.8218643  54.6011226  69.3991173  25.0057121
  49.3172129  76.6185801  26.6306434  49.0135266  76.0641789  27.2316841
  48.6151550  76.7978011  26.1434468  49.1688339  76.5630583  26.6476139
  48.3738226  73.9286320  21.1951135  48.6497960  73.2105233  20.7828703
  48.9736895  74.5271240  20.9872241  48.5031491  73.9106691  21.1031897
  57.8729665  69.8436997  24.3700231  57.2603979  70.3307399  24.7553963
  57.9693840  69.1680488  24.9137882  57.7967563  69.8155305  24.5079089
  51.8748746  71.5999838  19.4697730  52.3292493  71.7710398  20.1945575
  52.3488792  70.9867949  19.0695506  52.0117067  71.5350723  19.5171492
  45.3964272  81.0848164  28.8000469  44.8052205  81.7257662  28.7703484
  46.1585295  81.5085781  28.7731768  45.4212532  81.2424002  28.7915616
  45.7924895  72.2450162  29.4668487  46.2526376  72.3189091  30.2043610
  45.8381001  73.0431416  29.1168308  45.8675450  72.3744309  29.5241243
  47.4408244  72.9116856  34.0340514  47.0493810  72.2650204  34.4696291
  47.6094107  73.5028292  34.6534769  47.4079155  72.9031124  34.1903220
  49.2161766  78.3042372  20.5742738  49.9603811  78.6916649  20.8125688
  49.3622463  77.4599798  20.7383225  49.3472352  78.2372845  20.6336707
  51.1341342  70.0992631  25.6074599  50.2877387  70.2715439  25.4815949
  51.1312474  69.2941975  25.9440427  51.0088492  70.0053660  25.6385726
  52.2039642  73.8767846  26.4736657  51.7299597  73.3509608  26.9841968
  52.5757778  73.3297318  25.9051519  52.1889531  73.7183842  26.4651804
  42.5812672  75.8739352  31.8420203  43.4438285  75.7735061  31.7557533
  42.2504455  75.2934062  31.2805775  42.6597869  75.7730979  31.7465609
  58.4676373  78.9370221  27.8843438  58.2274596  78.0976636  27.8885864
  58.9468380  79.0170388  28.6084211  58.5028557  78.8251621  27.9918240
  54.1323142  74.7704400  19.5362411  53.6046161  74.8533144  18.8468120
  54.5918850  75.5122272  19.5327055  54.1224992  74.8925063  19.4337106
  60.4681560  75.7171678  25.8372697  60.2291330  75.6767513  24.9993481
  60.6315461  76.5642830  25.9638418  60.4571863  75.8363763  25.7326179
  57.0727590  80.1021628  31.7677742  57.7961789  79.6494154  31.5888762
  56.8077552  80.3826293  30.9850070  57.1408863  80.0772596  31.6256457
  45.9414458  74.6981801  28.5030621  45.3167529  74.7100193  27.8956574
  45.6060053  75.1741976  29.1521861  45.7999950  74.7700318  28.5087189
  46.1256207  73.0406920  14.5603306  45.7769011  73.6926645  15.0234855
  45.6452653  73.0264033  13.8327177  46.0026451  73.1349973  14.5214397
  52.8546380  80.2005506  29.9172757  52.2403373  79.6563556  30.2121392
  53.3713664  79.6869742  29.4378573  52.8402042  80.0441915  29.8896985
  52.0942677  81.2709776  27.6517055  51.6670285  80.6459495  27.2182491
  52.0867621  80.9884698  28.4776063  52.0301818  81.1362557  27.7096883
  45.2105204  76.3074949  30.7205489  45.3698691  75.5518273  31.1257211
  45.0298097  76.8565889  31.3746227  45.2070563  76.2768763  30.8768195
  53.1525507  68.4736185  31.2756279  52.6566068  68.6699859  30.5847846
  53.9094569  68.8728853  31.1045081  53.1912331  68.5613918  31.1476416
  50.4228386  72.1478530  27.8659589  50.4470874  71.6138643  27.1772369
  50.6739860  71.6395839  28.5285180  50.4638305  71.9939434  27.8624234
  37.9335976  79.4310025  27.3002734  37.8279425  79.3856870  26.4354818
  37.1836196  79.7763806  27.5817018  37.8071579  79.4750934  27.2140063
  46.7029709  70.8749349  27.2465334  46.7428080  71.3758555  27.9600041
  45.8779373  70.9659742  26.9771257  46.5869235  70.9631165  27.3115872
  48.8859322  80.4410089  35.3485628  48.0354952  80.5781803  35.4843273
  49.0487449  79.7073867  35.7933330  48.7843185  80.3524190  35.4341228
  48.1244072  77.3909859  29.5439233  47.2936002  77.5583677  29.3374481
  48.0695589  77.0145809  30.3288118  47.9933487  77.3599590  29.6287761
  45.9327855  70.8818752  35.1795644  46.5580559  70.3380884  35.4525076
  45.4778335  70.4013669  34.6103434  45.9576116  70.7308233  35.1357237
  46.4980116  75.6665450  20.0729351  46.6383077  76.1637914  20.7757992
  46.9962649  74.9651745  20.2143564  46.5921197  75.6367429  20.1980930
  46.5280338  76.5332561  17.4021927  47.1625418  77.1292986  17.3371389
  46.6105949  76.2336019  18.2167797  46.6336889  76.5773469  17.5125014
  59.5062904  79.0648039  30.2708291  60.0980744  79.7045289  30.3026490
  59.9421899  78.3671075  30.5600358  59.6581335  79.0566389  30.3189124
  48.1059321  72.4646537  17.3767369  48.4275162  71.9849619  16.7226632
  48.3686265  73.2746183  17.1858181  48.1925346  72.5136434  17.2522861
  51.3356294  83.4865411  30.8966185  50.8281385  84.0401258  31.3406816
  51.0382940  83.5473701  30.0784960  51.2161179  83.5771722  30.8414642
  53.5018476  71.8518731  29.7390848  53.9273548  71.3991257  29.1274375
  52.8875469  71.2978801  30.0155636  53.4747121  71.7032707  29.6895874
  43.0333326  78.7300402  20.6711473  43.5425555  79.3264909  21.0522779
  43.5067598  78.4626376  19.9887893  43.1776702  78.7786217  20.6265996
  51.9412699  68.3233830  23.1481425  51.2981017  68.1731477  23.7166564
  51.6012106  68.0776176  22.3830530  51.7957776  68.2645953  23.1184441
  56.5312045  76.2793257  22.5711434  55.8603235  76.8222959  22.4424500
  57.2251796  76.7488112  22.3293129  56.5340913  76.4291528  22.5166962
  56.6940173  72.7349141  25.4801807  57.0467783  72.3078864  26.1547606
  55.8354974  72.6499984  25.6102884  56.6189617  72.6593881  25.5996818
  45.3923858  75.3656660  23.5384654  44.6735847  75.7820793  23.8057517
  45.7636220  75.9310899  22.9876292  45.3415790  75.5105942  23.4967461
  54.6923439  75.9984509  29.4286649  54.6721366  75.8167805  30.2821428
  54.7402639  76.8696528  29.4046233  54.6958080  76.1001048  29.5509944
  52.6369769  82.5871701  35.3535126  52.5965623  81.9421378  34.7680282
  53.4493087  82.5308319  35.6660538  52.7512922  82.4830668  35.3132075
  51.1670432  74.4054660  18.8758033  50.5735271  74.7271657  18.3242600
  51.2045710  73.5595756  18.6679139  51.0844821  74.3278989  18.7640805
  58.1264233  67.8567553  26.4086120  57.6195098  67.1496692  26.3407297
  58.9231667  67.5260741  26.5387196  58.1691472  67.7040704  26.4185115
  54.0428249  74.3634165  22.3059783  53.8141942  74.3866866  21.4638142
  54.3026325  73.5391632  22.4254794  54.0474437  74.2450245  22.1984981
  48.3247477  76.2168638  31.9084884  47.8126380  75.6089821  32.2669915
  48.1526973  76.9325230  32.3758859  48.2237114  76.2331937  32.0301107
  43.1713192  74.6606213  34.5587245  43.0015782  75.3207588  34.0135452
  42.7279142  74.8712774  35.2799735  43.0812526  74.7892195  34.5848875
  47.0973011  72.9010711  23.6013979  47.5730378  73.2627791  22.9664160
  46.5961611  73.5567179  23.8814122  47.0938370  73.0504900  23.5490720
  52.2016548  74.1392883  34.3487139  52.7587978  73.9106692  33.7165605
  51.8777613  74.8998548  34.0722352  52.2362958  74.2176719  34.2143636
  40.0715256  77.5653079  29.8175735  39.5241976  76.8953724  29.9356604
  40.8607635  77.1982927  29.8819203  40.1067440  77.4118065  29.8444436
  49.9199665  77.2260536  35.3139146  50.6710992  77.5412213  35.6278700
  50.1122241  77.0239707  34.4873068  50.0591079  77.2427918  35.2382542
  49.1399664  75.0451911  16.9687363  49.5198629  75.0631540  16.1838478
  48.3992260  75.4905900  16.8478210  49.0868502  75.1133686  16.8350931
  56.7684955  73.3534102  22.5562942  56.7679181  73.1982759  23.4147218
  56.5641135  74.1997089  22.5004327  56.7384733  73.4554723  22.6750881
  38.8302226  76.7773887  26.9721758  38.6523987  76.3250496  27.6976674
  38.5421248  77.5800048  27.1560236  38.7615179  76.8296444  27.1065261
  54.4925807  78.0331604  26.2099149  54.9879472  77.3154599  26.1703169
  53.6825583  77.7302402  26.0953636  54.4469700  77.8829250  26.1872874
  40.5674696  79.3101610  24.0843517  39.7020215  79.2987301  23.9726289
  40.6673512  79.1231833  24.9314657  40.4548863  79.2807672  24.1932462
  56.5577626  80.7835291  28.8976277  56.9832697  80.2609713  28.3446702
  56.1934546  81.3816129  28.3764900  56.5664228  80.7945518  28.7385287
  53.1456225  84.4969556  25.2277435  53.6167404  85.2109818  25.3967420
  53.4816404  83.8968306  25.7637304  53.2651340  84.5141020  25.3309811
  50.0625720  69.2697026  32.1835530  50.1953626  68.4728020  32.5116505
  50.4470873  69.7963429  32.7633805  50.1382049  69.2296943  32.3179033
  53.7830172  84.2887490  31.9905128  53.2351118  83.6645373  31.7225193
  54.2443200  84.4781762  31.2749207  53.7697381  84.2246540  31.8455559
  56.5924036  72.3572844  29.3756320  56.0087025  72.8582051  28.9633887
  56.9128330  71.8502401  28.7420643  56.5537211  72.3564679  29.2214827
  49.1318835  71.2713439  19.6514995  49.9534529  71.4411752  19.4096690
  48.6688486  71.4260700  18.9281292  49.1849997  71.3195172  19.5086639
  47.7214167  69.2656201  30.4313423  48.2658580  68.9247328  31.0217765
  47.7751103  70.1241663  30.5734708  47.8103286  69.3411461  30.5395297
  22.1316039  13.1702490  22.7810778  22.8382807  12.6754521  22.9097713
  22.3203975  13.6111572  22.0513436  22.2643945  13.1620841  22.6919824
  19.2708334  16.5930027  20.6724854  19.3591680  16.4056167  21.5203064
  19.6998046  15.9467456  20.2729700  19.3470436  16.4693035  20.7396605
  16.8378793  15.8761187  19.6542516  16.2749628  15.4633797  20.1782177
  17.5999817  15.8014093  20.0735659  16.8673242  15.8038587  19.7935516
  13.4453691   8.1034795  21.3859561  13.6174195   7.9940690  22.2344843
  13.9823049   8.7489200  21.1490753  13.5498695   8.1826797  21.4764658
  19.3828393  16.0239046  23.3368637  20.1668810  16.1369894  23.7024379
  19.1824988  15.1980183  23.5327323  19.4694418  15.9185765  23.4203023
  19.5398786  17.9349148  16.9835093  18.7414032  17.6948648  17.2408961
  19.9884798  17.9863541  17.7302141  19.4873398  17.9071539  17.1320017
  18.5999523  11.6809593  24.8755281  17.8072504  11.9953105  25.0607901
  18.7148450  11.8961061  24.0376066  18.4994934  11.7593430  24.7793616
  19.5283316  11.5829797  19.8140578  20.1022178  10.9457041  19.9689142
  19.4498120  11.5833879  18.9450235  19.6016551  11.4894908  19.7086989
  24.8503464  12.9538774  19.8225431  24.6142101  12.1226839  19.7037492
  25.4946693  12.9024381  20.4080275  24.9098135  12.8236462  19.8911325
  25.8739884  12.7383223  15.8853726  25.5685701  13.4711280  16.2467041
  25.1546100  12.3321152  15.6046512  25.7227227  12.7864956  15.8966863
  31.5741677   9.3776224  15.2122070  31.5066177   9.3972183  14.3424656
  31.5597339  10.2206551  15.4377740  31.5620433   9.5049958  15.1174547
  16.0122685  11.9859207  18.0328558  15.5134378  12.6974975  18.1113446
  16.8222909  12.3059874  17.9946720  16.0578791  12.1386056  18.0385126
  14.9389743   4.8440252  23.3290856  14.1289518   5.1498031  23.2180698
  15.4164429   5.5645834  23.4443440  14.8893222   4.9954853  23.3297927
  21.5629139   9.8466997  20.4228767  21.5577178   8.9746813  20.4271194
  22.2690133  10.0455166  19.9498223  21.6674143   9.7470871  20.3535803
  15.2900033   9.5743981  19.7942588  15.4343408  10.1545189  19.1585698
  15.6375681   9.9520277  20.4992442  15.3627494   9.7164685  19.8041583
  14.3627788  17.7646753  16.6603614  14.5117351  17.2049668  16.0077019
  15.1427790  17.8438754  17.0436133  14.5001881  17.6932318  16.6200564
  16.8881088  17.9361395  17.9388105  16.8124759  17.2670206  18.4938894
  16.8170947  18.6379184  18.4528771  16.8661695  17.9406303  18.0964953
  16.2772723  21.3429715  16.3966106  16.7668653  20.6440504  16.2141771
  15.7056955  21.0453585  16.9842163  16.2657253  21.1955939  16.4567147
  22.4739726  13.9091785  25.3492897  23.2874591  13.6376933  25.5098029
  22.3134693  13.6099325  24.5453093  22.5709675  13.8246711  25.2538303
  21.9150976   6.2014507  19.2271592  21.1027658   5.8940397  19.3084765
  22.3740911   5.7213507  19.7914304  21.8631361   6.0850999  19.3226186
  19.0104484   7.6074578  24.0100294  19.4804115   8.2316695  24.3968168
  19.0566364   6.9391554  24.5693509  19.0872360   7.6009259  24.1500366
  22.4860970  14.9698075  20.6215737  23.1240691  14.4758271  20.2878193
  21.8435062  14.8975475  20.0367964  22.4855197  14.8857083  20.4858092
  22.5415227  15.6617883  17.2621094  23.3307605  15.3106948  17.3823176
  22.7158825  16.4754272  16.9997728  22.6835508  15.7303740  17.2408962
  14.1543553  14.2157729  18.2718578  14.0463908  14.2259791  19.1380636
  14.3639335  15.0412509  18.0823532  14.1693664  14.3398804  18.3722670
  28.2907767  11.2976141  16.7317794  28.3490890  11.7462790  17.4777771
  27.6574234  11.7074954  16.2947874  28.2059062  11.4249876  16.7770342
  21.9306861  16.9179683  13.1672540  21.7326550  17.4070497  12.4728752
  21.3094572  17.1220924  13.7456674  21.8094426  17.0196221  13.1495763
  23.8480663  10.4843835  18.7017789  24.5714862  10.0316362  18.5228809
  23.5830626  10.7648501  17.9190116  23.9161937  10.4594804  18.5596504
  15.6612395  10.8232296  22.2825675  14.8108025  10.9604010  22.4183320
  15.8240522  10.0896074  22.7273377  15.5596258  10.7346397  22.3681274
  26.2815977   9.4470246  17.2048338  26.8733817  10.0867497  17.2366536
  26.7174972   8.7493283  17.4940405  26.4334408   9.4388596  17.2529171
  18.1109367  13.8687618  17.8306232  17.6034458  14.4223465  18.2746863
  17.8136013  13.9295908  17.0125007  17.9914252  13.9593929  17.7754689
  17.3551852  18.8012177  14.7363239  17.1317507  18.0431006  15.1047265
  16.8661696  18.8310198  14.0143679  17.2495301  18.6934401  14.6839980
  19.4122842  12.9693909  22.2875173  19.3718697  12.3243586  21.7020329
  20.2246160  12.9130526  22.6000585  19.5265995  12.8652876  22.2472122
  18.9769621   4.5215090  21.2827186  19.5341051   4.2928899  20.6505651
  18.6530686   5.2820756  21.0062398  19.0116031   4.5998927  21.1483683
  16.6952738   7.6082743  22.2479193  17.4464065   7.9234420  22.5618747
  16.8875315   7.4061914  21.4213115  16.8344152   7.6250125  22.1722589
  23.3330699  11.1657499  15.8316324  23.7585771  10.6431921  15.2786749
  22.9687619  11.7638336  15.3104947  23.3417302  11.1767726  15.6725334
  12.9684779  19.4621716  14.5913670  13.2831338  20.2758105  14.5991451
  13.3778192  19.0771935  15.2595829  13.0752877  19.5250419  14.6917761
  22.0086283  16.4893076  24.3409554  22.1183249  15.7001637  24.6966301
  22.3377180  16.3999013  23.5383892  22.0738689  16.3598929  24.2751944
  20.5583245  14.6709697  18.9245174  20.0104191  14.0467581  18.6565240
  21.0196274  14.8603969  18.2089254  20.5450454  14.6068747  18.7795605
  20.1241571  15.6760770  15.4554516  20.9439945  15.5323736  15.7170811
  19.8435649  16.3006969  15.9970953  20.2038315  15.7471122  15.5742455
  36.5955222  23.3325622   8.4197392  36.5649226  24.1870258   8.5915661
  37.1936570  23.0320914   8.9783536  36.6792379  23.4142118   8.5272194
  29.7954906  22.4201273  13.1750322  28.9392802  22.5809771  13.2259439
  29.8422560  21.5493337  13.1955383  29.6754018  22.3152075  13.1856388
  24.1796046  31.9563991   8.9387554  23.4278946  31.5779529   8.7103599
  24.6282058  31.9882424   8.1906364  24.1345713  31.9049598   8.7945056
  29.6321006  32.3789360   4.3673101  29.2972374  33.0566282   3.9317323
  30.1447876  31.9894671   3.7789973  29.6586587  32.4213938   4.2159892
  29.1725297  34.3303629  10.3084213  29.5564677  34.8990527   9.7688988
  29.1084439  33.6053139   9.8290029  29.2198725  34.3079092  10.1578075
  32.6406727  24.4793317  15.8181974  33.1862687  25.1578403  15.8775944
  32.5823604  24.3380777  14.9583555  32.7122642  24.5585318  15.6994035
  25.7580802  31.9682383  11.2050326  25.8591165  31.1582737  11.5147454
  25.1622548  31.8739329  10.5750005  25.6853341  31.8347411  11.1576565
  34.4171796  25.9077924   6.6915702  34.3011322  26.6585610   7.1207840
  35.2127683  25.6501877   6.9411789  34.5176386  25.9812771   6.7919793
  25.5981542  36.8859972  12.6065182  26.2418997  37.3273136  12.9961341
  25.9237797  36.0813398  12.5195441  25.7413371  36.8325167  12.6510660
  18.9545847  27.9902669  10.8302660  18.7196031  27.1570322  10.7234929
  19.0931487  28.2707335  10.0163861  18.9401509  27.9086173  10.6945015
  26.3002122  29.8971947   7.9785044  26.6217963  30.4377154   7.3746352
  26.9474218  29.3268718   8.1107334  26.4428177  29.8931122   7.9092079
  28.3503830  21.8987942   8.0619431  29.0483994  22.0776069   8.5540894
  28.6656162  21.3758281   7.4389820  28.4999167  21.8481714   8.0421441
  20.9805067  23.7040682  15.9730537  20.8563764  24.2903127  16.6080356
  21.6323352  23.2100877  16.2742812  21.0578716  23.7179486  16.1116466
  28.5391765  28.2858387   8.0499222  28.9785401  27.6775487   8.4953995
  28.3896428  27.9065760   7.2784687  28.5813231  28.1396858   8.0018390
  26.0063408  26.8802399  15.2518048  26.6512411  26.3874842  14.9328996
  26.2465185  27.0227185  16.0784126  26.1373993  26.8279841  15.3267581
  28.5449499  29.7257304  14.9024940  28.8272742  28.9308710  14.6811696
  29.2735660  30.2037892  14.9230001  28.6939063  29.6791901  14.8727956
  26.5230693  17.2680338  12.1440705  26.1934023  17.7191482  11.4744404
  25.8475695  17.1896502  12.6913712  26.3741130  17.3231474  12.1263929
  32.1401102  26.6385568   5.0029992  32.0552397  27.4946535   5.1479560
  32.6285485  26.3629892   5.6712151  32.1989999  26.7242889   5.1232073
  33.7307101  13.2565861  10.3890316  33.4160542  13.9469340  10.8210738
  33.2134043  13.2010643   9.6875817  33.6071571  13.3500750  10.3487265
  33.0719535  23.2570362   6.5027727  32.5431006  23.4729996   7.1625033
  33.5944555  23.9506501   6.4228696  33.0707988  23.3913499   6.5883326
  38.5267588  28.8316667  11.8760771  37.6965291  29.0427310  12.0394188
  38.4776840  28.0053721  11.6003055  38.3974323  28.7406273  11.8598137
  20.5163171  32.8688340  12.1058866  20.0330749  33.5938830  12.0818450
  21.3286490  33.1664470  12.2169024  20.5653919  33.0190694  12.1186145
  26.5877325  31.6620521  14.7108681  26.0704267  31.3027936  14.1069989
  27.2851717  31.1382695  14.7214747  26.6142906  31.5318209  14.6238939
  27.8111377  31.3946495  19.6542516  27.2482212  30.9819105  20.1782177
  28.5732401  31.3199400  20.0735659  27.8405826  31.3223895  19.7935516
  23.3707369  33.3844516  12.2579146  24.0727948  32.8696505  12.3151903
  23.2904852  33.7118667  13.0626021  23.4631129  33.3558742  12.3851938
  38.0221546  21.4787067  15.6711193  37.1849967  21.5489254  15.9058787
  37.9909777  21.4811562  14.7985495  37.8939828  21.4897294  15.5770740
  24.4186275  23.6220103  21.3859561  24.5906779  23.5125998  22.2344843
  24.9555633  24.2674508  21.1490753  24.5231279  23.7012105  21.4764658
  22.6958144  29.5750868  11.7664754  23.5347043  29.8073801  11.8138516
  22.7269913  28.7055179  11.6971789  22.8239862  29.4807814  11.7629399
  23.3210847  29.9951743  16.0678060  23.8609072  29.8522874  16.7381432
  22.6380793  30.3948494  16.4362086  23.3003001  30.0331414  16.2212481
  32.7451732  25.6742744  11.2623084  33.5009247  26.1074258  11.3011993
  32.8514056  25.0247513  11.8357720  32.8721902  25.6420228  11.3521110
  35.7831903  29.5016021  12.0125487  35.3467135  29.5052763  12.7684458
  35.4494818  30.1821520  11.5805064  35.6694523  29.6028477  12.0606320
  18.7247992  26.2152034  16.2212481  18.4586407  25.3991151  16.3803471
  18.7386556  26.2605189  15.3507997  18.6872714  26.1008939  16.1165963
  35.7029386  16.5429849  14.2554915  36.3455294  16.6127953  14.8416830
  35.9552407  15.8759072  13.7534457  35.8351518  16.4556197  14.2682194
  23.4746598  19.7530412  18.8679489  22.7818395  19.2827392  19.1140220
  24.0906926  19.5268717  19.4421196  23.4631128  19.6497544  18.9888641
  30.5131370  33.4534456  16.9835093  29.7146616  33.2133956  17.2408961
  30.9617381  33.5048849  17.7302141  30.4605981  33.4256847  17.1320017
  29.8053057  29.5167072   3.2126047  30.2204205  29.1852096   2.5210543
  28.9744987  29.2835975   3.0846184  29.7441066  29.4338328   3.0916895
  19.1341406  27.0010813  13.5024225  18.9516979  26.9757699  12.6496518
  19.8691075  27.4709751  13.5413134  19.2155470  27.0672176  13.3822144
  35.2041080  27.2362323  10.6457113  35.4396669  27.3807522   9.8183964
  35.3530644  28.0004731  11.0388627  35.2606883  27.3701378  10.5820717
  22.1987157  23.7195816  20.0106334  22.9227130  23.7048847  20.4971229
  22.3003294  24.4291171  19.5128302  22.3205366  23.8220519  20.0085121
  37.0331537  26.0763989   8.4826717  37.3639754  26.6091629   7.8766812
  37.6064625  26.1302877   9.1388668  37.1665216  26.1633558   8.4904498
  32.2463426  23.9228892   9.1650297  32.3410280  24.6618186   9.6189922
  31.6222269  23.4946367   9.5984861  32.1672456  23.9690213   9.2958444
  30.5015900  27.1015105  19.8140578  31.0754761  26.4642349  19.9689142
  30.4230703  27.1019187  18.9450235  30.5749134  27.0080216  19.7086989
  19.1012316  23.8804314  13.6523292  19.6785819  23.7440765  14.2915537
  18.4026378  23.4240098  13.9068876  19.0833337  23.7926580  13.7845582
  25.8579618  25.5338370  11.8661775  25.5998862  24.7010105  11.8393075
  25.9128101  25.7595983  11.0254276  25.8279396  25.4436141  11.7381912
  30.9380668  17.6366820  11.9665868  30.2336995  17.1476006  12.1249787
  30.9865643  17.6489295  11.0954312  30.8410720  17.5656468  11.8605208
  24.8314330  23.0876132  12.3526670  24.2563922  23.2468301  12.9890631
  24.4550007  22.4511541  11.8895121  24.6917143  23.0173945  12.3781228
  28.4987619  21.5599481  17.2119048  28.1102052  21.1353699  16.5571240
  27.8342317  21.8081631  17.7196075  28.3434547  21.5338203  17.1906916
  38.1410888  21.3174486   9.9866878  37.8847453  20.5054428   9.7964761
  38.9840202  21.3252053   9.7597066  38.2276914  21.1986484   9.9251696
  32.3213981  15.2574110  14.7243033  32.7024492  14.5752281  15.1110907
  31.5177265  14.9683712  14.5418697  32.2590442  15.1141159  14.7547089
  29.6026557  25.7898086   5.4095855  30.4167196  26.0812979   5.2978627
  29.5385698  25.1357948   4.8354148  29.7129296  25.7363281   5.3084693
  25.4734465  29.2619603  10.5368167  26.1108412  29.0231351  11.0819961
  25.8989537  29.4656762   9.8021328  25.6310632  29.2570614  10.5085325
  20.1647108  31.5007940  14.4202471  20.2051253  31.7722791  13.5922251
  20.7241632  32.0249848  14.8360259  20.2530454  31.6183695  14.3594359
  26.2805821  17.7628308  24.5905641  25.9659262  18.5327871  24.3275204
  25.9595753  17.1998564  24.0057868  26.1864740  17.7938577  24.4646991
  36.8472468  28.2568531  15.8853726  36.5418285  28.9896588  16.2467041
  36.1278684  27.8506460  15.6046512  36.6959810  28.3050264  15.8966863
  27.8555937  29.7392026  12.2161954  27.9294946  29.5767198  13.0703804
  28.6725444  29.9282216  11.9722435  27.9872296  29.7428768  12.3059979
  42.5474260  24.8961532  15.2122070  42.4798760  24.9157491  14.3424656
  42.5329923  25.7391859  15.4377740  42.5353017  25.0235266  15.1174547
  21.6161694  30.0849889   9.2456397  20.7899812  30.3311626   9.1190676
  21.6773685  30.0061970  10.1118455  21.5035861  30.1094838   9.3545342
  32.9570607  16.2996689  18.5363159  33.7024199  16.1106500  18.1226585
  32.5407911  16.8254927  17.9777016  33.0055581  16.3498835  18.3927732
  26.3960523  32.7026769   6.9475427  26.6858822  32.3115750   6.2234654
  27.1264004  32.8843474   7.3880702  26.5467407  32.6720583   6.9058234
  40.3332878  23.6705918  13.4868664  40.8840799  23.0373987  13.7265756
  40.3176993  24.2021311  14.1784168  40.4118074  23.6554866  13.6247522
  26.9855268  27.5044515  18.0328558  26.4866962  28.2160283  18.1113446
  27.7955493  27.8245182  17.9946720  27.0311375  27.6571364  18.0385126
  24.3366439  34.6794152  10.0135577  24.1166734  34.3891506  10.8062244
  24.1160961  34.0209107   9.4853489  24.2714033  34.5393860  10.0524486
  23.2483386  26.7667468  12.2791278  22.9596635  26.1404939  12.8137006
  24.1166734  26.7087756  12.3455959  23.3343638  26.6655012  12.3682233
  34.0361284  21.9102251  12.5973260  33.6926050  21.1892587  12.9480510
  34.1354326  21.7016103  11.7551619  34.0003327  21.7726455  12.5244940
  26.5034394  36.0523542   8.7966269  27.1558452  35.5199984   9.0257295
  25.8060003  35.6992194   9.1834143  26.4965112  35.9213065   8.8878437
  23.4515659  28.4062719   8.2033644  24.2061627  28.7875758   8.4169106
  22.8586272  28.8573863   8.6580340  23.4752373  28.5291547   8.3016522
  34.4974313  28.3727956   8.1397248  35.0632345  29.0321165   8.0555791
  33.8502216  28.7177654   8.6113651  34.4853069  28.5209897   8.1970005
  25.9122326  20.3625559  23.3290856  25.1022102  20.6683339  23.2180698
  26.3897013  21.0831142  23.4443440  25.8625805  20.5140161  23.3297927
  24.7713886  29.5771280  13.5773759  24.2494639  29.7171572  14.2625624
  25.1587906  28.8181945  13.7675876  24.7517587  29.4856804  13.7074835
  30.9680891  31.3166740   7.5634328  30.7267567  30.5834600   7.1561393
  31.1482224  31.8653597   6.9100661  30.9588515  31.2889131   7.4064551
  26.1980212  26.6075300   8.9755250  26.0022994  27.2150034   8.3815553
  26.4214557  25.9143244   8.4946924  26.2014853  26.5952825   8.8171331
  24.5958742  23.4930037   9.0936118  25.3181393  23.6571196   8.6339924
  24.1166734  24.2139702   8.9875458  24.6322472  23.6228267   9.0101732
  32.5552249  19.8293836  14.4732803  31.7163350  19.8555115  14.2371067
  32.6256616  20.4764572  15.0538150  32.4420643  19.9289962  14.5241920
  22.2466358  25.8988110  18.1990258  22.7587455  26.1772363  17.5499018
  21.9602701  26.6377404  18.5653071  22.2801221  26.0490464  18.1580136
  31.0021527  16.7279213   9.2060419  31.7047880  16.5286962   8.7280377
  30.7365716  15.9555156   9.5129263  31.0668160  16.5842179   9.1805861
  36.4309773  25.0361823  11.7594045  36.3443747  25.1917249  12.6128824
  35.9760253  25.6799899  11.3853450  36.3513030  25.1537578  11.8301152
  25.7650084  17.9914498  18.2591300  25.5733281  18.0069633  19.1090723
  26.6148680  18.1878173  18.2357955  25.8625806  18.0228850  18.3814595
  20.1496997  20.5205480  16.2375116  20.0082488  19.6689421  16.3619624
  20.4337560  20.5634141  15.4137322  20.1704843  20.4005230  16.1342740
  30.3035589  22.3572570  10.3819605  30.0570303  22.2768321  11.2156393
  30.6320712  21.5726038  10.1882132  30.3156833  22.2298835  10.4767128
  34.1983638  29.0655929  14.1706386  34.0597997  29.7636975  14.6755128
  33.4183636  28.9104586  13.8142568  34.0626865  29.1456096  14.1932660
  26.2632616  25.0929289  19.7942588  26.4075992  25.6730497  19.1585698
  26.6108265  25.4705585  20.4992442  26.3360078  25.2349993  19.8041583
  28.4352534  24.2919457  17.5767719  27.6875848  24.4850471  17.1715997
  28.5894059  23.4664677  17.3391840  28.3474961  24.1984568  17.4813125
  25.3360371  33.2832060  16.6603614  25.4849935  32.7234976  16.0077019
  26.1160373  33.3624062  17.0436133  25.4734465  33.2117626  16.6200564
  35.6937011  28.4234183   4.9322885  35.3143819  27.6371321   4.9252174
  35.0303256  28.9721040   4.7894529  35.5395485  28.3879007   4.9103682
  27.8613672  33.4546703  17.9388105  27.7857343  32.7855514  18.4938894
  27.7903531  34.1564492  18.4528771  27.8394279  33.4591611  18.0964953
  28.6754311  18.1870008  18.4663123  29.1326925  18.9193982  18.5935915
  28.7510639  17.7636473  19.2250379  28.7545281  18.2327246  18.5964199
  20.9187302  18.4335828  19.5552567  20.3829491  17.8216186  19.8713334
  20.9805067  19.0083963  20.2086233  20.8482935  18.4282755  19.6987993
  33.1481637  11.3659883  12.3356966  33.2665205  11.8236346  11.6024269
  32.9743812  10.5605144  12.0493183  33.1400808  11.3153655  12.1857899
  28.5183919  31.9747702   8.7711711  29.2833810  31.7057346   8.4494375
  28.4162009  31.4897713   9.4881774  28.6165414  31.8637267   8.8291539
  26.5536689  20.1772112  15.3104947  25.7632763  19.9963572  15.6322283
  26.9497311  19.3999064  15.2935241  26.4953565  20.0359573  15.3557495
  31.9380375  27.8114542  13.0364393  31.2625377  27.5799774  13.5377780
  31.9472751  27.2035725  12.4106498  31.8398879  27.6873467  13.0180545
  29.0674519  22.6532371  19.7928446  29.0033660  23.5142327  19.6648583
  29.2071707  22.3364364  18.9923997  29.0789989  22.7332537  19.6556659
  33.9397109  30.6679674   5.2674571  34.0216947  31.4746660   4.9436022
  34.4246852  30.6875633   5.9915344  34.0234267  30.7900337   5.3261469
  27.7493613  25.3464510  13.9344649  27.3255862  25.5469009  13.1983667
  27.5738468  24.4993358  14.0468949  27.6604493  25.2513292  13.8418339
  27.2505306  36.8615023  16.3966106  27.7401237  36.1625812  16.2141771
  26.6789539  36.5638893  16.9842163  27.2389836  36.7141247  16.4567147
  23.0376058  25.8416562   9.3672621  23.1940677  25.7763364  10.2228613
  23.3776651  26.6165114   9.1551301  23.1109293  25.9465760   9.4627215
  29.5755202  25.2174445   8.2365984  30.1170748  24.7144826   8.7004605
  29.8901761  25.1639640   7.4255470  29.7019599  25.1353866   8.1849797
  27.7441652  30.6091797   5.5206012  27.8134472  29.7506335   5.6599013
  28.5230107  30.8263678   5.1925037  27.8694502  30.5144661   5.4923170
  30.7244472  20.1110750  18.2888285  30.9386441  19.4721664  17.7351639
  30.1078371  20.5556574  17.8596147  30.6649801  20.0820893  18.1438716
  32.1349140  33.0329498   9.7342506  31.7428931  32.7296213   9.0165372
  32.2902212  33.8698588   9.5447460  32.1002729  33.1113335   9.5999003
  32.8883560  21.7199815  19.2271592  32.0760241  21.4125705  19.3084765
  33.3473494  21.2398815  19.7914304  32.8363944  21.6036307  19.3226186
  32.2988814  29.5979487   9.6748536  31.9403469  29.7694130  10.4512569
  31.8127525  30.0592692   9.1176535  32.1747511  29.6918458   9.7073805
  30.1159200  13.2210685  13.2775628  29.2452758  13.1949406  13.2308937
  30.3699542  13.0487878  12.4601473  30.0252760  13.1920829  13.1495765
  29.9837067  23.1259886  24.0100294  30.4536698  23.7502003  24.3968168
  30.0298947  22.4576862  24.5693509  30.0604943  23.1194567  24.1500366
  27.1408341  15.2316914  14.7349098  26.6246829  14.5397105  14.8600677
  26.5802270  15.8987691  14.6811697  26.9814854  15.2280171  14.7455164
  29.2100574  15.7709874  16.5641951  28.8232327  15.7958905  17.3455481
  28.7233512  15.2051552  16.1116467  29.0813083  15.6905625  16.6129854
  35.1850554  22.3372529  15.1881653  34.7578162  22.2498877  14.4329752
  34.5476607  22.4450304  15.7736497  35.0280161  22.3405189  15.1627094
  28.8757716  12.6576859  18.8552211  29.5050834  13.1937159  18.5773281
  29.0443579  12.5654218  19.7065776  28.9935511  12.7238222  18.9400739
  28.6771631  17.4448054  21.1278622  29.5045060  17.1733203  21.1837237
  28.6979477  18.2408896  21.4842440  28.8024481  17.5227808  21.1893805
  33.5147810  31.1803191  17.2621094  34.3040189  30.8292256  17.3823176
  33.6891408  31.9939580  16.9997728  33.6568092  31.2489048  17.2408962
  23.2541121  24.5911917  14.3148883  22.4129127  24.4915791  14.5227777
  23.4631129  25.3607397  14.6663204  23.1605813  24.6903960  14.3976198
  20.7316688  22.2131454  12.1433634  20.3373385  22.2874466  11.3683743
  20.1756805  22.5989400  12.6941995  20.5919500  22.2813228  12.1101293
  32.3681635  15.1912748  11.8237512  32.5731228  15.1235056  12.6694510
  32.0408059  15.9971569  11.7558690  32.3496882  15.2998688  11.9397168
  27.0657786  22.5193316  13.5646480  26.7620923  21.9649304  14.1656888
  26.3637206  22.6985526  13.0774515  26.9173995  22.4638098  13.5816186
  25.1276137  29.7343037  18.2718578  25.0196492  29.7445099  19.1380636
  25.3371918  30.5597817  18.0823532  25.1426248  29.8584112  18.3722670
  35.6215322  15.7444512  11.3040278  35.0089636  16.2314914  11.6894010
  35.7179497  15.0688003  11.8477929  35.5453220  15.7162821  11.4419136
  23.1449929  26.9855679  15.7340516  22.5537862  27.6265177  15.7043531
  23.9070952  27.4093296  15.7071815  23.1698189  27.1431518  15.7255663
  23.5410551  18.1457677  16.4008533  24.0012033  18.2196606  17.1383657
  23.5866658  18.9438931  16.0508355  23.6161107  18.2751824  16.4581290
  25.1893901  18.8124372  20.9680560  24.7979466  18.1657719  21.4036338
  25.3579764  19.4035807  21.5874816  25.1564812  18.8038640  21.1243266
  39.2640350  26.8161449  16.7317794  39.3223474  27.2648098  17.4777771
  38.6306818  27.2260262  16.2947874  39.1791645  26.9435183  16.7770342
  32.9039445  32.4364991  13.1672540  32.7059134  32.9255805  12.4728752
  32.2827156  32.6406232  13.7456674  32.7827009  32.5381529  13.1495763
  26.9647423  24.2049888   7.5082784  27.7089468  24.5924164   7.7465734
  27.1108119  23.3607313   7.6723272  27.0958008  24.1380360   7.5676754
  28.8826999  16.0000146  12.5414646  28.0363044  16.1722954  12.4155996
  28.8798131  15.1949490  12.8780474  28.7574149  15.9061175  12.5725773
  29.9525299  19.7775361  13.4076704  29.4785253  19.2517123  13.9182015
  30.3243435  19.2304834  12.8391565  29.9375188  19.6191357  13.3991851
  20.3298329  21.7746868  18.7760250  21.1923942  21.6742577  18.6897579
  19.9990112  21.1941577  18.2145822  20.4083526  21.6738494  18.6805655
  36.2162030  24.8377737  14.8183484  35.9760253  23.9984152  14.8225911
  36.6954037  24.9177903  15.5424258  36.2514213  24.7259136  14.9258287
  38.2167217  21.6179194  12.7712743  37.9776987  21.5775028  11.9333528
  38.3801118  22.4650346  12.8978465  38.2057520  21.7371279  12.6666225
  34.8213247  26.0029143  18.7017789  35.5447446  25.5501669  18.5228809
  34.5563209  26.2833809  17.9190116  34.8894520  25.9780112  18.5596504
  23.6900115  20.5989317  15.4370668  23.0653185  20.6107709  14.8296620
  23.3545710  21.0749492  16.0861908  23.5485607  20.6707834  15.4427236
  20.4025791  28.6589777  16.8774432  19.8725715  27.9682216  16.9269407
  20.6750884  28.6499962  16.0487141  20.3650513  28.5556908  16.7621848
  31.4345881  29.2415479   5.6012115  32.1580080  29.7073592   5.4576688
  30.9946472  29.3089089   4.8509712  31.4761573  29.3199316   5.4696896
  30.6032036  26.1013021  16.8512804  29.9889029  25.5571072  17.1461439
  31.1199321  25.5877258  16.3718620  30.5887699  25.9449430  16.8237032
  29.8428333  27.1717291  14.5857102  29.4155942  26.5467010  14.1522538
  29.8353278  26.8892213  15.4116109  29.7787475  27.0370072  14.6436930
  22.9590861  22.2082464  17.6545536  23.1184347  21.4525788  18.0597258
  22.7783754  22.7573404  18.3086274  22.9556220  22.1776278  17.8108242
  30.9011164  14.3743700  18.2096326  30.4051725  14.5707374  17.5187892
  31.6580226  14.7736368  18.0385127  30.9397988  14.4621434  18.0816462
  28.1714043  18.0486046  14.7999636  28.1956530  17.5146158  14.1112416
  28.4225517  17.5403355  15.4625227  28.2123962  17.8946950  14.7964281
  15.6821633  25.3317541  14.2342780  15.5765082  25.2864385  13.3694864
  14.9321853  25.6771321  14.5157065  15.5557236  25.3758449  14.1480110
  24.4515365  16.7756864  14.1805381  24.4913737  17.2766071  14.8940088
  23.6265030  16.8667258  13.9111304  24.3354891  16.8638680  14.2455919
  26.6344978  26.3417604  22.2825675  25.7840609  26.4789318  22.4183320
  26.7973106  25.6081382  22.7273377  26.5328842  26.2531705  22.3681274
  25.8729729  23.2917374  16.4779280  25.0421658  23.4591192  16.2714528
  25.8181246  22.9153325  17.2628165  25.7419144  23.2607105  16.5627808
  23.6813512  16.7826267  22.1135690  24.3066215  16.2388400  22.3865123
  23.2263992  16.3021184  21.5443481  23.7061773  16.6315748  22.0697284
  37.2548561  24.9655554  17.2048338  37.8466401  25.6052805  17.2366536
  37.6907555  24.2678591  17.4940405  37.4066992  24.9573904  17.2529171
  29.0841951  29.3872926  17.8306232  28.5767042  29.9408773  18.2746863
  28.7868597  29.4481216  17.0125007  28.9646836  29.4779237  17.7754689
  31.2504133  17.7526246  16.6730895  31.6759204  17.2998772  16.0614422
  30.6361126  17.1986317  16.9495683  31.2232778  17.6040222  16.6235920
  31.6949731  33.3036184   5.7610176  30.9779041  33.1297046   5.2957413
  32.3456469  33.0688756   5.2285662  31.6851581  33.2431976   5.6139394
  34.2797702  22.1800772   9.5051481  33.6088892  22.7230475   9.3764546
  34.9737452  22.6495628   9.2633176  34.2826570  22.3299044   9.4507009
  28.3284436  34.3197484  14.7363239  28.1050090  33.5616314  15.1047265
  27.8394279  34.3495506  14.0143679  28.2227885  34.2119709  14.6839980
  34.4425830  18.6356656  12.4141854  34.7953440  18.2086379  13.0887653
  33.5840631  18.5507500  12.5442930  34.3675274  18.5601397  12.5336864
  23.1409515  21.2664176  10.4724701  22.4221504  21.6828308  10.7397564
  23.5121877  21.8318415   9.9216339  23.0901446  21.4113457  10.4307508
  32.4409095  21.8992025  16.3626696  32.4207023  21.7175320  17.2161475
  32.4888296  22.7704043  16.3386280  32.4443736  22.0008563  16.4849991
  30.3855425  28.4879217  22.2875173  30.3451280  27.8428894  21.7020329
  31.1978744  28.4315834  22.6000585  30.4998579  28.3838184  22.2472122
  26.9762893  34.5397943  12.1900324  26.5623291  33.8772073  11.8004165
  27.6610267  34.6875801  11.6696018  27.0161265  34.4638601  12.0556821
  30.3428187  33.6988028  12.9423940  29.9444470  33.8090298  12.1744761
  29.7279407  33.9070094  13.5250500  30.1927076  33.7461596  12.9155240
  35.8749890  13.7575068  13.3426167  35.3680754  13.0504208  13.2747344
  36.6717323  13.4268257  13.4727243  35.9177129  13.6048219  13.3525161
  31.7913906  20.2641680   9.2399830  31.5627599  20.2874382   8.3978188
  32.0511982  19.4399147   9.3594841  31.7960094  20.1457760   9.1325028
  26.0733134  22.1176153  18.8424930  25.5612037  21.5097336  19.2009962
  25.9012630  22.8332746  19.3098906  25.9722771  22.1339453  18.9641154
  20.9198849  20.5613729  21.4927292  20.7501439  21.2215103  20.9475499
  20.4764799  20.7720290  22.2139781  20.8298182  20.6899711  21.5188922
  24.8458668  18.8018226  10.5354026  25.3216034  19.1635306   9.9004207
  24.3447268  19.4574694  10.8154169  24.8424027  18.9512415  10.4830767
  38.0770030  28.2739995   6.3267031  38.4603635  29.0231351   6.5565128
  37.2814143  28.5205814   6.0679020  38.0163812  28.4209688   6.3224605
  29.9502204  20.0400398  21.2827186  30.5073635  19.8114207  20.6505651
  29.6263269  20.8006063  21.0062398  29.9848615  20.1184235  21.1483683
  17.8200913  23.4660594  16.7515782  17.2727633  22.7961240  16.8696650
  18.6093291  23.0990442  16.8159249  17.8553097  23.3125581  16.7784483
  27.6685322  23.1268051  22.2479193  28.4196649  23.4419728  22.5618747
  27.8607898  22.9247222  21.4213115  27.8076736  23.1435433  22.1722589
  34.5170612  19.2541617   9.4902989  34.5164838  19.0990274  10.3487265
  34.3126792  20.1004605   9.4344374  34.4870390  19.3562238   9.6090928
  16.5787883  22.6781402  13.9061805  16.4009644  22.2258011  14.6316721
  16.2906905  23.4807563  14.0900283  16.5100836  22.7303960  14.0405308
  32.2411464  23.9339119  13.1439195  32.7365129  23.2162114  13.1043216
  31.4311240  23.6309917  13.0293682  32.1955357  23.7836766  13.1212921
  27.6870075  27.7836933   5.2936200  26.8781398  27.4603606   5.2469509
  28.1944984  27.0770155   5.2264449  27.6419742  27.6318249   5.2766494
  18.3160353  25.2109126  11.0183564  17.4505872  25.1994816  10.9066335
  18.4159168  25.0239349  11.8654703  18.2034520  25.1815187  11.1272509
  34.3063283  26.6842807  15.8316324  34.7318354  26.1617229  15.2786749
  33.9420203  27.2823644  15.3104947  34.3149885  26.6953034  15.6725334
  23.9417362  34.9807024  14.5913670  24.2563921  35.7943413  14.5991451
  24.3510776  34.5957243  15.2595829  24.0485460  35.0435727  14.6917761
  30.8941882  30.3977071  12.1617482  31.3653060  31.1117334  12.3307467
  31.2302061  29.7975821  12.6977351  31.0136997  30.4148535  12.2649858
  27.8111377  15.1704542  19.1175576  27.9439283  14.3735535  19.4456552
  28.1956530  15.6970945  19.6973852  27.8867706  15.1304458  19.2519079
  31.5315828  30.1895005  18.9245174  30.9836774  29.5652889  18.6565240
  31.9928857  30.3789277  18.2089254  31.5183038  30.1254055  18.7795605
  30.8843732  12.0934868  15.7156670  30.0789696  11.9832597  16.0324508
  30.7550468  12.1947323  14.8586536  30.7463865  12.0918538  15.6364710
  34.3409693  18.2580360  16.3096367  33.7572682  18.7589566  15.8973934
  34.6613987  17.7509916  15.6760690  34.3022868  18.2572195  16.1554874
  25.4699824  15.1663717  17.3653470  26.0144237  14.8254843  17.9557812
  25.5236760  16.0249178  17.5074755  25.5588943  15.2418976  17.4735344
  21.2830383  28.9280133  14.2392278  21.8875240  28.8875967  13.6106099
  21.0757695  29.7751285  14.2696334  21.3419280  29.0468135  14.1508395
  31.0974155  31.1946078  15.4554516  31.9172529  31.0509044  15.7170811
  30.8168232  31.8192277  15.9970953  31.1770898  31.2656430  15.5742455
  16.5181665  27.9114750  14.1091201  16.4205943  27.1011022  14.4181258
  17.3010535  27.8906544  13.7237469  16.6197801  27.7881840  14.0978064
  47.5687805  38.8510930   8.4197392  47.5381809  39.7055566   8.5915661
  48.1669154  38.5506222   8.9783536  47.6524963  38.9327426   8.5272194
  40.7687490  37.9386581  13.1750322  39.9125385  38.0995079  13.2259439
  40.8155144  37.0678645  13.1955383  40.6486601  37.8337382  13.1856388
  35.1528630  47.4749298   8.9387554  34.4011529  47.0964837   8.7103599
  35.6014641  47.5067732   8.1906364  35.1078296  47.4234906   8.7945056
  40.6053590  47.8974668   4.3673101  40.2704958  48.5751590   3.9317323
  41.1180460  47.5079979   3.7789973  40.6319171  47.9399246   4.2159892
  40.1457881  49.8488937  10.3084213  40.5297260  50.4175835   9.7688988
  40.0817022  49.1238447   9.8290029  40.1931308  49.8264400  10.1578075
  43.6139311  39.9978625  15.8181974  44.1595271  40.6763711  15.8775944
  43.5556187  39.8566085  14.9583555  43.6855225  40.0770626  15.6994035
  36.7313386  47.4867691  11.2050326  36.8323749  46.6768045  11.5147454
  36.1355131  47.3924637  10.5750005  36.6585925  47.3532719  11.1576565
  45.3904380  41.4263232   6.6915702  45.2743906  42.1770918   7.1207840
  46.1860266  41.1687185   6.9411789  45.4908969  41.4998079   6.7919793
  36.5714125  52.4045280  12.6065182  37.2151581  52.8458444  12.9961341
  36.8970381  51.5998706  12.5195441  36.7145954  52.3510475  12.6510660
  29.9278430  43.5087977  10.8302660  29.6928615  42.6755630  10.7234929
  30.0664071  43.7892643  10.0163861  29.9134093  43.4271481  10.6945015
  32.2268518  35.6773708  13.7286968  31.6073549  35.0866355  13.5596983
  32.1252381  36.2685143  13.0951291  32.1206193  35.6777790  13.6091957
  37.2734705  45.4157255   7.9785044  37.5950546  45.9562462   7.3746352
  37.9206802  44.8454026   8.1107334  37.4160760  45.4116430   7.9092079
  39.3236413  37.4173250   8.0619431  40.0216578  37.5961377   8.5540894
  39.6388746  36.8943589   7.4389820  39.4731750  37.3667022   8.0421441
  31.9537651  39.2225990  15.9730537  31.8296347  39.8088435  16.6080356
  32.6055935  38.7286185  16.2742812  32.0311300  39.2364794  16.1116466
  39.5124349  43.8043695   8.0499222  39.9517984  43.1960795   8.4953995
  39.3629011  43.4251068   7.2784687  39.5545814  43.6582166   8.0018390
  36.9795992  42.3987706  15.2518048  37.6244994  41.9060150  14.9328996
  37.2197769  42.5412493  16.0784126  37.1106577  42.3465149  15.3267581
  39.5182083  45.2442612  14.9024940  39.8005326  44.4494018  14.6811696
  40.2468243  45.7223200  14.9230001  39.6671647  45.1977209  14.8727956
  37.4963277  32.7865646  12.1440705  37.1666607  33.2376790  11.4744404
  36.8208279  32.7081810  12.6913712  37.3473713  32.8416781  12.1263929
  43.1133685  42.1570876   5.0029992  43.0284980  43.0131843   5.1479560
  43.6018068  41.8815200   5.6712151  43.1722582  42.2428197   5.1232073
  44.7039685  28.7751169  10.3890316  44.3893126  29.4654648  10.8210738
  44.1866626  28.7195951   9.6875817  44.5804155  28.8686058  10.3487265
  44.0452118  38.7755670   6.5027727  43.5163590  38.9915304   7.1625033
  44.5677138  39.4691809   6.4228696  44.0440571  38.9098807   6.5883326
  49.5000171  44.3501975  11.8760771  48.6697874  44.5612618  12.0394188
  49.4509424  43.5239029  11.6003055  49.3706907  44.2591581  11.8598137
  35.9351726  42.6718887   5.3035195  35.3508941  43.1768918   5.7101059
  35.5321821  42.4461274   4.5631787  35.7891030  42.7127135   5.2540220
  31.4895755  48.3873648  12.1058866  31.0063333  49.1124138  12.0818450
  32.3019073  48.6849778  12.2169024  31.5386503  48.5376002  12.1186145
  37.5609909  47.1805829  14.7108681  37.0436851  46.8213244  14.1069989
  38.2584300  46.6568003  14.7214747  37.5875490  47.0503517  14.6238939
  38.7843961  46.9131803  19.6542516  38.2214795  46.5004413  20.1782177
  39.5464984  46.8384708  20.0735659  38.8138409  46.8409203  19.7935516
  40.3928941  38.9184539   3.7804115  40.6324944  39.1262523   2.9679458
  40.7144782  38.1142048   3.8893060  40.4766099  38.8298640   3.6764668
  35.7019231  30.8477935   7.6263653  36.4565199  31.2156252   7.3880703
  35.5246765  31.2217489   8.3942833  35.7873709  30.9576123   7.7048542
  34.3439952  48.9029824  12.2579146  35.0460531  48.3881813  12.3151903
  34.2637435  49.2303975  13.0626021  34.4363713  48.8744050  12.3851938
  48.9954130  36.9972375  15.6711193  48.1582551  37.0674562  15.9058787
  48.9642361  36.9996870  14.7985495  48.8672412  37.0082602  15.5770740
  35.3918859  39.1405411  21.3859561  35.5639362  39.0311305  22.2344843
  35.9288216  39.7859816  21.1490753  35.4963863  39.2197412  21.4764658
  34.0576296  33.2548254   4.3241766  33.8751869  33.4720134   3.4982759
  34.9201909  33.3687266   4.3800381  34.1580885  33.3038152   4.2096253
  33.6690728  45.0936176  11.7664754  34.5079627  45.3259109  11.8138516
  33.7002497  44.2240487  11.6971789  33.7972445  44.9993122  11.7629399
  34.2943431  45.5137051  16.0678060  34.8341655  45.3708182  16.7381432
  33.6113377  45.9133802  16.4362086  34.2735584  45.5516722  16.2212481
  39.7376015  30.2574664   7.3590790  40.4662175  30.0790619   6.9128946
  39.8270908  31.0992744   7.5697968  39.8582677  30.3558543   7.3244308
  43.7184315  41.1928052  11.2623084  44.4741830  41.6259566  11.3011993
  43.8246640  40.5432821  11.8357720  43.8454486  41.1605536  11.3521110
  46.7564487  45.0201329  12.0125487  46.3199718  45.0238071  12.7684458
  46.4227402  45.7006828  11.5805064  46.6427106  45.1213785  12.0606320
  29.6980576  41.7337342  16.2212481  29.4318991  40.9176459  16.3803471
  29.7119140  41.7790497  15.3507997  29.6605298  41.6194247  16.1165963
  46.6761969  32.0615157  14.2554915  47.3187878  32.1313261  14.8416830
  46.9284990  31.3944380  13.7534457  46.8084102  31.9741505  14.2682194
  33.6038323  36.5322426   2.8364239  32.8896500  36.2460606   3.2486672
  34.0882291  36.8719052   3.4770627  33.5697686  36.5404076   2.9919874
  34.4479182  35.2715720  18.8679489  33.7550979  34.8012700  19.1140220
  35.0639509  35.0454025  19.4421196  34.4363712  35.1682852  18.9888641
  41.4863953  48.9719764  16.9835093  40.6879199  48.7319264  17.2408961
  41.9349965  49.0234157  17.7302141  41.4338565  48.9442155  17.1320017
  49.8908833  41.7382249  10.9045124  50.5525267  41.1772917  10.8041033
  49.2500245  41.2434280  11.2297815  49.8937700  41.5818658  10.9377464
  40.7785640  45.0352380   3.2126047  41.1936789  44.7037404   2.5210543
  39.9477570  44.8021282   3.0846184  40.7173649  44.9523636   3.0916895
  30.1073989  42.5196121  13.5024225  29.9249562  42.4943007  12.6496518
  30.8423658  42.9895059  13.5413134  30.1888053  42.5857483  13.3822144
  46.1773663  42.7547631  10.6457113  46.4129253  42.8992830   9.8183964
  46.3263227  43.5190039  11.0388627  46.2339467  42.8886686  10.5820717
  33.1719741  39.2381124  20.0106334  33.8959713  39.2234155  20.4971229
  33.2735877  39.9476479  19.5128302  33.2937950  39.3405827  20.0085121
  48.0064120  41.5949297   8.4826717  48.3372337  42.1276937   7.8766812
  48.5797208  41.6488185   9.1388668  48.1397799  41.6818866   8.4904498
  43.2196009  39.4414200   9.1650297  43.3142864  40.1803494   9.6189922
  42.5954853  39.0131675   9.5984861  43.1405039  39.4875520   9.2958444
  41.4748483  42.6200412  19.8140578  42.0487345  41.9827657  19.9689142
  41.3963287  42.6204495  18.9450235  41.5481718  42.5265524  19.7086989
  30.0744900  39.3989622  13.6523292  30.6518402  39.2626073  14.2915537
  29.3758961  38.9425406  13.9068876  30.0565921  39.3111888  13.7845582
  43.4719031  41.2862940   2.3987249  43.3899193  41.3565127   3.2642236
  44.1098751  41.8492684   2.2070990  43.5538868  41.3801911   2.4977198
  36.8312202  41.0523678  11.8661775  36.5731446  40.2195412  11.8393075
  36.8860685  41.2781291  11.0254276  36.8011980  40.9621449  11.7381912
  41.9113252  33.1552128  11.9665868  41.2069579  32.6661314  12.1249787
  41.9598226  33.1674603  11.0954312  41.8143303  33.0841776  11.8605208
  35.8046914  38.6061440  12.3526670  35.2296505  38.7653608  12.9890631
  35.4282590  37.9696849  11.8895121  35.6649726  38.5359253  12.3781228
  39.4720203  37.0784789  17.2119048  39.0834635  36.6539007  16.5571240
  38.8074901  37.3266939  17.7196075  39.3167130  37.0523510  17.1906916
  49.1143472  36.8359794   9.9866878  48.8580037  36.0239736   9.7964761
  49.9572786  36.8437361   9.7597066  49.2009497  36.7171792   9.9251696
  25.5503733  38.2501515  10.3671111  25.6363985  37.8733383  11.1484641
  26.1779530  37.8761960   9.8891069  25.6560284  38.1386997  10.4116588
  43.2946564  30.7759418  14.7243033  43.6757076  30.0937589  15.1110907
  42.4909848  30.4869020  14.5418697  43.2323026  30.6326467  14.7547089
  40.5759141  41.3083394   5.4095855  41.3899780  41.5998287   5.2978627
  40.5118282  40.6543256   4.8354148  40.6861880  41.2548589   5.3084693
  46.7968631  43.9909390  19.8225431  46.5607268  43.1597455  19.7037492
  47.4411860  43.9394997  20.4080275  46.8563302  43.8607078  19.8911325
  36.4467049  44.7804911  10.5368167  37.0840996  44.5416659  11.0819961
  36.8722121  44.9842070   9.8021328  36.6043215  44.7755922  10.5085325
  31.1379691  47.0193248  14.4202471  31.1783837  47.2908099  13.5922251
  31.6974216  47.5435156  14.8360259  31.2263037  47.1369003  14.3594359
  37.0869864  40.0007201   4.8743057  37.4715017  39.7814908   5.6259602
  36.8381484  40.8270147   5.0044133  37.1071937  40.0905347   5.0044133
  47.8205052  43.7753839  15.8853726  47.5150869  44.5081896  16.2467041
  47.1011267  43.3691768  15.6046512  47.6692394  43.8235572  15.8966863
  38.8288521  45.2577334  12.2161954  38.9027529  45.0952506  13.0703804
  39.6458027  45.4467524  11.9722435  38.9604880  45.2614076  12.3059979
  53.5206844  40.4146840  15.2122070  53.4531344  40.4342799  14.3424656
  53.5062506  41.2577167  15.4377740  53.5085600  40.5420574  15.1174547
  32.5894278  45.6035197   9.2456397  31.7632395  45.8496934   9.1190676
  32.6506269  45.5247278  10.1118455  32.4768445  45.6280146   9.3545342
  34.8070301  31.6704138  10.2051837  33.9392727  31.7426737  10.2709447
  35.0945506  32.4726217  10.3939812  34.7210050  31.7998285  10.2426604
  43.9303190  31.8181997  18.5363159  44.6756782  31.6291808  18.1226585
  43.5140495  32.3440235  17.9777016  43.9788164  31.8684143  18.3927732
  37.3693107  48.2212077   6.9475427  37.6591405  47.8301058   6.2234654
  38.0996588  48.4028782   7.3880702  37.5199991  48.1905891   6.9058234
  51.3065461  39.1891226  13.4868664  51.8573383  38.5559295  13.7265756
  51.2909576  39.7206619  14.1784168  51.3850657  39.1740174  13.6247522
  37.9587852  43.0229823  18.0328558  37.4599546  43.7345591  18.1113446
  38.7688076  43.3430490  17.9946720  38.0043959  43.1756672  18.0385126
  35.3099022  50.1979460  10.0135577  35.0899318  49.9076814  10.8062244
  35.0893544  49.5394415   9.4853489  35.2446617  50.0579168  10.0524486
  34.2215970  42.2852776  12.2791278  33.9329218  41.6590247  12.8137006
  35.0899318  42.2273063  12.3455959  34.3076221  42.1840320  12.3682233
  45.0093867  37.4287559  12.5973260  44.6658633  36.7077895  12.9480510
  45.1086910  37.2201411  11.7551619  44.9735910  37.2911763  12.5244940
  37.4766978  51.5708849   8.7966269  38.1291036  51.0385292   9.0257295
  36.7792587  51.2177502   9.1834143  37.4697696  51.4398372   8.8878437
  34.4248243  43.9248027   8.2033644  35.1794211  44.3061066   8.4169106
  33.8318856  44.3759171   8.6580340  34.4484956  44.0476854   8.3016522
  45.4706896  43.8913263   8.1397248  46.0364929  44.5506473   8.0555791
  44.8234800  44.2362962   8.6113651  45.4585653  44.0395205   8.1970005
  36.8854910  35.8810867  23.3290856  36.0754686  36.1868647  23.2180698
  37.3629597  36.6016450  23.4443440  36.8358389  36.0325469  23.3297927
  35.7446470  45.0956588  13.5773759  35.2227223  45.2356880  14.2625624
  36.1320490  44.3367253  13.7675876  35.7250170  45.0042112  13.7074835
  32.7337654  35.1462397   7.6468714  32.4462449  34.7763668   6.9100661
  33.4208122  35.6157252   7.3852419  32.7926551  35.1609367   7.4983789
  41.9413474  46.8352048   7.5634328  41.7000150  46.1019908   7.1561393
  42.1214807  47.3838905   6.9100661  41.9321098  46.8074439   7.4064551
  37.1712795  42.1260607   8.9755250  36.9755578  42.7335342   8.3815553
  37.3947141  41.4328551   8.4946924  37.1747436  42.1138133   8.8171331
  35.5691325  39.0115345   9.0936118  36.2913977  39.1756503   8.6339924
  35.0899318  39.7325010   8.9875458  35.6055056  39.1413575   9.0101732
  43.5284833  35.3479144  14.4732803  42.6895933  35.3740423  14.2371067
  43.5989200  35.9949880  15.0538150  43.4153226  35.4475270  14.5241920
  33.2198942  41.4173418  18.1990258  33.7320039  41.6957671  17.5499018
  32.9335284  42.1562712  18.5653071  33.2533805  41.5675771  18.1580136
  41.9754111  32.2464521   9.2060419  42.6780464  32.0472269   8.7280377
  41.7098300  31.4740464   9.5129263  42.0400743  32.1027487   9.1805861
  47.4042357  40.5547131  11.7594045  47.3176331  40.7102557  12.6128824
  46.9492836  41.1985206  11.3853450  47.3245613  40.6722886  11.8301152
  30.3065848  35.9243610   8.4953995  30.4081985  36.7269771   8.8234970
  31.1021735  35.7230946   8.1977075  30.4393754  36.0129508   8.4989350
  36.7382667  33.5099806  18.2591300  36.5465864  33.5254941  19.1090723
  37.5881263  33.7063481  18.2357955  36.8358389  33.5414158  18.3814595
  31.1229580  36.0390788  16.2375116  30.9815072  35.1874729  16.3619624
  31.4070144  36.0819448  15.4137322  31.1437426  35.9190538  16.1342740
  41.2768173  37.8757878  10.3819605  41.0302887  37.7953629  11.2156393
  41.6053296  37.0911346  10.1882132  41.2889416  37.7484143  10.4767128
  45.1716221  44.5841237  14.1706386  45.0330581  45.2822283  14.6755128
  44.3916219  44.4289894  13.8142568  45.0359448  44.6641404  14.1932660
  43.5094307  40.8837613  20.4228767  43.5042345  40.0117429  20.4271194
  44.2155300  41.0825782  19.9498223  43.6139311  40.7841487  20.3535803
  37.2365200  40.6114597  19.7942588  37.3808576  41.1915805  19.1585698
  37.5840848  40.9890893  20.4992442  37.3092661  40.7535301  19.8041583
  39.4085117  39.8104765  17.5767719  38.6608431  40.0035779  17.1715997
  39.5626642  38.9849985  17.3391840  39.3207545  39.7169876  17.4813125
  36.3092955  48.8017368  16.6603614  36.4582519  48.2420284  16.0077019
  37.0892957  48.8809370  17.0436133  36.4467048  48.7302934  16.6200564
  46.6669594  43.9419491   4.9322885  46.2876403  43.1556629   4.9252174
  46.0035840  44.4906348   4.7894529  46.5128069  43.9064315   4.9103682
  38.8346256  48.9732011  17.9388105  38.7589927  48.3040822  18.4938894
  38.7636115  49.6749799  18.4528771  38.8126862  48.9776919  18.0964953
  39.6486894  33.7055316  18.4663123  40.1059508  34.4379290  18.5935915
  39.7243223  33.2821781  19.2250379  39.7277864  33.7512554  18.5964199
  31.8919885  33.9521135  19.5552567  31.3562075  33.3401494  19.8713334
  31.9537650  34.5269271  20.2086233  31.8215518  33.9468063  19.6987993
  44.1214220  26.8845191  12.3356966  44.2397788  27.3421654  11.6024269
  43.9476396  26.0790452  12.0493183  44.1133391  26.8338963  12.1857899
  39.4916502  47.4933010   8.7711711  40.2566394  47.2242654   8.4494375
  39.3894592  47.0083021   9.4881774  39.5897998  47.3822575   8.8291539
  37.5269272  35.6957420  15.3104947  36.7365347  35.5148880  15.6322283
  37.9229895  34.9184372  15.2935241  37.4686148  35.5544881  15.3557495
  42.0135163  44.5245194   0.7511661  42.7808148  44.5845319   0.3417512
  41.5666472  43.9525635   0.2667979  42.0608590  44.4481770   0.6189371
  42.9112958  43.3299850  13.0364393  42.2357960  43.0985082  13.5377780
  42.9205335  42.7221033  12.4106498  42.8131463  43.2058775  13.0180545
  40.0407102  38.1717679  19.7928446  39.9766244  39.0327635  19.6648583
  40.1804290  37.8549672  18.9923997  40.0522573  38.2517845  19.6556659
  44.9129693  46.1864982   5.2674571  44.9949530  46.9931968   4.9436022
  45.3979435  46.2060941   5.9915344  44.9966851  46.3085645   5.3261469
  38.7226196  40.8649818  13.9344649  38.2988445  41.0654317  13.1983667
  38.5471052  40.0178666  14.0468949  38.6337077  40.7698600  13.8418339
  34.0108641  41.3601870   9.3672621  34.1673260  41.2948672  10.2228613
  34.3509234  42.1350422   9.1551301  34.0841876  41.4651068   9.4627215
  40.5487786  40.7359753   8.2365984  41.0903331  40.2330134   8.7004605
  40.8634345  40.6824948   7.4255470  40.6752183  40.6539174   8.1849797
  38.7174236  46.1277105   5.5206012  38.7867056  45.2691643   5.6599013
  39.4962691  46.3448986   5.1925037  38.8427086  46.0329969   5.4923170
  41.6977055  35.6296058  18.2888285  41.9119025  34.9906972  17.7351639
  41.0810954  36.0741881  17.8596147  41.6382385  35.6006201  18.1438716
  43.1081723  48.5514806   9.7342506  42.7161515  48.2481521   9.0165372
  43.2634795  49.3883896   9.5447460  43.0735313  48.6298643   9.5999003
  30.5842903  38.5436820   9.6833388  30.9641868  38.9621365   9.0193656
  30.0098268  39.1250276   9.9902232  30.5554228  38.6914679   9.6310129
  43.8616143  37.2385123  19.2271592  43.0492825  36.9311013  19.3084765
  44.3206078  36.7584123  19.7914304  43.8096528  37.1221615  19.3226186
  43.2721398  45.1164795   9.6748536  42.9136053  45.2879438  10.4512569
  42.7860109  45.5778000   9.1176535  43.1480095  45.2103766   9.7073805
  41.0891784  28.7395993  13.2775628  40.2185342  28.7134714  13.2308937
  41.3432125  28.5673185  12.4601473  40.9985344  28.7106137  13.1495765
  38.0609763  40.7963960   2.2148771  38.3502288  41.5728843   2.4892345
  38.1481562  40.2852692   2.9163270  38.1164020  40.8355879   2.3591269
  38.1140924  30.7502222  14.7349098  37.5979413  30.0582413  14.8600677
  37.5534853  31.4172999  14.6811697  37.9547438  30.7465479  14.7455164
  40.1833158  31.2895182  16.5641951  39.7964911  31.3144213  17.3455481
  39.6966095  30.7236860  16.1116467  40.0545667  31.2090933  16.6129854
  46.1583137  37.8557837  15.1881653  45.7310745  37.7684185  14.4329752
  45.5209190  37.9635612  15.7736497  46.0012745  37.8590497  15.1627094
  39.8490300  28.1762167  18.8552211  40.4783418  28.7122467  18.5773281
  40.0176162  28.0839526  19.7065776  39.9668094  28.2423529  18.9400739
  39.6504215  32.9633362  21.1278622  40.4777644  32.6918511  21.1837237
  39.6712061  33.7594204  21.4842440  39.7757065  33.0413116  21.1893805
  44.4880394  46.6988499  17.2621094  45.2772772  46.3477564  17.3823176
  44.6623992  47.5124887  16.9997728  44.6300676  46.7674356  17.2408962
  34.2273704  40.1097225  14.3148883  33.3861711  40.0101099  14.5227777
  34.4363712  40.8792705  14.6663204  34.1338397  40.2089268  14.3976198
  31.7049271  37.7316762  12.1433634  31.3105969  37.8059774  11.3683743
  31.1489388  38.1174708  12.6941995  31.5652084  37.7998536  12.1101293
  43.3414218  30.7098056  11.8237512  43.5463811  30.6420364  12.6694510
  43.0140642  31.5156877  11.7558690  43.3229466  30.8183996  11.9397168
  38.0390369  38.0378624  13.5646480  37.7353507  37.4834612  14.1656888
  37.3369790  38.2170834  13.0774515  37.8906579  37.9823406  13.5816186
  37.0956466  35.3479144   8.1291182  37.3716201  34.6298056   7.7168750
  37.6955136  35.9464064   7.9212288  37.2249731  35.3299514   8.0371943
  36.1008720  45.2528345  18.2718578  35.9929075  45.2630407  19.1380636
  36.3104502  46.0783125  18.0823532  36.1158831  45.3769419  18.3722670
  46.5947906  31.2629820  11.3040278  45.9822219  31.7500222  11.6894010
  46.6912081  30.5873311  11.8477929  46.5185803  31.2348129  11.4419136
  40.5966987  33.0192661   6.4037777  41.0510733  33.1903222   7.1285622
  41.0707033  32.4060772   6.0035553  40.7335307  32.9543546   6.4511539
  34.1182512  42.5040987  15.7340516  33.5270445  43.1450485  15.7043531
  34.8803536  42.9278604  15.7071815  34.1430773  42.6616825  15.7255663
  34.5143135  33.6642985  16.4008533  34.9744617  33.7381914  17.1383657
  34.5599242  34.4624239  16.0508355  34.5893690  33.7937132  16.4581290
  36.1626485  34.3309680  20.9680560  35.7712050  33.6843027  21.4036338
  36.3312347  34.9221115  21.5874816  36.1297395  34.3223948  21.1243266
  50.2372934  42.3346757  16.7317794  50.2956057  42.7833405  17.4777771
  49.6039401  42.7445570  16.2947874  50.1524229  42.4620491  16.7770342
  43.8772028  47.9550299  13.1672540  43.6791717  48.4441113  12.4728752
  43.2559740  48.1591540  13.7456674  43.7559593  48.0566837  13.1495763
  37.9380007  39.7235195   7.5082784  38.6822052  40.1109472   7.7465734
  38.0840703  38.8792621   7.6723272  38.0690592  39.6565668   7.5676754
  39.8559582  31.5185454  12.5414646  39.0095627  31.6908262  12.4155996
  39.8530715  30.7134798  12.8780474  39.7306732  31.4246483  12.5725773
  40.9257883  35.2960669  13.4076704  40.4517837  34.7702431  13.9182015
  41.2976018  34.7490142  12.8391565  40.9107772  35.1376665  13.3991851
  31.3030913  37.2932175  18.7760250  32.1656526  37.1927885  18.6897579
  30.9722696  36.7126885  18.2145822  31.3816109  37.1923802  18.6805655
  47.1894613  40.3563044  14.8183484  46.9492836  39.5169460  14.8225911
  47.6686620  40.4363211  15.5424258  47.2246797  40.2444444  14.9258287
  42.8541382  36.1897223   6.4702458  42.3264401  36.2725967   5.7808166
  43.3137090  36.9315095   6.4667102  42.8443233  36.3117886   6.3677153
  49.1899800  37.1364502  12.7712743  48.9509570  37.0960336  11.9333528
  49.3533702  37.9835654  12.8978465  49.1790104  37.2556587  12.6666225
  45.7945830  41.5214451  18.7017789  46.5180029  41.0686977  18.5228809
  45.5295793  41.8019117  17.9190116  45.8627104  41.4965419  18.5596504
  34.6632699  36.1174624  15.4370668  34.0385769  36.1293016  14.8296620
  34.3278294  36.5934800  16.0861908  34.5218191  36.1893141  15.4427236
  34.8474447  34.4599743   1.4943353  34.4987252  35.1119468   1.9574902
  34.3670893  34.4456856   0.7667224  34.7244691  34.5542797   1.4554444
  31.3758374  44.1775085  16.8774432  30.8458299  43.4867524  16.9269407
  31.6483468  44.1685270  16.0487141  31.3383097  44.0742216  16.7621848
  42.4078465  44.7600787   5.6012115  43.1312664  45.2258900   5.4576688
  41.9679056  44.8274397   4.8509712  42.4494157  44.8384624   5.4696896
  41.5764620  41.6198329  16.8512804  40.9621613  41.0756379  17.1461439
  42.0931905  41.1062566  16.3718620  41.5620282  41.4634738  16.8237032
  40.8160917  42.6902599  14.5857102  40.3888525  42.0652318  14.1522538
  40.8085861  42.4077521  15.4116109  40.7520058  42.5555380  14.6436930
  33.9323444  37.7267772  17.6545536  34.0916931  36.9711096  18.0597258
  33.7516338  38.2758712  18.3086274  33.9288803  37.6961586  17.8108242
  41.8743747  29.8929008  18.2096326  41.3784308  30.0892682  17.5187892
  42.6312809  30.2921676  18.0385127  41.9130572  29.9806742  18.0816462
  39.1446627  33.5671354  14.7999636  39.1689114  33.0331466  14.1112416
  39.3958100  33.0588663  15.4625227  39.1856545  33.4132258  14.7964281
  26.6554217  40.8502849  14.2342780  26.5497666  40.8049693  13.3694864
  25.9054437  41.1956629  14.5157065  26.5289819  40.8943757  14.1480110
  35.4247949  32.2942172  14.1805381  35.4646321  32.7951379  14.8940088
  34.5997614  32.3852566  13.9111304  35.3087475  32.3823988  14.2455919
  37.6077562  41.8602912  22.2825675  36.7573192  41.9974626  22.4183320
  37.7705690  41.1266690  22.7273377  37.5061425  41.7717013  22.3681274
  36.8462312  38.8102682  16.4779280  36.0154242  38.9776500  16.2714528
  36.7913830  38.4338633  17.2628165  36.7151727  38.7792413  16.5627808
  35.2198356  37.0858273   7.0069397  35.3601317  37.5830738   7.7098039
  35.7180889  36.3844568   7.1483611  35.3139437  37.0560252   7.1320976
  35.2498579  37.9525384   4.3361974  35.8843658  38.5485809   4.2711436
  35.3324189  37.6528842   5.1507844  35.3555130  37.9966293   4.4465061
  48.2281144  40.4840862  17.2048338  48.8198985  41.1238112  17.2366536
  48.6640139  39.7863898  17.4940405  48.3799576  40.4759212  17.2529171
  36.8277561  33.8839360   4.3107416  37.1493403  33.4042442   3.6566678
  37.0904505  34.6939006   4.1198228  36.9143587  33.9329258   4.1862908
  40.0574534  44.9058234  17.8306232  39.5499625  45.4594081  18.2746863
  39.7601180  44.9666524  17.0125007  39.9379419  44.9964545  17.7754689
  42.2236716  33.2711554  16.6730895  42.6491788  32.8184080  16.0614422
  41.6093710  32.7171624  16.9495683  42.1965362  33.1225530  16.6235920
  31.7551566  40.1493225   7.6051520  32.2643796  40.7457733   7.9862826
  32.2285839  39.8819199   6.9227940  31.8994942  40.1979041   7.5606043
  42.6682315  48.8221492   5.7610176  41.9511624  48.6482354   5.2957413
  43.3189052  48.5874064   5.2285662  42.6584165  48.7617284   5.6139394
  40.6630939  29.7426654  10.0821472  40.0199257  29.5924300  10.6506611
  40.3230346  29.4968999   9.3170577  40.5176017  29.6838776  10.0524487
  45.2530286  37.6986080   9.5051481  44.5821476  38.2415783   9.3764546
  45.9470036  38.1680936   9.2633176  45.2559153  37.8484352   9.4507009
  39.3017019  49.8382792  14.7363239  39.0782674  49.0801622  15.1047265
  38.8126863  49.8680814  14.0143679  39.1960469  49.7305017  14.6839980
  45.4158413  34.1541964  12.4141854  45.7686023  33.7271687  13.0887653
  44.5573215  34.0692808  12.5442930  45.3407858  34.0786705  12.5336864
  34.1142098  36.7849484  10.4724701  33.3954087  37.2013616  10.7397564
  34.4854460  37.3503722   9.9216339  34.0634030  36.9298765  10.4307508
  43.4141679  37.4177333  16.3626696  43.3939606  37.2360628  17.2161475
  43.4620880  38.2889351  16.3386280  43.4176320  37.5193871  16.4849991
  41.3588009  44.0064525  22.2875173  41.3183864  43.3614202  21.7020329
  42.1711327  43.9501142  22.6000585  41.4731162  43.9023491  22.2472122
  37.9495476  50.0583251  12.1900324  37.5355875  49.3957381  11.8004165
  38.6342851  50.2061109  11.6696018  37.9893848  49.9823909  12.0556821
  41.3160771  49.2173336  12.9423940  40.9177054  49.3275606  12.1744761
  40.7011990  49.4255402  13.5250500  41.1659660  49.2646904  12.9155240
  39.8888673  35.8247484   5.8098080  39.2953512  36.1464480   5.2582647
  39.9263950  34.9788579   5.6019186  39.8063062  35.7471812   5.6980851
  46.8482473  29.2760376  13.3426167  46.3413338  28.5689515  13.2747344
  47.6449907  28.9453565  13.4727243  46.8909713  29.1233527  13.3525161
  42.7646489  35.7826988   9.2399830  42.5360182  35.8059690   8.3978188
  43.0244565  34.9584455   9.3594841  42.7692677  35.6643068   9.1325028
  37.0465718  37.6361461  18.8424930  36.5344621  37.0282644  19.2009962
  36.8745214  38.3518054  19.3098906  36.9455355  37.6524760  18.9641154
  35.8191252  34.3203534  10.5354026  36.2948618  34.6820614   9.9004207
  35.3179851  34.9760002  10.8154169  35.8156611  34.4697723  10.4830767
  49.0502613  43.7925302   6.3267031  49.4336219  44.5416659   6.5565128
  48.2546727  44.0391122   6.0679020  48.9896395  43.9394996   6.3224605
  40.9234788  35.5585706  21.2827186  41.4806218  35.3299515  20.6505651
  40.5995853  36.3191371  21.0062398  40.9581198  35.6369542  21.1483683
  28.7933497  38.9845902  16.7515782  28.2460216  38.3146548  16.8696650
  29.5825875  38.6175750  16.8159249  28.8285680  38.8310888  16.7784483
  38.6417905  38.6453359  22.2479193  39.3929232  38.9605036  22.5618747
  38.8340482  38.4432530  21.4213115  38.7809319  38.6620741  22.1722589
  37.8617905  36.4644734   3.9027410  38.2416870  36.4824363   3.1178525
  37.1210501  36.9098723   3.7818257  37.8086743  36.5326509   3.7690978
  45.4903195  34.7726925   9.4902989  45.4897422  34.6175582  10.3487265
  45.2859375  35.6189912   9.4344374  45.4602973  34.8747546   9.6090928
  27.5520466  38.1966710  13.9061805  27.3742227  37.7443319  14.6316721
  27.2639488  38.9992871  14.0900283  27.4833419  38.2489268  14.0405308
  43.2144047  39.4524427  13.1439195  43.7097713  38.7347422  13.1043216
  42.4043823  39.1495225  13.0293682  43.1687941  39.3022073  13.1212921
  38.6602659  43.3022240   5.2936200  37.8513982  42.9788914   5.2469509
  39.1677568  42.5955463   5.2264449  38.6152326  43.1503557   5.2766494
  29.2892936  40.7294434  11.0183564  28.4238456  40.7180124  10.9066335
  29.3891752  40.5424656  11.8654703  29.1767103  40.7000495  11.1272509
  45.2795866  42.2028115  15.8316324  45.7050938  41.6802537  15.2786749
  44.9152786  42.8008952  15.3104947  45.2882469  42.2138342  15.6725334
  34.9149946  50.4992332  14.5913670  35.2296505  51.3128721  14.5991451
  35.3243359  50.1142551  15.2595829  35.0218044  50.5621035  14.6917761
  41.8674466  45.9162379  12.1617482  42.3385644  46.6302642  12.3307467
  42.2034644  45.3161129  12.6977351  41.9869581  45.9333843  12.2649858
  38.7843961  30.6889850  19.1175576  38.9171866  29.8920843  19.4456552
  39.1689113  31.2156253  19.6973852  38.8600290  30.6489766  19.2519079
  42.5048412  45.7080313  18.9245174  41.9569358  45.0838197  18.6565240
  42.9661441  45.8974585  18.2089254  42.4915621  45.6439363  18.7795605
  41.8576316  27.6120176  15.7156670  41.0522280  27.5017905  16.0324508
  41.7283051  27.7132631  14.8586536  41.7196449  27.6103846  15.6364710
  45.3142276  33.7765668  16.3096367  44.7305265  34.2774874  15.8973934
  45.6346570  33.2695224  15.6760690  45.2755452  33.7757503  16.1554874
  37.8537076  32.6906262   6.5855041  38.6752770  32.8604575   6.3436736
  37.3906726  32.8453523   5.8621339  37.9068238  32.7387995   6.4426686
  36.4432407  30.6849025  17.3653470  36.9876820  30.3440151  17.9557812
  36.4969343  31.5434486  17.5074755  36.5321527  30.7604284  17.4735344
  32.2562966  44.4465441  14.2392278  32.8607824  44.4061275  13.6106099
  32.0490279  45.2936593  14.2696334  32.3151863  44.5653443  14.1508395
  42.0706738  46.7131386  15.4554516  42.8905112  46.5694352  15.7170811
  41.7900816  47.3377585  15.9970953  42.1503482  46.7841738  15.5742455
  27.4914248  43.4300058  14.1091201  27.3938526  42.6196330  14.4181258
  28.2743118  43.4091852  13.7237469  27.5930385  43.3067148  14.0978064
  58.5420389  54.3696237   8.4197392  58.5114393  55.2240874   8.5915661
  59.1401737  54.0691530   8.9783536  58.6257547  54.4512734   8.5272194
  51.7420074  53.4571889  13.1750322  50.8857969  53.6180387  13.2259439
  51.7887727  52.5863952  13.1955383  51.6219185  53.3522690  13.1856388
  46.1261213  62.9934606   8.9387554  45.3744113  62.6150145   8.7103599
  46.5747225  63.0253040   8.1906364  46.0810880  62.9420214   8.7945056
  55.0513790  59.7258414  22.7810778  55.7580557  59.2310445  22.9097713
  55.2401726  60.1667496  22.0513436  55.1841696  59.7176764  22.6919824
  54.5871895  55.5163932  15.8181974  55.1327855  56.1949019  15.8775944
  54.5288771  55.3751393  14.9583555  54.6587809  55.5955934  15.6994035
  47.7045969  63.0052999  11.2050326  47.8056332  62.1953352  11.5147454
  47.1087715  62.9109945  10.5750005  47.6318508  62.8718027  11.1576565
  47.5446709  67.9230588  12.6065182  48.1884165  68.3643752  12.9961341
  47.8702965  67.1184014  12.5195441  47.6878538  67.8695782  12.6510660
  40.9011014  59.0273285  10.8302660  40.6661198  58.1940937  10.7234929
  41.0396654  59.3077951  10.0163861  40.8866676  58.9456789  10.6945015
  43.2001101  51.1959016  13.7286968  42.5806133  50.6051663  13.5596983
  43.0984965  51.7870451  13.0951291  43.0938777  51.1963098  13.6091957
  50.2968997  52.9358557   8.0619431  50.9949162  53.1146685   8.5540894
  50.6121329  52.4128897   7.4389820  50.4464334  52.8852330   8.0421441
  42.9270234  54.7411297  15.9730537  42.8028931  55.3273743  16.6080356
  43.5788519  54.2471493  16.2742812  43.0043884  54.7550102  16.1116466
  50.4856932  59.3229003   8.0499222  50.9250568  58.7146103   8.4953995
  50.3361595  58.9436376   7.2784687  50.5278398  59.1767474   8.0018390
  47.9528575  57.9173014  15.2518048  48.5977578  57.4245457  14.9328996
  48.1930352  58.0597801  16.0784126  48.0839160  57.8650457  15.3267581
  50.4914667  60.7627920  14.9024940  50.7737909  59.9679326  14.6811696
  51.2200827  61.2408508  14.9230001  50.6404230  60.7162517  14.8727956
  48.4695860  48.3050954  12.1440705  48.1399190  48.7562098  11.4744404
  47.7940862  48.2267118  12.6913712  48.3206297  48.3602089  12.1263929
  55.6772268  44.2936477  10.3890316  55.3625709  44.9839956  10.8210738
  55.1599210  44.2381259   9.6875817  55.5536739  44.3871366  10.3487265
  60.4732755  59.8687282  11.8760771  59.6430458  60.0797926  12.0394188
  60.4242007  59.0424337  11.6003055  60.3439490  59.7776889  11.8598137
  42.4628338  63.9058956  12.1058866  41.9795917  64.6309446  12.0818450
  43.2751657  64.2035086  12.2169024  42.5119086  64.0561310  12.1186145
  48.5342492  62.6991137  14.7108681  48.0169434  62.3398552  14.1069989
  49.2316884  62.1753311  14.7214747  48.5608074  62.5688825  14.6238939
  52.1906084  63.1485951  20.6724854  52.2789430  62.9612091  21.5203064
  52.6195797  62.5023380  20.2729700  52.2668187  63.0248958  20.7396605
  49.7576544  62.4317111  19.6542516  49.1947379  62.0189720  20.1782177
  50.5197568  62.3570016  20.0735659  49.7870993  62.3594511  19.7935516
  46.6751814  46.3663243   7.6263653  47.4297782  46.7341560   7.3880703
  46.4979349  46.7402797   8.3942833  46.7606293  46.4761430   7.7048542
  45.3172536  64.4215132  12.2579146  46.0193115  63.9067121  12.3151903
  45.2370019  64.7489283  13.0626021  45.4096296  64.3929358  12.3851938
  59.9686713  52.5157683  15.6711193  59.1315134  52.5859870  15.9058787
  59.9374944  52.5182178  14.7985495  59.8404996  52.5267910  15.5770740
  45.0308879  48.7733562   4.3241766  44.8484452  48.9905442   3.4982759
  45.8934492  48.8872574   4.3800381  45.1313469  48.8223459   4.2096253
  44.6423311  60.6121484  11.7664754  45.4812210  60.8444417  11.8138516
  44.6735080  59.7425795  11.6971789  44.7705029  60.5178430  11.7629399
  45.2676014  61.0322359  16.0678060  45.8074239  60.8893490  16.7381432
  44.5845960  61.4319110  16.4362086  45.2468168  61.0702030  16.2212481
  50.7108598  45.7759972   7.3590790  51.4394759  45.5975927   6.9128946
  50.8003491  46.6178052   7.5697968  50.8315260  45.8743851   7.3244308
  54.6916899  56.7113360  11.2623084  55.4474414  57.1444874  11.3011993
  54.7979223  56.0618129  11.8357720  54.8187070  56.6790843  11.3521110
  57.7297070  60.5386637  12.0125487  57.2932302  60.5423379  12.7684458
  57.3959986  61.2192136  11.5805064  57.6159690  60.6399093  12.0606320
  40.6713159  57.2522650  16.2212481  40.4051574  56.4361766  16.3803471
  40.6851723  57.2975805  15.3507997  40.6337881  57.1379555  16.1165963
  57.6494553  47.5800465  14.2554915  58.2920461  47.6498569  14.8416830
  57.9017574  46.9129688  13.7534457  57.7816685  47.4926813  14.2682194
  44.5770906  52.0507734   2.8364239  43.8629083  51.7645914   3.2486672
  45.0614875  52.3904360   3.4770627  44.5430269  52.0589384   2.9919874
  52.4596537  64.4905072  16.9835093  51.6611783  64.2504572  17.2408961
  52.9082549  64.5419465  17.7302141  52.4071148  64.4627463  17.1320017
  60.8641416  57.2567557  10.9045124  61.5257850  56.6958225  10.8041033
  60.2232828  56.7619587  11.2297815  60.8670284  57.1003966  10.9377464
  41.0806573  58.0381429  13.5024225  40.8982146  58.0128315  12.6496518
  41.8156242  58.5080367  13.5413134  41.1620637  58.1042791  13.3822144
  57.1506247  58.2732939  10.6457113  57.3861836  58.4178138   9.8183964
  57.2995811  59.0375347  11.0388627  57.2072050  58.4071994  10.5820717
  54.1928593  54.9599508   9.1650297  54.2875447  55.6988802   9.6189922
  53.5687436  54.5316983   9.5984861  54.1137623  55.0060828   9.2958444
  52.4481067  58.1385720  19.8140578  53.0219928  57.5012965  19.9689142
  52.3695870  58.1389803  18.9450235  52.5214302  58.0450832  19.7086989
  41.0477483  54.9174930  13.6523292  41.6250986  54.7811381  14.2915537
  40.3491545  54.4610714  13.9068876  41.0298505  54.8297196  13.7845582
  47.8044785  56.5708986  11.8661775  47.5464030  55.7380720  11.8393075
  47.8593268  56.7966599  11.0254276  47.7744563  56.4806757  11.7381912
  52.8845835  48.6737436  11.9665868  52.1802162  48.1846622  12.1249787
  52.9330810  48.6859911  11.0954312  52.7875887  48.6027084  11.8605208
  46.7779497  54.1246748  12.3526670  46.2029089  54.2838916  12.9890631
  46.4015174  53.4882157  11.8895121  46.6382310  54.0544561  12.3781228
  50.4452786  52.5970097  17.2119048  50.0567219  52.1724315  16.5571240
  49.7807484  52.8452247  17.7196075  50.2899714  52.5708818  17.1906916
  60.0876055  52.3545102   9.9866878  59.8312620  51.5425043   9.7964761
  60.9305369  52.3622669   9.7597066  60.1742081  52.2357099   9.9251696
  36.5236316  53.7686823  10.3671111  36.6096568  53.3918691  11.1484641
  37.1512114  53.3947268   9.8891069  36.6292867  53.6572305  10.4116588
  54.2679148  46.2944726  14.7243033  54.6489659  45.6122897  15.1110907
  53.4642432  46.0054328  14.5418697  54.2055609  46.1511775  14.7547089
  57.7701215  59.5094698  19.8225431  57.5339852  58.6782763  19.7037492
  58.4144443  59.4580305  20.4080275  57.8295885  59.3792386  19.8911325
  47.4199633  60.2990219  10.5368167  48.0573580  60.0601967  11.0819961
  47.8454704  60.5027378   9.8021328  47.5775799  60.2941230  10.5085325
  42.1112275  62.5378556  14.4202471  42.1516420  62.8093407  13.5922251
  42.6706799  63.0620464  14.8360259  42.1995621  62.6554311  14.3594359
  48.0602448  55.5192509   4.8743057  48.4447600  55.3000216   5.6259602
  47.8114068  56.3455455   5.0044133  48.0804520  55.6090655   5.0044133
  58.7937635  59.2939147  15.8853726  58.4883452  60.0267204  16.2467041
  58.0743851  58.8877076  15.6046512  58.6424977  59.3420880  15.8966863
  49.8021105  60.7762642  12.2161954  49.8760113  60.6137814  13.0703804
  50.6190611  60.9652832  11.9722435  49.9337463  60.7799384  12.3059979
  64.4939427  55.9332147  15.2122070  64.4263928  55.9528107  14.3424656
  64.4795090  56.7762475  15.4377740  64.4818184  56.0605882  15.1174547
  43.5626861  61.1220505   9.2456397  42.7364979  61.3682242   9.1190676
  43.6238852  61.0432586  10.1118455  43.4501028  61.1465454   9.3545342
  45.7802885  47.1889446  10.2051837  44.9125310  47.2612045  10.2709447
  46.0678089  47.9911525  10.3939812  45.6942633  47.3183593  10.2426604
  54.9035774  47.3367305  18.5363159  55.6489366  47.1477116  18.1226585
  54.4873078  47.8625543  17.9777016  54.9520748  47.3869451  18.3927732
  62.2798045  54.7076534  13.4868664  62.8305966  54.0744603  13.7265756
  62.2642160  55.2391926  14.1784168  62.3583241  54.6925482  13.6247522
  48.9320435  58.5415131  18.0328558  48.4332129  59.2530899  18.1113446
  49.7420660  58.8615798  17.9946720  48.9776542  58.6941980  18.0385126
  46.2831606  65.7164767  10.0135577  46.0631901  65.4262122  10.8062244
  46.0626128  65.0579722   9.4853489  46.2179200  65.5764476  10.0524486
  45.1948553  57.8038084  12.2791278  44.9061802  57.1775555  12.8137006
  46.0631901  57.7458371  12.3455959  45.2808805  57.7025628  12.3682233
  55.9826451  52.9472867  12.5973260  55.6391217  52.2263203  12.9480510
  56.0819493  52.7386719  11.7551619  55.9468494  52.8097071  12.5244940
  45.3980826  59.4433335   8.2033644  46.1526794  59.8246374   8.4169106
  44.8051439  59.8944479   8.6580340  45.4217540  59.5662162   8.3016522
  46.7179053  60.6141896  13.5773759  46.1959807  60.7542188  14.2625624
  47.1053073  59.8552561  13.7675876  46.6982754  60.5227420  13.7074835
  43.7070237  50.6647705   7.6468714  43.4195033  50.2948976   6.9100661
  44.3940705  51.1342560   7.3852419  43.7659134  50.6794674   7.4983789
  48.1445379  57.6445915   8.9755250  47.9488161  58.2520650   8.3815553
  48.3679724  56.9513859   8.4946924  48.1480020  57.6323441   8.8171331
  46.5423909  54.5300653   9.0936118  47.2646561  54.6941811   8.6339924
  46.0631901  55.2510318   8.9875458  46.5787639  54.6598883   9.0101732
  54.5017416  50.8664452  14.4732803  53.6628517  50.8925731  14.2371067
  54.5721784  51.5135188  15.0538150  54.3885810  50.9660578  14.5241920
  52.9486695  47.7649829   9.2060419  53.6513047  47.5657577   8.7280377
  52.6830883  46.9925771   9.5129263  53.0133327  47.6212795   9.1805861
  58.3774940  56.0732439  11.7594045  58.2908915  56.2287865  12.6128824
  57.9225420  56.7170514  11.3853450  58.2978197  56.1908194  11.8301152
  41.2798432  51.4428918   8.4953995  41.3814568  52.2455079   8.8234970
  42.0754318  51.2416253   8.1977075  41.4126337  51.5314816   8.4989350
  42.0962164  51.5576096  16.2375116  41.9547656  50.7060036  16.3619624
  42.3802727  51.6004756  15.4137322  42.1170010  51.4375846  16.1342740
  52.2500756  53.3943186  10.3819605  52.0035470  53.3138937  11.2156393
  52.5785879  52.6096654  10.1882132  52.2622000  53.2669451  10.4767128
  56.1448805  60.1026545  14.1706386  56.0063164  60.8007591  14.6755128
  55.3648803  59.9475202  13.8142568  56.0092032  60.1826712  14.1932660
  54.4826890  56.4022921  20.4228767  54.4774929  55.5302737  20.4271194
  55.1887884  56.6011090  19.9498223  54.5871894  56.3026795  20.3535803
  50.3817701  55.3290073  17.5767719  49.6341015  55.5221087  17.1715997
  50.5359226  54.5035292  17.3391840  50.2940128  55.2355184  17.4813125
  47.2825538  64.3202676  16.6603614  47.4315102  63.7605592  16.0077019
  48.0625541  64.3994678  17.0436133  47.4199632  64.2488242  16.6200564
  49.8078839  64.4917319  17.9388105  49.7322510  63.8226130  18.4938894
  49.7368698  65.1935107  18.4528771  49.7859446  64.4962227  18.0964953
  50.6219478  49.2240624  18.4663123  51.0792092  49.9564598  18.5935915
  50.6975807  48.8007089  19.2250379  50.7010448  49.2697862  18.5964199
  55.0946804  42.4030499  12.3356966  55.2130372  42.8606962  11.6024269
  54.9208979  41.5975760  12.0493183  55.0865975  42.3524271  12.1857899
  48.5001856  51.2142728  15.3104947  47.7097931  51.0334188  15.6322283
  48.8962479  50.4369680  15.2935241  48.4418732  51.0730188  15.3557495
  53.8845542  58.8485158  13.0364393  53.2090544  58.6170390  13.5377780
  53.8937918  58.2406341  12.4106498  53.7864047  58.7244083  13.0180545
  51.0139686  53.6902987  19.7928446  50.9498827  54.5512943  19.6648583
  51.1536874  53.3734980  18.9923997  51.0255156  53.7703153  19.6556659
  49.6958780  56.3835126  13.9344649  49.2721029  56.5839625  13.1983667
  49.5203635  55.5363974  14.0468949  49.6069661  56.2883907  13.8418339
  49.1970473  67.8985639  16.3966106  49.6866404  67.1996428  16.2141771
  48.6254706  67.6009509  16.9842163  49.1855003  67.7511863  16.4567147
  44.9841225  56.8787177   9.3672621  45.1405844  56.8133980  10.2228613
  45.3241818  57.6535730   9.1551301  45.0574460  56.9836376   9.4627215
  51.5220369  56.2545061   8.2365984  52.0635915  55.7515442   8.7004605
  51.8366929  56.2010256   7.4255470  51.6484767  56.1724482   8.1849797
  55.3937477  60.4647708  25.3492897  56.2072342  60.1932857  25.5098029
  55.2332443  60.1655248  24.5453093  55.4907425  60.3802634  25.2538303
  52.6709639  51.1481366  18.2888285  52.8851608  50.5092280  17.7351639
  52.0543538  51.5927189  17.8596147  52.6114968  51.1191509  18.1438716
  41.5575486  54.0622128   9.6833388  41.9374451  54.4806673   9.0193656
  40.9830851  54.6435584   9.9902232  41.5286811  54.2099987   9.6310129
  54.8348727  52.7570431  19.2271592  54.0225409  52.4496321  19.3084765
  55.2938661  52.2769431  19.7914304  54.7829112  52.6406923  19.3226186
  52.0624368  44.2581301  13.2775628  51.1917925  44.2320022  13.2308937
  52.3164709  44.0858493  12.4601473  51.9717928  44.2291445  13.1495765
  49.0873508  46.2687530  14.7349098  48.5711997  45.5767721  14.8600677
  48.5267437  46.9358307  14.6811697  48.9280021  46.2650787  14.7455164
  51.1565742  46.8080490  16.5641951  50.7697495  46.8329521  17.3455481
  50.6698679  46.2422168  16.1116467  51.0278250  46.7276241  16.6129854
  55.4058721  61.5253999  20.6215737  56.0438441  61.0314194  20.2878193
  54.7632812  61.4531399  20.0367964  55.4052947  61.4413007  20.4858092
  57.1315721  53.3743145  15.1881653  56.7043329  53.2869493  14.4329752
  56.4941774  53.4820920  15.7736497  56.9745328  53.3775804  15.1627094
  50.8222883  43.6947475  18.8552211  51.4516001  44.2307775  18.5773281
  50.9908746  43.6024834  19.7065776  50.9400678  43.7608837  18.9400739
  55.4612978  62.2173807  17.2621094  56.2505356  61.8662872  17.3823176
  55.6356575  63.0310195  16.9997728  55.6033259  62.2859664  17.2408962
  45.2006288  55.6282533  14.3148883  44.3594295  55.5286407  14.5227777
  45.4096296  56.3978013  14.6663204  45.1070981  55.7274576  14.3976198
  42.6781855  53.2502070  12.1433634  42.2838553  53.3245081  11.3683743
  42.1221972  53.6360016  12.6941995  42.5384667  53.3183844  12.1101293
  54.3146802  46.2283364  11.8237512  54.5196395  46.1605672  12.6694510
  53.9873226  47.0342185  11.7558690  54.2962050  46.3369304  11.9397168
  49.0122953  53.5563932  13.5646480  48.7086090  53.0019920  14.1656888
  48.3102374  53.7356142  13.0774515  48.8639163  53.5008714  13.5816186
  48.0689050  50.8664452   8.1291182  48.3448784  50.1483364   7.7168750
  48.6687719  51.4649372   7.9212288  48.1982315  50.8484822   8.0371943
  47.0741304  60.7713653  18.2718578  46.9661659  60.7815715  19.1380636
  47.2837085  61.5968433  18.0823532  47.0891415  60.8954727  18.3722670
  57.5680489  46.7815128  11.3040278  56.9554803  47.2685530  11.6894010
  57.6644664  46.1058619  11.8477929  57.4918387  46.7533437  11.4419136
  51.5699570  48.5377969   6.4037777  52.0243317  48.7088529   7.1285622
  52.0439616  47.9246080   6.0035553  51.7067891  48.4728854   6.4511539
  45.0915096  58.0226295  15.7340516  44.5003029  58.6635793  15.7043531
  45.8536119  58.4463912  15.7071815  45.1163356  58.1802133  15.7255663
  45.4875719  49.1828293  16.4008533  45.9477200  49.2567222  17.1383657
  45.5331825  49.9809547  16.0508355  45.5626274  49.3122440  16.4581290
  61.2105517  57.8532065  16.7317794  61.2688641  58.3018713  17.4777771
  60.5771985  58.2630877  16.2947874  61.1256812  57.9805799  16.7770342
  54.8504612  63.4735607  13.1672540  54.6524301  63.9626421  12.4728752
  54.2292323  63.6776848  13.7456674  54.7292176  63.5752145  13.1495763
  48.9112590  55.2420503   7.5082784  49.6554635  55.6294780   7.7465734
  49.0573287  54.3977929   7.6723272  49.0423175  55.1750976   7.5676754
  50.8292166  47.0370762  12.5414646  49.9828211  47.2093570  12.4155996
  50.8263298  46.2320106  12.8780474  50.7039316  46.9431791  12.5725773
  51.8990466  50.8145977  13.4076704  51.4250421  50.2887739  13.9182015
  52.2708602  50.2675450  12.8391565  51.8840355  50.6561973  13.3991851
  58.1627197  55.8748352  14.8183484  57.9225420  55.0354768  14.8225911
  58.6419204  55.9548519  15.5424258  58.1979380  55.7629752  14.9258287
  53.8273966  51.7082531   6.4702458  53.2996985  51.7911275   5.7808166
  54.2869674  52.4500403   6.4667102  53.8175816  51.8303194   6.3677153
  60.1632384  52.6549810  12.7712743  59.9242154  52.6145644  11.9333528
  60.3266285  53.5020962  12.8978465  60.1522687  52.7741895  12.6666225
  56.7678414  57.0399759  18.7017789  57.4912613  56.5872285  18.5228809
  56.5028376  57.3204425  17.9190116  56.8359687  57.0150727  18.5596504
  45.6365282  51.6359932  15.4370668  45.0118353  51.6478324  14.8296620
  45.3010877  52.1120108  16.0861908  45.4950774  51.7078449  15.4427236
  45.8207031  49.9785051   1.4943353  45.4719835  50.6304776   1.9574902
  45.3403477  49.9642164   0.7667224  45.6977275  50.0728104   1.4554444
  42.3490958  59.6960393  16.8774432  41.8190882  59.0052831  16.9269407
  42.6216051  59.6870578  16.0487141  42.3115680  59.5927524  16.7621848
  52.5497203  57.1383637  16.8512804  51.9354197  56.5941687  17.1461439
  53.0664488  56.6247874  16.3718620  52.5352866  56.9820046  16.8237032
  51.7893501  58.2087907  14.5857102  51.3621109  57.5837626  14.1522538
  51.7818445  57.9262829  15.4116109  51.7252642  58.0740688  14.6436930
  44.9056028  53.2453080  17.6545536  45.0649514  52.4896404  18.0597258
  44.7248921  53.7944020  18.3086274  44.9021387  53.2146894  17.8108242
  52.8476331  45.4114316  18.2096326  52.3516892  45.6077990  17.5187892
  53.6045393  45.8106984  18.0385127  52.8863155  45.4992050  18.0816462
  50.1179210  49.0856662  14.7999636  50.1421698  48.5516774  14.1112416
  50.3690684  48.5773971  15.4625227  50.1589129  48.9317566  14.7964281
  37.6286800  56.3688157  14.2342780  37.5230249  56.3235001  13.3694864
  36.8787020  56.7141937  14.5157065  37.5022403  56.4129065  14.1480110
  46.3980533  47.8127480  14.1805381  46.4378904  48.3136687  14.8940088
  45.5730197  47.9037874  13.9111304  46.2820058  47.9009296  14.2455919
  47.8194896  54.3287990  16.4779280  46.9886826  54.4961808  16.2714528
  47.7646413  53.9523941  17.2628165  47.6884311  54.2977721  16.5627808
  46.1930940  52.6043581   7.0069397  46.3333901  53.1016046   7.7098039
  46.6913473  51.9029876   7.1483611  46.2872021  52.5745560   7.1320976
  46.2231162  53.4710692   4.3361974  46.8576242  54.0671117   4.2711436
  46.3056773  53.1714150   5.1507844  46.3287713  53.5151600   4.4465061
  59.2013728  56.0026170  17.2048338  59.7931568  56.6423420  17.2366536
  59.6372722  55.3049206  17.4940405  59.3532159  55.9944520  17.2529171
  47.8010145  49.4024668   4.3107416  48.1225986  48.9227750   3.6566678
  48.0637089  50.2124314   4.1198228  47.8876170  49.4514566   4.1862908
  51.0307118  60.4243542  17.8306232  50.5232209  60.9779389  18.2746863
  50.7333764  60.4851832  17.0125007  50.9112003  60.5149853  17.7754689
  53.1969300  48.7896862  16.6730895  53.6224372  48.3369388  16.0614422
  52.5826293  48.2356932  16.9495683  53.1697945  48.6410838  16.6235920
  42.7284150  55.6678533   7.6051520  43.2376379  56.2643041   7.9862826
  43.2018422  55.4004507   6.9227940  42.8727526  55.7164349   7.5606043
  51.6363523  45.2611962  10.0821472  50.9931841  45.1109608  10.6506611
  51.2962930  45.0154307   9.3170577  51.4908600  45.2024084  10.0524487
  56.2262869  53.2171388   9.5051481  55.5554059  53.7601091   9.3764546
  56.9202620  53.6866244   9.2633176  56.2291737  53.3669660   9.4507009
  50.2749603  65.3568100  14.7363239  50.0515257  64.5986930  15.1047265
  49.7859446  65.3866122  14.0143679  50.1693052  65.2490325  14.6839980
  56.3890997  49.6727272  12.4141854  56.7418607  49.2456995  13.0887653
  55.5305798  49.5878115  12.5442930  56.3140441  49.5972013  12.5336864
  45.0874682  52.3034792  10.4724701  44.3686671  52.7198924  10.7397564
  45.4587044  52.8689030   9.9216339  45.0366614  52.4484073  10.4307508
  54.3874263  52.9362641  16.3626696  54.3672190  52.7545936  17.2161475
  54.4353463  53.8074659  16.3386280  54.3908904  53.0379179  16.4849991
  52.3320592  59.5249833  22.2875173  52.2916447  58.8799510  21.7020329
  53.1443911  59.4686450  22.6000585  52.4463746  59.4208799  22.2472122
  52.2893354  64.7358644  12.9423940  51.8909637  64.8460914  12.1744761
  51.6744574  64.9440710  13.5250500  52.1392243  64.7832212  12.9155240
  50.8621256  51.3432792   5.8098080  50.2686095  51.6649788   5.2582647
  50.8996534  50.4973887   5.6019186  50.7795645  51.2657120   5.6980851
  57.8215057  44.7945684  13.3426167  57.3145922  44.0874823  13.2747344
  58.6182491  44.4638873  13.4727243  57.8642296  44.6418835  13.3525161
  53.7379073  51.3012296   9.2399830  53.5092766  51.3244997   8.3978188
  53.9977149  50.4769763   9.3594841  53.7425261  51.1828376   9.1325028
  46.7923835  49.8388842  10.5354026  47.2681202  50.2005922   9.9004207
  46.2912435  50.4945310  10.8154169  46.7889194  49.9883031  10.4830767
  51.8967372  51.0771014  21.2827186  52.4538802  50.8484823  20.6505651
  51.5728437  51.8376679  21.0062398  51.9313782  51.1554850  21.1483683
  48.8350488  51.9830042   3.9027410  49.2149453  52.0009671   3.1178525
  48.0943084  52.4284031   3.7818257  48.7819326  52.0511817   3.7690978
  56.4635779  50.2912233   9.4902989  56.4630005  50.1360890  10.3487265
  56.2591959  51.1375220   9.4344374  56.4335557  50.3932854   9.6090928
  38.5253050  53.7152018  13.9061805  38.3474811  53.2628627  14.6316721
  38.2372072  54.5178179  14.0900283  38.4566003  53.7674576  14.0405308
  54.1876631  54.9709735  13.1439195  54.6830296  54.2532730  13.1043216
  53.3776407  54.6680533  13.0293682  54.1420524  54.8207381  13.1212921
  40.2625520  56.2479742  11.0183564  39.3971039  56.2365432  10.9066335
  40.3624336  56.0609964  11.8654703  40.1499687  56.2185803  11.1272509
  56.2528450  57.7213423  15.8316324  56.6783521  57.1987844  15.2786749
  55.8885370  58.3194260  15.3104947  56.2615052  57.7323650  15.6725334
  45.8882530  66.0177640  14.5913670  46.2029089  66.8314029  14.5991451
  46.2975943  65.6327859  15.2595829  45.9950628  66.0806343  14.6917761
  52.8407049  61.4347687  12.1617482  53.3118227  62.1487949  12.3307467
  53.1767228  60.8346437  12.6977351  52.9602164  61.4519151  12.2649858
  54.9284034  63.0449000  24.3409554  55.0380999  62.2557561  24.6966301
  55.2574930  62.9554936  23.5383892  54.9936440  62.9154853  24.2751944
  53.4780996  61.2265621  18.9245174  52.9301942  60.6023505  18.6565240
  53.9394024  61.4159893  18.2089254  53.4648205  61.1624671  18.7795605
  52.8308899  43.1305484  15.7156670  52.0254863  43.0203213  16.0324508
  52.7015635  43.2317939  14.8586536  52.6929032  43.1289154  15.6364710
  56.2874860  49.2950976  16.3096367  55.7037849  49.7960182  15.8973934
  56.6079154  48.7880532  15.6760690  56.2488035  49.2942811  16.1554874
  48.8269659  48.2091570   6.5855041  49.6485353  48.3789883   6.3436736
  48.3639310  48.3638831   5.8621339  48.8800821  48.2573303   6.4426686
  47.4164991  46.2034333  17.3653470  47.9609404  45.8625459  17.9557812
  47.4701927  47.0619794  17.5074755  47.5054110  46.2789592  17.4735344
  43.2295550  59.9650749  14.2392278  43.8340407  59.9246583  13.6106099
  43.0222862  60.8121901  14.2696334  43.2884447  60.0838751  14.1508395
  53.0439322  62.2316694  15.4554516  53.8637696  62.0879660  15.7170811
  52.7633400  62.8562893  15.9970953  53.1236065  62.3027046  15.5742455
  38.4646832  58.9485366  14.1091201  38.3671110  58.1381638  14.4181258
  39.2475702  58.9277159  13.7237469  38.5662969  58.8252456  14.0978064
  53.9002818  70.2596605  15.9730537  53.7761515  70.8459051  16.6080356
  54.5521102  69.7656801  16.2742812  53.9776467  70.2735410  16.1116466
  57.3384026  70.1776027  21.3859561  57.5104530  70.0681921  22.2344843
  57.8753383  70.8230432  21.1490753  57.4429030  70.2568028  21.4764658
  56.3944349  66.3086336  18.8679489  55.7016146  65.8383316  19.1140220
  57.0104676  66.0824641  19.4421196  56.3828879  66.2053468  18.9888641
  55.1184908  70.2751740  20.0106334  55.8424880  70.2604771  20.4971229
  55.2201045  70.9847095  19.5128302  55.2403117  70.3776443  20.0085121
  62.4929857  73.7550825  24.8755281  61.7002838  74.0694336  25.0607901
  62.6078785  73.9702293  24.0376066  62.3925268  73.8334661  24.7793616
  61.4185370  68.1155405  17.2119048  61.0299802  67.6909623  16.5571240
  60.7540068  68.3637555  17.7196075  61.2632297  68.0894126  17.1906916
  59.2003572  64.3184232  24.5905641  58.8857013  65.0883795  24.3275204
  58.8793504  63.7554488  24.0057868  59.1062491  64.3494501  24.4646991
  65.8768357  62.8552613  18.5363159  66.6221949  62.6662423  18.1226585
  65.4605662  63.3810851  17.9777016  65.9253332  62.9054758  18.3927732
  58.8320077  66.9181483  23.3290856  58.0219853  67.2239263  23.2180698
  59.3094764  67.6387066  23.4443440  58.7823556  67.0696084  23.3297927
  55.1664109  72.4544034  18.1990258  55.6785206  72.7328287  17.5499018
  54.8800452  73.1933328  18.5653071  55.1998972  72.6046387  18.1580136
  58.6847834  64.5470422  18.2591300  58.4931031  64.5625557  19.1090723
  59.5346430  64.7434097  18.2357955  58.7823556  64.5784773  18.3814595
  53.0694747  67.0761404  16.2375116  52.9280239  66.2245344  16.3619624
  53.3535311  67.1190064  15.4137322  53.0902593  66.9561154  16.1342740
  59.1830367  71.6485212  19.7942588  59.3273743  72.2286421  19.1585698
  59.5306016  72.0261509  20.4992442  59.2557828  71.7905917  19.8041583
  61.5952061  64.7425932  18.4663123  62.0524676  65.4749906  18.5935915
  61.6708390  64.3192397  19.2250379  61.6743031  64.7883170  18.5964199
  53.8385053  64.9891751  19.5552567  53.3027242  64.3772109  19.8713334
  53.9002817  65.5639887  20.2086233  53.7680685  64.9838679  19.6987993
  59.4734439  66.7328036  15.3104947  58.6830514  66.5519496  15.6322283
  59.8695062  65.9554988  15.2935241  59.4151316  66.5915496  15.3557495
  61.9872270  69.2088295  19.7928446  61.9231411  70.0698251  19.6648583
  62.1269457  68.8920288  18.9923997  61.9987740  69.2888461  19.6556659
  63.6442222  66.6666673  18.2888285  63.8584192  66.0277588  17.7351639
  63.0276122  67.1112497  17.8596147  63.5847552  66.6376817  18.1438716
  65.8081310  68.2755739  19.2271592  64.9957992  67.9681629  19.3084765
  66.2671245  67.7954739  19.7914304  65.7561695  68.1592231  19.3226186
  62.9034818  69.6815810  24.0100294  63.3734449  70.3057926  24.3968168
  62.9496698  69.0132786  24.5693509  62.9802694  69.6750490  24.1500366
  60.0606092  61.7872838  14.7349098  59.5444580  61.0953029  14.8600677
  59.5000020  62.4543615  14.6811697  59.9012605  61.7836095  14.7455164
  62.1298325  62.3265798  16.5641951  61.7430078  62.3514829  17.3455481
  61.6431262  61.7607476  16.1116467  62.0010834  62.2461548  16.6129854
  61.7955467  59.2132783  18.8552211  62.4248585  59.7493083  18.5773281
  61.9641330  59.1210142  19.7065776  61.9133261  59.2794145  18.9400739
  61.5969382  64.0003978  21.1278622  62.4242811  63.7289127  21.1837237
  61.6177228  64.7964819  21.4842440  61.7222232  64.0783732  21.1893805
  56.4608302  64.7013601  16.4008533  56.9209784  64.7752530  17.1383657
  56.5064409  65.4994855  16.0508355  56.5358858  64.8307748  16.4581290
  58.1091652  65.3680296  20.9680560  57.7177217  64.7213643  21.4036338
  58.2777515  65.9591731  21.5874816  58.0762562  65.3594563  21.1243266
  53.2496080  68.3302791  18.7760250  54.1121693  68.2298501  18.6897579
  52.9187863  67.7497501  18.2145822  53.3281276  68.2294418  18.6805655
  56.6097866  67.1545240  15.4370668  55.9850936  67.1663632  14.8296620
  56.2743461  67.6305415  16.0861908  56.4683358  67.2263757  15.4427236
  55.8788611  68.7638388  17.6545536  56.0382098  68.0081712  18.0597258
  55.6981505  69.3129328  18.3086274  55.8753970  68.7332202  17.8108242
  63.8208914  60.9299624  18.2096326  63.3249476  61.1263298  17.5187892
  64.5777976  61.3292292  18.0385127  63.8595739  61.0177358  18.0816462
  57.3713116  63.3312788  14.1805381  57.4111488  63.8321994  14.8940088
  56.5462781  63.4223182  13.9111304  57.2552642  63.4194604  14.2455919
  59.5542729  72.8973528  22.2825675  58.7038360  73.0345242  22.4183320
  59.7170857  72.1637306  22.7273377  59.4526593  72.8087629  22.3681274
  56.6011263  63.3382191  22.1135690  57.2263966  62.7944323  22.3865123
  56.1461743  62.8577108  21.5443481  56.6259523  63.1871672  22.0697284
  64.1701884  64.3082170  16.6730895  64.5956955  63.8554696  16.0614422
  63.5558877  63.7542240  16.9495683  64.1430529  64.1596146  16.6235920
  58.9930885  68.6732077  18.8424930  58.4809788  68.0653260  19.2009962
  58.8210381  69.3888670  19.3098906  58.8920522  68.6895376  18.9641154
  53.8396599  67.1169652  21.4927292  53.6699190  67.7771027  20.9475499
  53.3962549  67.3276214  22.2139781  53.7495933  67.2455634  21.5188922
  62.8699955  66.5956322  21.2827186  63.4271385  66.3670131  20.6505651
  62.5461020  67.3561987  21.0062398  62.9046365  66.6740158  21.1483683
  50.7398664  70.0216518  16.7515782  50.1925383  69.3517163  16.8696650
  51.5291042  69.6546366  16.8159249  50.7750848  69.8681504  16.7784483
  60.5883072  69.6823975  22.2479193  61.3394399  69.9975652  22.5618747
  60.7805649  69.4803146  21.4213115  60.7274487  69.6991357  22.1722589
  49.4985633  69.2337326  13.9061805  49.3207395  68.7813935  14.6316721
  49.2104656  70.0363487  14.0900283  49.4298587  69.2859884  14.0405308
  60.7309128  61.7260465  19.1175576  60.8637033  60.9291459  19.4456552
  61.1154281  62.2526868  19.6973852  60.8065457  61.6860382  19.2519079
  63.8041483  58.6490792  15.7156670  62.9987447  58.5388521  16.0324508
  63.6748218  58.7503247  14.8586536  63.6661616  58.6474462  15.6364710
  58.3897575  61.7219640  17.3653470  58.9341988  61.3810767  17.9557812
  58.4434510  62.5805102  17.5074755  58.4786694  61.7974900  17.4735344
  43.7732030  21.1451237   9.7150825  44.4798798  20.6503268   9.8437760
  43.9619966  21.5860319   8.9853483  43.9059936  21.1369588   9.6259871
  36.2664949  29.3423411  -0.4594771  36.9102405  29.7836575  -0.0698612
  36.5921205  28.5376837  -0.5464512  36.4096778  29.2888606  -0.4149293
  40.9124325  24.5678774   7.6064901  41.0007671  24.3804914   8.4543111
  41.3414037  23.9216203   7.2069747  40.9886427  24.4441782   7.6736652
  38.4794785  23.8509934   6.5882563  37.9165619  23.4382544   7.1122224
  39.2415808  23.7762840   7.0075706  38.5089233  23.7787334   6.7275563
  35.0869683  16.0783542   8.3199608  35.2590186  15.9689437   9.1684889
  35.6239040  16.7237947   8.0830800  35.1914687  16.1575544   8.4104705
  41.0244384  23.9987793  10.2708684  41.8084801  24.1118641  10.6364426
  40.8240979  23.1728930  10.4667370  41.1110409  23.8934512  10.3543070
  41.1814777  25.9097895   3.9175140  40.3830023  25.6697395   4.1749008
  41.6300789  25.9612288   4.6642187  41.1289389  25.8820286   4.0660064
  40.2415514  19.6558340  11.8095328  39.4488495  19.9701852  11.9947948
  40.3564441  19.8709808  10.9716112  40.1410925  19.7342177  11.7133663
  41.1699307  19.5578544   6.7480625  41.7438169  18.9205788   6.9029189
  41.0914111  19.5582626   5.8790282  41.2432542  19.4643655   6.6427035
  46.4919455  20.9287521   6.7565478  46.2558092  20.0975586   6.6377538
  47.1362684  20.8773128   7.3420322  46.5514126  20.7985209   6.8251371
  36.9489228  10.2191748  11.5245688  36.6342670  10.9891310  11.2615251
  36.6279161   9.6562004  10.9397915  36.8548148  10.2502016  11.3987038
  47.5155876  20.7131970   2.8193772  47.2101693  21.4460027   3.1807088
  46.7962091  20.3069900   2.5386558  47.3643218  20.7613703   2.8306909
  53.2157668  17.3524971   2.1462117  53.1482168  17.3720930   1.2764703
  53.2013330  18.1955298   2.3717787  53.2036424  17.4798705   2.0514593
  37.6538676  19.9607954   4.9668604  37.1550370  20.6723722   5.0453493
  38.4638900  20.2808621   4.9286767  37.6994783  20.1134803   4.9725173
  36.5805734  12.8188999  10.2630903  35.7705510  13.1246778  10.1520745
  37.0580421  13.5394581  10.3783487  36.5309213  12.9703600  10.2637974
  44.8667045  21.5219369   1.1046433  44.7281405  22.2200414   1.6095175
  44.0867043  21.3668025   0.7482614  44.7310272  21.6019535   1.1272707
  43.2045131  17.8215744   7.3568814  43.1993169  16.9495560   7.3611241
  43.9106124  18.0203913   6.8838270  43.3090135  17.7219618   7.2875850
  36.9316024  17.5492728   6.7282634  37.0759400  18.1293936   6.0925744
  37.2791672  17.9269025   7.4332489  37.0043485  17.6913432   6.7381629
  36.0043779  25.7395500   3.5943661  36.1533343  25.1798415   2.9417066
  36.7843781  25.8187501   3.9776180  36.1417872  25.6681065   3.5540610
  38.5297079  25.9110143   4.8728152  38.4540751  25.2418953   5.4278940
  38.4586939  26.6127931   5.3868818  38.5077686  25.9155050   5.0305000
  39.7357926  15.1095810   6.7268493  39.6717068  15.9705766   6.5988629
  39.8755114  14.7927803   5.9264044  39.7473396  15.1895977   6.5896706
  37.9188714  29.3178462   3.3306153  38.4084644  28.6189251   3.1481817
  37.3472946  29.0202332   3.9182210  37.9073244  29.1704686   3.3907194
  44.1155717  21.8840532  12.2832944  44.9290583  21.6125681  12.4438076
  43.9550684  21.5848072  11.4793139  44.2125666  21.7995458  12.1878349
  43.5566967  14.1763254   6.1611639  42.7443649  13.8689144   6.2424812
  44.0156902  13.6962254   6.7254351  43.5047352  14.0599746   6.2566233
  40.6520475  15.5823325  10.9440341  41.1220106  16.2065442  11.3308215
  40.6982355  14.9140301  11.5033556  40.7288351  15.5758006  11.0840413
  44.1276961  22.9446822   7.5555784  44.7656682  22.4507018   7.2218240
  43.4851053  22.8724222   6.9708011  44.1271188  22.8605830   7.4198139
  44.1831218  23.6366630   4.1961141  44.9723596  23.2855695   4.3163222
  44.3574816  24.4503019   3.9337775  44.3251500  23.7052487   4.1749009
  35.7959544  22.1906476   5.2058625  35.6879899  22.2008538   6.0720683
  36.0055326  23.0161256   5.0163579  35.8109655  22.3147551   5.3062717
  49.9323758  19.2724888   3.6657841  49.9906881  19.7211537   4.4117817
  49.2990225  19.6823701   3.2287921  49.8475053  19.3998623   3.7110389
  43.5722852  24.8928430   0.1012587  43.3742541  25.3819244  -0.5931202
  42.9510563  25.0969671   0.6796720  43.4510417  24.9944968   0.0835810
  45.4896654  18.4592582   5.6357835  46.2130853  18.0065109   5.4568855
  45.2246617  18.7397248   4.8530163  45.5577928  18.4343551   5.4936551
  41.2715444  18.5576460   3.7852851  40.6572437  18.0134511   4.0801486
  41.7882729  18.0440697   3.3058667  41.2571106  18.4012869   3.7577079
  37.3028386  18.7981043   9.2165722  36.4524016  18.9352757   9.3523367
  37.4656514  18.0644821   9.6613424  37.2012249  18.7095144   9.3021321
  47.9231968  17.4218993   4.1388385  48.5149809  18.0616244   4.1706583
  48.3590963  16.7242030   4.4280452  48.0750400  17.4137343   4.1869218
  39.7525358  21.8436365   4.7646279  39.2450449  22.3972212   5.2086910
  39.4552004  21.9044655   3.9465054  39.6330243  21.9342677   4.7094736
  38.9967843  26.7760924   1.6703286  38.7733498  26.0179753   2.0387312
  38.5077687  26.8058945   0.9483726  38.8911292  26.6683148   1.6180027
  41.0538833  20.9442656   9.2215220  41.0134688  20.2992333   8.6360376
  41.8662151  20.8879273   9.5340632  41.1681986  20.8401623   9.1812169
  41.0111594  26.1551467  -0.1236013  40.6127878  26.2653737  -0.8915193
  40.3962814  26.3633533   0.4590547  40.8610484  26.2025035  -0.1504713
  40.6185612  12.4963837   8.2167233  41.1757042  12.2677646   7.5845698
  40.2946677  13.2569503   7.9402445  40.6532022  12.5747674   8.0823730
  38.3368729  15.5831490   9.1819240  39.0880056  15.8983167   9.4958794
  38.5291306  15.3810661   8.3553162  38.4760143  15.5998872   9.1062636
  44.9746690  19.1406246   2.7656371  45.4001762  18.6180668   2.2126796
  44.6103610  19.7387083   2.2444994  44.9833293  19.1516473   2.6065381
  34.6100770  27.4370463   1.5253717  34.9247329  28.2506852   1.5331498
  35.0194183  27.0520682   2.1935876  34.7168868  27.4999166   1.6257808
  43.6502274  24.4641824  11.2749601  43.7599240  23.6750384  11.6306348
  43.9793171  24.3747760  10.4723939  43.7154680  24.3347676  11.2091991
  42.1999236  22.6458444   5.8585221  41.6520182  22.0216328   5.5905286
  42.6612265  22.8352716   5.1429301  42.1866445  22.5817494   5.7135652
  41.7657562  23.6509517   2.3894562  42.5855936  23.5072483   2.6510858
  41.4851640  24.2755716   2.9311000  41.8454306  23.7219869   2.5082502
  51.4370897  30.3950020   0.1090369  50.5808793  30.5558518   0.1599486
  51.4838551  29.5242084   0.1295430  51.3170009  30.2900822   0.1196435
  45.8212037  39.9312738  -4.1272399  45.0694937  39.5528276  -4.3556354
  46.2698049  39.9631171  -4.8753589  45.7761704  39.8798345  -4.2714897
  54.7464614  36.6636545   9.7150825  55.4531381  36.1688576   9.8437760
  54.9352549  37.1045627   8.9853483  54.8792520  36.6554896   9.6259871
  54.2822719  32.4542064   2.7522021  54.8278679  33.1327150   2.8115990
  54.2239595  32.3129524   1.8923602  54.3538633  32.5334065   2.6334081
  47.3996793  39.9431130  -1.8609627  47.5007156  39.1331484  -1.5512499
  46.8038539  39.8488076  -2.4909948  47.3269332  39.8096158  -1.9083388
  47.2397533  44.8608719  -0.4594771  47.8834988  45.3021883  -0.0698612
  47.5653789  44.0562145  -0.5464512  47.3829362  44.8073914  -0.4149293
  42.8951925  28.1337147   0.6627015  42.2756957  27.5429794   0.4937029
  42.7935789  28.7248582   0.0291338  42.7889601  28.1341229   0.5432004
  49.9919821  29.8736689  -5.0040522  50.6899985  30.0524816  -4.5119059
  50.3072153  29.3507028  -5.6270133  50.1415158  29.8230461  -5.0238512
  42.6221058  31.6789429   2.9070584  42.4979755  32.2651874   3.5420402
  43.2739343  31.1849624   3.2082859  42.6994707  31.6928233   3.0456513
  50.1807756  36.2607134  -5.0160731  50.6201392  35.6524234  -4.5705958
  50.0312419  35.8814507  -5.7875266  50.2229222  36.1145605  -5.0641563
  47.6479399  34.8551146   2.1858095  48.2928402  34.3623589   1.8669043
  47.8881176  34.9975932   3.0124173  47.7789984  34.8028588   2.2607628
  50.1865490  37.7006051   1.8364987  50.4688733  36.9057457   1.6151743
  50.9151651  38.1786639   1.8570048  50.3355054  37.6540648   1.8068002
  48.1646684  25.2429085  -0.9219248  47.8350014  25.6940229  -1.5915549
  47.4891686  25.1645249  -0.3746241  48.0157121  25.2980221  -0.9396024
  60.1683579  36.8065414  -1.1899182  59.3381282  37.0176057  -1.0265765
  60.1192831  35.9802468  -1.4656898  60.0390314  36.7155020  -1.2061817
  42.1579162  40.8437087  -0.9601087  41.6746741  41.5687577  -0.9841503
  42.9702481  41.1413217  -0.8490929  42.2069910  40.9939441  -0.9473808
  48.2293316  39.6369268   1.6448727  47.7120258  39.2776683   1.0410036
  48.9267708  39.1131442   1.6554794  48.2558898  39.5066956   1.5578986
  51.8856908  40.0864082   7.6064901  51.9740254  39.8990222   8.4543111
  52.3146621  39.4401511   7.2069747  51.9619011  39.9627090   7.6736652
  49.4527368  39.3695242   6.5882563  48.8898203  38.9567852   7.1122224
  50.2148392  39.2948147   7.0075706  49.4821817  39.2972642   6.7275563
  45.0123360  41.3593263  -0.8080807  45.7143939  40.8445252  -0.7508051
  44.9320843  41.6867414  -0.0033932  45.1047120  41.3307489  -0.6808015
  59.6637537  29.4535814   2.6051239  58.8265958  29.5238001   2.8398834
  59.6325768  29.4560309   1.7325542  59.5355820  29.4646041   2.5110787
  46.0602266  31.5968850   8.3199608  46.2322770  31.4874745   9.1684889
  46.5971624  32.2423255   8.0830800  46.1647270  31.6760852   8.4104705
  44.3374135  37.5499615  -1.2995199  45.1763034  37.7822548  -1.2521438
  44.3685904  36.6803926  -1.3688164  44.4655853  37.4556561  -1.3030554
  44.9626838  37.9700490   3.0018106  45.5025063  37.8271621   3.6721479
  44.2796784  38.3697241   3.3702133  44.9418992  38.0080161   3.1552528
  54.3867723  33.6491491  -1.8036869  55.1425238  34.0823005  -1.7647960
  54.4930047  32.9996261  -1.2302233  54.5137894  33.6168975  -1.7138844
  57.4247894  37.4764768  -1.0534466  56.9883126  37.4801510  -0.2975495
  57.0910810  38.1570267  -1.4854889  57.3110514  37.5777224  -1.0053634
  51.9976968  39.5173101  10.2708684  52.7817384  39.6303949  10.6364426
  51.7973562  38.6914238  10.4667370  52.0842993  39.4119820  10.3543070
  40.3663983  34.1900781   3.1552528  40.1002398  33.3739898   3.3143518
  40.3802547  34.2353937   2.2848043  40.3288705  34.0757686   3.0506010
  57.3445377  24.5178596   1.1894962  57.9871285  24.5876700   1.7756877
  57.5968398  23.8507819   0.6874504  57.4767509  24.4304945   1.2022241
  45.1162589  27.7279159   5.8019536  44.4234386  27.2576139   6.0480267
  45.7322917  27.5017464   6.3761243  45.1047119  27.6246291   5.9228688
  52.1547361  41.4283203   3.9175140  51.3562607  41.1882703   4.1749008
  52.6033373  41.4797596   4.6642187  52.1021972  41.4005594   4.0660064
  60.5592240  34.1945688  -2.1614829  61.2208674  33.6336356  -2.2618921
  59.9183652  33.6997719  -1.8362138  60.5621108  34.0382097  -2.1282489
  40.7757397  34.9759560   0.4364272  40.5932970  34.9506446  -0.4163436
  41.5107066  35.4458498   0.4753181  40.8571461  35.0420923   0.3162191
  56.8457071  35.2111070  -2.4202840  57.0812660  35.3556269  -3.2475990
  56.9946635  35.9753478  -2.0271327  56.9022874  35.3450125  -2.4839236
  43.8403148  31.6944563   6.9446381  44.5643121  31.6797594   7.4311276
  43.9419285  32.4039918   6.4468349  43.9621357  31.7969266   6.9425168
  51.2148098  35.1743648  11.8095328  50.4221079  35.4887160  11.9947948
  51.3297025  35.3895116  10.9716112  51.1143508  35.2527485  11.7133663
  53.8879417  31.8977639  -3.9009656  53.9826271  32.6366933  -3.4470031
  53.2638260  31.4695114  -3.4675092  53.8088447  31.9438960  -3.7701509
  52.1431891  35.0763852   6.7480625  52.7170752  34.4391096   6.9029189
  52.0646694  35.0767934   5.8790282  52.2165126  34.9828963   6.6427035
  40.7428307  31.8553061   0.5863339  41.3201810  31.7189512   1.2255584
  40.0442369  31.3988845   0.8408923  40.7249328  31.7675327   0.7185628
  47.4995609  33.5087117  -1.1998178  47.2414854  32.6758852  -1.2266879
  47.5544092  33.7344730  -2.0405678  47.4695387  33.4184888  -1.3278041
  52.5796659  25.6115567  -1.0994085  51.8752986  25.1224753  -0.9410166
  52.6281634  25.6238042  -1.9705641  52.4826711  25.5405215  -1.2054746
  46.4730321  31.0624879  -0.7133283  45.8979913  31.2217048  -0.0769322
  46.0965998  30.4260288  -1.1764833  46.3333134  30.9922692  -0.6878725
  50.1403610  29.5348228   4.1459095  49.7518043  29.1102446   3.4911286
  49.4758308  29.7830378   4.6536122  49.9850538  29.5086950   4.1246963
  53.9629972  23.2322857   1.6583079  54.3440483  22.5501028   2.0450954
  53.1593256  22.9432459   1.4758744  53.9006433  23.0889906   1.6887135
  57.4652038  36.4472829   6.7565478  57.2290676  35.6160894   6.6377538
  58.1095267  36.3958436   7.3420322  57.5246709  36.3170517   6.8251371
  47.1150457  37.2368351  -2.5291786  47.7524404  36.9980098  -1.9839992
  47.5405528  37.4405509  -3.2638625  47.2726623  37.2319361  -2.5574628
  41.8063099  39.4756687   1.3542518  41.8467244  39.7471538   0.5262298
  42.3657623  39.9998595   1.7700306  41.8946445  39.5932442   1.2934406
  47.9221812  25.7377055  11.5245688  47.6075253  26.5076618  11.2615251
  47.6011745  25.1747312  10.9397915  47.8280731  25.7687324  11.3987038
  58.4888459  36.2317278   2.8193772  58.1834276  36.9645335   3.1807088
  57.7694675  35.8255207   2.5386558  58.3375801  36.2799011   2.8306909
  49.4971929  37.7140773  -0.8498000  49.5710937  37.5515945   0.0043850
  50.3141435  37.9030963  -1.0937518  49.6288287  37.7177515  -0.7599974
  64.1890251  32.8710279   2.1462117  64.1214752  32.8906238   1.2764703
  64.1745914  33.7140606   2.3717787  64.1769008  32.9984013   2.0514593
  43.2577685  38.0598636  -3.8203556  42.4315803  38.3060373  -3.9469277
  43.3189676  37.9810717  -2.9541498  43.1451852  38.0843585  -3.7114612
  54.5986598  24.2745436   5.4703206  55.3440190  24.0855247   5.0566631
  54.1823902  24.8003674   4.9117062  54.6471572  24.3247582   5.3267779
  61.9748869  31.6454665   0.4208711  62.5256790  31.0122734   0.6605803
  61.9592984  32.1770058   1.1124215  62.0534065  31.6303613   0.5587569
  48.6271259  35.4793262   4.9668604  48.1282953  36.1909030   5.0453493
  49.4371484  35.7993929   4.9286767  48.6727366  35.6320111   4.9725173
  45.9782430  42.6542899  -3.0524376  45.7582725  42.3640253  -2.2597709
  45.7576952  41.9957854  -3.5806464  45.9130024  42.5142607  -3.0135468
  44.8899377  34.7416215  -0.7868675  44.6012626  34.1153686  -0.2522947
  45.7582725  34.6836503  -0.7203994  44.9759629  34.6403759  -0.6977720
  55.6777275  29.8850998  -0.4686693  55.3342041  29.1641334  -0.1179443
  55.7770317  29.6764850  -1.3108335  55.6419318  29.7475202  -0.5415013
  45.0931650  36.3811466  -4.8626310  45.8477618  36.7624505  -4.6490847
  44.5002263  36.8322610  -4.4079613  45.1168364  36.5040294  -4.7643431
  47.5538317  28.3374307  10.2630903  46.7438093  28.6432086  10.1520745
  48.0313004  29.0579889  10.3783487  47.5041796  28.4888908  10.2637974
  46.4129877  37.5520028   0.5113806  45.8910631  37.6920319   1.1965670
  46.8003897  36.7930692   0.7015923  46.3933578  37.4605551   0.6414882
  47.8396203  34.5824047  -4.0904703  47.6438985  35.1898781  -4.6844400
  48.0630548  33.8891991  -4.5713029  47.8430844  34.5701572  -4.2488622
  46.2374733  31.4678784  -3.9723835  46.9597385  31.6319943  -4.4320029
  45.7582725  32.1888449  -4.0784495  46.2738463  31.5977014  -4.0558221
  54.1968240  27.8042583   1.4072850  53.3579341  27.8303862   1.1711113
  54.2672608  28.4513319   1.9878197  54.0836634  27.9038709   1.4581967
  43.8882349  33.8736857   5.1330305  44.4003446  34.1521110   4.4839065
  43.6018692  34.6126151   5.4993118  43.9217212  34.0239211   5.0920183
  58.0725764  33.0110570  -1.3065908  57.9859739  33.1665996  -0.4531129
  57.6176244  33.6548646  -1.6806503  57.9929021  33.1286325  -1.2358801
  47.4066075  25.9663245   5.1931347  47.2149272  25.9818380   6.0430770
  48.2564671  26.1626920   5.1698001  47.5041797  25.9977597   5.3154641
  41.7912988  28.4954227   3.1715163  41.6498480  27.6438168   3.2959671
  42.0753551  28.5382888   2.3477369  41.8120834  28.3753977   3.0682787
  51.9451580  30.3321317  -2.6840349  51.6986294  30.2517068  -1.8503560
  52.2736703  29.5474785  -2.8777821  51.9572824  30.2047582  -2.5892826
  55.8399629  37.0404676   1.1046433  55.7013988  37.7385722   1.6095175
  55.0599627  36.8853333   0.7482614  55.7042856  37.1204843   1.1272707
  54.1777714  33.3401052   7.3568814  54.1725753  32.4680868   7.3611241
  54.8838708  33.5389221   6.8838270  54.2822718  33.2404926   7.2875850
  47.9048607  33.0678036   6.7282634  48.0491983  33.6479244   6.0925744
  48.2524256  33.4454332   7.4332489  47.9776069  33.2098740   6.7381629
  50.0768525  32.2668204   4.5107766  49.3291839  32.4599218   4.1056044
  50.2310050  31.4413424   4.2731887  49.9890952  32.1733316   4.4153172
  46.9776362  41.2580808   3.5943661  47.1265926  40.6983723   2.9417066
  47.7576364  41.3372809   3.9776180  47.1150456  41.1866373   3.5540610
  49.5029663  41.4295450   4.8728152  49.4273334  40.7604261   5.4278940
  49.4319522  42.1313239   5.3868818  49.4810270  41.4340358   5.0305000
  50.3170302  26.1618755   5.4003170  50.7742916  26.8942729   5.5275962
  50.3926631  25.7385220   6.1590426  50.3961272  26.2075993   5.5304246
  42.5603293  26.4084575   6.4892613  42.0245482  25.7964933   6.8053381
  42.6221058  26.9832711   7.1426280  42.4898926  26.4031502   6.6328040
  48.1952680  28.1520859   2.2444994  47.4048754  27.9712319   2.5662330
  48.5913303  27.3747811   2.2275288  48.1369556  28.0108320   2.2897542
  53.5796366  35.7863289  -0.0295560  52.9041368  35.5548521   0.4717827
  53.5888742  35.1784472  -0.6553455  53.4814871  35.6622214  -0.0479408
  50.7090510  30.6281118   6.7268493  50.6449651  31.4891074   6.5988629
  50.8487698  30.3113111   5.9264044  50.7205980  30.7081285   6.5896706
  49.3909604  33.3213257   0.8684696  48.9671853  33.5217756   0.1323714
  49.2154459  32.4742105   0.9808995  49.3020484  33.2262039   0.7758386
  48.8921297  44.8363770   3.3306153  49.3817228  44.1374559   3.1481817
  48.3205530  44.5387640   3.9182210  48.8805827  44.6889994   3.3907194
  44.6792049  33.8165309  -3.6987332  44.8356668  33.7512111  -2.8431340
  45.0192642  34.5913861  -3.9108652  44.7525284  33.9214507  -3.6032738
  51.2171193  33.1923192  -4.8293969  51.7586739  32.6893573  -4.3655348
  51.5317752  33.1388387  -5.6404483  51.3435591  33.1102613  -4.8810157
  55.0888301  37.4025840  12.2832944  55.9023166  37.1310988  12.4438076
  54.9283267  37.1033380  11.4793139  55.1858249  37.3180766  12.1878349
  52.3660463  28.0859497   5.2228332  52.5802432  27.4470411   4.6691686
  51.7494362  28.5305321   4.7936194  52.3065792  28.0569640   5.0778763
  41.2526310  31.0000259  -3.3826565  41.6325275  31.4184804  -4.0466297
  40.6781675  31.5813715  -3.0757721  41.2237635  31.1478118  -3.4349824
  54.5299551  29.6948562   6.1611639  53.7176233  29.3874452   6.2424812
  54.9889485  29.2147562   6.7254351  54.4779936  29.5785054   6.2566233
  51.7575191  21.1959432   0.2115675  50.8868749  21.1698153   0.1648984
  52.0115533  21.0236625  -0.6058480  51.6668752  21.1669576   0.0835811
  51.6253058  31.1008633  10.9440341  52.0952689  31.7250750  11.3308215
  51.6714939  30.4325609  11.5033556  51.7020934  31.0943314  11.0840413
  48.7824332  23.2065661   1.6689145  48.2662821  22.5145852   1.7940724
  48.2218261  23.8736438   1.6151744  48.6230845  23.2028918   1.6795211
  50.8516565  23.7458621   3.4981998  50.4648319  23.7707652   4.2795527
  50.3649503  23.1800300   3.0456514  50.7229074  23.6654372   3.5469901
  55.1009545  38.4632130   7.5555784  55.7389265  37.9692325   7.2218240
  54.4583636  38.3909530   6.9708011  55.1003771  38.3791138   7.4198139
  56.8266545  30.3121276   2.1221700  56.3994153  30.2247624   1.3669799
  56.1892598  30.4199051   2.7076544  56.6696152  30.3153936   2.0967141
  50.5173707  20.6325606   5.7892257  51.1466825  21.1685906   5.5113328
  50.6859570  20.5402965   6.6405823  50.6351502  20.6986969   5.8740786
  50.3187622  25.4196801   8.0618669  51.1461051  25.1481950   8.1177283
  50.3395468  26.2157643   8.4182487  50.4440472  25.4976555   8.1233852
  55.1563801  39.1551938   4.1961141  55.9456180  38.8041003   4.3163222
  55.3307399  39.9688327   3.9337775  55.2984083  39.2237795   4.1749009
  44.8957112  32.5660664   1.2488930  44.0545118  32.4664538   1.4567824
  45.1047120  33.3356144   1.6003250  44.8021804  32.6652707   1.3316245
  42.3732679  30.1880201  -0.9226320  41.9789377  30.2623213  -1.6976210
  41.8172796  30.5738147  -0.3717958  42.2335491  30.2561975  -0.9558660
  54.0097626  23.1661495  -1.2422441  54.2147219  23.0983803  -0.3965444
  53.6824050  23.9720316  -1.3101263  53.9912874  23.2747435  -1.1262786
  48.7073777  30.4942063   0.4986527  48.4036914  29.9398051   1.0996935
  48.0053198  30.6734273   0.0114561  48.5589987  30.4386845   0.5156233
  46.7692128  37.7091784   5.2058625  46.6612483  37.7193846   6.0720683
  46.9787909  38.5346564   5.0163579  46.7842239  37.8332859   5.3062717
  44.7865920  34.9604426   2.6680563  44.1953853  35.6013924   2.6383578
  45.5486943  35.3842043   2.6411862  44.8114180  35.1180265   2.6595710
  45.1826543  26.1206424   3.3348580  45.6428024  26.1945353   4.0723704
  45.2282649  26.9187678   2.9848402  45.2577098  26.2500571   3.3921337
  46.8309892  26.7873119   7.9020607  46.4395457  26.1406466   8.3376385
  46.9995755  27.3784554   8.5214863  46.7980803  26.7787387   8.0583313
  60.9056341  34.7910196   3.6657841  60.9639465  35.2396845   4.4117817
  60.2722809  35.2009009   3.2287921  60.8207636  34.9183931   3.7110389
  54.5455436  40.4113738   0.1012587  54.3475125  40.9004552  -0.5931202
  53.9243147  40.6154979   0.6796720  54.4243000  40.5130276   0.0835810
  48.6063414  32.1798635  -5.5577169  49.3505459  32.5672911  -5.3194219
  48.7524110  31.3356060  -5.3936681  48.7373999  32.1129107  -5.4983199
  50.5242990  23.9748893  -0.5245307  49.6779035  24.1471701  -0.6503957
  50.5214122  23.1698237  -0.1879479  50.3990140  23.8809922  -0.4934180
  51.5941290  27.7524108   0.3416751  51.1201244  27.2265870   0.8522062
  51.9659426  27.2053581  -0.2268388  51.5791179  27.5940104   0.3331898
  41.9714320  29.7495615   5.7100296  42.8339933  29.6491324   5.6237626
  41.6406103  29.1690324   5.1485869  42.0499517  29.6487241   5.6145702
  57.8578021  32.8126484   1.7523531  57.6176244  31.9732899   1.7565958
  58.3370028  32.8926650   2.4764305  57.8930204  32.7007883   1.8598333
  59.8583208  29.5927941  -0.2947210  59.6192978  29.5523775  -1.1326425
  60.0217109  30.4399093  -0.1681489  59.8473511  29.7120026  -0.3993728
  56.4629238  33.9777890   5.6357835  57.1863437  33.5250416   5.4568855
  56.1979200  34.2582556   4.8530163  56.5310511  33.9528859   5.4936551
  45.3316106  28.5738064   2.3710715  44.7069176  28.5856456   1.7636667
  44.9961701  29.0498239   3.0201955  45.1901598  28.6456581   2.3767283
  42.0441782  36.6338524   3.8114479  41.5141706  35.9430963   3.8609454
  42.3166875  36.6248709   2.9827187  42.0066504  36.5305656   3.6961895
  52.2448027  34.0761768   3.7852851  51.6305021  33.5319819   4.0801486
  52.7615312  33.5626005   3.3058667  52.2303690  33.9198177   3.7577079
  51.4844325  35.1466038   1.5197149  51.0571933  34.5215757   1.0862585
  51.4769269  34.8640960   2.3456156  51.4203466  35.0118819   1.5776977
  44.6006852  30.1831211   4.5885583  44.7600338  29.4274536   4.9937305
  44.4199745  30.7322151   5.2426321  44.5972211  30.1525025   4.7448289
  52.5427155  22.3492447   5.1436373  52.0467716  22.5456121   4.4527939
  53.2996217  22.7485115   4.9725174  52.5813979  22.4370181   5.0156509
  49.8130034  26.0234793   1.7339683  49.8372521  25.4894905   1.0452463
  50.0641508  25.5152102   2.3965274  49.8539953  25.8695697   1.7304328
  37.3237624  33.3066288   1.1682827  37.2181073  33.2613132   0.3034911
  36.5737844  33.6520068   1.4497112  37.1973227  33.3507196   1.0820157
  46.0931356  24.7505611   1.1145427  46.1329728  25.2514818   1.8280135
  45.2681021  24.8416005   0.8451350  45.9770882  24.8387427   1.1795966
  48.2760969  34.3166351   9.2165722  47.4256600  34.4538065   9.3523367
  48.4389097  33.5830129   9.6613424  48.1744833  34.2280452   9.3021321
  47.5145720  31.2666121   3.4119326  46.6837650  31.4339939   3.2054575
  47.4597237  30.8902072   4.1968212  47.3835135  31.2355852   3.4967855
  45.3229503  24.7575014   9.0475737  45.9482207  24.2137147   9.3205169
  44.8679983  24.2769931   8.4783528  45.3477764  24.6064495   9.0037331
  58.8964552  32.9404301   4.1388385  59.4882392  33.5801552   4.1706583
  59.3323546  32.2427338   4.4280452  59.0482983  32.9322651   4.1869218
  50.7257942  37.3621673   4.7646279  50.2183033  37.9157520   5.2086910
  50.4284588  37.4229963   3.9465054  50.6062827  37.4527984   4.7094736
  52.8920124  25.7274993   3.6070942  53.3175195  25.2747519   2.9954468
  52.2777117  25.1735064   3.8835730  52.8648769  25.5788969   3.5575967
  55.9213693  30.1549519  -3.5608472  55.2504883  30.6979222  -3.6895407
  56.6153444  30.6244375  -3.8026778  55.9242561  30.3047791  -3.6152945
  49.9700427  42.2946231   1.6703286  49.7466081  41.5365061   2.0387312
  49.4810270  42.3244253   0.9483726  49.8643876  42.1868456   1.6180027
  56.0841821  26.6105403  -0.6518099  56.4369431  26.1835126   0.0227700
  55.2256622  26.5256247  -0.5217023  56.0091265  26.5350144  -0.5323089
  44.7825506  29.2412923  -2.5935253  44.0637495  29.6577055  -2.3262389
  45.1537868  29.8067162  -3.1443614  44.7317437  29.3862204  -2.6352446
  54.0825087  29.8740772   3.2966743  54.0623014  29.6924067   4.1501522
  54.1304287  30.7452790   3.2726327  54.0859728  29.9757310   3.4190038
  52.0271416  36.4627964   9.2215220  51.9867271  35.8177641   8.6360376
  52.8394735  36.4064581   9.5340632  52.1414570  36.3586931   9.1812169
  48.6178884  42.5146690  -0.8759629  48.2039283  41.8520820  -1.2655788
  49.3026258  42.6624548  -1.3963935  48.6577256  42.4387348  -1.0103132
  51.9844178  41.6736775  -0.1236013  51.5860461  41.7839045  -0.8915193
  51.3695398  41.8818841   0.4590547  51.8343067  41.7210343  -0.1504713
  53.4329897  28.2390427  -3.8260123  53.2043590  28.2623129  -4.6681765
  53.6927973  27.4147894  -3.7065112  53.4376085  28.1206507  -3.9334925
  47.7149125  30.0924900   5.7764977  47.2028028  29.4846083   6.1350009
  47.5428621  30.8081493   6.2438953  47.6138762  30.1088200   5.8981201
  42.5614840  28.5362476   8.4267339  42.3917430  29.1963850   7.8815546
  42.1180790  28.7469037   9.1479828  42.4714173  28.6648458   8.4528969
  46.4874659  26.7766974  -2.5305927  46.9632025  27.1384053  -3.1655746
  45.9863259  27.4323441  -2.2505784  46.4840018  26.9261162  -2.5829186
  51.5918195  28.0149145   8.2167233  52.1489626  27.7862954   7.5845698
  51.2679260  28.7754811   7.9402445  51.6264606  28.0932982   8.0823730
  39.4616904  31.4409341   3.6855829  38.9143624  30.7709987   3.8036697
  40.2509282  31.0739189   3.7499296  39.4969088  31.2874328   3.7124529
  49.3101313  31.1016798   9.1819240  50.0612640  31.4168475   9.4958794
  49.5023889  30.8995969   8.3553162  49.4492727  31.1184180   9.1062636
  56.1586603  27.2290365  -3.5756965  56.1580829  27.0739021  -2.7172688
  55.9542783  28.0753352  -3.6315579  56.1286381  27.3310985  -3.4569025
  38.2203874  30.6530149   0.8401852  38.0425635  30.2006758   1.5656768
  37.9322896  31.4556310   1.0240330  38.1516827  30.7052707   0.9745355
  53.8827455  31.9087866   0.0779242  54.3781120  31.1910861   0.0383263
  53.0727231  31.6058664  -0.0366271  53.8371348  31.7585513   0.0552968
  39.9576344  33.1857873  -2.0476389  39.0921863  33.1743563  -2.1593618
  40.0575160  32.9988096  -1.2005250  39.8450511  33.1563934  -1.9387445
  55.9479274  34.6591554   2.7656371  56.3734345  34.1365976   2.2126796
  55.5836194  35.2572391   2.2444994  55.9565876  34.6701781   2.6065381
  45.5833354  42.9555771   1.5253717  45.8979913  43.7692160   1.5331498
  45.9926767  42.5705990   2.1935876  45.6901452  43.0184474   1.6257808
  52.5357873  38.3725818  -0.9042471  53.0069051  39.0866081  -0.7352486
  52.8718052  37.7724568  -0.3682602  52.6552988  38.3897282  -0.8010096
  54.6234858  39.9827131  11.2749601  54.7331823  39.1935692  11.6306348
  54.9525754  39.8933068  10.4723939  54.6887264  39.8532984  11.2091991
  49.4527368  23.1453289   6.0515623  49.5855274  22.3484282   6.3796599
  49.8372521  23.6719692   6.6313899  49.5283697  23.1053205   6.1859126
  53.1731820  38.1643752   5.8585221  52.6252766  37.5401636   5.5905286
  53.6344848  38.3538024   5.1429301  53.1599029  38.1002802   5.7135652
  52.5259723  20.0683615   2.6496717  51.7205687  19.9581344   2.9664555
  52.3966459  20.1696070   1.7926582  52.3879856  20.0667285   2.5704757
  55.9825684  26.2329107   3.2436413  55.3988673  26.7338313   2.8313981
  56.3029978  25.7258663   2.6100737  55.9438859  26.2320942   3.0894921
  47.1115815  23.1412464   4.2993517  47.6560228  22.8003591   4.8897859
  47.1652751  23.9997925   4.4414802  47.2004934  23.2167723   4.4075390
  42.9246374  36.9028880   1.1732325  43.5291231  36.8624714   0.5446146
  42.7173686  37.7500032   1.2036381  42.9835271  37.0216882   1.0848441
  38.1597656  35.8863497   1.0431248  38.0621934  35.0759769   1.3521305
  38.9426526  35.8655291   0.6577516  38.2613792  35.7630587   1.0318111
  53.8684509  43.6522455   0.6627015  53.2489540  43.0615102   0.4937029
  53.7668372  44.2433890   0.0291338  53.7622184  43.6526537   0.5432004
  53.5953642  47.1974737   2.9070584  53.4712339  47.7837182   3.5420402
  54.2471926  46.7034932   3.2082859  53.6727291  47.2113541   3.0456513
  57.0334850  47.1154158   8.3199608  57.2055353  47.0060052   9.1684889
  57.5704207  47.7608563   8.0830800  57.1379854  47.1946160   8.4104705
  62.9709551  55.0358409  10.2708684  63.7549968  55.1489257  10.6364426
  62.7706146  54.2099546  10.4667370  63.0575577  54.9305128  10.3543070
  51.3396567  49.7086089   3.1552528  51.0734982  48.8925206   3.3143518
  51.3535131  49.7539244   2.2848043  51.3021289  49.5942994   3.0506010
  56.0895173  43.2464467   5.8019536  55.3966970  42.7761447   6.0480267
  56.7055500  43.0202772   6.3761243  56.0779703  43.1431599   5.9228688
  54.8135732  47.2129871   6.9446381  55.5375704  47.1982902   7.4311276
  54.9151869  47.9225226   6.4468349  54.9353941  47.3154574   6.9425168
  62.1880681  50.6928956  11.8095328  61.3953662  51.0072468  11.9947948
  62.3029609  50.9080424  10.9716112  62.0876092  50.7712792  11.7133663
  61.1136194  45.0533536   4.1459095  60.7250626  44.6287754   3.4911286
  60.4490892  45.3015686   4.6536122  60.9583121  45.0272257   4.1246963
  58.8954396  41.2562363  11.5245688  58.5807837  42.0261926  11.2615251
  58.5744328  40.6932619  10.9397915  58.8013315  41.2872632  11.3987038
  65.5719181  39.7930744   5.4703206  66.3172773  39.6040555   5.0566631
  65.1556486  40.3188982   4.9117062  65.6204156  39.8432890   5.3267779
  58.5270901  43.8559614  10.2630903  57.7170677  44.1617394  10.1520745
  59.0045588  44.5765197  10.3783487  58.4774380  44.0074216  10.2637974
  54.8614933  49.3922165   5.1330305  55.3736030  49.6706418   4.4839065
  54.5751276  50.1311459   5.4993118  54.8949796  49.5424518   5.0920183
  58.3798658  41.4848553   5.1931347  58.1881855  41.5003688   6.0430770
  59.2297254  41.6812228   5.1698001  58.4774380  41.5162905   5.3154641
  52.7645571  44.0139535   3.1715163  52.6231063  43.1623476   3.2959671
  53.0486135  44.0568196   2.3477369  52.7853417  43.8939285   3.0682787
  58.8781191  48.5863344   6.7282634  59.0224567  49.1664552   6.0925744
  59.2256840  48.9639640   7.4332489  58.9508652  48.7284048   6.7381629
  61.2902885  41.6804063   5.4003170  61.7475499  42.4128037   5.5275962
  61.3659214  41.2570528   6.1590426  61.3693855  41.7261301   5.5304246
  53.5335877  41.9269882   6.4892613  52.9978066  41.3150241   6.8053381
  53.5953641  42.5018018   7.1426280  53.4631509  41.9216810   6.6328040
  59.1685263  43.6706167   2.2444994  58.3781338  43.4897627   2.5662330
  59.5645886  42.8933119   2.2275288  59.1102139  43.5293628   2.2897542
  61.6823094  46.1466426   6.7268493  61.6182235  47.0076382   6.5988629
  61.8220281  45.8298419   5.9264044  61.6938564  46.2266592   6.5896706
  66.0620884  52.9211147  12.2832944  66.8755750  52.6496296  12.4438076
  65.9015851  52.6218687  11.4793139  66.1590833  52.8366074  12.1878349
  63.3393046  43.6044805   5.2228332  63.5535016  42.9655719   4.6691686
  62.7226946  44.0490629   4.7936194  63.2798376  43.5754948   5.0778763
  65.5032134  45.2133870   6.1611639  64.6908816  44.9059760   6.2424812
  65.9622069  44.7332870   6.7254351  65.4512519  45.0970362   6.2566233
  62.7307775  36.7144740   0.2115675  61.8601333  36.6883461   0.1648984
  62.9848116  36.5421932  -0.6058480  62.6401335  36.6854884   0.0835811
  62.5985642  46.6193941  10.9440341  63.0685273  47.2436058  11.3308215
  62.6447522  45.9510917  11.5033556  62.6753518  46.6128622  11.0840413
  59.7556916  38.7250969   1.6689145  59.2395404  38.0331160   1.7940724
  59.1950844  39.3921746   1.6151744  59.5963429  38.7214226   1.6795211
  61.8249149  39.2643929   3.4981998  61.4380902  39.2892960   4.2795527
  61.3382086  38.6985607   3.0456514  61.6961658  39.1839680   3.5469901
  61.4906291  36.1510914   5.7892257  62.1199409  36.6871214   5.5113328
  61.6592153  36.0588273   6.6405823  61.6084085  36.2172277   5.8740786
  61.2920206  40.9382109   8.0618669  62.1193635  40.6667258   8.1177283
  61.3128052  41.7342951   8.4182487  61.4173056  41.0161863   8.1233852
  56.1559126  41.6391732   3.3348580  56.6160608  41.7130661   4.0723704
  56.2015233  42.4372986   2.9848402  56.2309681  41.7685879   3.3921337
  57.8042476  42.3058427   7.9020607  57.4128041  41.6591774   8.3376385
  57.9728339  42.8969862   8.5214863  57.7713386  42.2972695   8.0583313
  52.9446904  45.2680923   5.7100296  53.8072517  45.1676632   5.6237626
  52.6138687  44.6875632   5.1485869  53.0232100  45.1672549   5.6145702
  56.3048690  44.0923372   2.3710715  55.6801760  44.1041763   1.7636667
  55.9694285  44.5683547   3.0201955  56.1634182  44.1641889   2.3767283
  55.5739435  45.7016519   4.5885583  55.7332922  44.9459843   4.9937305
  55.3932329  46.2507459   5.2426321  55.5704794  45.6710333   4.7448289
  63.5159738  37.8677755   5.1436373  63.0200300  38.0641429   4.4527939
  64.2728800  38.2670423   4.9725174  63.5546563  37.9555489   5.0156509
  60.7862618  41.5420101   1.7339683  60.8105105  41.0080213   1.0452463
  61.0374091  41.0337410   2.3965274  60.8272537  41.3881005   1.7304328
  48.2970208  48.8251596   1.1682827  48.1913657  48.7798440   0.3034911
  47.5470428  49.1705376   1.4497112  48.1705811  48.8692504   1.0820157
  57.0663940  40.2690919   1.1145427  57.1062312  40.7700126   1.8280135
  56.2413605  40.3601313   0.8451350  56.9503466  40.3572735   1.1795966
  59.2493553  49.8351659   9.2165722  58.3989183  49.9723373   9.3523367
  59.4121681  49.1015437   9.6613424  59.1477416  49.7465760   9.3021321
  58.4878303  46.7851429   3.4119326  57.6570233  46.9525247   3.2054575
  58.4329821  46.4087380   4.1968212  58.3567718  46.7541160   3.4967855
  56.2962087  40.2760322   9.0475737  56.9214790  39.7322455   9.3205169
  55.8412567  39.7955239   8.4783528  56.3210347  40.1249803   9.0037331
  63.8652708  41.2460301   3.6070942  64.2907779  40.7932827   2.9954468
  63.2509701  40.6920372   3.8835730  63.8381353  41.0974277   3.5575967
  63.0004000  51.9813272   9.2215220  62.9599855  51.3362949   8.6360376
  63.8127318  51.9249889   9.5340632  63.1147153  51.8772238   9.1812169
  58.6881709  45.6110208   5.7764977  58.1760612  45.0031391   6.1350009
  58.5161205  46.3266801   6.2438953  58.5871346  45.6273507   5.8981201
  53.5347423  44.0547784   8.4267339  53.3650014  44.7149158   7.8815546
  53.0913373  44.2654345   9.1479828  53.4446757  44.1833766   8.4528969
  62.5650779  43.5334453   8.2167233  63.1222209  43.3048262   7.5845698
  62.2411844  44.2940118   7.9402445  62.5997189  43.6118290   8.0823730
  50.4349488  46.9594649   3.6855829  49.8876207  46.2895295   3.8036697
  51.2241866  46.5924497   3.7499296  50.4701672  46.8059635   3.7124529
  60.2833896  46.6202106   9.1819240  61.0345223  46.9353783   9.4958794
  60.4756473  46.4181277   8.3553162  60.4225310  46.6369488   9.1062636
  49.1936457  46.1715457   0.8401852  49.0158218  45.7192066   1.5656768
  48.9055480  46.9741618   1.0240330  49.1249411  46.2238015   0.9745355
  60.4259952  38.6638597   6.0515623  60.5587857  37.8669590   6.3796599
  60.8105104  39.1905000   6.6313899  60.5016281  38.6238513   6.1859126
  63.4992307  35.5868923   2.6496717  62.6938271  35.4766652   2.9664555
  63.3699042  35.6881378   1.7926582  63.3612440  35.5852593   2.5704757
  58.0848399  38.6597772   4.2993517  58.6292811  38.3188898   4.8897859
  58.1385334  39.5183233   4.4414802  58.1737518  38.7353031   4.4075390
   1.8073236  59.1076254  36.2475583   1.4926677  59.7979733  36.6796005
   1.2900177  59.0521036  35.5461084   1.6837706  59.2011143  36.2072532
   6.0987681  67.3297460  41.5296459   5.2616102  67.3999647  41.7644054
   6.0675912  67.3321955  40.6570762   5.9705963  67.3407687  41.4356007
   3.7795521  62.3940242  40.1140182   4.4221429  62.4638346  40.7002097
   4.0318541  61.7269465  39.6119724   3.9117653  62.3066590  40.1267461
   6.2177023  67.1684879  35.8452145   5.9613588  66.3564820  35.6550028
   7.0606337  67.1762446  35.6182333   6.3043048  67.0496876  35.7836962
   1.0336741  62.1507082  44.3948426   1.7790333  61.9616893  43.9811851
   0.6174046  62.6765320  43.8362282   1.0821716  62.2009228  44.2512999
   8.4099012  69.5216311  39.3453931   8.9606934  68.8884380  39.5851023
   8.3943128  70.0531703  40.0369435   8.4884209  69.5065259  39.4832789
   2.1127418  67.7612644  38.4558527   1.7692184  67.0402980  38.8065777
   2.2120461  67.5526495  37.6136885   2.0769461  67.6236848  38.3830207
   1.2247771  57.2170276  38.1942233   1.3431339  57.6746739  37.4609535
   1.0509947  56.4115537  37.9078450   1.2166942  57.1664048  38.0443166
   3.2616689  68.1882922  41.0466920   2.8344297  68.1009270  40.2915019
   2.6242741  68.2960697  41.6321764   3.1046296  68.1915581  41.0212361
   3.6981457  61.5954905  37.1625545   3.0855771  62.0825307  37.5479277
   3.7945632  60.9198396  37.7063196   3.6219355  61.5673214  37.3004403
   6.2933351  67.4689587  38.6298010   6.0543121  67.4285421  37.7918795
   6.4567253  68.3160739  38.7563731   6.2823655  67.5881672  38.5251492
   2.5191964  64.4867049  38.2727121   2.8719574  64.0596772  38.9472920
   1.6606766  64.4017892  38.4028197   2.4441409  64.4111790  38.3922131
   3.9516024  59.6085461  39.2011433   3.4446889  58.9014600  39.1332611
   4.7483458  59.2778650  39.3312510   3.9943264  59.4558612  39.2110428
   2.5936746  65.1052010  35.3488255   2.5930973  64.9500667  36.2072532
   2.3892926  65.9514997  35.2929641   2.5636524  65.2072631  35.4676195
   2.4175827  64.1090752  42.1681633   1.8338816  64.6099959  41.7559201
   2.7380122  63.6020309  41.5345957   2.3789003  64.1082588  42.0140141
   4.3672180  46.1214146  21.2122705   4.3366185  46.9758782  21.3840975
   4.9653529  45.8209438  21.7708849   4.4509338  46.2030642  21.3197508
   0.8765582  51.4776322  35.5736092   1.5832349  50.9828353  35.7023027
   1.0653517  51.9185404  34.8438750   1.0093487  51.4694673  35.4845138
   2.1888755  48.6966448  19.4841015   2.0728281  49.4474134  19.9133153
   2.9844641  48.4390401  19.7337102   2.2893344  48.7701295  19.5845107
   1.5024060  36.0454385  23.1815630   1.1877501  36.7357864  23.6136052
   0.9851001  35.9899167  22.4801130   1.3788530  36.1389274  23.1412579
   6.2984546  51.6205191  24.6686085   5.4682249  51.8315834  24.8319501
   6.2493799  50.7942245  24.3928368   6.1691282  51.5294797  24.6523450
   5.7938505  44.2675591  28.4636506   4.9566926  44.3377778  28.6984101
   5.7626736  44.2700086  27.5910808   5.6656787  44.2785818  28.3696054
   3.5548862  52.2904545  24.8050801   3.1184093  52.2941287  25.5609772
   3.2211777  52.9710044  24.3730378   3.4411482  52.3917001  24.8531633
   3.4746344  39.3318373  27.0480229   4.1172253  39.4016477  27.6342144
   3.7269365  38.6647596  26.5459770   3.6068477  39.2444722  27.0607508
   6.6893208  49.0085465  23.6970438   7.3509642  48.4476133  23.5966346
   6.0484620  48.5137496  24.0223129   6.6922075  48.8521874  23.7302778
   2.9758038  50.0250847  23.4382427   3.2113628  50.1696046  22.6109277
   3.1247602  50.7893255  23.8313940   3.0323842  50.1589902  23.3746030
   4.8048495  48.8652513  21.2752030   5.1356712  49.3980153  20.6692125
   5.3781583  48.9191401  21.9313981   4.9382174  48.9522082  21.2829812
   5.9127847  44.1063010  22.7792192   5.6564412  43.2942952  22.5890075
   6.7557161  44.1140577  22.5522379   5.9993872  43.9875008  22.7177009
   3.5953006  51.2612606  32.6150745   3.3591643  50.4300671  32.4962805
   4.2396235  51.2098213  33.2005589   3.6547677  51.1310294  32.6836638
   4.6189427  51.0457055  28.6779039   4.3135244  51.7785112  29.0392355
   3.8995642  50.6394984  28.3971825   4.4676769  51.0938788  28.6892176
  10.3191219  47.6850056  28.0047383  10.2515719  47.7046015  27.1349970
  10.3046881  48.5280383  28.2303054  10.3069975  47.8123790  27.9099860
   8.1049836  46.4594442  26.2793978   8.6557758  45.8262511  26.5191070
   8.0893951  46.9909835  26.9709482   8.1835032  46.4443390  26.4172836
   1.8078242  44.6990775  25.3898574   1.4643008  43.9781111  25.7405824
   1.9071285  44.4904627  24.5476932   1.7720285  44.5614979  25.3170254
   2.2691271  51.1616480  20.9322562   2.8349304  51.8209689  20.8481105
   1.6219175  51.5066178  21.4038964   2.2570028  51.3098421  20.9895319
   4.2026732  47.8250347  24.5519359   4.1160706  47.9805773  25.4054137
   3.7477212  48.4688423  24.1778764   4.1229988  47.9426102  24.6226465
   1.9700596  51.8544453  26.9631699   1.8314956  52.5525499  27.4680442
   1.1900594  51.6993110  26.6067881   1.8343823  51.9344620  26.9857974
   3.4653969  51.2122707  17.7248199   3.0860778  50.4259845  17.7177488
   2.8020215  51.7609564  17.5819843   3.3112444  51.1767531  17.7028996
   0.9198595  34.1548407  25.1282280   1.0382163  34.6124870  24.3949582
   0.7460771  33.3493668  24.8418497   0.9117766  34.1042179  24.9783213
   1.7114068  53.4568198  18.0599884   1.7933905  54.2635184  17.7361335
   2.1963810  53.4764158  18.7840658   1.7951226  53.5788861  18.1186783
   1.2189268  52.2165617  38.1418210   2.0324134  51.9450765  38.3023343
   1.0584235  51.9173157  37.3378406   1.3159217  52.1320543  38.0463616
   1.2310512  53.2771907  33.4141051   1.8690233  52.7832102  33.0803507
   0.5884604  53.2049307  32.8293278   1.2304739  53.1930915  33.2783406
   2.9567512  45.1261053  27.9806967   2.5295121  45.0387401  27.2255066
   2.3193565  45.2338828  28.5661811   2.7997120  45.1293713  27.9552408
   1.2864769  53.9691715  30.0546408   2.0757147  53.6180780  30.1748489
   1.4608367  54.7828104  29.7923041   1.4285051  54.0377572  30.0334276
   3.3932281  38.5333036  24.0965592   2.7806594  39.0203438  24.4819323
   3.4896456  37.8576527  24.6403243   3.3170178  38.5051345  24.2344450
   7.0357309  49.6049973  29.5243108   7.0940433  50.0536622  30.2703084
   6.4023776  50.0148786  29.0873188   6.9508604  49.7323708  29.5695656
   3.9878988  47.6266261  27.6108798   3.7477211  46.7872676  27.6151224
   4.4670995  47.7066427  28.3349571   4.0231172  47.5147660  27.7183600
   5.9884175  44.4067718  25.5638057   5.7493945  44.3663552  24.7258842
   6.1518077  45.2538870  25.6903778   5.9774479  44.5259803  25.4591539
   2.5930205  48.7917667  31.4943102   3.3164404  48.3390193  31.3154122
   2.3280168  49.0722333  30.7115430   2.6611479  48.7668636  31.3521818
   5.0265519  47.7544078  29.9973652   5.6183360  48.3941329  30.0291850
   5.4624514  47.0567115  30.2865719   5.1783951  47.7462428  30.0454485
   2.0514661  44.9689296  22.2976794   1.3805851  45.5118999  22.1689860
   2.7454411  45.4384152  22.0558489   2.0543528  45.1187568  22.2432322
   2.2142788  41.4245180  25.2067168   2.5670398  40.9974903  25.8812966
   1.3557590  41.3396024  25.3368244   2.1392233  41.3489921  25.3262178
   3.6466848  36.5463592  26.1351480   3.1397713  35.8392732  26.0672658
   4.4434282  36.2156781  26.2652557   3.6894088  36.3936743  26.1450475
   5.8486988  51.0628519  19.1192345   6.2320594  51.8119875  19.3490442
   5.0531102  51.3094338  18.8604334   5.7880770  51.2098212  19.1149918
   2.2887570  42.0430142  22.2828302   2.2881797  41.8878798  23.1412579
   2.0843750  42.8893129  22.2269688   2.2587348  42.1450762  22.4016242
   2.0780241  49.4731331  28.6241638   2.5035313  48.9505753  28.0712063
   1.7137161  50.0712168  28.1030261   2.0866844  49.4841558  28.4650648
   0.7535825  54.7966908  37.1334867   0.8632791  54.0075469  37.4891615
   1.0826722  54.7072845  36.3309205   0.8188231  54.6672761  37.0677258
   2.1126651  41.0468884  29.1021680   1.5289640  41.5478090  28.6899248
   2.4330945  40.5398440  28.4686004   2.0739827  41.0460719  28.9480187
  15.3404764  61.6399454  21.2122705  15.3098768  62.4944090  21.3840975
  15.9386112  61.3394746  21.7708849  15.4241922  61.7215950  21.3197508
   8.5404449  60.7275105  25.9675636   7.6842344  60.8883603  26.0184753
   8.5872102  59.8567169  25.9880697   8.4203560  60.6225907  25.9781702
  11.8498165  66.9961630  35.5736092  12.5564932  66.5013661  35.7023027
  12.0386101  67.4370712  34.8438750  11.9826071  66.9879981  35.4845138
  11.3856270  62.7867149  28.6107288  11.9312230  63.4652235  28.6701257
  11.3273146  62.6454609  27.7508869  11.4572184  62.8659150  28.4919348
  13.1621338  64.2151756  19.4841015  13.0460864  64.9659442  19.9133153
  13.9577225  63.9575709  19.7337102  13.2625928  64.2886603  19.5845107
   7.0953372  60.2061774  20.8544744   7.7933537  60.3849901  21.3466208
   7.4105704  59.6832113  20.2315134   7.2448709  60.1555546  20.8346755
   7.2841307  66.5932219  20.8424536   7.7234943  65.9849319  21.2879309
   7.1345970  66.2139592  20.0710001   7.3262773  66.4470690  20.7943703
   4.7512950  65.1876230  28.0443361   5.3961953  64.6948674  27.7254310
   4.9914727  65.3301017  28.8709440   4.8823535  65.1353673  28.1192895
   7.2899042  68.0331136  27.6950254   7.5722284  67.2382542  27.4737010
   8.0185202  68.5111724  27.7155315   7.4388605  67.9865733  27.6653269
   5.2680235  55.5754170  24.9366019   4.9383565  56.0265314  24.2669718
   4.5925237  55.4970334  25.4839026   5.1190672  55.6305305  24.9189242
  10.8850644  64.9459400  17.7955305  10.8001939  65.8020367  17.9404874
  11.3735027  64.6703724  18.4637464  10.9439541  65.0316721  17.9157387
  12.4756643  51.5639693  23.1815630  12.1610084  52.2543172  23.6136052
  11.9583585  51.5084475  22.4801130  12.3521114  51.6574582  23.1412579
  11.8169077  61.5644194  19.2953040  11.2880548  61.7803828  19.9550347
  12.3394097  62.2580333  19.2154010  11.8157530  61.6987331  19.3808640
  17.2717130  67.1390499  24.6686085  16.4414833  67.3501142  24.8319501
  17.2226382  66.3127553  24.3928368  17.1423865  67.0480105  24.6523450
   8.9890459  70.4189167  33.4650167   9.0773805  70.2315307  34.3128378
   9.4180172  69.7726596  33.0655014   9.0652562  70.2952174  33.5321919
   8.1645899  61.7073063  16.5729429   8.4041903  61.9151047  15.7604772
   8.4861740  60.9030572  16.6818373   8.2483057  61.6187164  16.4689982
   3.4736189  53.6366459  20.4188967   4.2282158  54.0044776  20.1806017
   3.2963724  54.0106013  21.1868146   3.5590668  53.7464647  20.4973855
  16.7671088  59.7860899  28.4636506  15.9299509  59.8563086  28.6984101
  16.7359319  59.7885394  27.5910808  16.6389371  59.7971126  28.3696054
   3.1635817  61.9293935  34.1784875   3.3356321  61.8199829  35.0270156
   3.7005175  62.5748340  33.9416067   3.2680821  62.0085937  34.2689971
   1.8293254  56.0436778  17.1167080   1.6468827  56.2608658  16.2908073
   2.6918867  56.1575790  17.1725694   1.9297844  56.0926676  17.0021567
   7.5092973  53.0463188  20.1516104   8.2379134  52.8679143  19.7054260
   7.5987866  53.8881268  20.3623282   7.6299635  53.1447067  20.1169621
  11.4901274  63.9816576  24.0548398  12.2458789  64.4148090  24.0937306
  11.5963598  63.3321345  24.6283034  11.6171445  63.9494060  24.1446423
  14.5281445  67.8089853  24.8050801  14.0916677  67.8126595  25.5609772
  14.1944361  68.4895352  24.3730378  14.4144065  67.9102309  24.8531633
   9.1010519  69.8498186  36.1293951   9.8850935  69.9629034  36.4949693
   8.9007113  69.0239323  36.3252637   9.1876544  69.7444905  36.2128337
  14.4478928  54.8503681  27.0480229  15.0904836  54.9201785  27.6342144
  14.7001949  54.1832904  26.5459770  14.5801060  54.7630029  27.0607508
   2.2196141  58.0604244  31.6604802   1.5267937  57.5901224  31.9065534
   2.8356468  57.8342549  32.2346510   2.2080671  57.9571376  31.7813955
  17.6625791  64.5270773  23.6970438  18.3242225  63.9661441  23.5966346
  17.0217203  64.0322804  24.0223129  17.6654659  64.3707182  23.7302778
  13.9490622  65.5436155  23.4382427  14.1846211  65.6881354  22.6109277
  14.0980186  66.3078563  23.8313940  14.0056425  65.6775210  23.3746030
   0.9436700  62.0269648  32.8031648   1.6676672  62.0122679  33.2896542
   1.0452836  62.7365003  32.3053616   1.0654909  62.1294351  32.8010434
  15.7781079  64.3837821  21.2752030  16.1089296  64.9165461  20.6692125
  16.3514167  64.4376709  21.9313981  15.9114758  64.4707390  21.2829812
   8.3181649  65.5068733  37.6680595   7.5254630  65.8212245  37.8533214
   8.4330576  65.7220201  36.8301379   8.2177059  65.5852569  37.5718929
  10.9912968  62.2302724  21.9575611  11.0859822  62.9692018  22.4115236
  10.3671811  61.8020199  22.3910175  10.9121998  62.2764044  22.0883758
   9.2465442  65.4088937  32.6065891   9.8204303  64.7716181  32.7614455
   9.1680245  65.4093019  31.7375549   9.3198677  65.3154048  32.5012302
  11.2435989  64.0751464  15.1912563  11.1616152  64.1453651  16.0567550
  11.8815710  64.6381208  14.9996303  11.3255827  64.1690435  15.2902512
   4.6029160  63.8412202  24.6587089   4.3448405  63.0083937  24.6318388
   4.6577643  64.0669815  23.8179589   4.5728938  63.7509973  24.5307226
   9.6830211  55.9440652  24.7591181   8.9786537  55.4549838  24.9175101
   9.7315185  55.9563127  23.8879626   9.5860262  55.8730300  24.6530521
   3.5763873  61.3949964  25.1451984   3.0013464  61.5542132  25.7815945
   3.1999549  60.7585373  24.6820434   3.4366685  61.3247777  25.1706542
   7.2437161  59.8673313  30.0044362   6.8551594  59.4427531  29.3496553
   6.5791860  60.1155463  30.5121389   7.0884089  59.8412034  29.9832230
  16.8860430  59.6248318  22.7792192  16.6296995  58.8128260  22.5890075
  17.7289744  59.6325885  22.5522379  16.9726456  59.5060316  22.7177009
  11.0663523  53.5647942  27.5168346  11.4474034  52.8826113  27.9036220
  10.2626807  53.2757544  27.3344011  11.0039984  53.4214991  27.5472402
   8.3476099  64.0971918  18.2021169   9.1616738  64.3886811  18.0903940
   8.2835241  63.4431780  17.6279462   8.4578838  64.0437113  18.1010006
  14.5685590  66.7797914  32.6150745  14.3324227  65.9485979  32.4962805
  15.2128819  66.7283521  33.2005589  14.6280260  66.6495602  32.6836638
   4.2184008  67.5693435  23.3293481   4.8557955  67.3305183  23.8745274
   4.6439079  67.7730594  22.5946642   4.3760174  67.5644446  23.3010638
   5.0255363  56.0702140  37.3830955   4.7108804  56.8401703  37.1200517
   4.7045296  55.5072396  36.7983182   4.9314282  56.1012409  37.2572305
  15.5922010  66.5642363  28.6779039  15.2867827  67.2970420  29.0392355
  14.8728226  66.1580292  28.3971825  15.4409353  66.6124096  28.6892176
   6.6005480  68.0465858  25.0087267   6.6744488  67.8841030  25.8629117
   7.4174986  68.2356048  24.7647749   6.7321838  68.0502600  25.0985293
  21.2923802  63.2035364  28.0047383  21.2248303  63.2231323  27.1349970
  21.2779465  64.0465691  28.2303054  21.2802559  63.3309098  27.9099860
   2.5787260  54.4592662  22.9977151   1.7109686  54.5315261  23.0634760
   2.8662464  55.2614741  23.1865126   2.4927008  54.5886809  23.0351918
  11.7020149  54.6070521  31.3288473  12.4473741  54.4180332  30.9151898
  11.2857453  55.1328759  30.7702329  11.7505123  54.6572667  31.1853046
  19.0782420  61.9779750  26.2793978  19.6290341  61.3447819  26.5191070
  19.0626535  62.5095143  26.9709482  19.1567616  61.9628698  26.4172836
   5.7304811  65.8118347  30.8253871   5.2316504  66.5234115  30.9038760
   6.5405035  66.1319014  30.7872034   5.7760917  65.9645196  30.8310440
   1.9932928  65.0741300  25.0716592   1.7046177  64.4478771  25.6062319
   2.8616276  65.0161587  25.1381273   2.0793180  64.9728844  25.1607547
  12.7810826  60.2176083  25.3898574  12.4375592  59.4966419  25.7405824
  12.8803868  60.0089935  24.5476932  12.7452869  60.0800287  25.3170254
  13.2423855  66.6801788  20.9322562  13.8081888  67.3394997  20.8481105
  12.5951758  67.0251486  21.4038964  13.2302611  66.8283729  20.9895319
   4.6571869  58.6699391  36.1216169   3.8471644  58.9757171  36.0106012
   5.1346555  59.3904974  36.2368754   4.6075347  58.8213993  36.1223241
   3.5163428  67.8845112  26.3699073   2.9944182  68.0245404  27.0550937
   3.9037448  67.1255777  26.5601190   3.4967129  67.7930636  26.5000149
   9.7130433  69.6240572  20.3559641   9.4717109  68.8908432  19.9486706
   9.8931766  70.1727429  19.7025975   9.7038057  69.5962963  20.1989864
   4.9429754  64.9149131  21.7680564   4.7472536  65.5223866  21.1740867
   5.1664099  64.2217075  21.2872238   4.9464395  64.9026657  21.6096644
   3.3408284  61.8003869  21.8861432   4.0630936  61.9645028  21.4265238
   2.8616277  62.5213534  21.7800772   3.3772014  61.9302099  21.8027046
  11.3001791  58.1367668  27.2658117  10.4612892  58.1628947  27.0296380
  11.3706159  58.7838404  27.8463464  11.1870185  58.2363794  27.3167234
   0.9915900  64.2061942  30.9915572   1.5036997  64.4846195  30.3424332
   0.7052243  64.9451236  31.3578385   1.0250764  64.3564295  30.9505450
   9.7471070  55.0353045  21.9985733  10.4497422  54.8360794  21.5205691
   9.4815258  54.2628988  22.3054576   9.8117702  54.8916011  21.9731174
  15.1759315  63.3435655  24.5519359  15.0893290  63.4991081  25.4054137
  14.7209795  63.9873730  24.1778764  15.0962572  63.4611410  24.6226465
   4.5099626  56.2988330  31.0516613   4.3182823  56.3143465  31.9016037
   5.3598222  56.4952005  31.0283268   4.6075348  56.3302682  31.1739908
   9.0485131  60.6646402  23.1744918   8.8019845  60.5842153  24.0081707
   9.3770254  59.8799870  22.9807446   9.0606375  60.5372667  23.2692441
  12.9433180  67.3729761  26.9631699  12.8047539  68.0710807  27.4680442
  12.1633178  67.2178418  26.6067881  12.8076407  67.4529928  26.9857974
  11.2811265  63.6726137  33.2154081  11.2759304  62.8005953  33.2196508
  11.9872259  63.8714306  32.7423537  11.3856269  63.5730011  33.1461116
   5.0082158  63.4003121  32.5867901   5.1525534  63.9804329  31.9511011
   5.3557807  63.7779417  33.2917756   5.0809620  63.5423825  32.5966896
   7.1802076  62.5993289  30.3693033   6.4325390  62.7924303  29.9641311
   7.3343601  61.7738509  30.1317154   7.0924503  62.5058400  30.2738439
  14.4386553  66.7308015  17.7248199  14.0593362  65.9445153  17.7177488
  13.7752798  67.2794872  17.5819843  14.2845028  66.6952839  17.7028996
   7.4203853  56.4943840  31.2588437   7.8776467  57.2267814  31.3861229
   7.4960182  56.0710305  32.0175692   7.4994823  56.5401078  31.3889513
  11.8931179  49.6733715  25.1282280  12.0114747  50.1310178  24.3949582
  11.7193355  48.8678976  24.8418497  11.8850350  49.6227487  24.9783213
   5.2986231  58.4845944  28.1030261   4.5082306  58.3037404  28.4247596
   5.6946854  57.7072896  28.0860555   5.2403107  58.3433405  28.1482809
  10.6829917  66.1188374  25.8289706  10.0074919  65.8873606  26.3303094
  10.6922293  65.5109557  25.2031812  10.5848422  65.9947299  25.8105859
   7.8124061  60.9606203  32.5853760   7.7483202  61.8216159  32.4573896
   7.9521249  60.6438196  31.7849311   7.8239531  61.0406369  32.4481972
  12.6846652  68.9753506  18.0599884  12.7666489  69.7820492  17.7361335
  13.1696394  68.9949465  18.7840658  12.7683810  69.0974169  18.1186783
   6.4943155  63.6538342  26.7269962   6.0705404  63.8542841  25.9908981
   6.3188010  62.8067190  26.8394262   6.4054036  63.5587124  26.6343653
   1.7825600  64.1490394  22.1597935   1.9390219  64.0837196  23.0153927
   2.1226193  64.9238946  21.9476615   1.8558835  64.2539592  22.2552529
   8.3204745  63.5248277  21.0291298   8.8620290  63.0218658  21.4929919
   8.6351304  63.4713472  20.2180783   8.4469142  63.4427698  20.9775110
  12.1921852  67.7350924  38.1418210  13.0056717  67.4636073  38.3023343
  12.0316818  67.4358464  37.3378406  12.2891800  67.6505851  38.0463616
   9.4694014  58.4184582  31.0813599   9.6835983  57.7795496  30.5276953
   8.8527913  58.8630405  30.6521460   9.4099343  58.3894725  30.9364030
  11.6333102  60.0273647  32.0196906  10.8209784  59.7199537  32.1010078
  12.0923037  59.5472647  32.5839618  11.5813487  59.9110139  32.1151500
  11.0438357  67.9053319  22.4673850  10.6853011  68.0767962  23.2437882
  10.5577067  68.3666524  21.9101849  10.9197054  67.9992290  22.4999119
   8.8608743  51.5284517  26.0700941   7.9902301  51.5023238  26.0234251
   9.1149084  51.3561709  25.2526787   8.7702303  51.4994661  25.9421078
   8.7286609  61.4333718  36.8025608   9.1986241  62.0575835  37.1893482
   8.7748490  60.7650694  37.3618823   8.8054485  61.4268399  36.9425679
   5.8857883  53.5390746  27.5274412   5.3696372  52.8470937  27.6525991
   5.3251812  54.2061523  27.4737011   5.7264396  53.5354003  27.5380478
   7.9550117  54.0783706  29.3567264   7.5681870  54.1032737  30.1380794
   7.4683054  53.5125384  28.9041781   7.8262625  53.9979457  29.4055168
  12.2043096  68.7957215  33.4141051  12.8422816  68.3017410  33.0803507
  11.5617188  68.7234615  32.8293278  12.2037322  68.7116223  33.2783406
  13.9300096  60.6446361  27.9806967  13.5027704  60.5572709  27.2255066
  13.2926149  60.7524136  28.5661811  13.7729703  60.6479021  27.9552408
   7.6207258  50.9650691  31.6477524   8.2500376  51.5010991  31.3698595
   7.7893121  50.8728050  32.4991090   7.7385053  51.0312054  31.7326052
   7.4221173  55.7521886  33.9203936   8.2494602  55.4807035  33.9762550
   7.4429019  56.5482728  34.2767754   7.5474023  55.8301640  33.9819119
  12.2597353  69.4877023  30.0546408  13.0489731  69.1366088  30.1748489
  12.4340950  70.3013411  29.7923041  12.4017634  69.5562880  30.0334276
   1.9990663  62.8985749  27.1074196   1.1578670  62.7989623  27.3153090
   2.2080671  63.6681229  27.4588517   1.9055356  62.9977792  27.1901511
  11.1131177  53.4986580  24.6162826  11.3180770  53.4308888  25.4619823
  10.7857601  54.3045401  24.5484003  11.0946425  53.6072520  24.7322481
   5.8107328  60.8267148  26.3571794   5.5070465  60.2723136  26.9582202
   5.1086749  61.0059358  25.8699828   5.6623538  60.7711930  26.3741500
   4.8673425  58.1367668  20.9216496   5.1433159  57.4186580  20.5094063
   5.4672094  58.7352588  20.7137602   4.9966690  58.1188039  20.8297257
  14.3664864  54.0518344  24.0965592  13.7539178  54.5388746  24.4819323
  14.4629039  53.3761835  24.6403243  14.2902762  54.0236653  24.2344450
   8.3683945  55.8081185  19.1963091   8.8227692  55.9791746  19.9210935
   8.8423991  55.1949296  18.7960867   8.5052266  55.7432070  19.2436852
   1.8899471  65.2929511  28.5265829   1.2987404  65.9339009  28.4968844
   2.6520494  65.7167128  28.4997129   1.9147731  65.4505350  28.5180977
   2.2860094  56.4531509  29.1933847   2.7461575  56.5270438  29.9308971
   2.3316200  57.2512763  28.8433668   2.3610649  56.5825656  29.2506603
   3.9343443  57.1198204  33.7605874   3.5429009  56.4731551  34.1961652
   4.1029306  57.7109639  34.3800129   3.9014354  57.1112472  33.9168580
  18.0089892  65.1235281  29.5243108  18.0673016  65.5721930  30.2703084
  17.3756360  65.5334094  29.0873188  17.9241188  65.2509015  29.5695656
  11.6488987  70.7438823  25.9597854  11.4508676  71.2329637  25.2654065
  11.0276698  70.9480064  26.5381987  11.5276552  70.8455361  25.9421077
   5.7096965  62.5123719  20.3008098   6.4539010  62.8997996  20.5391048
   5.8557662  61.6681145  20.4648586   5.8407551  62.4454192  20.3602068
   7.6276541  54.3073978  25.3339960   6.7812586  54.4796786  25.2081309
   7.6247673  53.5023322  25.6705788   7.5023691  54.2135007  25.3651087
   8.6974841  58.0849193  26.2002017   8.2234796  57.5590955  26.7107328
   9.0692977  57.5378666  25.6316879   8.6824730  57.9265189  26.1917165
  14.9611572  63.1451568  27.6108798  14.7209795  62.3057984  27.6151224
  15.4403579  63.2251735  28.3349571  14.9963756  63.0332968  27.7183600
  10.6258341  58.9785747  19.2627771  10.0981360  59.0614491  18.5733480
  11.0854049  59.7203619  19.2592416  10.6160191  59.1006410  19.1602466
  16.9616759  59.9253026  25.5638057  16.7226529  59.8848860  24.7258842
  17.1250660  60.7724178  25.6903778  16.9507062  60.0445111  25.4591539
  13.5662789  64.3102975  31.4943102  14.2896988  63.8575501  31.3154122
  13.3012751  64.5907641  30.7115430  13.6344062  64.2853943  31.3521818
   2.4349657  58.9063149  28.2295981   1.8102728  58.9181540  27.6221934
   2.0995252  59.3823324  28.8787222   2.2935149  58.9781666  28.2352550
  10.1795423  67.5489311  18.3937428  10.9029622  68.0147424  18.2502002
   9.7396014  67.6162921  17.6435025  10.2211116  67.6273148  18.2622210
   9.3481579  64.4086853  29.6438117   8.7338572  63.8644904  29.9386753
   9.8648863  63.8951090  29.1643933   9.3337241  64.2523262  29.6162346
   8.5877876  65.4791123  27.3782416   8.1605484  64.8540842  26.9447851
   8.5802820  65.1966045  28.2041423   8.5237017  65.3443904  27.4362243
   1.7040403  60.5156296  30.4470850   1.8633889  59.7599620  30.8522572
   1.5233296  61.0647236  31.1011588   1.7005762  60.4850110  30.6033556
   9.6460706  52.6817532  31.0021639   9.1501267  52.8781206  30.3113206
  10.4029768  53.0810200  30.8310441   9.6847530  52.7695266  30.8741776
   6.9163585  56.3559878  27.5924950   6.9406073  55.8219990  26.9037730
   7.1675059  55.8477187  28.2550541   6.9573504  56.2020782  27.5889595
   3.1964908  55.0830696  26.9730694   3.2363279  55.5839903  27.6865402
   2.3714572  55.1741090  26.7036617   3.0804434  55.1712512  27.0381232
   5.3794520  64.6491436  35.0750989   4.5290151  64.7863150  35.2108634
   5.5422648  63.9155214  35.5198691   5.2778384  64.5605537  35.1606588
   4.6179271  61.5991206  29.2704593   3.7871201  61.7665024  29.0639841
   4.5630788  61.2227157  30.0553479   4.4868686  61.5680937  29.3553121
   2.4263054  55.0900099  34.9061004   3.0515758  54.5462232  35.1790436
   1.9713534  54.6095016  34.3368794   2.4511315  54.9389580  34.8622598
   2.9915315  59.8746797  19.7994711   3.1318276  60.3719262  20.5023352
   3.4897848  59.1733092  19.9408925   3.0856396  59.8448776  19.9246290
  15.9998103  63.2729386  29.9973652  16.5915943  63.9126637  30.0291850
  16.4357097  62.5752423  30.2865719  16.1516534  63.2647736  30.0454485
   4.5994520  56.6727884  17.1032730   4.9210361  56.1930966  16.4491992
   4.8621464  57.4827530  16.9123541   4.6860545  56.7217782  16.9788222
   7.8291493  67.6946758  30.6231546   7.3216584  68.2482605  31.0672176
   7.5318139  67.7555048  29.8050320   7.7096378  67.7853069  30.5680003
   9.9953675  56.0600078  29.4656209  10.4208747  55.6072604  28.8539735
   9.3810668  55.5060149  29.7420996   9.9682320  55.9114054  29.4161234
   8.4347898  52.5315178  22.8746786   7.7916216  52.3812824  23.4431924
   8.0947305  52.2857523  22.1095890   8.2892975  52.4727300  22.8449801
  13.0247244  60.4874604  22.2976794  12.3538434  61.0304307  22.1689860
  13.7186995  60.9569460  22.0558489  13.0276112  60.6372876  22.2432322
  13.1875372  56.9430488  25.2067168  13.5402982  56.5160211  25.8812966
  12.3290173  56.8581332  25.3368244  13.1124816  56.8675229  25.3262178
   1.8859057  59.5738008  23.2650014   1.1671046  59.9902140  23.5322878
   2.2571419  60.1392247  22.7141652   1.8350989  59.7187289  23.2232821
  11.1858638  60.2065857  29.1552010  11.1656565  60.0249152  30.0086789
  11.2337838  61.0777875  29.1311594  11.1893279  60.3082395  29.2775305
   9.1304967  66.7953049  35.0800486   9.0900822  66.1502726  34.4945642
   9.9428286  66.7389666  35.3925899   9.2448121  66.6912015  35.0397436
   7.6605631  58.6136008  18.6023394   7.0670470  58.9353004  18.0507961
   7.6980909  57.7677103  18.3944500   7.5780020  58.5360336  18.4906165
  14.6199432  52.0648900  26.1351480  14.1130297  51.3578039  26.0672658
  15.4166866  51.7342089  26.2652557  14.6626671  51.9122051  26.1450475
  10.5363448  58.5715512  22.0325144  10.3077141  58.5948214  21.1903502
  10.7961524  57.7472979  22.1520154  10.5409636  58.4531592  21.9250342
   4.8182676  60.4249985  31.6350244   4.3061579  59.8171168  31.9935276
   4.6462172  61.1406578  32.1024220   4.7172313  60.4413284  31.7566468
   3.5908210  57.1092058  23.3279340   4.0665577  57.4709138  22.6929521
   3.0896810  57.7648526  23.6079482   3.5873569  57.2586247  23.2756081
  16.8219572  66.5813827  19.1192345  17.2053178  67.3305183  19.3490442
  16.0263685  66.8279646  18.8604334  16.7613354  66.7283520  19.1149918
   8.6951747  58.3474230  34.0752500   9.2523177  58.1188039  33.4430965
   8.3712812  59.1079895  33.7987712   8.7298157  58.4258067  33.9408997
   6.4134864  61.4341883  35.0404507   7.1646191  61.7493560  35.3544061
   6.6057440  61.2321054  34.2138429   6.5526278  61.4509265  34.9647903
   5.6334863  59.2533258  16.6952724   6.0133828  59.2712887  15.9103838
   4.8927459  59.6987247  16.5743571   5.5803701  59.3215033  16.5616292
  13.2620154  57.5615449  22.2828302  13.2614380  57.4064106  23.1412579
  13.0576334  58.4078436  22.2269688  13.2319932  57.6636070  22.4016242
  10.9861006  62.2412951  25.9364509  11.4814671  61.5235946  25.8968529
  10.1760782  61.9383749  25.8218996  10.9404899  62.0910598  25.9138235
  13.0512825  64.9916639  28.6241638  13.4767896  64.4691061  28.0712063
  12.6869745  65.5897476  28.1030261  13.0599427  65.0026866  28.4650648
   9.6391424  68.7050903  24.9542795  10.1102602  69.4191166  25.1232781
   9.9751603  68.1049653  25.4902665   9.7586539  68.7222367  25.0575171
  11.7268409  70.3152216  37.1334867  11.8365374  69.5260777  37.4891615
  12.0559305  70.2258153  36.3309205  11.7920815  70.1858069  37.0677258
   6.5560919  53.4778374  31.9100890   6.6888825  52.6809367  32.2381866
   6.9406072  54.0044777  32.4899166   6.6317248  53.4378290  32.0444393
  10.2765371  68.4968837  31.7170488   9.7286317  67.8726721  31.4490553
  10.7378399  68.6863109  31.0014567  10.2632580  68.4327887  31.5720919
   9.6293274  50.4008700  28.5081983   8.8239238  50.2906429  28.8249822
   9.5000010  50.5021155  27.6511849   9.4913407  50.3992370  28.4290024
  13.0859235  56.5654192  29.1021680  12.5022224  57.0663398  28.6899248
  13.4063529  56.0583748  28.4686004  13.0472410  56.5646027  28.9480187
   5.6254034  55.4794786  19.3780355   6.4469728  55.6493099  19.1362050
   5.1623685  55.6342047  18.6546653   5.6785196  55.5276519  19.2351999
   4.2149366  53.4737549  30.1578784   4.7593779  53.1328675  30.7483126
   4.2686302  54.3323010  30.3000068   4.3038485  53.5492808  30.2660657
   9.8423697  69.5019910  28.2479829  10.6622071  69.3582876  28.5096124
   9.5617775  70.1266109  28.7896267   9.9220440  69.5730262  28.3667769
  16.2412819  71.0939478  24.9366019  15.9116149  71.5450622  24.2669718
  15.5657821  71.0155642  25.4839026  16.0923255  71.1490613  24.9189242
  23.4489227  67.0825001  23.1815630  23.1342668  67.7728480  23.6136052
  22.9316168  67.0269783  22.4801130  23.3253697  67.1759890  23.1412579
  14.4468773  69.1551767  20.4188967  15.2014741  69.5230084  20.1806017
  14.2696308  69.5291321  21.1868146  14.5323251  69.2649954  20.4973855
  27.7403672  75.3046207  28.4636506  26.9032093  75.3748394  28.6984101
  27.7091903  75.3070702  27.5910808  27.6121954  75.3156434  28.3696054
  12.8025838  71.5622086  17.1167080  12.6201411  71.7793966  16.2908073
  13.6651451  71.6761098  17.1725694  12.9030427  71.6111984  17.0021567
  18.4825557  68.5648496  20.1516104  19.2111717  68.3864451  19.7054260
  18.5720450  69.4066576  20.3623282  18.6032219  68.6632375  20.1169621
  25.4211512  70.3688989  27.0480229  26.0637420  70.4387093  27.6342144
  25.6734532  69.7018212  26.5459770  25.5533644  70.2815337  27.0607508
  20.6562794  71.4625960  24.7591181  19.9519121  70.9735146  24.9175101
  20.7047768  71.4748435  23.8879626  20.5592846  71.3915608  24.6530521
  27.8593014  75.1433626  22.7792192  27.6029579  74.3313567  22.5890075
  28.7022328  75.1511193  22.5522379  27.9459039  75.0245623  22.7177009
  22.0396106  69.0833250  27.5168346  22.4206618  68.4011421  27.9036220
  21.2359391  68.7942852  27.3344011  21.9772568  68.9400299  27.5472402
  15.9987947  71.5887448  37.3830955  15.6841388  72.3587011  37.1200517
  15.6777879  71.0257704  36.7983182  15.9046866  71.6197717  37.2572305
  13.5519844  69.9777970  22.9977151  12.6842269  70.0500569  23.0634760
  13.8395048  70.7800049  23.1865126  13.4659592  70.1072117  23.0351918
  22.6752732  70.1255829  31.3288473  23.4206324  69.9365640  30.9151898
  22.2590037  70.6514067  30.7702329  22.7237707  70.1757975  31.1853046
  23.7543409  75.7361391  25.3898574  23.4108175  75.0151727  25.7405824
  23.8536452  75.5275243  24.5476932  23.7185452  75.5985595  25.3170254
  22.2734375  73.6552976  27.2658117  21.4345476  73.6814255  27.0296380
  22.3438742  74.3023712  27.8463464  22.1602768  73.7549102  27.3167234
  20.7203653  70.5538353  21.9985733  21.4230006  70.3546101  21.5205691
  20.4547842  69.7814295  22.3054576  20.7850285  70.4101319  21.9731174
  15.4832209  71.8173638  31.0516613  15.2915406  71.8328773  31.9016037
  16.3330805  72.0137313  31.0283268  15.5807931  71.8487990  31.1739908
  18.3936436  72.0129148  31.2588437  18.8509051  72.7453122  31.3861229
  18.4692765  71.5895613  32.0175692  18.4727406  72.0586386  31.3889513
  22.8663762  65.1919023  25.1282280  22.9847330  65.6495486  24.3949582
  22.6925938  64.3864284  24.8418497  22.8582933  65.1412795  24.9783213
  19.8341326  67.0469825  26.0700941  18.9634884  67.0208546  26.0234251
  20.0881667  66.8747017  25.2526787  19.7434886  67.0179969  25.9421078
  16.8590467  69.0576054  27.5274412  16.3428955  68.3656245  27.6525991
  16.2984396  69.7246831  27.4737011  16.6996980  69.0539311  27.5380478
  18.9282700  69.5969014  29.3567264  18.5414453  69.6218045  30.1380794
  18.4415637  69.0310692  28.9041781  18.7995209  69.5164765  29.4055168
  18.5939842  66.4835999  31.6477524  19.2232960  67.0196299  31.3698595
  18.7625705  66.3913358  32.4991090  18.7117636  66.5497361  31.7326052
  18.3953757  71.2707194  33.9203936  19.2227186  70.9992343  33.9762550
  18.4161603  72.0668036  34.2767754  18.5206607  71.3486948  33.9819119
  22.0863760  69.0171888  24.6162826  22.2913354  68.9494196  25.4619823
  21.7590184  69.8230709  24.5484003  22.0679008  69.1257828  24.7322481
  25.3397448  69.5703652  24.0965592  24.7271762  70.0574054  24.4819323
  25.4361623  68.8947143  24.6403243  25.2635346  69.5421961  24.2344450
  19.3416529  71.3266493  19.1963091  19.7960276  71.4977053  19.9210935
  19.8156575  70.7134604  18.7960867  19.4784849  71.2617378  19.2436852
  18.6009124  69.8259286  25.3339960  17.7545170  69.9982094  25.2081309
  18.5980257  69.0208630  25.6705788  18.4756274  69.7320315  25.3651087
  19.6707425  73.6034501  26.2002017  19.1967379  73.0776263  26.7107328
  20.0425561  73.0563974  25.6316879  19.6557314  73.4450497  26.1917165
  27.9349342  75.4438334  25.5638057  27.6959112  75.4034168  24.7258842
  28.0983244  76.2909486  25.6903778  27.9239646  75.5630419  25.4591539
  20.6193289  68.2002840  31.0021639  20.1233851  68.3966514  30.3113206
  21.3762351  68.5995508  30.8310441  20.6580114  68.2880574  30.8741776
  17.8896169  71.8745186  27.5924950  17.9138656  71.3405298  26.9037730
  18.1407643  71.3662495  28.2550541  17.9306088  71.7206090  27.5889595
  14.1697491  70.6016004  26.9730694  14.2095863  71.1025211  27.6865402
  13.3447156  70.6926398  26.7036617  14.0537017  70.6897820  27.0381232
  13.3995638  70.6085407  34.9061004  14.0248341  70.0647539  35.1790436
  12.9446118  70.1280324  34.3368794  13.4243898  70.4574888  34.8622598
  20.9686259  71.5785386  29.4656209  21.3941330  71.1257912  28.8539735
  20.3543252  71.0245456  29.7420996  20.9414904  71.4299362  29.4161234
  19.4080481  68.0500486  22.8746786  18.7648799  67.8998132  23.4431924
  19.0679888  67.8042831  22.1095890  19.2625559  67.9912608  22.8449801
  24.1607955  72.4615796  25.2067168  24.5135565  72.0345519  25.8812966
  23.3022757  72.3766640  25.3368244  24.0857400  72.3860537  25.3262178
  25.5932015  67.5834208  26.1351480  25.0862880  66.8763347  26.0672658
  26.3899449  67.2527397  26.2652557  25.6359255  67.4307359  26.1450475
  21.5096031  74.0900820  22.0325144  21.2809724  74.1133522  21.1903502
  21.7694108  73.2658287  22.1520154  21.5142219  73.9716900  21.9250342
  24.2352738  73.0800757  22.2828302  24.2346964  72.9249414  23.1412579
  24.0308918  73.9263744  22.2269688  24.2052515  73.1821378  22.4016242
  17.5293503  68.9963682  31.9100890  17.6621408  68.1994675  32.2381866
  17.9138656  69.5230084  32.4899166  17.6049832  68.9563598  32.0444393
  20.6025858  65.9194008  28.5081983  19.7971822  65.8091737  28.8249822
  20.4732593  66.0206463  27.6511849  20.4645991  65.9177678  28.4290024
  24.0591819  72.0839500  29.1021680  23.4754807  72.5848706  28.6899248
  24.3796113  71.5769056  28.4686004  24.0204994  72.0831335  28.9480187
  16.5986618  70.9980094  19.3780355  17.4202312  71.1678407  19.1362050
  16.1356269  71.1527355  18.6546653  16.6517780  71.0461827  19.2351999
  15.1881950  68.9922857  30.1578784  15.7326363  68.6513983  30.7483126
  15.2418885  69.8508318  30.3000068  15.2771069  69.0678116  30.2660657
   0.5716405  28.4154454  22.5076139   1.2783173  27.9206484  22.6363073
   0.7604341  28.8563535  21.7778797   0.7044311  28.4072804  22.4185184
   3.2903830  28.1990737  19.5490791   3.0542467  27.3678802  19.4302852
   3.9347059  28.1476345  20.1345636   3.3498501  28.0688425  19.6176685
   4.3140251  27.9835186  15.6119086   4.0086068  28.7163243  15.9732402
   3.5946466  27.5773116  15.3311872   4.1627593  28.0316919  15.6232223
  10.0142043  24.6228187  14.9387430   9.9466543  24.6424146  14.0690017
   9.9997705  25.4658514  15.1643101  10.0020799  24.7501921  14.8439907
   0.9140092  29.1543748  25.0758257   1.7274958  28.8828897  25.2363390
   0.7535059  28.8551288  24.2718453   1.0110041  29.0698674  24.9803663
   0.9815593  30.9069846  16.9886454   1.7707971  30.5558911  17.1088536
   1.1559191  31.7206235  16.7263088   1.1235875  30.9755703  16.9674322
   6.7308133  26.5428104  16.4583154   6.7891256  26.9914753  17.2043131
   6.0974600  26.9526917  16.0213234   6.6459428  26.6701839  16.5035703
   2.2881029  25.7295798  18.4283149   3.0115228  25.2768325  18.2494169
   2.0230992  26.0100464  17.6455477   2.3562303  25.7046767  18.2861864
   4.7216343  24.6922209  16.9313699   5.3134184  25.3319460  16.9631897
   5.1575338  23.9945246  17.2205766   4.8734775  24.6840559  16.9794531
   1.7731065  26.4109462  15.5581685   2.1986137  25.8883884  15.0052110
   1.4087985  27.0090299  15.0370308   1.7817668  26.4219689  15.3990694
   0.4486649  31.7345040  24.0674914   0.5583615  30.9453600  24.4231661
   0.7777546  31.6450976  23.2649252   0.5139055  31.6050893  24.0017305
  15.0355588  38.5777585   8.1462752  15.0049592  39.4322221   8.3181022
  15.6336936  38.2772877   8.7048896  15.1192746  38.6594081   8.2537555
   8.2355273  37.6653236  12.9015683   7.3793168  37.8261734  12.9524800
   8.2822926  36.7945300  12.9220744   8.1154384  37.5604038  12.9121749
  11.5448989  43.9339761  22.5076139  12.2515756  43.4391792  22.6363073
  11.7336925  44.3748843  21.7778797  11.6776895  43.9258112  22.4185184
   7.6125663  49.5755592  10.0349573   7.9965043  50.1442491   9.4954348
   7.5484805  48.8505102   9.5555389   7.6599091  49.5531055   9.8843436
  11.0807094  39.7245280  15.5447334  11.6263054  40.4030366  15.6041304
  11.0223970  39.5832741  14.6848916  11.1523008  39.8037281  15.4259395
   4.1981168  47.2134346  10.9315687   4.2991531  46.4034700  11.2412815
   3.6022914  47.1191292  10.3015365   4.1253707  47.0799374  10.8841925
  12.8572162  41.1529887   6.4181062  12.7411688  41.9037573   6.8473200
  13.6528049  40.8953840   6.6677149  12.9576752  41.2264734   6.5185154
   4.0381908  52.1311935  12.3330543   4.6819363  52.5725099  12.7226701
   4.3638164  51.3265361  12.2460802   4.1813737  52.0777130  12.3776020
   6.7904196  37.1439905   7.7884791   7.4884360  37.3228032   8.2806255
   7.1056528  36.6210244   7.1655181   6.9399533  37.0933677   7.7686801
   6.9792131  43.5310350   7.7764583   7.4185767  42.9227450   8.2219356
   6.8296794  43.1517723   7.0050048   7.0213597  43.3848821   7.7283750
   4.4463774  42.1254362  14.9783408   5.0912777  41.6326805  14.6594357
   4.6865551  42.2679148  15.8049487   4.5774359  42.0731804  15.0532941
   6.9849866  44.9709267  14.6290301   7.2673108  44.1760673  14.4077057
   7.7136026  45.4489855  14.6495362   7.1339429  44.9243864  14.5993316
   4.9631059  32.5132301  11.8706066   4.6334389  32.9643445  11.2009765
   4.2876061  32.4348465  12.4179072   4.8141496  32.5683437  11.8529289
  10.5801468  41.8837531   4.7295352  10.4952763  42.7398498   4.8744921
  11.0685851  41.6081855   5.3977511  10.6390365  41.9694853   4.8497434
  11.5119901  38.5022325   6.2293087  10.9831372  38.7181959   6.8890393
  12.0344921  39.1958464   6.1494056  11.5108354  38.6365462   6.3148686
  16.9667954  44.0768630  11.6026132  16.1365657  44.2879273  11.7659548
  16.9177206  43.2505684  11.3268415  16.8374689  43.9858236  11.5863497
   5.0277691  46.9072484  14.4374041   4.5104633  46.5479899  13.8335349
   5.7252083  46.3834658  14.4480107   5.0543273  46.7770172  14.3504300
   8.6841283  47.3567298  20.3990214   8.7724629  47.1693438  21.2468424
   9.1130996  46.7104727  19.9995061   8.7603386  47.2330306  20.4661966
   6.2511743  46.6398458  19.3807876   5.6882578  46.2271068  19.9047538
   7.0132767  46.5651364  19.8001020   6.2806192  46.5675858  19.5200877
   1.8107735  48.6296479  11.9844506   2.5128314  48.1148468  12.0417263
   1.7305218  48.9570630  12.7891382   1.9031495  48.6010705  12.1117299
  16.4621912  36.7239030  15.3976553  15.6250333  36.7941217  15.6324147
  16.4310143  36.7263525  14.5250855  16.3340195  36.7349257  15.3036101
   2.8586641  38.8672066  21.1124922   3.0307145  38.7577961  21.9610203
   3.3955999  39.5126471  20.8756114   2.9631645  38.9464068  21.2030018
   1.1358510  44.8202831  11.4930115   1.9747409  45.0525764  11.5403876
   1.1670279  43.9507142  11.4237150   1.2640228  44.7259778  11.4894759
   1.7611213  45.2403706  15.7943420   2.3009438  45.0974837  16.4646792
   1.0781159  45.6400457  16.1627446   1.7403367  45.2783377  15.9477842
  11.1852098  40.9194707  10.9888444  11.9409613  41.3526221  11.0277353
  11.2914422  40.2699477  11.5623080  11.3122269  40.8872191  11.0786470
  14.2232269  44.7467984  11.7390847  13.7867501  44.7504727  12.4949819
  13.8895185  45.4273483  11.3070425  14.1094889  44.8480440  11.7871680
   8.7961343  46.7876317  23.0633998   9.5801759  46.9007165  23.4289740
   8.5957937  45.9617454  23.2592684   8.8827368  46.6823036  23.1468384
  14.1429752  31.7881812  13.9820275  14.7855660  31.8579917  14.5682191
  14.3952773  31.1211035  13.4799817  14.2751884  31.7008161  13.9947555
   1.9146965  34.9982375  18.5944849   1.2218761  34.5279355  18.8405581
   2.5307292  34.7720680  19.1686556   1.9031494  34.8949507  18.7154002
   8.9531736  48.6986419  16.7100453   8.1546982  48.4585919  16.9674322
   9.4017748  48.7500812  17.4567501   8.9006347  48.6708810  16.8585378
  17.3576615  41.4648904  10.6310485  18.0193049  40.9039573  10.5306393
  16.7168027  40.9700935  10.9563176  17.3605483  41.3085313  10.6642825
  13.6441446  42.4814286  10.3722473  13.8797035  42.6259485   9.5449324
  13.7931010  43.2456694  10.7653987  13.7007249  42.6153341  10.3086077
   0.6387523  38.9647779  19.7371694   1.3627496  38.9500810  20.2236589
   0.7403660  39.6743135  19.2393663   0.7605733  39.0672483  19.7350481
  15.4731903  41.3215952   8.2092077  15.8040120  41.8543593   7.6032172
  16.0464991  41.3754840   8.8654028  15.6065582  41.4085521   8.2169859
   8.0132473  42.4446864  24.6020642   7.2205454  42.7590376  24.7873261
   8.1281400  42.6598332  23.7641426   7.9127883  42.5230701  24.5058976
  10.6863792  39.1680855   8.8915657  10.7810646  39.9070149   9.3455283
  10.0622635  38.7398331   9.3250222  10.6072822  39.2142176   9.0223805
   8.9416266  42.3467068  19.5405938   9.5155127  41.7094312  19.6954502
   8.8631069  42.3471150  18.6715596   9.0149501  42.2532179  19.4352349
   4.2979984  40.7790333  11.5927136   4.0399229  39.9462068  11.5658435
   4.3528467  41.0047946  10.7519636   4.2679762  40.6888104  11.4647272
   9.3781034  32.8818784  11.6931228   8.6737361  32.3927969  11.8515147
   9.4266009  32.8941258  10.8219673   9.2811086  32.8108431  11.5870568
   3.2714696  38.3328095  12.0792030   2.6964288  38.4920264  12.7155991
   2.8950373  37.6963504  11.6160481   3.1317509  38.2625908  12.1046589
   6.9387985  36.8051445  16.9384409   6.5502418  36.3805662  16.2836600
   6.2742683  37.0533594  17.4461435   6.7834913  36.7790166  16.9172277
  16.5811254  36.5626449   9.7132239  16.3247819  35.7506391   9.5230122
  17.4240568  36.5704016   9.4862426  16.6677280  36.4438447   9.6517056
  10.7614347  30.5026073  14.4508393  11.1424858  29.8204244  14.8376267
   9.9577631  30.2135675  14.2684058  10.6990808  30.3593122  14.4812449
   8.0426923  41.0350049   5.1361216   8.8567562  41.3264942   5.0243987
   7.9786065  40.3809912   4.5619509   8.1529662  40.9815244   5.0350053
  14.2636414  43.7176045  19.5490791  14.0275051  42.8864110  19.4302852
  14.9079642  43.6661652  20.1345636  14.3231084  43.5873733  19.6176685
   3.9134832  44.5071567  10.2633528   4.5508779  44.2683314  10.8085321
   4.3389903  44.7108726   9.5286688   4.0710998  44.5022577  10.2350685
   4.7206187  33.0080272  24.3171001   4.4059628  33.7779834  24.0540564
   4.3996120  32.4450528  23.7323228   4.6265106  33.0390540  24.1912351
  15.2872834  43.5020494  15.6119086  14.9818651  44.2348551  15.9732402
  14.5679050  43.0958424  15.3311872  15.1360176  43.5502227  15.6232223
   6.2956304  44.9843989  11.9427314   6.3695312  44.8219161  12.7969164
   7.1125810  45.1734179  11.6987796   6.4272662  44.9880732  12.0325340
  20.9874626  40.1413495  14.9387430  20.9199127  40.1609454  14.0690017
  20.9730289  40.9843822  15.1643101  20.9753383  40.2687229  14.8439907
  11.3970973  31.5448652  18.2628520  12.1424565  31.3558463  17.8491945
  10.9808277  32.0706890  17.7042376  11.4455947  31.5950798  18.1193093
  18.7733244  38.9157881  13.2134025  19.3241165  38.2825950  13.4531117
  18.7577359  39.4473274  13.9049529  18.8518440  38.9006829  13.3512883
   5.4255634  42.7496478  17.7593918   4.9267328  43.4612246  17.8378806
   6.2355859  43.0697145  17.7212080   5.4711741  42.9023327  17.7650487
   1.6883752  42.0119431  12.0056639   1.3997001  41.3856902  12.5402366
   2.5567100  41.9539719  12.0721319   1.7744004  41.9106975  12.0947593
  12.4761650  37.1554215  12.3238621  12.1326416  36.4344550  12.6745870
  12.5754692  36.9468066  11.4816979  12.4403693  37.0178418  12.2510301
  12.9374679  43.6179919   7.8662609  13.5032712  44.2773129   7.7821152
  12.2902582  43.9629617   8.3379011  12.9253435  43.7661860   7.9235365
   4.3522692  35.6077523  23.0556216   3.5422468  35.9135302  22.9446059
   4.8297379  36.3283105  23.1708800   4.3026171  35.7592124  23.0563287
   3.2114252  44.8223244  13.3039119   2.6895006  44.9623535  13.9890984
   3.5988272  44.0633908  13.4941237   3.1917953  44.7308767  13.4340196
   9.4081257  46.5618703   7.2899688   9.1667933  45.8286564   6.8826753
   9.5882590  47.1105560   6.6366021   9.3988881  46.5341094   7.1329911
   4.6380578  41.8527263   8.7020610   4.4423360  42.4601997   8.1080913
   4.8614923  41.1595207   8.2212284   4.6415219  41.8404788   8.5436691
   3.0359108  38.7382001   8.8201479   3.7581760  38.9023159   8.3605285
   2.5567100  39.4591665   8.7140819   3.0722838  38.8680230   8.7367093
  10.9952615  35.0745799  14.1998164  10.1563716  35.1007078  13.9636427
  11.0656983  35.7216535  14.7803510  10.8821009  35.1741925  14.2507281
   9.4421894  31.9731176   8.9325780  10.1448246  31.7738925   8.4545738
   9.1766082  31.2007119   9.2394623   9.5068526  31.8294142   8.9071221
  14.8710139  40.2813786  11.4859405  14.7844114  40.4369212  12.3394184
  14.4160619  40.9251862  11.1118810  14.7913396  40.3989541  11.5566512
   4.2050450  33.2366462  17.9856660   4.0133647  33.2521596  18.8356084
   5.0549046  33.4330136  17.9623315   4.3026172  33.2680813  18.1079955
   8.7435955  37.6024533  10.1084965   8.4970669  37.5220284  10.9421754
   9.0721078  36.8178001   9.9147492   8.7557199  37.4750799  10.2032488
  12.6384004  44.3107893  13.8971746  12.4998363  45.0088938  14.4020489
  11.8584002  44.1556549  13.5407928  12.5027231  44.3908059  13.9198020
  10.9762089  40.6104268  20.1494128  10.9710128  39.7384084  20.1536554
  11.6823083  40.8092437  19.6763584  11.0807093  40.5108142  20.0801163
   4.7032982  40.3381252  19.5207948   4.8476358  40.9182460  18.8851058
   5.0508631  40.7157549  20.2257803   4.7760444  40.4801956  19.5306943
   6.8752900  39.5371420  17.3033080   6.1276214  39.7302435  16.8981358
   7.0294425  38.7116640  17.0657201   6.7875327  39.4436532  17.2078485
   3.7760737  48.5284024  16.3868975   3.9250301  47.9686940  15.7342379
   4.5560740  48.6076025  16.7701494   3.9134831  48.4569589  16.3465924
  14.1337377  43.6686146   4.6588245  13.7544186  42.8823284   4.6517535
  13.4703622  44.2173003   4.5159890  13.9795852  43.6330970   4.6369042
   6.3014038  48.6998667  17.6653466   6.2257709  48.0307477  18.2204254
   6.2303897  49.4016455  18.1794132   6.2794645  48.7043574  17.8230314
   7.1154677  33.4321971  18.1928483   7.5727291  34.1645945  18.3201276
   7.1911006  33.0088436  18.9515739   7.1945647  33.4779209  18.3229560
  11.5882003  26.6111846  12.0622326  11.7065571  27.0688309  11.3289629
  11.4144178  25.8057107  11.7758544  11.5801174  26.5605618  11.9123260
   6.9584285  47.2199665   8.4977072   7.7234176  46.9509309   8.1759736
   6.8562375  46.7349676   9.2147134   7.0565780  47.1089230   8.5556899
   4.9937055  35.4224075  15.0370307   4.2033129  35.2415535  15.3587643
   5.3897678  34.6451027  15.0200602   4.9353931  35.2811536  15.0822856
  10.3780741  43.0566505  12.7629753   9.7025743  42.8251737  13.2643140
  10.3873117  42.4487688  12.1371858  10.2799246  42.9325430  12.7445906
   7.5074885  37.8984334  19.5193806   7.4434026  38.7594290  19.3913943
   7.6472073  37.5816327  18.7189358   7.5190355  37.9784501  19.3822019
  12.3797476  45.9131637   4.9939931  12.4617313  46.7198624   4.6701382
  12.8647218  45.9327597   5.7180705  12.4634633  46.0352300   5.0526830
   6.1893979  40.5916473  13.6610009   5.7656228  40.7920972  12.9249028
   6.0138834  39.7445321  13.7734309   6.1004860  40.4965255  13.5683699
   5.6905672  52.1066986  16.1231467   6.1801603  51.4077776  15.9407131
   5.1189905  51.8090856  16.7107524   5.6790202  51.9593210  16.1832507
   1.4776424  41.0868525   9.0937982   1.6341043  41.0215328   9.9493974
   1.8177017  41.8617077   8.8816661   1.5509659  41.1917723   9.1892576
   8.0155568  40.4626408   7.9631345   8.5571114  39.9596789   8.4269966
   8.3302128  40.4091603   7.1520830   8.1419966  40.3805829   7.9115157
  11.8872676  44.6729056  25.0758257  12.7007541  44.4014205  25.2363390
  11.7267642  44.3736596  24.2718453  11.9842624  44.5883982  24.9803663
   9.1644838  35.3562713  18.0153645   9.3786807  34.7173627  17.4616999
   8.5478737  35.8008537  17.5861507   9.1050167  35.3272857  17.8704077
  10.5749506  48.2781461   9.4607866  10.1829298  47.9748176   8.7430732
  10.7302578  49.1150551   9.2712820  10.5403096  48.3565298   9.3264363
  11.3283926  36.9651778  18.9536953  10.5160608  36.6577668  19.0350125
  11.7873860  36.4850778  19.5179665  11.2764311  36.8488270  19.0491547
  10.7389181  44.8431450   9.4013897  10.3803835  45.0146093  10.1777929
  10.2527891  45.3044656   8.8441895  10.6147877  44.9370421   9.4339166
   8.5559567  28.4662649  13.0040988   7.6853124  28.4401370  12.9574298
   8.8099908  28.2939841  12.1866834   8.4653127  28.4372792  12.8761125
   8.4237433  38.3711849  23.7365655   8.8937065  38.9953966  24.1233529
   8.4699314  37.7028825  24.2958870   8.5005309  38.3646530  23.8765726
   5.5808707  30.4768877  14.4614459   5.0647196  29.7849068  14.5866038
   5.0202636  31.1439654  14.4077057   5.4215220  30.4732135  14.4720525
   7.6500940  31.0161837  16.2907311   7.2632694  31.0410868  17.0720841
   7.1633878  30.4503516  15.8381828   7.5213449  30.9357588  16.3395215
  11.8993920  45.7335346  20.3481098  12.5373640  45.2395542  20.0143554
  11.2568011  45.6612746  19.7633325  11.8988146  45.6494354  20.2123453
  13.6250920  37.5824492  14.9147013  13.1978528  37.4950840  14.1595113
  12.9876973  37.6902267  15.5001857  13.4680527  37.5857152  14.8892455
   7.3158082  27.9028822  18.5817571   7.9451200  28.4389123  18.3038641
   7.4843945  27.8106181  19.4331137   7.4335877  27.9690185  18.6666099
   7.1171997  32.6900017  20.8543983   7.9445426  32.4185166  20.9102597
   7.1379843  33.4860859  21.2107801   7.2424847  32.7679771  20.9159166
  11.9548176  46.4255154  16.9886454  12.7440555  46.0744219  17.1088536
  12.1291774  47.2391543  16.7263088  12.0968458  46.4941011  16.9674322
   1.6941487  39.8363880  14.0414243   0.8529493  39.7367754  14.2493137
   1.9031495  40.6059360  14.3928564   1.6006179  39.9355923  14.1241558
  10.8082001  30.4364711  11.5502873  11.0131594  30.3687019  12.3959870
  10.4808425  31.2423532  11.4824050  10.7897249  30.5450651  11.6662528
   5.5058152  37.7645279  13.2911841   5.2021289  37.2101267  13.8922249
   4.8037573  37.9437489  12.8039875   5.3574362  37.7090061  13.3081546
   3.5676503  44.9795000  17.9983939   3.4596858  44.9897062  18.8645997
   3.7772284  45.8049780  17.8088892   3.5826614  45.1036075  18.0988030
  14.0615688  30.9896475  11.0305638  13.4490002  31.4766877  11.4159370
  14.1579863  30.3139966  11.5743290  13.9853586  30.9614784  11.1684497
   1.5850295  42.2307642  15.4605876   0.9938228  42.8717140  15.4308891
   2.3471318  42.6545260  15.4337176   1.6098555  42.3883481  15.4521023
   1.9810918  33.3909640  16.1273894   2.4412399  33.4648569  16.8649018
   2.0267024  34.1890894  15.7773715   2.0561473  33.5203787  16.1846650
   3.6294267  34.0576335  20.6945921   3.2379832  33.4109682  21.1301699
   3.7980130  34.6487770  21.3140176   3.5965178  34.0490603  20.8508627
  17.7040716  42.0613412  16.4583154  17.7623840  42.5100061  17.2043131
  17.0707184  42.4712225  16.0213234  17.6192011  42.1887147  16.5035703
  11.3439811  47.6816954  12.8937901  11.1459500  48.1707768  12.1994112
  10.7227522  47.8858195  13.4722034  11.2227375  47.7833492  12.8761124
   5.4047789  39.4501851   7.2348145   6.1489834  39.8376127   7.4731095
   5.5508486  38.6059276   7.3988633   5.5358374  39.3832323   7.2942115
   7.3227365  31.2452110  12.2680006   6.4763410  31.4174917  12.1421356
   7.3198497  30.4401453  12.6045835   7.1974515  31.1513139  12.2991133
   8.3925665  35.0227324  13.1342064   7.9185619  34.4969086  13.6447375
   8.7643801  34.4756797  12.5656926   8.3775554  34.8643321  13.1257211
  14.6562396  40.0829700  14.5448845  14.4160619  39.2436115  14.5491271
  15.1354403  40.1629866  15.2689618  14.6914579  39.9711099  14.6523647
  16.6567583  36.8631157  12.4978104  16.4177353  36.8226991  11.6598889
  16.8201484  37.7102309  12.6243825  16.6457886  36.9823242  12.3931586
  13.2613613  41.2481106  18.4283149  13.9847812  40.7953633  18.2494169
  12.9963575  41.5285772  17.6455477  13.3294886  41.2232075  18.2861864
   2.1300481  35.8441280  15.1636028   1.5053551  35.8559672  14.5561981
   1.7946076  36.3201455  15.8127268   1.9885973  35.9159797  15.1692597
   9.8746247  44.4867442   5.3277475  10.5980446  44.9525555   5.1842048
   9.4346838  44.5541052   4.5775072   9.9161940  44.5651279   5.1962257
   9.0432402  41.3464984  16.5778164   8.4289396  40.8023035  16.8726799
   9.5599687  40.8329221  16.0983980   9.0288065  41.1901393  16.5502393
   8.2828700  42.4169254  14.3122463   7.8556308  41.7918973  13.8787898
   8.2753644  42.1344176  15.1381470   8.2187841  42.2822035  14.3702290
   1.3991227  37.4534427  17.3810897   1.5584713  36.6977752  17.7862619
   1.2184120  38.0025367  18.0351634   1.3956586  37.4228241  17.5373603
   9.3411530  29.6195663  17.9361686   8.8452091  29.8159337  17.2453253
  10.0980592  30.0188331  17.7650488   9.3798354  29.7073397  17.8081823
   6.6114409  33.2938009  14.5264997   6.6356896  32.7598121  13.8377777
   6.8625883  32.7855318  15.1890587   6.6524328  33.1398913  14.5229641
   2.8915732  32.0208827  13.9070741   2.9314103  32.5218034  14.6205448
   2.0665396  32.1119221  13.6376664   2.7755257  32.1090644  13.9721279
   5.0745344  41.5869567  22.0091036   4.2240975  41.7241281  22.1448681
   5.2373472  40.8533345  22.4538737   4.9729208  41.4983668  22.0946635
   4.3130095  38.5369337  16.2044640   3.4822025  38.7043155  15.9979888
   4.2581612  38.1605288  16.9893525   4.1819510  38.5059068  16.2893168
   2.1213878  32.0278230  21.8401051   2.7466582  31.4840363  22.1130483
   1.6664358  31.5473148  21.2708841   2.1462139  31.8767711  21.7962645
  15.6948927  40.2107517  16.9313699  16.2866767  40.8504768  16.9631897
  16.1307921  39.5130554  17.2205766  15.8467358  40.2025867  16.9794531
   7.5242317  44.6324889  17.5571593   7.0167408  45.1860736  18.0012223
   7.2268963  44.6933179  16.7390367   7.4047202  44.7231201  17.5020049
   9.6904499  32.9978209  16.3996256  10.1159571  32.5450735  15.7879782
   9.0761492  32.4438280  16.6761043   9.6633144  32.8492185  16.3501281
  12.7198068  37.4252736   9.2316841  12.0489258  37.9682438   9.1029907
  13.4137819  37.8947591   8.9898536  12.7226936  37.5751007   9.1772369
   6.7684802  49.5649448  14.4628600   6.5450456  48.8068277  14.8312626
   6.2794645  49.5947469  13.7409039   6.6628251  49.4571672  14.4105341
  12.8826196  33.8808619  12.1407214  13.2353806  33.4538342  12.8153013
  12.0240997  33.7959463  12.2708291  12.8075640  33.8053360  12.2602225
   1.5809881  36.5116139  10.1990061   0.8621870  36.9280271  10.4662925
   1.9522243  37.0770378   9.6481699   1.5301813  36.6565420  10.1572868
  10.8809462  37.1443988  16.0892057  10.8607389  36.9627283  16.9426836
  10.9288662  38.0156006  16.0651640  10.8844103  37.2460526  16.2115351
   8.8255791  43.7331180  22.0140533   8.7851646  43.0880857  21.4285689
   9.6379110  43.6767797  22.3265945   8.9398945  43.6290147  21.9737482
   5.4163259  49.7849906  11.9165684   5.0023658  49.1224036  11.5269526
   6.1010633  49.9327764  11.3961378   5.4561631  49.7090564  11.7822181
   8.7828553  48.9439991  12.6689301   8.3844836  49.0542261  11.9010121
   8.1679773  49.1522057  13.2515861   8.6327442  48.9913559  12.6420600
  14.3150256  29.0027031  13.0691527  13.8081121  28.2956171  13.0012704
  15.1117690  28.6720220  13.1992604  14.3577495  28.8500182  13.0790522
  10.2314272  35.5093643   8.9665191  10.0027965  35.5326345   8.1243549
  10.4912348  34.6851110   9.0860201  10.2360460  35.3909723   8.8590388
   4.5133500  37.3628116  18.5690291   4.0012403  36.7549299  18.9275322
   4.3412996  38.0784709  19.0364267   4.4123137  37.3791416  18.6906515
   3.2859034  34.0470190  10.2619386   3.7616400  34.4087269   9.6269568
   2.7847634  34.7026657  10.5419529   3.2824393  34.1964378  10.2096127
  16.5170396  43.5191958   6.0532391  16.9004002  44.2683314   6.2830488
  15.7214509  43.7657777   5.7944380  16.4564178  43.6661652   6.0489965
   8.3902570  35.2852361  21.0092546   8.9474001  35.0566171  20.3771012
   8.0663636  36.0458027  20.7327759   8.4248981  35.3636198  20.8749044
   6.1085688  38.3720014  21.9744554   6.8597015  38.6871691  22.2884108
   6.3008264  38.1699185  21.1478475   6.2477102  38.3887396  21.8987949
  12.9570978  34.4993581   9.2168349  12.9565204  34.3442237  10.0752625
  12.7527158  35.3456568   9.1609735  12.9270756  34.6014201   9.3356288
  10.6811830  39.1791082  12.8704556  11.1765495  38.4614077  12.8308576
   9.8711606  38.8761880  12.7559043  10.6355723  39.0288729  12.8478282
  12.7463649  41.9294770  15.5581685  13.1718720  41.4069192  15.0052110
  12.3820569  42.5275607  15.0370308  12.7550251  41.9404997  15.3990694
   2.3817729  50.2258987  14.3179030   2.6964288  51.0395376  14.3256812
   2.7911142  49.8409206  14.9861189   2.4885827  50.2887690  14.4183122
   9.3342248  45.6429034  11.8882842   9.8053426  46.3569297  12.0572827
   9.6702427  45.0427784  12.4242712   9.4537363  45.6600498  11.9915218
  11.4219233  47.2530348  24.0674914  11.5316198  46.4638908  24.4231661
  11.7510129  47.1636284  23.2649252  11.4871639  47.1236200  24.0017305
   6.2511743  30.4156505  18.8440937   6.3839649  29.6187498  19.1721912
   6.6356896  30.9422908  19.4239213   6.3268072  30.3756421  18.9784440
   9.9716195  45.4346968  18.6510535   9.4237141  44.8104852  18.3830600
  10.4329223  45.6241240  17.9354614   9.9583404  45.3706019  18.5060966
   9.3244098  27.3386831  15.4422030   8.5190062  27.2284561  15.7589869
   9.1950834  27.4399287  14.5851896   9.1864231  27.3370501  15.3630071
  12.7810059  33.5032323  16.0361727  12.1973048  34.0041529  15.6239294
  13.1014353  32.9961879  15.4026050  12.7423234  33.5024158  15.8820234
   3.9100190  30.4115680  17.0918831   4.4544603  30.0706807  17.6823172
   3.9637126  31.2701141  17.2340115   3.9989309  30.4870939  17.2000704
   9.5374521  46.4398041  15.1819876  10.3572895  46.2961007  15.4436171
   9.2568599  47.0644240  15.7236314   9.6171264  46.5108393  15.3007815
  26.0088171  54.0962893   8.1462752  25.9782176  54.9507529   8.3181022
  26.6069520  53.7958185   8.7048896  26.0925329  54.1779389   8.2537555
  19.2087856  53.1838544  12.9015683  18.3525752  53.3447042  12.9524800
  19.2555510  52.3130608  12.9220744  19.0886968  53.0789346  12.9121749
  22.5181573  59.4525069  22.5076139  23.2248340  58.9577100  22.6363073
  22.7069508  59.8934151  21.7778797  22.6509478  59.4443420  22.4185184
  18.5858247  65.0940900  10.0349573  18.9697626  65.6627798   9.4954348
  18.5217388  64.3690410   9.5555389  18.6331674  65.0716363   9.8843436
  22.0539677  55.2430588  15.5447334  22.5995637  55.9215674  15.6041304
  21.9956553  55.1018049  14.6848916  22.1255591  55.3222589  15.4259395
  15.1713752  62.7319654  10.9315687  15.2724115  61.9220008  11.2412815
  14.5755497  62.6376600  10.3015365  15.0986291  62.5984682  10.8841925
  23.8304746  56.6715195   6.4181062  23.7144272  57.4222881   6.8473200
  24.6260632  56.4139148   6.6677149  23.9309335  56.7450042   6.5185154
  15.0114492  67.6497243  12.3330543  15.6551947  68.0910407  12.7226701
  15.3370747  66.8450669  12.2460802  15.1546320  67.5962438  12.3776020
  10.6668884  50.9225671  13.4552328  10.0473915  50.3318318  13.2862343
  10.5652747  51.5137106  12.8216651  10.5606559  50.9229753  13.3357318
  17.7636779  52.6625213   7.7884791  18.4616944  52.8413340   8.2806255
  18.0789112  52.1395552   7.1655181  17.9132117  52.6118985   7.7686801
  10.3938017  54.4677953  15.6995897  10.2696714  55.0540398  16.3345716
  11.0456301  53.9738148  16.0008172  10.4711666  54.4816757  15.8381826
  17.9524715  59.0495658   7.7764583  18.3918350  58.4412758   8.2219356
  17.8029378  58.6703031   7.0050048  17.9946180  58.9034129   7.7283750
  15.4196358  57.6439670  14.9783408  16.0645360  57.1512113  14.6594357
  15.6598135  57.7864456  15.8049487  15.5506943  57.5917112  15.0532941
  17.9582449  60.4894575  14.6290301  18.2405692  59.6945981  14.4077057
  18.6868610  60.9675163  14.6495362  18.1072013  60.4429172  14.5993316
  15.9363643  48.0317609  11.8706066  15.6066973  48.4828753  11.2009765
  15.2608645  47.9533773  12.4179072  15.7874079  48.0868745  11.8529289
  21.5534051  57.4022839   4.7295352  21.4685346  58.2583806   4.8744921
  22.0418435  57.1267163   5.3977511  21.6122949  57.4880160   4.8497434
  23.1440051  44.0203132  10.1155677  22.8293492  44.7106611  10.5476099
  22.6266992  43.9647915   9.4141177  23.0204521  44.1138021  10.0752626
  22.4852485  54.0207633   6.2293087  21.9563956  54.2367267   6.8890393
  23.0077504  54.7143772   6.1494056  22.4840938  54.1550770   6.3148686
  27.9400537  59.5953938  11.6026132  27.1098241  59.8064581  11.7659548
  27.8909790  58.7690992  11.3268415  27.8107273  59.5043544  11.5863497
  16.0010275  62.4257792  14.4374041  15.4837217  62.0665207  13.8335349
  16.6984666  61.9019966  14.4480107  16.0275856  62.2955480  14.3504300
  19.6573867  62.8752606  20.3990214  19.7457213  62.6878746  21.2468424
  20.0863580  62.2290035  19.9995061  19.7335969  62.7515614  20.4661966
  17.2244327  62.1583766  19.3807876  16.6615162  61.7456376  19.9047538
  17.9865350  62.0836671  19.8001020  17.2538775  62.0861166  19.5200877
  18.8329307  54.1636502   3.5069476  19.0725310  54.3714486   2.6944819
  19.1545148  53.3594011   3.6158420  18.9166465  54.0750603   3.4030029
  14.1419597  46.0929898   7.3529014  14.8965565  46.4608215   7.1146064
  13.9647132  46.4669452   8.1208193  14.2274075  46.2028086   7.4313902
  12.7840318  64.1481787  11.9844506  13.4860898  63.6333776  12.0417263
  12.7037801  64.4755938  12.7891382  12.8764079  64.1196013  12.1117299
  27.4354496  52.2424338  15.3976553  26.5982917  52.3126525  15.6324147
  27.4042727  52.2448833  14.5250855  27.3072778  52.2534565  15.3036101
  13.8319225  54.3857374  21.1124922  14.0039728  54.2763269  21.9610203
  14.3688582  55.0311779  20.8756114  13.9364229  54.4649376  21.2030018
  12.4976662  48.5000217   4.0507127  12.3152235  48.7172098   3.2248119
  13.3602275  48.6139229   4.1065741  12.5981251  48.5490115   3.9361614
  12.1091094  60.3388139  11.4930115  12.9479993  60.5711072  11.5403876
  12.1402863  59.4692450  11.4237150  12.2372811  60.2445085  11.4894759
  12.7343797  60.7589014  15.7943420  13.2742022  60.6160145  16.4646792
  12.0513743  61.1585765  16.1627446  12.7135951  60.7968685  15.9477842
  18.1776381  45.5026627   7.0856150  18.9062541  45.3242582   6.6394307
  18.2671274  46.3444707   7.2963329  18.2983043  45.6010506   7.0509668
  22.1584682  56.4380015  10.9888444  22.9142197  56.8711529  11.0277353
  22.2647006  55.7884785  11.5623080  22.2854852  56.4057499  11.0786470
  25.1964853  60.2653292  11.7390847  24.7600085  60.2690034  12.4949819
  24.8627768  60.9458791  11.3070425  25.0827473  60.3665748  11.7871680
  19.7693926  62.3061625  23.0633998  20.5534343  62.4192473  23.4289740
  19.5690521  61.4802762  23.2592684  19.8559952  62.2008344  23.1468384
   8.1380942  56.9789305  15.9477842   7.8719357  56.1628422  16.1068832
   8.1519506  57.0242461  15.0773357   8.1005664  56.8646210  15.8431324
  25.1162336  47.3067120  13.9820275  25.7588244  47.3765225  14.5682191
  25.3685356  46.6396343  13.4799817  25.2484468  47.2193469  13.9947555
  12.8879548  50.5167683  18.5944849  12.1951345  50.0464663  18.8405581
  13.5039875  50.2905988  19.1686556  12.8764078  50.4134815  18.7154002
  19.9264320  64.2171727  16.7100453  19.1279565  63.9771227  16.9674322
  20.3750331  64.2686120  17.4567501  19.8738931  64.1894118  16.8585378
  28.3309199  56.9834212  10.6310485  28.9925633  56.4224880  10.5306393
  27.6900611  56.4886243  10.9563176  28.3338066  56.8270621  10.6642825
   8.5474355  57.7648084  13.2289586   8.3649929  57.7394970  12.3761878
   9.2824024  58.2347022  13.2678495   8.6288419  57.8309447  13.1087504
  24.6174030  57.9999594  10.3722473  24.8529619  58.1444793   9.5449324
  24.7663593  58.7642002  10.7653987  24.6739833  58.1338649  10.3086077
  11.6120107  54.4833087  19.7371694  12.3360079  54.4686118  20.2236589
  11.7136244  55.1928443  19.2393663  11.7338316  54.5857790  19.7350481
  26.4464486  56.8401260   8.2092077  26.7772703  57.3728900   7.6032172
  27.0197574  56.8940148   8.8654028  26.5798165  56.9270829   8.2169859
  18.9865056  57.9632172  24.6020642  18.1938037  58.2775684  24.7873261
  19.1013984  58.1783640  23.7641426  18.8860467  58.0416009  24.5058976
  21.6596375  54.6866163   8.8915657  21.7543230  55.4255457   9.3455283
  21.0355219  54.2583638   9.3250222  21.5805406  54.7327484   9.0223805
  19.9148849  57.8652376  19.5405938  20.4887711  57.2279620  19.6954502
  19.8363653  57.8656458  18.6715596  19.9882084  57.7717487  19.4352349
   8.5145266  54.6441585  13.3788652   9.0918768  54.5078036  14.0180898
   7.8159327  54.1877369  13.6334237   8.4966287  54.5563851  13.5110942
  21.9119397  56.5314903   2.1252609  21.8299559  56.6017090   2.9907596
  22.5499117  57.0944647   1.9336350  21.9939234  56.6253874   2.2242559
  15.2712568  56.2975641  11.5927136  15.0131812  55.4647376  11.5658435
  15.3261051  56.5233254  10.7519636  15.2412346  56.2073412  11.4647272
  20.3513618  48.4004091  11.6931228  19.6469945  47.9113277  11.8515147
  20.3998592  48.4126566  10.8219673  20.2543670  48.3293739  11.5870568
  14.2447280  53.8513403  12.0792030  13.6696871  54.0105572  12.7155991
  13.8682956  53.2148812  11.6160481  14.1050092  53.7811216  12.1046589
  17.9120569  52.3236753  16.9384409  17.5235001  51.8990970  16.2836600
  17.2475267  52.5718902  17.4461435  17.7567496  52.2975474  16.9172277
  27.5543838  52.0811757   9.7132239  27.2980403  51.2691699   9.5230122
  28.3973152  52.0889324   9.4862426  27.6409863  51.9623755   9.6517056
  21.7346930  46.0211381  14.4508393  22.1157442  45.3389552  14.8376267
  20.9310215  45.7320983  14.2684058  21.6723392  45.8778430  14.4812449
  19.0159507  56.5535357   5.1361216  19.8300146  56.8450250   5.0243987
  18.9518648  55.8995219   4.5619509  19.1262246  56.5000552   5.0350053
  25.2368997  59.2361353  19.5490791  25.0007634  58.4049418  19.4302852
  25.8812226  59.1846960  20.1345636  25.2963668  59.1059041  19.6176685
  14.8867415  60.0256875  10.2633528  15.5241362  59.7868622  10.8085321
  15.3122487  60.2294033   9.5286688  15.0443581  60.0207885  10.2350685
   9.5780058  62.2645211  14.1467832   9.6184203  62.5360062  13.3187611
  10.1374582  62.7887119  14.5625620   9.6663404  62.3820966  14.0859720
  15.6938771  48.5265580  24.3171001  15.3792212  49.2965142  24.0540564
  15.3728703  47.9635836  23.7323228  15.5997690  48.5575848  24.1912351
  26.2605418  59.0205802  15.6119086  25.9551235  59.7533859  15.9732402
  25.5411633  58.6143731  15.3311872  26.1092760  59.0687535  15.6232223
  17.2688887  60.5029297  11.9427314  17.3427895  60.3404469  12.7969164
  18.0858393  60.6919487  11.6987796  17.4005246  60.5066040  12.0325340
  31.9607210  55.6598803  14.9387430  31.8931710  55.6794762  14.0690017
  31.9462872  56.5029130  15.1643101  31.9485966  55.7872537  14.8439907
  13.2470668  46.9156101   9.9317198  12.3793093  46.9878700   9.9974807
  13.5345872  47.7178180  10.1205173  13.1610416  47.0450248   9.9691964
  22.3703556  47.0633960  18.2628520  23.1157148  46.8743771  17.8491945
  21.9540861  47.5892198  17.7042376  22.4188531  47.1136106  18.1193093
  29.7465827  54.4343189  13.2134025  30.2973749  53.8011258  13.4531117
  29.7309943  54.9658582  13.9049529  29.8251024  54.4192137  13.3512883
  16.3988218  58.2681786  17.7593918  15.8999912  58.9797554  17.8378806
  17.2088442  58.5882453  17.7212080  16.4444325  58.4208635  17.7650487
  12.6616336  57.5304739  12.0056639  12.3729584  56.9042210  12.5402366
  13.5299684  57.4725027  12.0721319  12.7476588  57.4292283  12.0947593
  23.4494233  52.6739523  12.3238621  23.1058999  51.9529858  12.6745870
  23.5487276  52.4653374  11.4816979  23.4136276  52.5363726  12.2510301
  23.9107263  59.1365227   7.8662609  24.4765295  59.7958436   7.7821152
  23.2635166  59.4814925   8.3379011  23.8986019  59.2847168   7.9235365
  15.3255276  51.1262831  23.0556216  14.5155052  51.4320610  22.9446059
  15.8029963  51.8468413  23.1708800  15.2758755  51.2777432  23.0563287
  14.1846836  60.3408552  13.3039119  13.6627589  60.4808843  13.9890984
  14.5720856  59.5819216  13.4941237  14.1650537  60.2494075  13.4340196
  11.1738020  50.3914360   7.3734074  10.8862815  50.0215631   6.6366021
  11.8608488  50.8609216   7.1117779  11.2326917  50.4061330   7.2249150
  20.3813841  62.0804011   7.2899688  20.1400517  61.3471871   6.8826753
  20.5615174  62.6290868   6.6366021  20.3721465  62.0526402   7.1329911
  15.6113161  57.3712571   8.7020610  15.4155944  57.9787305   8.1080913
  15.8347507  56.6780515   8.2212284  15.6147802  57.3590096   8.5436691
  14.0091691  54.2567309   8.8201479  14.7314343  54.4208467   8.3605285
  13.5299684  54.9776973   8.7140819  14.0455422  54.3865538   8.7367093
  21.9685199  50.5931107  14.1998164  21.1296299  50.6192386  13.9636427
  22.0389566  51.2401843  14.7803510  21.8553592  50.6927233  14.2507281
  11.6599308  56.6625381  17.9255619  12.1720405  56.9409634  17.2764378
  11.3735651  57.4014675  18.2918432  11.6934171  56.8127735  17.8845497
  20.4154477  47.4916484   8.9325780  21.1180830  47.2924233   8.4545738
  20.1498666  46.7192427   9.2394623  20.4801109  47.3479450   8.9071221
  25.8442723  55.7999094  11.4859405  25.7576697  55.9554520  12.3394184
  25.3893203  56.4437170  11.1118810  25.7645979  55.9174849  11.5566512
   8.7466214  51.1695573   8.2219355   8.8482351  51.9721734   8.5500331
   9.5422101  50.9682909   7.9242436   8.8794120  51.2581472   8.2254710
  15.1783033  48.7551770  17.9856660  14.9866230  48.7706904  18.8356084
  16.0281629  48.9515444  17.9623315  15.2758755  48.7866121  18.1079955
   9.5629946  51.2842751  15.9640477   9.4215438  50.4326692  16.0884985
   9.8470510  51.3271412  15.1402683   9.5837792  51.1642501  15.8608101
  19.7168539  53.1209841  10.1084965  19.4703253  53.0405592  10.9421754
  20.0453662  52.3363309   9.9147492  19.7289782  52.9936106  10.2032488
  23.6116588  59.8293201  13.8971746  23.4730947  60.5274246  14.4020489
  22.8316585  59.6741857  13.5407928  23.4759814  59.9093367  13.9198020
  21.9494673  56.1289576  20.1494128  21.9442711  55.2569392  20.1536554
  22.6555667  56.3277745  19.6763584  22.0539677  56.0293450  20.0801163
  15.6765566  55.8566560  19.5207948  15.8208942  56.4367768  18.8851058
  16.0241215  56.2342856  20.2257803  15.7493027  55.9987264  19.5306943
  17.8485483  55.0556728  17.3033080  17.1008797  55.2487743  16.8981358
  18.0027009  54.2301948  17.0657201  17.7607911  54.9621840  17.2078485
  14.7493321  64.0469332  16.3868975  14.8982885  63.4872247  15.7342379
  15.5293323  64.1261333  16.7701494  14.8867415  63.9754897  16.3465924
  25.1069960  59.1871454   4.6588245  24.7276769  58.4008592   4.6517535
  24.4436206  59.7358311   4.5159890  24.9528435  59.1516278   4.6369042
  17.2746622  64.2183974  17.6653466  17.1990293  63.5492785  18.2204254
  17.2036481  64.9201763  18.1794132  17.2527229  64.2228882  17.8230314
  18.0887260  48.9507279  18.1928483  18.5459875  49.6831253  18.3201276
  18.1643589  48.5273744  18.9515739  18.1678230  48.9964517  18.3229560
  10.3320252  49.1973099  19.2817927   9.7962441  48.5853457  19.5978694
  10.3938016  49.7721235  19.9351594  10.2615884  49.1920026  19.4253354
  22.5614586  42.1297154  12.0622326  22.6798154  42.5873617  11.3289629
  22.3876762  41.3242415  11.7758544  22.5533757  42.0790926  11.9123260
  17.9316869  62.7384973   8.4977072  18.6966760  62.4694617   8.1759736
  17.8294959  62.2534984   9.2147134  18.0298364  62.6274538   8.5556899
  15.9669638  50.9409383  15.0370307  15.1765713  50.7600843  15.3587643
  16.3630261  50.1636335  15.0200602  15.9086515  50.7996844  15.0822856
  21.3513325  58.5751813  12.7629753  20.6758326  58.3437045  13.2643140
  21.3605701  57.9672996  12.1371858  21.2531829  58.4510738  12.7445906
  18.4807469  53.4169642  19.5193806  18.4166610  54.2779598  19.3913943
  18.6204656  53.1001635  18.7189358  18.4922939  53.4969809  19.3822019
  23.3530059  61.4316945   4.9939931  23.4349897  62.2383932   4.6701382
  23.8379801  61.4512905   5.7180705  23.4367217  61.5537608   5.0526830
  17.1626562  56.1101781  13.6610009  16.7388812  56.3106280  12.9249028
  16.9871418  55.2630629  13.7734309  17.0737443  56.0150563  13.5683699
  16.6638256  67.6252294  16.1231467  17.1534186  66.9263083  15.9407131
  16.0922488  67.3276164  16.7107524  16.6522786  67.4778518  16.1832507
  12.4509007  56.6053833   9.0937982  12.6073627  56.5400635   9.9493974
  12.7909601  57.3802385   8.8816661  12.5242242  56.7103031   9.1892576
  18.9888152  55.9811716   7.9631345  19.5303698  55.4782097   8.4269966
  19.3034711  55.9276911   7.1520830  19.1152549  55.8991137   7.9115157
  22.8605259  60.1914364  25.0758257  23.6740125  59.9199512  25.2363390
  22.7000226  59.8921904  24.2718453  22.9575208  60.1069290  24.9803663
  20.1377421  50.8748021  18.0153645  20.3519391  50.2358935  17.4616999
  19.5211321  51.3193845  17.5861507  20.0782751  50.8458164  17.8704077
  21.5482089  63.7966769   9.4607866  21.1561881  63.4933484   8.7430732
  21.7035162  64.6335859   9.2712820  21.5135679  63.8750606   9.3264363
   9.0243269  53.7888783   9.4098749   9.4042234  54.2073328   8.7459016
   8.4498634  54.3702239   9.7167592   8.9954594  53.9366642   9.3575490
  22.3016509  52.4837086  18.9536953  21.4893191  52.1762976  19.0350125
  22.7606444  52.0036086  19.5179665  22.2496894  52.3673578  19.0491547
  21.7121764  60.3616758   9.4013897  21.3536419  60.5331401  10.1777929
  21.2260475  60.8229964   8.8441895  21.5880461  60.4555729   9.4339166
  19.5292150  43.9847956  13.0040988  18.6585708  43.9586678  12.9574298
  19.7832491  43.8125149  12.1866834  19.4385710  43.9558100  12.8761125
  19.3970017  53.8897157  23.7365655  19.8669648  54.5139274  24.1233529
  19.4431897  53.2214133  24.2958870  19.4737893  53.8831838  23.8765726
  16.5541291  45.9954185  14.4614459  16.0379779  45.3034376  14.5866038
  15.9935219  46.6624962  14.4077057  16.3947804  45.9917442  14.4720525
  18.6233524  46.5347145  16.2907311  18.2365277  46.5596176  17.0720841
  18.1366461  45.9688824  15.8381828  18.4946033  46.4542896  16.3395215
  22.8726503  61.2520654  20.3481098  23.5106224  60.7580850  20.0143554
  22.2300595  61.1798054  19.7633325  22.8720730  61.1679662  20.2123453
  24.5983504  53.1009800  14.9147013  24.1711112  53.0136148  14.1595113
  23.9609557  53.2087575  15.5001857  24.4413111  53.1042460  14.8892455
  18.2890666  43.4214130  18.5817571  18.9183784  43.9574430  18.3038641
  18.4576528  43.3291489  19.4331137  18.4068460  43.4875493  18.6666099
  18.0904581  48.2085325  20.8543983  18.9178010  47.9370474  20.9102597
  18.1112427  49.0046167  21.2107801  18.2157431  48.2865079  20.9159166
  22.9280760  61.9440462  16.9886454  23.7173138  61.5929527  17.1088536
  23.1024358  62.7576851  16.7263088  23.0701042  62.0126319  16.9674322
  12.6674071  55.3549188  14.0414243  11.8262077  55.2553062  14.2493137
  12.8764078  56.1244668  14.3928564  12.5738763  55.4541231  14.1241558
  10.1449637  52.9768725  11.8698994   9.7506335  53.0511737  11.0949104
   9.5889754  53.3626671  12.4207356  10.0052450  53.0450499  11.8366654
  21.7814584  45.9550019  11.5502873  21.9864178  45.8872327  12.3959870
  21.4541008  46.7608840  11.4824050  21.7629832  46.0635959  11.6662528
  16.4790735  53.2830587  13.2911841  16.1753873  52.7286575  13.8922249
  15.7770156  53.4622797  12.8039875  16.3306945  53.2275369  13.3081546
  15.5356832  50.5931107   7.8556543  15.8116567  49.8750019   7.4434110
  16.1355502  51.1916027   7.6477649  15.6650097  50.5751478   7.7637304
  14.5409086  60.4980308  17.9983939  14.4329441  60.5082370  18.8645997
  14.7504868  61.3235088  17.8088892  14.5559197  60.6221383  18.0988030
  25.0348272  46.5081783  11.0305638  24.4222586  46.9952185  11.4159370
  25.1312447  45.8325274  11.5743290  24.9586170  46.4800092  11.1684497
  19.0367353  48.2644624   6.1303138  19.4911099  48.4355185   6.8550982
  19.5107399  47.6512735   5.7300913  19.1735673  48.1995509   6.1776899
  12.5582878  57.7492950  15.4605876  11.9670812  58.3902448  15.4308891
  13.3203902  58.1730567  15.4337176  12.5831139  57.9068789  15.4521023
  12.9543501  48.9094948  16.1273894  13.4144983  48.9833877  16.8649018
  12.9999608  49.7076202  15.7773715  13.0294056  49.0389095  16.1846650
  14.6026851  49.5761643  20.6945921  14.2112416  48.9294990  21.1301699
  14.7712714  50.1673078  21.3140176  14.5697761  49.5675911  20.8508627
  28.6773300  57.5798720  16.4583154  28.7356424  58.0285369  17.2043131
  28.0439768  57.9897533  16.0213234  28.5924595  57.7072455  16.5035703
  22.3172395  63.2002262  12.8937901  22.1192083  63.6893076  12.1994112
  21.6960106  63.4043503  13.4722034  22.1959959  63.3018800  12.8761124
  16.3780373  54.9687159   7.2348145  17.1222418  55.3561435   7.4731095
  16.5241069  54.1244584   7.3988633  16.5090958  54.9017631   7.2942115
  18.2959948  46.7637418  12.2680006  17.4495993  46.9360225  12.1421356
  18.2931081  45.9586761  12.6045835  18.1707098  46.6698446  12.2991133
  19.3658249  50.5412632  13.1342064  18.8918203  50.0154394  13.6447375
  19.7376385  49.9942105  12.5656926  19.3508138  50.3828629  13.1257211
   9.7431279  52.5384139  18.5025610  10.6056892  52.4379848  18.4162940
   9.4123062  51.9578848  17.9411182   9.8216475  52.4375765  18.4071016
  25.6294979  55.6015008  14.5448845  25.3893202  54.7621423  14.5491271
  26.1086987  55.6815174  15.2689618  25.6647163  55.4896407  14.6523647
  21.2941748  51.4349186   6.1967818  20.7664767  51.5177930   5.5073527
  21.7537457  52.1767058   6.1932463  21.2843599  51.5569849   6.0942513
  27.6300166  52.3816465  12.4978104  27.3909936  52.3412299  11.6598889
  27.7934068  53.2287617  12.6243825  27.6190470  52.5008550  12.3931586
  24.2346197  56.7666414  18.4283149  24.9580395  56.3138941  18.2494169
  23.9696159  57.0471080  17.6455477  24.3027470  56.7417383  18.2861864
  13.1033065  51.3626588  15.1636028  12.4786135  51.3744980  14.5561981
  12.7678660  51.8386763  15.8127268  12.9618557  51.4345105  15.1692597
   9.8158740  59.4227048  16.6039793   9.2858665  58.7319487  16.6534767
  10.0883834  59.4137233  15.7752501   9.7783463  59.3194180  16.4887208
  20.8478831  60.0052750   5.3277475  21.5713030  60.4710863   5.1842048
  20.4079422  60.0726360   4.5775072  20.8894523  60.0836587   5.1962257
  20.0164986  56.8650292  16.5778164  19.4021979  56.3208343  16.8726799
  20.5332271  56.3514529  16.0983980  20.0020648  56.7086701  16.5502393
  19.2561283  57.9354562  14.3122463  18.8288891  57.3104281  13.8787898
  19.2486228  57.6529484  15.1381470  19.1920424  57.8007343  14.3702290
  12.3723810  52.9719735  17.3810897  12.5317297  52.2163060  17.7862619
  12.1916704  53.5210675  18.0351634  12.3689169  52.9413549  17.5373603
  20.3144113  45.1380971  17.9361686  19.8184675  45.3344645  17.2453253
  21.0713175  45.5373639  17.7650488  20.3530938  45.2258705  17.8081823
  17.5846993  48.8123317  14.5264997  17.6089480  48.2783429  13.8377777
  17.8358466  48.3040626  15.1890587  17.6256912  48.6584221  14.5229641
  13.8648315  47.5394135  13.9070741  13.9046687  48.0403342  14.6205448
  13.0397980  47.6304529  13.6376664  13.7487841  47.6275951  13.9721279
  16.0477928  57.1054875  22.0091036  15.1973559  57.2426589  22.1448681
  16.2106056  56.3718653  22.4538737  15.9461792  57.0168976  22.0946635
  15.2862679  54.0554645  16.2044640  14.4554608  54.2228463  15.9979888
  15.2314196  53.6790596  16.9893525  15.1552093  54.0244376  16.2893168
  13.0946462  47.5463538  21.8401051  13.7199165  47.0025671  22.1130483
  12.6396942  47.0658455  21.2708841  13.1194722  47.3953019  21.7962645
  13.6598722  52.3310237   6.7334758  13.8001683  52.8282701   7.4363399
  14.1581255  51.6296531   6.8748971  13.7539803  52.3012215   6.8586337
  26.6681511  55.7292825  16.9313699  27.2599351  56.3690076  16.9631897
  27.1040505  55.0315862  17.2205766  26.8199942  55.7211175  16.9794531
  15.2677928  49.1291323   4.0372777  15.5893769  48.6494405   3.3832039
  15.5304871  49.9390969   3.8463588  15.3543953  49.1781221   3.9128269
  18.4974900  60.1510197  17.5571593  17.9899991  60.7046044  18.0012223
  18.2001547  60.2118487  16.7390367  18.3779785  60.2416508  17.5020049
  20.6637083  48.5163517  16.3996256  21.0892154  48.0636043  15.7879782
  20.0494076  47.9623588  16.6761043  20.6365728  48.3677493  16.3501281
  19.1031305  44.9878617   9.8086833  18.4599623  44.8376263  10.3771971
  18.7630712  44.7420962   9.0435937  18.9576383  44.9290739   9.7789848
  23.6930652  52.9438044   9.2316841  23.0221842  53.4867746   9.1029907
  24.3870402  53.4132899   8.9898536  23.6959519  53.0936315   9.1772369
  17.7417386  65.0834756  14.4628600  17.5183040  64.3253585  14.8312626
  17.2527229  65.1132777  13.7409039  17.6360835  64.9756980  14.4105341
  23.8558779  49.3993927  12.1407214  24.2086389  48.9723650  12.8153013
  22.9973581  49.3144771  12.2708291  23.7808224  49.3238668  12.2602225
  12.5542464  52.0301447  10.1990061  11.8354453  52.4465579  10.4662925
  12.9254827  52.5955686   9.6481699  12.5034396  52.1750728  10.1572868
  21.8542045  52.6629296  16.0892057  21.8339972  52.4812591  16.9426836
  21.9021246  53.5341314  16.0651640  21.8576686  52.7645834  16.2115351
  19.7988375  59.2516488  22.0140533  19.7584230  58.6066165  21.4285689
  20.6111693  59.1953105  22.3265945  19.9131529  59.1475455  21.9737482
  16.3895843  65.3035214  11.9165684  15.9756241  64.6409344  11.5269526
  17.0743217  65.4513072  11.3961378  16.4294214  65.2275872  11.7822181
  19.7561137  64.4625299  12.6689301  19.3577420  64.5727569  11.9010121
  19.1412356  64.6707365  13.2515861  19.6060026  64.5098867  12.6420600
  18.3289039  51.0699447   5.5363440  17.7353878  51.3916443   4.9848008
  18.3664316  50.2240542   5.3284547  18.2463428  50.9923775   5.4246212
  25.2882839  44.5212339  13.0691527  24.7813704  43.8141479  13.0012704
  26.0850273  44.1905528  13.1992604  25.3310079  44.3685490  13.0790522
  21.2046855  51.0278951   8.9665191  20.9760548  51.0511653   8.1243549
  21.4644931  50.2036418   9.0860201  21.2093043  50.9095031   8.8590388
  15.4866084  52.8813424  18.5690291  14.9744987  52.2734607  18.9275322
  15.3145580  53.5970017  19.0364267  15.3855721  52.8976724  18.6906515
  10.3331798  51.3251000  21.2192653  10.1634389  51.9852374  20.6740859
   9.8897748  51.5357561  21.9405142  10.2431132  51.4536982  21.2454282
  14.2591618  49.5655498  10.2619386  14.7348984  49.9272577   9.6269568
  13.7580217  50.2211965  10.5419529  14.2556977  49.7149686  10.2096127
  27.4902979  59.0377266   6.0532391  27.8736585  59.7868622   6.2830488
  26.6947093  59.2843085   5.7944380  27.4296762  59.1846959   6.0489965
  19.3635154  50.8037669  21.0092546  19.9206584  50.5751478  20.3771012
  19.0396219  51.5643335  20.7327759  19.3981564  50.8821506  20.8749044
   7.2333863  54.2297865  16.4781143   6.6860582  53.5598511  16.5962011
   8.0226241  53.8627713  16.5424610   7.2686047  54.0762852  16.5049843
  17.0818271  53.8905322  21.9744554  17.8329598  54.2056999  22.2884108
  17.2740848  53.6884493  21.1478475  17.2209685  53.9072704  21.8987949
  16.3018271  51.7096697   3.6292770  16.6817236  51.7276327   2.8443885
  15.5610867  52.1550686   3.5083618  16.2487109  51.7778472   3.4956339
  23.9303561  50.0178889   9.2168349  23.9297788  49.8627545  10.0752625
  23.7259742  50.8641876   9.1609735  23.9003339  50.1199509   9.3356288
   5.9920832  53.4418673  13.6327166   5.8142594  52.9895282  14.3582081
   5.7039855  54.2444834  13.8165643   5.9233786  53.4941231  13.7670668
  21.6544414  54.6976390  12.8704556  22.1498079  53.9799385  12.8308576
  20.8444189  54.3947188  12.7559043  21.6088307  54.5474037  12.8478282
  23.7196232  57.4480078  15.5581685  24.1451304  56.9254500  15.0052110
  23.3553152  58.0460915  15.0370308  23.7282835  57.4590305  15.3990694
  13.3550312  65.7444295  14.3179030  13.6696871  66.5580684  14.3256812
  13.7643726  65.3594514  14.9861189  13.4618410  65.8072998  14.4183122
  20.3074832  61.1614342  11.8882842  20.7786010  61.8754605  12.0572827
  20.6435010  60.5613092  12.4242712  20.4269947  61.1785806  11.9915218
  22.3951816  62.7715655  24.0674914  22.5048782  61.9824216  24.4231661
  22.7242713  62.6821592  23.2649252  22.4604222  62.6421508  24.0017305
  17.2244327  45.9341813  18.8440937  17.3572232  45.1372806  19.1721912
  17.6089480  46.4608216  19.4239213  17.3000656  45.8941729  18.9784440
  20.9448778  60.9532276  18.6510535  20.3969724  60.3290160  18.3830600
  21.4061807  61.1426548  17.9354614  20.9315988  60.8891326  18.5060966
  20.2976682  42.8572139  15.4422030  19.4922646  42.7469868  15.7589869
  20.1683417  42.9584595  14.5851896  20.1596815  42.8555809  15.3630071
  23.7542643  49.0217631  16.0361727  23.1705631  49.5226837  15.6239294
  24.0746937  48.5147187  15.4026050  23.7155818  49.0209466  15.8820234
  16.2937442  47.9358226   6.3120402  17.1153136  48.1056538   6.0702097
  15.8307093  48.0905487   5.5886699  16.3468604  47.9839959   6.1692046
  14.8832774  45.9300988  17.0918831  15.4277187  45.5892115  17.6823172
  14.9369709  46.7886449  17.2340115  14.9721893  46.0056247  17.2000704
  10.6963332  59.6917404  13.9657639  11.3008190  59.6513238  13.3371459
  10.4890645  60.5388556  13.9961694  10.7552230  59.8105406  13.8773755
  20.5107104  61.9583349  15.1819876  21.3305478  61.8146315  15.4436171
  20.2301182  62.5829548  15.7236314  20.5903848  62.0293701  15.3007815
  36.9820755  69.6148201   8.1462752  36.9514759  70.4692837   8.3181022
  37.5802104  69.3143493   8.7048896  37.0657913  69.6964697   8.2537555
  30.1820440  68.7023852  12.9015683  29.3258335  68.8632350  12.9524800
  30.2288093  67.8315916  12.9220744  30.0619551  68.5974654  12.9121749
  33.4914156  74.9710377  22.5076139  34.1980923  74.4762408  22.6363073
  33.6802092  75.4119459  21.7778797  33.6242062  74.9628728  22.4185184
  33.0272261  70.7615896  15.5447334  33.5728221  71.4400982  15.6041304
  32.9689137  70.6203356  14.6848916  33.0988175  70.8407897  15.4259395
  21.6401467  66.4410979  13.4552328  21.0206499  65.8503626  13.2862343
  21.5385331  67.0322414  12.8216651  21.5339143  66.4415061  13.3357318
  28.7369363  68.1810521   7.7884791  29.4349528  68.3598648   8.2806255
  29.0521695  67.6580860   7.1655181  28.8864700  68.1304293   7.7686801
  21.3670600  69.9863261  15.6995897  21.2429297  70.5725706  16.3345716
  22.0188885  69.4923456  16.0008172  21.4444250  70.0002065  15.8381826
  26.3928941  73.1624978  14.9783408  27.0377944  72.6697421  14.6594357
  26.6330718  73.3049764  15.8049487  26.5239526  73.1102420  15.0532941
  28.9315033  76.0079883  14.6290301  29.2138276  75.2131289  14.4077057
  29.6601193  76.4860471  14.6495362  29.0804596  75.9614480  14.5993316
  26.9096227  63.5502917  11.8706066  26.5799557  64.0014061  11.2009765
  26.2341228  63.4719081  12.4179072  26.7606663  63.6054053  11.8529289
  25.1152181  61.6115206   7.3529014  25.8698149  61.9793523   7.1146064
  24.9379715  61.9854760   8.1208193  25.2006659  61.7213394   7.4313902
  38.4087079  67.7609646  15.3976553  37.5715500  67.8311833  15.6324147
  38.3775310  67.7634141  14.5250855  38.2805362  67.7719873  15.3036101
  24.8051808  69.9042682  21.1124922  24.9772312  69.7948576  21.9610203
  25.3421166  70.5497087  20.8756114  24.9096812  69.9834684  21.2030018
  23.4709245  64.0185525   4.0507127  23.2884818  64.2357406   3.2248119
  24.3334858  64.1324537   4.1065741  23.5713835  64.0675423   3.9361614
  29.1508964  61.0211935   7.0856150  29.8795125  60.8427890   6.6394307
  29.2403857  61.8630015   7.2963329  29.2715626  61.1195814   7.0509668
  33.1317265  71.9565323  10.9888444  33.8874780  72.3896837  11.0277353
  33.2379590  71.3070092  11.5623080  33.2587436  71.9242807  11.0786470
  36.1697436  75.7838600  11.7390847  35.7332668  75.7875342  12.4949819
  35.8360352  76.4644099  11.3070425  36.0560056  75.8851056  11.7871680
  30.7426510  77.8246933  23.0633998  31.5266926  77.9377781  23.4289740
  30.5423104  76.9988070  23.2592684  30.8292535  77.7193652  23.1468384
  19.1113525  72.4974613  15.9477842  18.8451941  71.6813730  16.1068832
  19.1252089  72.5427768  15.0773357  19.0738248  72.3831518  15.8431324
  36.0894919  62.8252428  13.9820275  36.7320828  62.8950532  14.5682191
  36.3417940  62.1581651  13.4799817  36.2217051  62.7378776  13.9947555
  23.8612132  66.0352991  18.5944849  23.1683928  65.5649971  18.8405581
  24.4772459  65.8091296  19.1686556  23.8496662  65.9320123  18.7154002
  39.3041782  72.5019520  10.6310485  39.9658217  71.9410188  10.5306393
  38.6633194  72.0071551  10.9563176  39.3070650  72.3455929  10.6642825
  19.5206939  73.2833392  13.2289586  19.3382512  73.2580278  12.3761878
  20.2556608  73.7532330  13.2678495  19.6021003  73.3494755  13.1087504
  22.5852691  70.0018395  19.7371694  23.3092663  69.9871426  20.2236589
  22.6868827  70.7113750  19.2393663  22.7070900  70.1043098  19.7350481
  29.9597640  73.4817480  24.6020642  29.1670621  73.7960992  24.7873261
  30.0746567  73.6968948  23.7641426  29.8593051  73.5601316  24.5058976
  32.6328959  70.2051471   8.8915657  32.7275813  70.9440765   9.3455283
  32.0087803  69.7768946   9.3250222  32.5537989  70.2512792   9.0223805
  30.8881433  73.3837684  19.5405938  31.4620295  72.7464928  19.6954502
  30.8096237  73.3841766  18.6715596  30.9614668  73.2902795  19.4352349
  19.4877849  70.1626893  13.3788652  20.0651352  70.0263344  14.0180898
  18.7891911  69.7062677  13.6334237  19.4698871  70.0749159  13.5110942
  26.2445151  71.8160949  11.5927136  25.9864396  70.9832684  11.5658435
  26.2993634  72.0418562  10.7519636  26.2144929  71.7258720  11.4647272
  31.3246202  63.9189399  11.6931228  30.6202528  63.4298585  11.8515147
  31.3731176  63.9311874  10.8219673  31.2276253  63.8479047  11.5870568
  25.2179864  69.3698711  12.0792030  24.6429455  69.5290880  12.7155991
  24.8415540  68.7334120  11.6160481  25.0782676  69.2996524  12.1046589
  28.8853152  67.8422060  16.9384409  28.4967585  67.4176278  16.2836600
  28.2207851  68.0904210  17.4461435  28.7300080  67.8160782  16.9172277
  38.5276421  67.5997065   9.7132239  38.2712986  66.7877007   9.5230122
  39.3705735  67.6074632   9.4862426  38.6142447  67.4809063   9.6517056
  32.7079514  61.5396689  14.4508393  33.0890026  60.8574860  14.8376267
  31.9042798  61.2506291  14.2684058  32.6455976  61.3963738  14.4812449
  36.2101581  74.7546661  19.5490791  35.9740218  73.9234726  19.4302852
  36.8544810  74.7032268  20.1345636  36.2696251  74.6244349  19.6176685
  25.8599999  75.5442182  10.2633528  26.4973946  75.3053930  10.8085321
  26.2855070  75.7479341   9.5286688  26.0176165  75.5393193  10.2350685
  26.6671354  64.0450887  24.3171001  26.3524795  64.8150450  24.0540564
  26.3461287  63.4821143  23.7323228  26.5730273  64.0761156  24.1912351
  37.2338001  74.5391110  15.6119086  36.9283818  75.2719167  15.9732402
  36.5144217  74.1329039  15.3311872  37.0825344  74.5872843  15.6232223
  28.2421471  76.0214605  11.9427314  28.3160479  75.8589777  12.7969164
  29.0590977  76.2104795  11.6987796  28.3737829  76.0251347  12.0325340
  42.9339793  71.1784111  14.9387430  42.8664294  71.1980070  14.0690017
  42.9195456  72.0214438  15.1643101  42.9218550  71.3057845  14.8439907
  24.2203251  62.4341409   9.9317198  23.3525677  62.5064008   9.9974807
  24.5078455  63.2363488  10.1205173  24.1342999  62.5635556   9.9691964
  33.3436140  62.5819268  18.2628520  34.0889732  62.3929079  17.8491945
  32.9273445  63.1077506  17.7042376  33.3921114  62.6321414  18.1193093
  40.7198411  69.9528497  13.2134025  41.2706332  69.3196566  13.4531117
  40.7042526  70.4843890  13.9049529  40.7983607  69.9377445  13.3512883
  27.3720802  73.7867094  17.7593918  26.8732495  74.4982862  17.8378806
  28.1821026  74.1067761  17.7212080  27.4176908  73.9393943  17.7650487
  23.6348919  73.0490047  12.0056639  23.3462168  72.4227518  12.5402366
  24.5032267  72.9910334  12.0721319  23.7209171  72.9477591  12.0947593
  34.4226817  68.1924830  12.3238621  34.0791583  67.4715166  12.6745870
  34.5219860  67.9838682  11.4816979  34.3868860  68.0549034  12.2510301
  26.2987860  66.6448138  23.0556216  25.4887635  66.9505918  22.9446059
  26.7762546  67.3653721  23.1708800  26.2491338  66.7962740  23.0563287
  25.1579419  75.8593859  13.3039119  24.6360173  75.9994151  13.9890984
  25.5453440  75.1004524  13.4941237  25.1383120  75.7679383  13.4340196
  22.1470603  65.9099668   7.3734074  21.8595399  65.5400939   6.6366021
  22.8341071  66.3794524   7.1117779  22.2059501  65.9246638   7.2249150
  26.5845745  72.8897879   8.7020610  26.3888527  73.4972613   8.1080913
  26.8080090  72.1965823   8.2212284  26.5880386  72.8775404   8.5436691
  24.9824275  69.7752616   8.8201479  25.7046927  69.9393775   8.3605285
  24.5032268  70.4962281   8.7140819  25.0188006  69.9050846   8.7367093
  32.9417782  66.1116415  14.1998164  32.1028883  66.1377694  13.9636427
  33.0122150  66.7587151  14.7803510  32.8286176  66.2112541  14.2507281
  22.6331892  72.1810689  17.9255619  23.1452988  72.4594942  17.2764378
  22.3468234  72.9199983  18.2918432  22.6666755  72.3313043  17.8845497
  31.3887061  63.0101792   8.9325780  32.0913414  62.8109541   8.4545738
  31.1231249  62.2377735   9.2394623  31.4533693  62.8664758   8.9071221
  36.8175306  71.3184402  11.4859405  36.7309281  71.4739828  12.3394184
  36.3625786  71.9622478  11.1118810  36.7378563  71.4360157  11.5566512
  19.7198798  66.6880881   8.2219355  19.8214934  67.4907042   8.5500331
  20.5154685  66.4868217   7.9242436  19.8526703  66.7766779   8.2254710
  26.1515617  64.2737077  17.9856660  25.9598814  64.2892212  18.8356084
  27.0014213  64.4700752  17.9623315  26.2491339  64.3051429  18.1079955
  20.5362530  66.8028059  15.9640477  20.3948022  65.9512000  16.0884985
  20.8203093  66.8456720  15.1402683  20.5570376  66.6827809  15.8608101
  30.6901122  68.6395149  10.1084965  30.4435837  68.5590900  10.9421754
  31.0186245  67.8548617   9.9147492  30.7022366  68.5121414  10.2032488
  34.5849171  75.3478508  13.8971746  34.4463530  76.0459554  14.4020489
  33.8049169  75.1927165  13.5407928  34.4492398  75.4278675  13.9198020
  32.9227256  71.6474884  20.1494128  32.9175295  70.7754700  20.1536554
  33.6288250  71.8463053  19.6763584  33.0272260  71.5478758  20.0801163
  26.6498150  71.3751868  19.5207948  26.7941525  71.9553076  18.8851058
  26.9973798  71.7528164  20.2257803  26.7225611  71.5172572  19.5306943
  28.8218067  70.5742036  17.3033080  28.0741381  70.7673050  16.8981358
  28.9759592  69.7487256  17.0657201  28.7340495  70.4807147  17.2078485
  29.0619844  64.4692587  18.1928483  29.5192458  65.2016561  18.3201276
  29.1376173  64.0459052  18.9515739  29.1410814  64.5149825  18.3229560
  21.3052835  64.7158407  19.2817927  20.7695025  64.1038765  19.5978694
  21.3670600  65.2906542  19.9351594  21.2348468  64.7105334  19.4253354
  33.5347170  57.6482462  12.0622326  33.6530738  58.1058925  11.3289629
  33.3609346  56.8427723  11.7758544  33.5266341  57.5976234  11.9123260
  26.9402222  66.4594691  15.0370307  26.1498297  66.2786151  15.3587643
  27.3362845  65.6821643  15.0200602  26.8819098  66.3182152  15.0822856
  32.3245908  74.0937121  12.7629753  31.6490910  73.8622353  13.2643140
  32.3338284  73.4858304  12.1371858  32.2264413  73.9696046  12.7445906
  29.4540052  68.9354950  19.5193806  29.3899193  69.7964906  19.3913943
  29.5937240  68.6186943  18.7189358  29.4655522  69.0155116  19.3822019
  28.1359146  71.6287089  13.6610009  27.7121395  71.8291588  12.9249028
  27.9604001  70.7815937  13.7734309  28.0470027  71.5335871  13.5683699
  23.4241591  72.1239141   9.0937982  23.5806210  72.0585943   9.9493974
  23.7642184  72.8987693   8.8816661  23.4974826  72.2288339   9.1892576
  29.9620736  71.4997024   7.9631345  30.5036281  70.9967405   8.4269966
  30.2767295  71.4462219   7.1520830  30.0885133  71.4176445   7.9115157
  33.8337843  75.7099672  25.0758257  34.6472708  75.4384820  25.2363390
  33.6732809  75.4107211  24.2718453  33.9307792  75.6254598  24.9803663
  31.1110005  66.3933329  18.0153645  31.3251975  65.7544243  17.4616999
  30.4943904  66.8379153  17.5861507  31.0515334  66.3643472  17.8704077
  19.9975853  69.3074091   9.4098749  20.3774817  69.7258636   8.7459016
  19.4231217  69.8887547   9.7167592  19.9687177  69.4551950   9.3575490
  33.2749093  68.0022394  18.9536953  32.4625775  67.6948284  19.0350125
  33.7339028  67.5221394  19.5179665  33.2229478  67.8858886  19.0491547
  30.5024734  59.5033264  13.0040988  29.6318292  59.4771985  12.9574298
  30.7565075  59.3310457  12.1866834  30.4118294  59.4743408  12.8761125
  30.3702601  69.4082465  23.7365655  30.8402232  70.0324582  24.1233529
  30.4164481  68.7399441  24.2958870  30.4470476  69.4017146  23.8765726
  27.5273874  61.5139493  14.4614459  27.0112363  60.8219684  14.5866038
  26.9667803  62.1810270  14.4077057  27.3680387  61.5102750  14.4720525
  29.5966108  62.0532453  16.2907311  29.2097861  62.0781484  17.0720841
  29.1099045  61.4874131  15.8381828  29.4678617  61.9728204  16.3395215
  33.8459087  76.7705962  20.3481098  34.4838808  76.2766157  20.0143554
  33.2033179  76.6983362  19.7633325  33.8453314  76.6864970  20.2123453
  35.5716087  68.6195108  14.9147013  35.1443695  68.5321456  14.1595113
  34.9342140  68.7272883  15.5001857  35.4145694  68.6227768  14.8892455
  29.2623249  58.9399438  18.5817571  29.8916367  59.4759738  18.3038641
  29.4309112  58.8476797  19.4331137  29.3801044  59.0060801  18.6666099
  29.0637164  63.7270633  20.8543983  29.8910594  63.4555782  20.9102597
  29.0845010  64.5231475  21.2107801  29.1890014  63.8050387  20.9159166
  33.9013344  77.4625770  16.9886454  34.6905722  77.1114835  17.1088536
  34.0756941  78.2762158  16.7263088  34.0433625  77.5311627  16.9674322
  23.6406654  70.8734496  14.0414243  22.7994661  70.7738370  14.2493137
  23.8496662  71.6429976  14.3928564  23.5471347  70.9726539  14.1241558
  21.1182221  68.4954033  11.8698994  20.7238919  68.5697045  11.0949104
  20.5622338  68.8811979  12.4207356  20.9785033  68.5635807  11.8366654
  32.7547168  61.4735327  11.5502873  32.9596761  61.4057635  12.3959870
  32.4273592  62.2794148  11.4824050  32.7362416  61.5821267  11.6662528
  27.4523319  68.8015895  13.2911841  27.1486456  68.2471883  13.8922249
  26.7502740  68.9808105  12.8039875  27.3039529  68.7460677  13.3081546
  26.5089416  66.1116415   7.8556543  26.7849150  65.3935327   7.4434110
  27.1088085  66.7101335   7.6477649  26.6382681  66.0936786   7.7637304
  36.0080856  62.0267091  11.0305638  35.3955169  62.5137493  11.4159370
  36.1045030  61.3510582  11.5743290  35.9318753  61.9985400  11.1684497
  30.0099937  63.7829932   6.1303138  30.4643683  63.9540493   6.8550982
  30.4839982  63.1698043   5.7300913  30.1468257  63.7180817   6.1776899
  23.5315462  73.2678258  15.4605876  22.9403395  73.9087756  15.4308891
  24.2936485  73.6915875  15.4337176  23.5563723  73.4254097  15.4521023
  23.9276085  64.4280256  16.1273894  24.3877566  64.5019185  16.8649018
  23.9732191  65.2261510  15.7773715  24.0026640  64.5574403  16.1846650
  25.5759434  65.0946951  20.6945921  25.1845000  64.4480298  21.1301699
  25.7445297  65.6858386  21.3140176  25.5430345  65.0861219  20.8508627
  39.6505883  73.0984028  16.4583154  39.7089007  73.5470677  17.2043131
  39.0172351  73.5082841  16.0213234  39.5657179  73.2257762  16.5035703
  27.3512957  70.4872467   7.2348145  28.0955001  70.8746743   7.4731095
  27.4973653  69.6429892   7.3988633  27.4823542  70.4202939   7.2942115
  30.3390832  66.0597940  13.1342064  29.8650787  65.5339702  13.6447375
  30.7108968  65.5127413  12.5656926  30.3240721  65.9013936  13.1257211
  20.7163863  68.0569447  18.5025610  21.5789476  67.9565156  18.4162940
  20.3855646  67.4764156  17.9411182  20.7949059  67.9561073  18.4071016
  36.6027563  71.1200316  14.5448845  36.3625786  70.2806731  14.5491271
  37.0819570  71.2000482  15.2689618  36.6379747  71.0081715  14.6523647
  32.2674332  66.9534494   6.1967818  31.7397351  67.0363238   5.5073527
  32.7270040  67.6952366   6.1932463  32.2576183  67.0755157   6.0942513
  38.6032750  67.9001773  12.4978104  38.3642520  67.8597607  11.6598889
  38.7666651  68.7472925  12.6243825  38.5923053  68.0193858  12.3931586
  35.2078780  72.2851722  18.4283149  35.9312979  71.8324248  18.2494169
  34.9428742  72.5656388  17.6455477  35.2760053  72.2602691  18.2861864
  24.0765649  66.8811896  15.1636028  23.4518719  66.8930288  14.5561981
  23.7411243  67.3572071  15.8127268  23.9351140  66.9530413  15.1692597
  30.9897570  72.3835600  16.5778164  30.3754563  71.8393651  16.8726799
  31.5064855  71.8699837  16.0983980  30.9753232  72.2272009  16.5502393
  30.2293867  73.4539870  14.3122463  29.8021475  72.8289589  13.8787898
  30.2218811  73.1714792  15.1381470  30.1653008  73.3192651  14.3702290
  23.3456394  68.4905043  17.3810897  23.5049881  67.7348367  17.7862619
  23.1649287  69.0395983  18.0351634  23.3421753  68.4598857  17.5373603
  31.2876697  60.6566279  17.9361686  30.7917258  60.8529953  17.2453253
  32.0445759  61.0558947  17.7650488  31.3263522  60.7444013  17.8081823
  28.5579576  64.3308625  14.5264997  28.5822064  63.7968737  13.8377777
  28.8091050  63.8225934  15.1890587  28.5989495  64.1769529  14.5229641
  24.8380899  63.0579443  13.9070741  24.8779270  63.5588650  14.6205448
  24.0130563  63.1489837  13.6376664  24.7220425  63.1461259  13.9721279
  27.0210512  72.6240183  22.0091036  26.1706142  72.7611897  22.1448681
  27.1838639  71.8903961  22.4538737  26.9194375  72.5354284  22.0946635
  26.2595262  69.5739953  16.2044640  25.4287192  69.7413771  15.9979888
  26.2046779  69.1975904  16.9893525  26.1284677  69.5429684  16.2893168
  24.0679045  63.0648846  21.8401051  24.6931749  62.5210979  22.1130483
  23.6129525  62.5843763  21.2708841  24.0927306  62.9138327  21.7962645
  24.6331306  67.8495544   6.7334758  24.7734267  68.3468009   7.4363399
  25.1313839  67.1481839   6.8748971  24.7272387  67.8197523   6.8586337
  37.6414094  71.2478133  16.9313699  38.2331934  71.8875384  16.9631897
  38.0773089  70.5501170  17.2205766  37.7932525  71.2396483  16.9794531
  26.2410511  64.6476631   4.0372777  26.5626352  64.1679713   3.3832039
  26.5037455  65.4576277   3.8463588  26.3276537  64.6966529   3.9128269
  29.4707484  75.6695505  17.5571593  28.9632575  76.2231352  18.0012223
  29.1734130  75.7303795  16.7390367  29.3512369  75.7601816  17.5020049
  31.6369666  64.0348825  16.3996256  32.0624738  63.5821351  15.7879782
  31.0226659  63.4808896  16.6761043  31.6098312  63.8862801  16.3501281
  30.0763889  60.5063925   9.8086833  29.4332207  60.3561571  10.3771971
  29.7363296  60.2606270   9.0435937  29.9308966  60.4476047   9.7789848
  34.6663235  68.4623351   9.2316841  33.9954425  69.0053054   9.1029907
  35.3602986  68.9318207   8.9898536  34.6692103  68.6121623   9.1772369
  34.8291363  64.9179235  12.1407214  35.1818973  64.4908958  12.8153013
  33.9706164  64.8330079  12.2708291  34.7540808  64.8423976  12.2602225
  23.5275048  67.5486755  10.1990061  22.8087037  67.9650887  10.4662925
  23.8987410  68.1140994   9.6481699  23.4766980  67.6936036  10.1572868
  32.8274629  68.1814604  16.0892057  32.8072556  67.9997899  16.9426836
  32.8753829  69.0526622  16.0651640  32.8309270  68.2831142  16.2115351
  30.7720959  74.7701796  22.0140533  30.7316813  74.1251473  21.4285689
  31.5844277  74.7138413  22.3265945  30.8864112  74.6660763  21.9737482
  29.3021622  66.5884755   5.5363440  28.7086462  66.9101751   4.9848008
  29.3396900  65.7425850   5.3284547  29.2196011  66.5109083   5.4246212
  36.2615423  60.0397647  13.0691527  35.7546288  59.3326787  13.0012704
  37.0582857  59.7090836  13.1992604  36.3042662  59.8870798  13.0790522
  32.1779439  66.5464259   8.9665191  31.9493132  66.5696961   8.1243549
  32.4377515  65.7221726   9.0860201  32.1825627  66.4280339   8.8590388
  26.4598667  68.3998732  18.5690291  25.9477570  67.7919915  18.9275322
  26.2878163  69.1155325  19.0364267  26.3588304  68.4162032  18.6906515
  21.3064382  66.8436308  21.2192653  21.1366972  67.5037682  20.6740859
  20.8630332  67.0542869  21.9405142  21.2163716  66.9722290  21.2454282
  25.2324201  65.0840805  10.2619386  25.7081568  65.4457885   9.6269568
  24.7312801  65.7397273  10.5419529  25.2289560  65.2334994  10.2096127
  30.3367738  66.3222977  21.0092546  30.8939168  66.0936786  20.3771012
  30.0128803  67.0828642  20.7327759  30.3714148  66.4006814  20.8749044
  18.2066447  69.7483173  16.4781143  17.6593166  69.0783819  16.5962011
  18.9958825  69.3813021  16.5424610  18.2418630  69.5948160  16.5049843
  28.0550855  69.4090630  21.9744554  28.8062182  69.7242307  22.2884108
  28.2473431  69.2069801  21.1478475  28.1942269  69.4258012  21.8987949
  27.2750855  67.2282005   3.6292770  27.6549819  67.2461634   2.8443885
  26.5343451  67.6735994   3.5083618  27.2219692  67.2963780   3.4956339
  34.9036145  65.5364196   9.2168349  34.9030371  65.3812853  10.0752625
  34.6992325  66.3827184   9.1609735  34.8735923  65.6384817   9.3356288
  16.9653416  68.9603981  13.6327166  16.7875177  68.5080590  14.3582081
  16.6772438  69.7630142  13.8165643  16.8966369  69.0126539  13.7670668
  32.6276997  70.2161698  12.8704556  33.1230662  69.4984693  12.8308576
  31.8176773  69.9132496  12.7559043  32.5820890  70.0659345  12.8478282
  34.6928816  72.9665386  15.5581685  35.1183888  72.4439808  15.0052110
  34.3285736  73.5646223  15.0370308  34.7015419  72.9775613  15.3990694
  31.2807415  76.6799650  11.8882842  31.7518594  77.3939913  12.0572827
  31.6167594  76.0798400  12.4242712  31.4002530  76.6971114  11.9915218
  33.3684400  78.2900963  24.0674914  33.4781365  77.5009524  24.4231661
  33.6975297  78.2006900  23.2649252  33.4336806  78.1606816  24.0017305
  28.1976910  61.4527121  18.8440937  28.3304816  60.6558114  19.1721912
  28.5822063  61.9793524  19.4239213  28.2733239  61.4127037  18.9784440
  31.9181362  76.4717584  18.6510535  31.3702308  75.8475468  18.3830600
  32.3794390  76.6611856  17.9354614  31.9048571  76.4076634  18.5060966
  31.2709266  58.3757447  15.4422030  30.4655229  58.2655176  15.7589869
  31.1416001  58.4769902  14.5851896  31.1329398  58.3741117  15.3630071
  34.7275226  64.5402939  16.0361727  34.1438215  65.0412145  15.6239294
  35.0479520  64.0332495  15.4026050  34.6888401  64.5394774  15.8820234
  27.2670025  63.4543533   6.3120402  28.0885720  63.6241846   6.0702097
  26.8039676  63.6090794   5.5886699  27.3201187  63.5025266   6.1692046
  25.8565357  61.4486296  17.0918831  26.4009770  61.1077422  17.6823172
  25.9102293  62.3071757  17.2340115  25.9454477  61.5241555  17.2000704
  31.4839688  77.4768657  15.1819876  32.3038062  77.3331623  15.4436171
  31.2033766  78.1014856  15.7236314  31.5636431  77.5479009  15.3007815
  37.6403938  79.5636195  24.3171001  37.3257379  80.3335758  24.0540564
  37.3193870  79.0006451  23.7323228  37.5462857  79.5946464  24.1912351
  44.3168723  78.1004576  18.2628520  45.0622316  77.9114387  17.8491945
  43.9006028  78.6262814  17.7042376  44.3653698  78.1506722  18.1193093
  37.1248200  79.7922385  17.9856660  36.9331398  79.8077520  18.8356084
  37.9746796  79.9886060  17.9623315  37.2223922  79.8236737  18.1079955
  40.0352428  79.9877895  18.1928483  40.4925042  80.7201869  18.3201276
  40.1108756  79.5644360  18.9515739  40.1143397  80.0335133  18.3229560
  38.5006458  77.0324801  14.4614459  37.9844946  76.3404992  14.5866038
  37.9400387  77.6995578  14.4077057  38.3412971  77.0288058  14.4720525
  40.5698691  77.5717761  16.2907311  40.1830444  77.5966792  17.0720841
  40.0831628  77.0059439  15.8381828  40.4411200  77.4913512  16.3395215
  40.2355833  74.4584746  18.5817571  40.8648951  74.9945046  18.3038641
  40.4041696  74.3662105  19.4331137  40.3533627  74.5246108  18.6666099
  40.0369748  79.2455941  20.8543983  40.8643177  78.9741090  20.9102597
  40.0577594  80.0416783  21.2107801  40.1622598  79.3235695  20.9159166
  42.2609280  76.1751587  17.9361686  41.7649842  76.3715261  17.2453253
  43.0178342  76.5744255  17.7650488  42.2996105  76.2629321  17.8081823
  35.8113482  78.5764751  13.9070741  35.8511854  79.0773958  14.6205448
  34.9863147  78.6675145  13.6376664  35.6953008  78.6646567  13.9721279
  35.0411629  78.5834154  21.8401051  35.6664332  78.0396287  22.1130483
  34.5862109  78.1029071  21.2708841  35.0659890  78.4323635  21.7962645
  42.6102250  79.5534133  16.3996256  43.0357321  79.1006659  15.7879782
  41.9959243  78.9994203  16.6761043  42.5830895  79.4048109  16.3501281
  39.1709494  76.9712429  18.8440937  39.3037400  76.1743422  19.1721912
  39.5554647  77.4978832  19.4239213  39.2465823  76.9312345  18.9784440
  42.2441849  73.8942755  15.4422030  41.4387813  73.7840484  15.7589869
  42.1148585  73.9955210  14.5851896  42.1061982  73.8926425  15.3630071
  36.8297941  76.9671604  17.0918831  37.3742354  76.6262730  17.6823172
  36.8834876  77.8257065  17.2340115  36.9187060  77.0426863  17.2000704
  22.2132397  36.3903201   9.4416186  22.9199164  35.8955231   9.5703120
  22.4020332  36.8312282   8.7118844  22.3460302  36.3821551   9.3525231
  19.3524691  39.8130737   7.3330261  19.4408037  39.6256877   8.1808471
  19.7814403  39.1668167   6.9335108  19.4286793  39.6893745   7.4002012
  16.9195151  39.0961897   6.3147923  16.3565986  38.6834507   6.8387584
  17.6816174  39.0214803   6.7341066  16.9489599  39.0239298   6.4540924
  13.5270049  31.3235505   8.0464968  13.6990552  31.2141400   8.8950250
  14.0639406  31.9689911   7.8096161  13.6315053  31.4027507   8.1370065
  19.4644750  39.2439756   9.9974045  20.2485167  39.3570604  10.3629787
  19.2641345  38.4180893  10.1932730  19.5510776  39.1386475  10.0808431
  19.6215144  41.1549858   3.6440500  18.8230389  40.9149358   3.9014369
  20.0701155  41.2064251   4.3907548  19.5689755  41.1272249   3.7925424
  18.6815880  34.9010303  11.5360688  17.8888861  35.2153815  11.7213308
  18.7964808  35.1161771  10.6981473  18.5811291  34.9794140  11.4399023
  19.6099673  34.8030507   6.4745985  20.1838535  34.1657751   6.6294549
  19.5314477  34.8034589   5.6055643  19.6832908  34.7095618   6.3692396
  24.9319821  36.1739484   6.4830838  24.6958458  35.3427549   6.3642899
  25.5763050  36.1225092   7.0685682  24.9914492  36.0437172   6.5516732
  15.3889595  25.4643711  11.2511048  15.0743036  26.2343273  10.9880611
  15.0679527  24.9013967  10.6663275  15.2948514  25.4953979  11.1252398
  25.9556242  35.9583933   2.5459133  25.6502059  36.6911990   2.9072448
  25.2362457  35.5521863   2.2651919  25.8043584  36.0065666   2.5572270
  31.6558034  32.5976934   1.8727477  31.5882534  32.6172893   1.0030064
  31.6413696  33.4407261   2.0983148  31.6436790  32.7250669   1.7779954
  16.0939042  35.2059917   4.6933965  15.5950736  35.9175685   4.7718853
  16.9039266  35.5260584   4.6552127  16.1395149  35.3586766   4.6990533
  15.0206100  28.0640962   9.9896263  14.2105876  28.3698741   9.8786105
  15.4980787  28.7846544  10.1048847  14.9709579  28.2155563   9.9903334
  23.3067411  36.7671332   0.8311793  23.1681771  37.4652377   1.3360535
  22.5267409  36.6119988   0.4747975  23.1710638  36.8471498   0.8538067
  21.6445497  33.0667707   7.0834175  21.6393535  32.1947524   7.0876601
  22.3506490  33.2655876   6.6103630  21.7490501  32.9671581   7.0141210
  15.3716390  32.7944691   6.4547995  15.5159766  33.3745899   5.8191105
  15.7192039  33.1720988   7.1597849  15.4443851  32.9365395   6.4646990
  14.4444145  40.9847463   3.3209022  14.5933709  40.4250379   2.6682426
  15.2244147  41.0639464   3.7041540  14.5818239  40.9133028   3.2805971
  16.9697446  41.1562106   4.5993512  16.8941117  40.4870916   5.1544301
  16.8987305  41.8579894   5.1134179  16.9478052  41.1607013   4.7570361
  16.3589080  44.5630425   3.0571513  16.8485010  43.8641215   2.8747178
  15.7873312  44.2654295   3.6447571  16.3473610  44.4156649   3.1172554
  22.5556083  37.1292495  12.0098304  23.3690949  36.8577644  12.1703436
  22.3951050  36.8300035  11.2058500  22.6526032  37.0447421  11.9143710
  21.9967333  29.4215217   5.8876999  21.1844015  29.1141107   5.9690172
  22.4557268  28.9414217   6.4519712  21.9447718  29.3051709   5.9831593
  19.0920841  30.8275289  10.6705702  19.5620472  31.4517405  11.0573576
  19.1382721  30.1592264  11.2298916  19.1688717  30.8209969  10.8105773
  22.5677327  38.1898785   7.2821145  23.2057048  37.6958981   6.9483601
  21.9251419  38.1176186   6.6973371  22.5671554  38.1057794   7.1463499
  22.6231584  38.8818593   3.9226501  23.4123962  38.5307658   4.0428583
  22.7975182  39.6954982   3.6603135  22.7651866  38.9504450   3.9014369
  14.2359910  37.4358439   4.9323985  14.1280265  37.4460501   5.7986043
  14.4455692  38.2613219   4.7428939  14.2510021  37.5599514   5.0328077
  28.3724124  34.5176851   3.3923201  28.4307248  34.9663500   4.1383178
  27.7390591  34.9275664   2.9553281  28.2875419  34.6450586   3.4375750
  22.0123219  40.1380393  -0.1722053  21.8142907  40.6271207  -0.8665841
  21.3910930  40.3421634   0.4062081  21.8910783  40.2396931  -0.1898829
  23.9297020  33.7044545   5.3623196  24.6531219  33.2517072   5.1834216
  23.6646983  33.9849211   4.5795524  23.9978294  33.6795514   5.2201911
  15.7428752  34.0433006   8.9431082  14.8924382  34.1804721   9.0788727
  15.9056880  33.3096785   9.3878784  15.6412615  33.9547107   9.0286682
  26.3632334  32.6670956   3.8653746  26.9550175  33.3068207   3.8971944
  26.7991329  31.9693993   4.1545812  26.5150766  32.6589306   3.9134578
  18.1925724  37.0888328   4.4911640  17.6850815  37.6424175   4.9352270
  17.8952370  37.1496618   3.6730414  18.0730609  37.1794640   4.4360096
  17.4368210  42.0212887   1.3968646  17.2133864  41.2631716   1.7652673
  16.9478053  42.0510908   0.6749086  17.3311659  41.9135111   1.3445387
  19.4939199  36.1894619   8.9480580  19.4535054  35.5444296   8.3625736
  20.3062517  36.1331236   9.2605992  19.6082352  36.0853586   8.9077529
  19.0585978  27.7415800   7.9432593  19.6157408  27.5129610   7.3111059
  18.7347043  28.5021466   7.6667806  19.0932388  27.8199637   7.8089090
  16.7769095  30.8283453   8.9084600  17.5280422  31.1435130   9.2224155
  16.9691672  30.6262624   8.0818522  16.9160509  30.8450835   8.8327996
  23.4147056  34.3858209   2.4921731  23.8402128  33.8632631   1.9392157
  23.0503976  34.9839046   1.9710354  23.4233659  34.3968436   2.3330741
  13.0501136  42.6822427   1.2519077  13.3647695  43.4958815   1.2596859
  13.4594549  42.2972645   1.9201236  13.1569234  42.7451129   1.3523169
  22.0902640  39.7093787  11.0014961  22.1999606  38.9202347  11.3571708
  22.4193537  39.6199723  10.1989299  22.1555046  39.5799640  10.9357352
  20.6399602  37.8910407   5.5850582  20.0920548  37.2668291   5.3170647
  21.1012631  38.0804679   4.8694661  20.6266812  37.8269458   5.4401013
  20.2057928  38.8961480   2.1159923  21.0256302  38.7524446   2.3776218
  19.9252006  39.5207679   2.6576361  20.2854672  38.9671832   2.2347862
  36.6771579  46.5526332  -4.9197201  36.6465583  47.4070969  -4.7478931
  37.2752928  46.2521624  -4.3611057  36.7608737  46.6342828  -4.8122399
  29.8771264  45.6401983  -0.1644270  29.0209159  45.8010481  -0.1135154
  29.9238917  44.7694047  -0.1439209  29.7570375  45.5352785  -0.1538204
  33.1864980  51.9088508   9.4416186  33.8931747  51.4140539   9.5703120
  33.3752916  52.3497590   8.7118844  33.3192886  51.9006859   9.3525231
  32.7223085  47.6994027   2.4787381  33.2679045  48.3779113   2.5381351
  32.6639961  47.5581488   1.6188963  32.7938999  47.7786028   2.3599442
  25.8397159  55.1883093  -2.1344266  25.9407522  54.3783447  -1.8247139
  25.2438905  55.0940039  -2.7644588  25.7669698  55.0548121  -2.1818028
  25.6797899  60.1060682  -0.7329410  26.3235355  60.5473846  -0.3433252
  26.0054155  59.3014108  -0.8199152  25.8229728  60.0525877  -0.6883933
  21.3352291  43.3789110   0.3892375  20.7157323  42.7881757   0.2202390
  21.2336155  43.9700545  -0.2443302  21.2289967  43.3793193   0.2697365
  28.4320187  45.1188652  -5.2775162  29.1300352  45.2976779  -4.7853699
  28.7472519  44.5958991  -5.9004773  28.5815524  45.0682424  -5.2973152
  21.0621424  46.9241392   2.6335944  20.9380121  47.5103837   3.2685763
  21.7139709  46.4301587   2.9348219  21.1395074  46.9380196   2.7721873
  28.6208122  51.5059097  -5.2895370  29.0601758  50.8976197  -4.8440598
  28.4712785  51.1266470  -6.0609905  28.6629588  51.3597568  -5.3376203
  26.0879765  50.1003109   1.9123455  26.7328768  49.6075552   1.5934404
  26.3281542  50.2427895   2.7389533  26.2190350  50.0480551   1.9872988
  28.6265857  52.9458015   1.5630348  28.9089099  52.1509420   1.3417103
  29.3552017  53.4238602   1.5835409  28.7755420  52.8992611   1.5333363
  26.6047050  40.4881048  -1.1953887  26.2750380  40.9392192  -1.8650189
  25.9292052  40.4097212  -0.6480881  26.4557487  40.5432184  -1.2130664
  33.8123458  36.4766571  -2.9504277  33.4976899  37.1670050  -2.5183854
  33.2950400  36.4211354  -3.6518776  33.6887929  36.5701460  -2.9907328
  38.6083945  52.0517377  -1.4633822  37.7781648  52.2628020  -1.3000405
  38.5593197  51.2254431  -1.7391538  38.4790680  51.9606983  -1.4796456
  26.6693683  54.8821231   1.3714088  26.1520624  54.5228646   0.7675396
  27.3668074  54.3583405   1.3820154  26.6959264  54.7518919   1.2844347
  30.3257275  55.3316045   7.3330261  30.4140620  55.1442185   8.1808471
  30.7546987  54.6853475   6.9335108  30.4019377  55.2079053   7.4002012
  27.8927734  54.6147205   6.3147923  27.3298569  54.2019815   6.8387584
  28.6548758  54.5400111   6.7341066  27.9222183  54.5424605   6.4540924
  23.4523726  56.6045226  -1.0815447  24.1544305  56.0897215  -1.0242690
  23.3721209  56.9319377  -0.2768572  23.5447486  56.5759452  -0.9542655
  38.1037903  44.6987777   2.3316600  37.2666324  44.7689964   2.5664194
  38.0726134  44.7012272   1.4590902  37.9756186  44.7098004   2.2376148
  24.5002632  46.8420813   8.0464968  24.6723136  46.7326708   8.8950250
  25.0371990  47.4875218   7.8096161  24.6047636  46.9212815   8.1370065
  22.7774501  52.7951578  -1.5729839  23.6163401  53.0274511  -1.5256077
  22.8086270  51.9255890  -1.6422803  22.9056219  52.7008525  -1.5765194
  23.4027204  53.2152453   2.7283467  23.9425429  53.0723584   3.3986839
  22.7197150  53.6149204   3.0967493  23.3819358  53.2532124   2.8817889
  32.8268089  48.8943454  -2.0771509  33.5825604  49.3274968  -2.0382600
  32.9330413  48.2448224  -1.5036873  32.9538260  48.8620938  -1.9873483
  35.8648260  52.7216731  -1.3269106  35.4283492  52.7253474  -0.5710134
  35.5311176  53.4022230  -1.7589528  35.7510880  52.8229187  -1.2788273
  30.4377334  54.7625064   9.9974045  31.2217750  54.8755912  10.3629787
  30.2373928  53.9366201  10.1932730  30.5243359  54.6571783  10.0808431
  18.8064349  49.4352744   2.8817888  18.5402764  48.6191861   3.0408879
  18.8202913  49.4805900   2.0113404  18.7689072  49.3209649   2.7771370
  35.7845743  39.7630559   0.9160322  36.4271652  39.8328664   1.5022237
  36.0368764  39.0959782   0.4139864  35.9167875  39.6756908   0.9287601
  23.5562956  42.9731122   5.5284896  22.8634752  42.5028102   5.7745628
  24.1723283  42.7469427   6.1026603  23.5447486  42.8698254   5.6494049
  30.5947727  56.6735166   3.6440500  29.7962973  56.4334666   3.9014369
  31.0433739  56.7249559   4.3907548  30.5422338  56.6457557   3.7925424
  38.9992606  49.4397651  -2.4349469  39.6609040  48.8788320  -2.5353560
  38.3584018  48.9449682  -2.1096777  39.0021474  49.2834060  -2.4017128
  19.2157763  50.2211524   0.1629633  19.0333336  50.1958410  -0.6898075
  19.9507432  50.6910461   0.2018541  19.2971827  50.2872886   0.0427551
  35.2857437  50.4563033  -2.6937480  35.5213026  50.6008232  -3.5210629
  35.4347001  51.2205441  -2.3005966  35.3423240  50.5902088  -2.7573876
  22.2803515  46.9396526   6.6711741  23.0043487  46.9249557   7.1576636
  22.3819651  47.6491882   6.1733710  22.4021724  47.0421230   6.6690528
  29.6548464  50.4195611  11.5360688  28.8621445  50.7339123  11.7213308
  29.7697391  50.6347079  10.6981473  29.5543875  50.4979448  11.4399023
  32.3279783  47.1429602  -4.1744296  32.4226637  47.8818896  -3.7204670
  31.7038626  46.7147078  -3.7409731  32.2488813  47.1890923  -4.0436148
  30.5832257  50.3215815   6.4745985  31.1571118  49.6843059   6.6294549
  30.5047061  50.3219897   5.6055643  30.6565492  50.2280926   6.3692396
  19.1828673  47.1005024   0.3128699  19.7602176  46.9641475   0.9520945
  18.4842735  46.6440808   0.5674284  19.1649695  47.0127290   0.4450989
  25.9395975  48.7539080  -1.4732818  25.6815220  47.9210815  -1.5001518
  25.9944458  48.9796693  -2.3140317  25.9095753  48.6636851  -1.6012681
  31.0197026  40.8567531  -1.3728725  30.3153352  40.3676716  -1.2144806
  31.0682000  40.8690005  -2.2440280  30.9227077  40.7857179  -1.4789385
  24.9130688  46.3076842  -0.9867923  24.3380279  46.4669011  -0.3503962
  24.5366364  45.6712251  -1.4499472  24.7733500  46.2374655  -0.9613364
  28.5803976  44.7800192   3.8724456  28.1918409  44.3554409   3.2176647
  27.9158675  45.0282341   4.3801482  28.4250904  44.7538913   3.8512324
  38.2227245  44.5375196  -3.3527714  37.9663810  43.7255138  -3.5429832
  39.0656559  44.5452763  -3.5797527  38.3093271  44.4187194  -3.4142897
  32.4030338  38.4774820   1.3848440  32.7840849  37.7952991   1.7716314
  31.5993622  38.1884422   1.2024104  32.3406799  38.3341869   1.4152496
  35.9052405  51.6924792   6.4830838  35.6691042  50.8612857   6.3642899
  36.5495634  51.6410400   7.0685682  35.9647075  51.5622480   6.5516732
  25.5550823  52.4820314  -2.8026425  26.1924770  52.2432061  -2.2574632
  25.9805894  52.6857473  -3.5373265  25.7126989  52.4771324  -2.8309268
  20.2463465  54.7208650   1.0807878  20.2867610  54.9923501   0.2527658
  20.8057989  55.2450558   1.4965666  20.3346811  54.8384405   1.0199767
  26.3622178  40.9829019  11.2511048  26.0475619  41.7528581  10.9880611
  26.0412111  40.4199275  10.6663275  26.2681097  41.0139287  11.1252398
  36.9288825  51.4769241   2.5459133  36.6234642  52.2097298   2.9072448
  36.2095041  51.0707171   2.2651919  36.7776168  51.5250974   2.5572270
  27.9372295  52.9592736  -1.1232639  28.0111303  52.7967908  -0.2690789
  28.7541801  53.1482926  -1.3672157  28.0688653  52.9629479  -1.0334613
  33.0386964  39.5197399   5.1968566  33.7840556  39.3307210   4.7831992
  32.6224268  40.0455637   4.6382423  33.0871938  39.5699545   5.0533140
  40.4149235  46.8906628   0.1474071  40.9657156  46.2574697   0.3871163
  40.3993350  47.4222021   0.8389576  40.4934431  46.8755576   0.2852930
  27.0671626  50.7245225   4.6933965  26.5683319  51.4360993   4.7718853
  27.8771850  51.0445892   4.6552127  27.1127732  50.8772074   4.6990533
  23.3299743  49.9868178  -1.0603314  23.0412992  49.3605650  -0.5257587
  24.1983091  49.9288466  -0.9938634  23.4159995  49.8855722  -0.9712360
  34.1177641  45.1302962  -0.7421332  33.7742407  44.4093297  -0.3914083
  34.2170683  44.9216813  -1.5842974  34.0819684  44.9927165  -0.8149652
  25.9938684  43.5826270   9.9896263  25.1838459  43.8884049   9.8786105
  26.4713370  44.3031852  10.1048847  25.9442162  43.7340871   9.9903334
  24.8530243  52.7971991   0.2379166  24.3310997  52.9372282   0.9231031
  25.2404263  52.0382655   0.4281284  24.8333944  52.7057514   0.3680243
  26.2796569  49.8276010  -4.3639343  26.0839351  50.4350744  -4.9579040
  26.5030914  49.1343954  -4.8447669  26.2831210  49.8153535  -4.5223262
  24.6775099  46.7130748  -4.2458474  25.3997751  46.8771906  -4.7054668
  24.1983092  47.4340412  -4.3519135  24.7138829  46.8428977  -4.3292860
  32.6368606  43.0494546   1.1338211  31.7979707  43.0755825   0.8976474
  32.7072974  43.6965282   1.7143557  32.5237000  43.1490672   1.1847327
  22.3282715  49.1188820   4.8595665  22.8403812  49.3973073   4.2104425
  22.0419058  49.8578114   5.2258478  22.3617579  49.2691174   4.8185543
  31.0837885  39.9479923  -4.1334174  31.7864237  39.7487672  -4.6114215
  30.8182073  39.1755866  -3.8265330  31.1484517  39.8042889  -4.1588732
  36.5126130  48.2562533  -1.5800548  36.4260105  48.4117959  -0.7265769
  36.0576610  48.9000609  -1.9541143  36.4329387  48.3738288  -1.5093441
  25.8466441  41.2115209   4.9196707  25.6549638  41.2270343   5.7696131
  26.6965037  41.4078883   4.8963362  25.9442163  41.2429560   5.0420002
  20.2313354  43.7406190   2.8980523  20.0898846  42.8890131   3.0225031
  20.5153917  43.7834851   2.0742730  20.2521200  43.6205940   2.7948148
  30.3851946  45.5773280  -2.9574988  30.1386661  45.4969031  -2.1238199
  30.7137069  44.7926748  -3.1512461  30.3973190  45.4499546  -2.8627465
  34.2799995  52.2856640   0.8311793  34.1414354  52.9837685   1.3360535
  33.4999993  52.1305296   0.4747975  34.1443222  52.3656806   0.8538067
  32.6178080  48.5853015   7.0834175  32.6126119  47.7132831   7.0876601
  33.3239074  48.7841184   6.6103630  32.7223084  48.4856889   7.0141210
  26.3448974  48.3129999   6.4547995  26.4892349  48.8931207   5.8191105
  26.6924622  48.6906296   7.1597849  26.4176435  48.4550703   6.4646990
  28.5168891  47.5120167   4.2373126  27.7692205  47.7051182   3.8321405
  28.6710416  46.6865387   3.9997248  28.4291318  47.4185279   4.1418532
  25.4176729  56.5032771   3.3209022  25.5666292  55.9435687   2.6682426
  26.1976731  56.5824772   3.7041540  25.5550822  56.4318336   3.2805971
  27.9430029  56.6747414   4.5993512  27.8673700  56.0056224   5.1544301
  27.8719888  57.3765202   5.1134179  27.9210636  56.6792321   4.7570361
  28.7570668  41.4070718   5.1268530  29.2143282  42.1394692   5.2541322
  28.8326997  40.9837183   5.8855786  28.8361638  41.4527956   5.2569607
  21.0003659  41.6536538   6.2157974  20.4645849  41.0416896   6.5318741
  21.0621424  42.2284674   6.8691640  20.9299292  41.6483465   6.3593401
  33.2297994  34.5860593  -1.0037627  33.3481562  35.0437056  -1.7370324
  33.0560170  33.7805854  -1.2901409  33.2217165  34.5354365  -1.1536693
  26.6353046  43.3972822   1.9710354  25.8449121  43.2164282   2.2927690
  27.0313669  42.6199774   1.9540649  26.5769922  43.2560283   2.0162903
  32.0196732  51.0315252  -0.3030200  31.3441734  50.8000484   0.1983187
  32.0289108  50.4236435  -0.9288095  31.9215237  50.9074177  -0.3214048
  29.1490876  45.8733081   6.4533853  29.0850017  46.7343037   6.3253990
  29.2888064  45.5565074   5.6529404  29.1606346  45.9533248   6.3162066
  27.8309970  48.5665220   0.5950056  27.4072219  48.7669719  -0.1410926
  27.6554825  47.7194068   0.7074356  27.7420851  48.4714002   0.5023746
  27.3321663  60.0815733   3.0571513  27.8217594  59.3826523   2.8747178
  26.7605896  59.7839603   3.6447571  27.3206193  59.9341957   3.1172554
  23.1192415  49.0617272  -3.9721971  23.2757034  48.9964075  -3.1165979
  23.4593008  49.8365824  -4.1843292  23.1925650  49.1666470  -3.8767377
  29.6571560  48.4375155  -5.1028608  30.1987105  47.9345536  -4.6389988
  29.9718119  48.3840350  -5.9139123  29.7835957  48.3554576  -5.1544796
  33.5288667  52.6477803  12.0098304  34.3423532  52.3762952  12.1703436
  33.3683633  52.3485343  11.2058500  33.6258615  52.5632729  11.9143710
  30.8060829  43.3311460   4.9493692  31.0202799  42.6922374   4.3957046
  30.1894728  43.7757284   4.5201554  30.7466158  43.3021604   4.8044123
  19.6926676  46.2452222  -3.6561204  20.0725641  46.6636767  -4.3200937
  19.1182041  46.8265678  -3.3492361  19.6638001  46.3930081  -3.7084463
  32.9699917  44.9400525   5.8876999  32.1576599  44.6326415   5.9690172
  33.4289852  44.4599525   6.4519712  32.9180302  44.8237017   5.9831593
  30.1975558  36.4411396  -0.0618965  29.3269116  36.4150117  -0.1085656
  30.4515899  36.2688588  -0.8793119  30.1069118  36.4121539  -0.1898828
  30.0653424  46.3460596  10.6705702  30.5353056  46.9702713  11.0573576
  30.1115305  45.6777572  11.2298916  30.1421300  46.3395277  10.8105773
  27.2224698  38.4517624   1.3954505  26.7063187  37.7597815   1.5206084
  26.6618627  39.1188401   1.3417104  27.0631211  38.4480882   1.4060571
  29.2916932  38.9910584   3.2247358  28.9048685  39.0159615   4.0060888
  28.8049869  38.4252263   2.7721875  29.1629440  38.9106335   3.2735262
  33.5409911  53.7084093   7.2821145  34.1789632  53.2144289   6.9483601
  32.8984003  53.6361493   6.6973371  33.5404138  53.6243101   7.1463499
  35.2666911  45.5573239   1.8487060  34.8394519  45.4699588   1.0935160
  34.6292964  45.6651014   2.4341904  35.1096518  45.5605899   1.8232502
  28.9574073  35.8777569   5.5157618  29.5867191  36.4137870   5.2378688
  29.1259936  35.7854928   6.3671184  29.0751868  35.9438932   5.6006146
  28.7587988  40.6648764   7.7884029  29.5861418  40.3933913   7.8442644
  28.7795834  41.4609606   8.1447848  28.8840838  40.7428518   7.8499212
  33.5964168  54.4003901   3.9226501  34.3856546  54.0492966   4.0428583
  33.7707765  55.2140290   3.6603135  33.7384449  54.4689758   3.9014369
  23.3357478  47.8112627   0.9754290  22.4945485  47.7116501   1.1833184
  23.5447486  48.5808107   1.3268611  23.2422171  47.9104670   1.0581605
  20.8133045  45.4332164  -1.1960959  20.4189743  45.5075176  -1.9710850
  20.2573162  45.8190110  -0.6452597  20.6735857  45.5013939  -1.2293299
  32.4497992  38.4113458  -1.5157080  32.6547585  38.3435766  -0.6700083
  32.1224416  39.2172279  -1.5835903  32.4313240  38.5199398  -1.3997425
  27.1474143  45.7394026   0.2251888  26.8437280  45.1850014   0.8262295
  26.4453564  45.9186236  -0.2620078  26.9990353  45.6838809   0.2421593
  25.2092494  52.9543747   4.9323985  25.1012849  52.9645809   5.7986043
  25.4188275  53.7798527   4.7428939  25.2242605  53.0784822   5.0328077
  35.7031679  38.9645222  -2.0354315  35.0905993  39.4515624  -1.6500583
  35.7995854  38.2888713  -1.4916664  35.6269577  38.9363531  -1.8975457
  23.2266286  50.2056389   2.3945923  22.6354219  50.8465887   2.3648938
  23.9887309  50.6294007   2.3677223  23.2514546  50.3632228   2.3861070
  23.6226909  41.3658387   3.0613941  24.0828390  41.4397316   3.7989064
  23.6683015  42.1639641   2.7113762  23.6977464  41.4952534   3.1186697
  25.2710258  42.0325082   7.6285968  24.8795824  41.3858429   8.0641746
  25.4396121  42.6236517   8.2480223  25.2381169  42.0239350   7.7848674
  39.3456707  50.0362159   3.3923201  39.4039831  50.4848808   4.1383178
  38.7123175  50.4460972   2.9553281  39.2608003  50.1635894   3.4375750
  32.9855802  55.6565701  -0.1722053  32.7875491  56.1456515  -0.8665841
  32.3643513  55.8606942   0.4062081  32.8643367  55.7582239  -0.1898829
  27.0463780  47.4250598  -5.8311808  27.7905825  47.8124874  -5.5928858
  27.1924477  46.5808023  -5.6671320  27.1774366  47.3581071  -5.7717839
  28.9643356  39.2200857  -0.7979947  28.1179401  39.3923664  -0.9238597
  28.9614488  38.4150200  -0.4614119  28.8390506  39.1261886  -0.7668820
  30.0341656  42.9976071   0.0682111  29.5601611  42.4717833   0.5787422
  30.4059792  42.4505544  -0.5003027  30.0191545  42.8392068   0.0597258
  20.4114686  44.9947578   5.4365657  21.2740299  44.8943287   5.3502987
  20.0806469  44.4142287   4.8751229  20.4899883  44.8939204   5.3411063
  36.2978387  48.0578447   1.4788892  36.0576610  47.2184862   1.4831318
  36.7770394  48.1378613   2.2029665  36.3330571  47.9459846   1.5863694
  38.2983574  44.8379904  -0.5681849  38.0593344  44.7975738  -1.4061065
  38.4617475  45.6851056  -0.4416128  38.2873877  44.9571989  -0.6728367
  34.9029604  49.2229853   5.3623196  35.6263803  48.7702380   5.1834216
  34.6379566  49.5034519   4.5795524  34.9710877  49.1980822   5.2201911
  23.7716472  43.8190027   2.0976075  23.1469543  43.8308419   1.4902028
  23.4362067  44.2950202   2.7467315  23.6301964  43.8908544   2.1032644
  20.4842148  51.8790487   3.5379839  19.9542073  51.1882926   3.5874814
  20.7567241  51.8700672   2.7092548  20.4466870  51.7757619   3.4227255
  30.6848394  49.3213731   3.5118211  30.0705387  48.7771782   3.8066846
  31.2015678  48.8077968   3.0324027  30.6704056  49.1650140   3.4842439
  29.9244691  50.3918001   1.2462510  29.4972299  49.7667720   0.8127945
  29.9169635  50.1092923   2.0721517  29.8603832  50.2570782   1.3042337
  23.0407218  45.4283174   4.3150944  23.2000705  44.6726499   4.7202665
  22.8600111  45.9774114   4.9691681  23.0372577  45.3976988   4.4713650
  30.9827521  37.5944410   4.8701733  30.4868082  37.7908084   4.1793300
  31.7396583  37.9937078   4.6990535  31.0214345  37.6822144   4.7421870
  28.2530400  41.2686756   1.4605044  28.2772888  40.7346868   0.7717824
  28.5041874  40.7604065   2.1230634  28.2940319  41.1147660   1.4569688
  24.5331723  39.9957574   0.8410788  24.5730094  40.4966781   1.5545495
  23.7081387  40.0867968   0.5716711  24.4171249  40.0839391   0.9061326
  26.7161336  49.5618314   8.9431082  25.8656966  49.6990028   9.0788727
  26.8789463  48.8282092   9.3878784  26.6145199  49.4732415   9.0286682
  25.9546086  46.5118084   3.1384687  25.1238016  46.6791902   2.9319935
  25.8997603  46.1354035   3.9233572  25.8235501  46.4807815   3.2233215
  23.7629869  40.0026977   8.7741098  24.3882573  39.4589110   9.0470530
  23.3080349  39.5221895   8.2048888  23.7878130  39.8516458   8.7302691
  37.3364918  48.1856264   3.8653746  37.9282758  48.8253515   3.8971944
  37.7723913  47.4879301   4.1545812  37.4883349  48.1774614   3.9134578
  29.1658308  52.6073636   4.4911640  28.6583399  53.1609483   4.9352270
  28.8684954  52.6681926   3.6730414  29.0463193  52.6979948   4.4360096
  31.3320490  40.9726956   3.3336302  31.7575562  40.5199482   2.7219829
  30.7177483  40.4187027   3.6101090  31.3049135  40.8240932   3.2841328
  34.3614059  45.4001483  -3.8343112  33.6905249  45.9431185  -3.9630046
  35.0553810  45.8696338  -4.0761417  34.3642927  45.5499754  -3.8887584
  28.4100793  57.5398195   1.3968646  28.1866448  56.7817024   1.7652673
  27.9210636  57.5696216   0.6749086  28.3044242  57.4320419   1.3445387
  34.5242187  41.8557366  -0.9252739  34.8769797  41.4287089  -0.2506940
  33.6656988  41.7708210  -0.7951662  34.4491632  41.7802107  -0.8057728
  23.2225872  44.4864886  -2.8669892  22.5037861  44.9029019  -2.5997029
  23.5938234  45.0519125  -3.4178254  23.1717804  44.6314167  -2.9087085
  32.5225453  45.1192735   3.0232104  32.5023380  44.9376030   3.8766882
  32.5704653  45.9904753   2.9991687  32.5260094  45.2209273   3.1455398
  27.0579250  57.7598653  -1.1494269  26.6439649  57.0972783  -1.5390427
  27.7426624  57.9076512  -1.6698575  27.0977622  57.6839311  -1.2837772
  30.4244544  56.9188738  -0.3970652  30.0260827  57.0291008  -1.1649832
  29.8095764  57.1270804   0.1855907  30.2743434  56.9662306  -0.4239353
  35.9566247  36.9775778   0.0031574  35.4497112  36.2704918  -0.0647249
  36.7533681  36.6468967   0.1332650  35.9993486  36.8248929   0.0130569
  31.8730263  43.4842390  -4.0994762  31.6443956  43.5075092  -4.9416404
  32.1328339  42.6599857  -3.9799752  31.8776451  43.3658470  -4.2069565
  26.1549491  45.3376863   5.5030338  25.6428394  44.7298046   5.8615369
  25.9828987  46.0533456   5.9704314  26.0539128  45.3540163   5.6246561
  21.0015206  43.7814439   8.1532700  20.8317796  44.4415814   7.6080906
  20.5581156  43.9921000   8.8745189  20.9114540  43.9100421   8.1794329
  24.9275025  42.0218937  -2.8040567  25.4032392  42.3836016  -3.4390386
  24.4263625  42.6775404  -2.5240424  24.9240384  42.1713125  -2.8563826
  30.0318562  43.2601108   7.9432593  30.5889992  43.0314918   7.3111059
  29.7079627  44.0206774   7.6667806  30.0664972  43.3384945   7.8089090
  17.9017270  46.6861304   3.4121189  17.3543990  46.0161950   3.5302058
  18.6909649  46.3191152   3.4764657  17.9369454  46.5326291   3.4389890
  27.7501679  46.3468761   8.9084600  28.5013006  46.6620438   9.2224155
  27.9424255  46.1447932   8.0818522  27.8893093  46.3636143   8.8327996
  34.5986969  42.4742328  -3.8491604  34.5981195  42.3190984  -2.9907328
  34.3943149  43.3205315  -3.9050219  34.5686747  42.5762948  -3.7303665
  16.6604240  45.8982112   0.5667212  16.4826001  45.4458721   1.2922128
  16.3723262  46.7008273   0.7505690  16.5917193  45.9504670   0.7010715
  32.3227821  47.1539829  -0.1955397  32.8181486  46.4362824  -0.2351377
  31.5127597  46.8510627  -0.3100910  32.2771714  47.0037476  -0.2181671
  34.3879640  49.9043517   2.4921731  34.8134711  49.3817939   1.9392157
  34.0236560  50.5024354   1.9710354  34.3966242  49.9153744   2.3330741
  24.0233720  58.2007734   1.2519077  24.3380279  59.0144123   1.2596859
  24.4327133  57.8157953   1.9201236  24.1301818  58.2636437   1.3523169
  30.9758239  53.6177781  -1.1777111  31.4469418  54.3318044  -1.0087126
  31.3118418  53.0176531  -0.6417242  31.0953354  53.6349245  -1.0744735
  33.0635224  55.2279095  11.0014961  33.1732189  54.4387655  11.3571708
  33.3926121  55.1385031  10.1989299  33.1287630  55.0984947  10.9357352
  27.8927734  38.3905252   5.7780984  28.0255640  37.5936245   6.1061959
  28.2772887  38.9171655   6.3579259  27.9684063  38.3505168   5.9124487
  31.6132186  53.4095715   5.5850582  31.0653132  52.7853599   5.3170647
  32.0745214  53.5989987   4.8694661  31.5999395  53.3454766   5.4401013
  30.9660089  35.3135578   2.3762077  30.1606053  35.2033308   2.6929915
  30.8366825  35.4148034   1.5191943  30.8280222  35.3119248   2.2970117
  34.4226050  41.4781070   2.9701774  33.8389039  41.9790276   2.5579341
  34.7430344  40.9710626   2.3366097  34.3839225  41.4772905   2.8160281
  25.5516181  38.3864427   4.0258878  26.0960594  38.0455554   4.6163219
  25.6053117  39.2449888   4.1680162  25.6405300  38.4619686   4.1340751
  21.3646740  52.1480843   0.8997685  21.9691597  52.1076677   0.2711506
  21.1574052  52.9951995   0.9301741  21.4235637  52.2668845   0.8113802
  31.1790512  54.4146788   2.1159923  31.9988886  54.2709754   2.3776218
  30.8984590  55.0392987   2.6576361  31.2587255  54.4857140   2.2347862
  32.0354008  62.4426700   2.6335944  31.9112705  63.0289145   3.2685763
  32.6872292  61.9486895   2.9348219  32.1127657  62.4565504   2.7721873
  35.4735216  62.3606121   8.0464968  35.6455720  62.2512016   8.8950250
  36.0104573  63.0060526   7.8096161  35.5780220  62.4398123   8.1370065
  41.4109917  70.2810372   9.9974045  42.1950334  70.3941220  10.3629787
  41.2106512  69.4551509  10.1932730  41.4975943  70.1757091  10.0808431
  34.5295539  58.4916430   5.5284896  33.8367336  58.0213410   5.7745628
  35.1455867  58.2654735   6.1026603  34.5180069  58.3883562   5.6494049
  33.2536098  62.4581834   6.6711741  33.9776070  62.4434865   7.1576636
  33.3552235  63.1677190   6.1733710  33.3754307  62.5606537   6.6690528
  40.6281048  65.9380919  11.5360688  39.8354028  66.2524431  11.7213308
  40.7429975  66.1532387  10.6981473  40.5276458  66.0164756  11.4399023
  39.5536560  60.2985500   3.8724456  39.1650993  59.8739717   3.2176647
  38.8891258  60.5467649   4.3801482  39.3983488  60.2724221   3.8512324
  43.3762921  53.9960128   1.3848440  43.7573433  53.3138299   1.7716314
  42.5726206  53.7069730   1.2024104  43.3139383  53.8527177   1.4152496
  37.3354762  56.5014327  11.2511048  37.0208203  57.2713889  10.9880611
  37.0144694  55.9384583  10.6663275  37.2413681  56.5324595  11.1252398
  44.0119547  55.0382707   5.1968566  44.7573139  54.8492518   4.7831992
  43.5956852  55.5640945   4.6382423  44.0604522  55.0884853   5.0533140
  36.9671267  59.1011578   9.9896263  36.1571043  59.4069357   9.8786105
  37.4445954  59.8217160  10.1048847  36.9174746  59.2526179   9.9903334
  33.3015299  64.6374128   4.8595665  33.8136396  64.9158381   4.2104425
  33.0151642  65.3763422   5.2258478  33.3350162  64.7876482   4.8185543
  36.8199024  56.7300517   4.9196707  36.6282221  56.7455651   5.7696131
  37.6697620  56.9264191   4.8963362  36.9174746  56.7614868   5.0420002
  31.2045937  59.2591498   2.8980523  31.0631429  58.4075439   3.0225031
  31.4886501  59.3020159   2.0742730  31.2253784  59.1391248   2.7948148
  37.3181557  63.8315307   6.4547995  37.4624933  64.4116515   5.8191105
  37.6657206  64.2091603   7.1597849  37.3909018  63.9736011   6.4646990
  39.7303251  56.9256026   5.1268530  40.1875866  57.6580000   5.2541322
  39.8059580  56.5022491   5.8855786  39.8094221  56.9713264   5.2569607
  31.9736243  57.1721846   6.2157974  31.4378432  56.5602204   6.5318741
  32.0354007  57.7469982   6.8691640  31.9031875  57.1668773   6.3593401
  37.6085629  58.9158130   1.9710354  36.8181704  58.7349590   2.2927690
  38.0046252  58.1385082   1.9540649  37.5502506  58.7745591   2.0162903
  40.1223460  61.3918389   6.4533853  40.0582601  62.2528345   6.3253990
  40.2620647  61.0750382   5.6529404  40.1338930  61.4718556   6.3162066
  44.5021251  68.1663111  12.0098304  45.3156116  67.8948259  12.1703436
  44.3416217  67.8670651  11.2058500  44.5991199  68.0818037  11.9143710
  41.7793413  58.8496768   4.9493692  41.9935382  58.2107682   4.3957046
  41.1627312  59.2942592   4.5201554  41.7198742  58.8206911   4.8044123
  43.9432501  60.4585833   5.8876999  43.1309182  60.1511723   5.9690172
  44.4022435  59.9784833   6.4519712  43.8912885  60.3422325   5.9831593
  41.0386008  61.8645904  10.6705702  41.5085639  62.4888021  11.0573576
  41.0847888  61.1962880  11.2298916  41.1153884  61.8580585  10.8105773
  38.1957282  53.9702932   1.3954505  37.6795770  53.2783123   1.5206084
  37.6351211  54.6373709   1.3417104  38.0363795  53.9666190   1.4060571
  40.2649515  54.5095892   3.2247358  39.8781268  54.5344923   4.0060888
  39.7782452  53.9437571   2.7721875  40.1362024  54.4291643   3.2735262
  39.9306657  51.3962877   5.5157618  40.5599775  51.9323177   5.2378688
  40.0992520  51.3040236   6.3671184  40.0484451  51.4624240   5.6006146
  39.7320572  56.1834072   7.7884029  40.5594001  55.9119221   7.8442644
  39.7528418  56.9794914   8.1447848  39.8573422  56.2613826   7.8499212
  34.5959492  56.8843695   3.0613941  35.0560974  56.9582624   3.7989064
  34.6415599  57.6824949   2.7113762  34.6710048  57.0137842   3.1186697
  36.2442842  57.5510390   7.6285968  35.8528407  56.9043737   8.0641746
  36.4128705  58.1421825   8.2480223  36.2113752  57.5424658   7.7848674
  31.3847270  60.5132886   5.4365657  32.2472883  60.4128595   5.3502987
  31.0539053  59.9327595   4.8751229  31.4632466  60.4124512   5.3411063
  34.7449056  59.3375335   2.0976075  34.1202126  59.3493727   1.4902028
  34.4094651  59.8135510   2.7467315  34.6034548  59.4093852   2.1032644
  34.0139801  60.9468482   4.3150944  34.1733288  60.1911807   4.7202665
  33.8332695  61.4959422   4.9691681  34.0105160  60.9162296   4.4713650
  41.9560104  53.1129718   4.8701733  41.4600666  53.3093392   4.1793300
  42.7129166  53.5122386   4.6990535  41.9946929  53.2007452   4.7421870
  35.5064306  55.5142882   0.8410788  35.5462678  56.0152089   1.5545495
  34.6813971  55.6053276   0.5716711  35.3903832  55.6024698   0.9061326
  37.6893919  65.0803622   8.9431082  36.8389550  65.2175336   9.0788727
  37.8522047  64.3467400   9.3878784  37.5877783  64.9917723   9.0286682
  34.7362453  55.5212285   8.7741098  35.3615156  54.9774418   9.0470530
  34.2812933  55.0407202   8.2048888  34.7610713  55.3701766   8.7302691
  42.3053074  56.4912264   3.3336302  42.7308145  56.0384790   2.7219829
  41.6910067  55.9372335   3.6101090  42.2781719  56.3426240   3.2841328
  41.4404366  67.2265235   8.9480580  41.4000221  66.5814912   8.3625736
  42.2527684  67.1701852   9.2605992  41.5547520  67.1224202   8.9077529
  37.1282075  60.8562171   5.5030338  36.6160978  60.2483354   5.8615369
  36.9561571  61.5718764   5.9704314  37.0271712  60.8725471   5.6246561
  31.9747790  59.2999747   8.1532700  31.8050380  59.9601121   7.6080906
  31.5313739  59.5106308   8.8745189  31.8847123  59.4285729   8.1794329
  41.0051145  58.7786416   7.9432593  41.5622575  58.5500225   7.3111059
  40.6812210  59.5392082   7.6667806  41.0397555  58.8570253   7.8089090
  28.8749854  62.2046612   3.4121189  28.3276573  61.5347258   3.5302058
  29.6642232  61.8376460   3.4764657  28.9102038  62.0511599   3.4389890
  38.7234262  61.8654069   8.9084600  39.4745589  62.1805746   9.2224155
  38.9156839  61.6633240   8.0818522  38.8625677  61.8821451   8.8327996
  27.6336824  61.4167420   0.5667212  27.4558585  60.9644029   1.2922128
  27.3455846  62.2193581   0.7505690  27.5649777  61.4689978   0.7010715
  38.8660318  53.9090560   5.7780984  38.9988223  53.1121553   6.1061959
  39.2505471  54.4356963   6.3579259  38.9416647  53.8690476   5.9124487
  41.9392673  50.8320886   2.3762077  41.1338637  50.7218615   2.6929915
  41.8099409  50.9333342   1.5191943  41.8012806  50.8304556   2.2970117
  36.5248765  53.9049735   4.0258878  37.0693178  53.5640862   4.6163219
  36.5785700  54.7635196   4.1680162  36.6137884  53.9804994   4.1340751
  35.1686040  39.2984252  -5.0194985  35.3406544  39.1890147  -4.1709703
  35.7055397  39.9438658  -5.2563792  35.2731044  39.3776254  -4.9289888
  41.1060741  47.2188503  -3.0685909  41.8901158  47.3319351  -2.7030167
  40.9057336  46.3929640  -2.8727223  41.1926767  47.1135223  -2.9851523
  40.3231871  42.8759050  -1.5299265  39.5304852  43.1902562  -1.3446645
  40.4380799  43.0910519  -2.3678480  40.2227282  42.9542887  -1.6260930
  37.0305586  33.4392458  -1.8148905  36.7159027  34.2092020  -2.0779342
  36.7095518  32.8762714  -2.3996678  36.9364505  33.4702726  -1.9407555
  36.6622091  36.0389709  -3.0763690  35.8521867  36.3447488  -3.1873848
  37.1396778  36.7595291  -2.9611106  36.6125570  36.1904310  -3.0756619
  37.0132381  40.7693438  -6.6111958  37.1575757  41.3494646  -7.2468848
  37.3608030  41.1469735  -5.9062104  37.0859842  40.9114142  -6.6012963
  39.8174284  38.3296520  -6.6126100  39.7533425  39.1906477  -6.7405963
  39.9571471  38.0128513  -7.4130549  39.8289754  38.4096687  -6.7497887
  44.1972075  45.1041242  -1.0561649  45.0106940  44.8326391  -0.8956517
  44.0367041  44.8048782  -1.8601453  44.2942023  45.0196168  -1.1516243
  43.6383324  37.3963964  -7.1782954  42.8260006  37.0889855  -7.0969781
  44.0973259  36.9162964  -6.6140242  43.5863709  37.2800457  -7.0828360
  40.7336832  38.8024036  -2.3954252  41.2036463  39.4266152  -2.0086377
  40.7798712  38.1341011  -1.8361037  40.8104708  38.7958716  -2.2554180
  37.3844743  42.0181753  -4.1228871  36.5340374  42.1553468  -3.9871226
  37.5472871  41.2845532  -3.6781169  37.2828607  41.9295855  -4.0373272
  41.1355190  44.1643366  -4.1179373  41.0951045  43.5193043  -4.7034217
  41.9478508  44.1079983  -3.8053961  41.2498344  44.0602333  -4.1582424
  40.7001969  35.7164547  -5.1227360  41.2573399  35.4878357  -5.7548894
  40.3763034  36.4770213  -5.3992148  40.7348379  35.7948384  -5.2570863
  38.4185086  38.8032200  -4.1575353  39.1696413  39.1183877  -3.8435799
  38.6107663  38.6011371  -4.9841431  38.5576501  38.8199582  -4.2331957
  79.2104711  79.2104711  79.2104711 109.4712190 109.4712190 109.4712190
